generated by VMD, t= 0.000000
57376
    1XTA     NT    1  26.988  -1.862  -0.085
    1XTA    CN1    2  27.093  -1.921  -0.154
    1XTA     C1    3  27.131  -1.889  -0.289
    1XTA     C2    4  27.231  -1.964  -0.353
    1XTA     C3    5  27.298  -2.067  -0.284
    1XTA     C4    6  27.269  -2.093  -0.146
    1XTA     C5    7  27.158  -2.027  -0.090
    1XTA    CN2    8  27.003  -1.815   0.046
    1XTA     C6    9  27.100  -1.712   0.068
    1XTA     C7   10  27.108  -1.649   0.195
    1XTA     C8   11  27.019  -1.691   0.295
    1XTA     C9   12  26.943  -1.803   0.278
    1XTA    C10   13  26.925  -1.863   0.148
    1XTA    CN3   14  26.864  -1.878  -0.135
    1XTA    C11   15  26.795  -1.769  -0.188
    1XTA    C12   16  26.663  -1.785  -0.226
    1XTA    C13   17  26.601  -1.912  -0.233
    1XTA    C14   18  26.675  -2.022  -0.198
    1XTA    C15   19  26.808  -2.005  -0.152
    1XTA     H1   20  27.076  -1.813  -0.343
    1XTA     H2   21  27.268  -1.924  -0.449
    1XTA     H3   22  27.321  -2.163  -0.083
    1XTA     H4   23  27.132  -2.045   0.013
    1XTA     H5   24  27.166  -1.677  -0.012
    1XTA     H6   25  27.181  -1.577   0.229
    1XTA     H7   26  26.877  -1.843   0.359
    1XTA     H8   27  26.859  -1.941   0.122
    1XTA     H9   28  26.827  -1.671  -0.178
    1XTA    H10   29  26.612  -1.694  -0.257
    1XTA    H11   30  26.624  -2.117  -0.206
    1XTA    H12   31  26.870  -2.089  -0.123
    1XTA    OA1   32  27.390  -2.154  -0.332
    1XTA    CO1   33  27.413  -2.154  -0.471
    1XTA    OA2   34  27.015  -1.607   0.406
    1XTA    CO2   35  26.902  -1.626   0.483
    1XTA    CL1   36  26.900  -1.515   0.597
    1XTA    CL2   37  26.767  -1.457   0.638
    1XTA    CL3   38  26.798  -1.337   0.728
    1XTA    CL4   39  26.673  -1.259   0.761
    1XTA    CO3   40  26.571  -1.346   0.839
    1XTA    OA3   41  26.480  -1.398   0.741
    1XTA    CO4   42  26.372  -1.480   0.791
    1XTA    CT1   43  26.302  -1.534   0.668
    1XTA    CL5   44  26.177  -1.609   0.710
    1XTA    CL6   45  26.195  -1.714   0.813
    1XTA    OA4   46  26.469  -1.942  -0.273
    1XTA    CO5   47  26.395  -1.827  -0.294
    1XTA    CL7   48  26.246  -1.854  -0.286
    1XTA    CL8   49  26.199  -1.902  -0.147
    1XTA    CL9   50  26.090  -1.816  -0.092
    1XTA   CL10   51  26.141  -1.680  -0.052
    1XTA    CO6   52  26.052  -1.599   0.036
    1XTA    OA5   53  26.137  -1.510   0.112
    1XTA    CO7   54  26.051  -1.446   0.212
    1XTA    CT2   55  26.121  -1.315   0.261
    1XTA   CL11   56  26.011  -1.225   0.324
    1XTA   CL12   57  25.908  -1.168   0.229
    1XTA    HL1   58  27.455  -2.052  -0.503
    1XTA    HL2   59  27.475  -2.231  -0.508
    1XTA    HL3   60  27.319  -2.177  -0.525
    1XTA    HL4   61  26.804  -1.638   0.438
    1XTA    HL5   62  26.912  -1.716   0.543
    1XTA    HL6   63  26.967  -1.437   0.564
    1XTA    HL7   64  26.951  -1.560   0.683
    1XTA    HL8   65  26.707  -1.532   0.694
    1XTA    HL9   66  26.708  -1.420   0.552
    1XTA   HL10   67  26.832  -1.379   0.827
    1XTA   HL11   68  26.862  -1.256   0.692
    1XTA   HL12   69  26.634  -1.220   0.669
    1XTA   HL13   70  26.704  -1.172   0.821
    1XTA   HL14   71  26.621  -1.414   0.900
    1XTA   HL15   72  26.517  -1.270   0.896
    1XTA   HL16   73  26.414  -1.569   0.839
    1XTA   HL17   74  26.308  -1.423   0.868
    1XTA   HL18   75  26.110  -1.644   0.637
    1XTA   HL19   76  26.124  -1.524   0.753
    1XTA   HL20   77  26.250  -1.801   0.779
    1XTA   HL21   78  26.094  -1.741   0.847
    1XTA   HL22   79  26.245  -1.670   0.904
    1XTA   HL23   80  26.427  -1.782  -0.391
    1XTA   HL24   81  26.420  -1.750  -0.223
    1XTA   HL25   82  26.201  -1.764  -0.312
    1XTA   HL26   83  26.215  -1.933  -0.360
    1XTA   HL27   84  26.161  -2.002  -0.158
    1XTA   HL28   85  26.278  -1.913  -0.075
    1XTA   HL29   86  26.014  -1.794  -0.176
    1XTA   HL30   87  26.040  -1.865  -0.008
    1XTA   HL31   88  26.233  -1.683   0.005
    1XTA   HL32   89  26.146  -1.617  -0.137
    1XTA   HL33   90  25.975  -1.550  -0.022
    1XTA   HL34   91  26.005  -1.678   0.102
    1XTA   HL35   92  26.028  -1.514   0.300
    1XTA   HL36   93  25.968  -1.420   0.155
    1XTA   HL37   94  26.063  -1.151   0.379
    1XTA   HL38   95  25.960  -1.286   0.402
    1XTA   HL39   96  25.842  -1.097   0.291
    1XTA   HL40   97  25.860  -1.254   0.192
    1XTA   HL41   98  25.949  -1.127   0.133
    1XTA    CO8   99  26.397  -1.632   0.590
    1XTA    CO9  100  26.258  -1.418   0.573
    1XTA    OA6  101  26.217  -1.442   0.478
    1XTA   HL42  102  26.456  -1.698   0.653
    1XTA   HL43  103  26.489  -1.553   0.516
    1XTA   HL44  104  26.272  -1.294   0.105
    1XTA   HL45  105  26.121  -1.218   0.056
    1XTA   CO10  106  26.190  -1.232   0.139
    1XTA   CO11  107  26.236  -1.347   0.371
    1XTA    OA7  108  26.252  -1.123   0.199
    1XTA   HL46  109  26.264  -1.249   0.401
    1XTA   HL47  110  26.313  -1.387   0.310
    1XTA   HL48  111  26.342  -1.362   0.564
    1XTA   HL49  112  26.172  -1.357   0.607
    1XTA     NT  113  23.736  -1.160   3.076
    1XTA    CN1  114  23.714  -1.275   3.152
    1XTA     C1  115  23.588  -1.336   3.146
    1XTA     C2  116  23.558  -1.451   3.221
    1XTA     C3  117  23.648  -1.498   3.318
    1XTA     C4  118  23.776  -1.439   3.324
    1XTA     C5  119  23.809  -1.333   3.239
    1XTA    CN2  120  23.668  -1.049   3.095
    1XTA     C6  121  23.624  -0.993   3.222
    1XTA     C7  122  23.538  -0.884   3.236
    1XTA     C8  123  23.502  -0.820   3.115
    1XTA     C9  124  23.540  -0.875   2.989
    1XTA    C10  125  23.621  -0.986   2.979
    1XTA    CN3  126  23.848  -1.156   2.995
    1XTA    C11  127  23.949  -1.059   3.021
    1XTA    C12  128  24.058  -1.036   2.935
    1XTA    C13  129  24.068  -1.110   2.814
    1XTA    C14  130  23.959  -1.205   2.786
    1XTA    C15  131  23.855  -1.229   2.876
    1XTA     H1  132  23.509  -1.297   3.080
    1XTA     H2  133  23.461  -1.496   3.216
    1XTA     H3  134  23.849  -1.478   3.397
    1XTA     H4  135  23.891  -1.276   3.270
    1XTA     H5  136  23.633  -1.045   3.316
    1XTA     H6  137  23.519  -0.846   3.333
    1XTA     H7  138  23.504  -0.814   2.900
    1XTA     H8  139  23.643  -1.017   2.885
    1XTA     H9  140  23.942  -0.995   3.113
    1XTA    H10  141  24.127  -0.957   2.953
    1XTA    H11  142  23.971  -1.265   2.701
    1XTA    H12  143  23.776  -1.305   2.850
    1XTA    OA1  144  23.624  -1.595   3.413
    1XTA    CO1  145  23.498  -1.660   3.420
    1XTA    OA2  146  23.430  -0.705   3.122
    1XTA    CO2  147  23.512  -0.593   3.111
    1XTA    CL1  148  23.451  -0.508   2.999
    1XTA    CL2  149  23.545  -0.398   2.951
    1XTA    CL3  150  23.485  -0.302   2.841
    1XTA    CL4  151  23.383  -0.219   2.904
    1XTA    CO3  152  23.297  -0.130   2.814
    1XTA    OA3  153  23.389  -0.077   2.715
    1XTA    CO4  154  23.362   0.053   2.671
    1XTA    CT1  155  23.492   0.116   2.618
    1XTA    CL5  156  23.597   0.108   2.730
    1XTA    CL6  157  23.749   0.127   2.685
    1XTA    OA4  158  24.161  -1.070   2.715
    1XTA    CO5  159  24.159  -1.146   2.594
    1XTA    CL7  160  24.243  -1.060   2.499
    1XTA    CL8  161  24.320  -1.157   2.401
    1XTA    CL9  162  24.443  -1.219   2.465
    1XTA   CL10  163  24.502  -1.317   2.374
    1XTA    CO6  164  24.621  -1.394   2.432
    1XTA    OA5  165  24.723  -1.309   2.469
    1XTA    CO7  166  24.761  -1.217   2.372
    1XTA    CT2  167  24.899  -1.167   2.415
    1XTA   CL11  168  24.896  -1.098   2.557
    1XTA   CL12  169  24.767  -1.021   2.599
    1XTA    HL1  170  23.463  -1.685   3.318
    1XTA    HL2  171  23.507  -1.747   3.486
    1XTA    HL3  172  23.430  -1.583   3.464
    1XTA    HL4  173  23.541  -0.545   3.213
    1XTA    HL5  174  23.614  -0.617   3.079
    1XTA    HL6  175  23.349  -0.480   3.029
    1XTA    HL7  176  23.437  -0.575   2.917
    1XTA    HL8  177  23.642  -0.441   2.911
    1XTA    HL9  178  23.568  -0.327   3.038
    1XTA   HL10  179  23.562  -0.235   2.802
    1XTA   HL11  180  23.450  -0.363   2.757
    1XTA   HL12  181  23.422  -0.151   2.973
    1XTA   HL13  182  23.320  -0.280   2.959
    1XTA   HL14  183  23.228  -0.183   2.750
    1XTA   HL15  184  23.254  -0.054   2.884
    1XTA   HL16  185  23.294   0.054   2.584
    1XTA   HL17  186  23.318   0.116   2.753
    1XTA   HL18  187  23.584   0.024   2.794
    1XTA   HL19  188  23.556   0.186   2.792
    1XTA   HL20  189  23.814   0.105   2.772
    1XTA   HL21  190  23.783   0.226   2.644
    1XTA   HL22  191  23.783   0.059   2.614
    1XTA   HL23  192  24.054  -1.150   2.564
    1XTA   HL24  193  24.197  -1.253   2.610
    1XTA   HL25  194  24.173  -0.995   2.445
    1XTA   HL26  195  24.312  -0.991   2.539
    1XTA   HL27  196  24.260  -1.230   2.355
    1XTA   HL28  197  24.353  -1.090   2.320
    1XTA   HL29  198  24.511  -1.134   2.489
    1XTA   HL30  199  24.410  -1.259   2.562
    1XTA   HL31  200  24.423  -1.393   2.344
    1XTA   HL32  201  24.526  -1.272   2.275
    1XTA   HL33  202  24.584  -1.470   2.508
    1XTA   HL34  203  24.651  -1.467   2.355
    1XTA   HL35  204  24.692  -1.135   2.351
    1XTA   HL36  205  24.760  -1.278   2.283
    1XTA   HL37  206  24.970  -1.020   2.543
    1XTA   HL38  207  24.908  -1.171   2.629
    1XTA   HL39  208  24.726  -0.951   2.519
    1XTA   HL40  209  24.794  -0.964   2.692
    1XTA   HL41  210  24.676  -1.074   2.626
    1XTA    CO8  211  23.457   0.265   2.577
    1XTA    CO9  212  23.538   0.026   2.495
    1XTA    OA6  213  23.631   0.097   2.409
    1XTA   HL42  214  23.385   0.279   2.493
    1XTA   HL43  215  23.548   0.324   2.552
    1XTA   HL44  216  24.924  -1.129   2.205
    1XTA   HL45  217  24.873  -0.982   2.293
    1XTA   CO10  218  24.938  -1.076   2.298
    1XTA   CO11  219  25.002  -1.286   2.410
    1XTA    OA7  220  25.042  -1.033   2.296
    1XTA   HL46  221  24.973  -1.385   2.512
    1XTA   HL47  222  25.101  -1.249   2.442
    1XTA   HL48  223  23.452  -0.002   2.423
    1XTA   HL49  224  23.588  -0.067   2.528
    1XTA     NT  225  24.943  -0.141   6.072
    1XTA    CN1  226  24.951  -0.077   5.954
    1XTA     C1  227  24.841  -0.073   5.869
    1XTA     C2  228  24.832   0.011   5.754
    1XTA     C3  229  24.947   0.091   5.723
    1XTA     C4  230  25.060   0.079   5.806
    1XTA     C5  231  25.069  -0.011   5.909
    1XTA    CN2  232  24.855  -0.096   6.160
    1XTA     C6  233  24.895   0.013   6.233
    1XTA     C7  234  24.821   0.058   6.340
    1XTA     C8  235  24.696   0.004   6.369
    1XTA     C9  236  24.645  -0.091   6.276
    1XTA    C10  237  24.726  -0.150   6.177
    1XTA    CN3  238  25.047  -0.225   6.114
    1XTA    C11  239  25.072  -0.346   6.046
    1XTA    C12  240  25.178  -0.431   6.086
    1XTA    C13  241  25.259  -0.395   6.197
    1XTA    C14  242  25.230  -0.279   6.267
    1XTA    C15  243  25.130  -0.188   6.223
    1XTA     H1  244  24.746  -0.122   5.885
    1XTA     H2  245  24.747   0.012   5.684
    1XTA     H3  246  25.152   0.132   5.771
    1XTA     H4  247  25.167  -0.023   5.954
    1XTA     H5  248  24.984   0.073   6.211
    1XTA     H6  249  24.864   0.140   6.393
    1XTA     H7  250  24.544  -0.120   6.284
    1XTA     H8  251  24.692  -0.234   6.124
    1XTA     H9  252  25.023  -0.365   5.954
    1XTA    H10  253  25.219  -0.513   6.027
    1XTA    H11  254  25.284  -0.258   6.351
    1XTA    H12  255  25.115  -0.101   6.278
    1XTA    OA1  256  24.941   0.165   5.608
    1XTA    CO1  257  25.052   0.139   5.521
    1XTA    OA2  258  24.620   0.064   6.461
    1XTA    CO2  259  24.604  -0.021   6.570
    1XTA    CL1  260  24.656   0.041   6.699
    1XTA    CL2  261  24.585   0.002   6.826
    1XTA    CL3  262  24.608  -0.144   6.868
    1XTA    CL4  263  24.495  -0.232   6.810
    1XTA    CO3  264  24.507  -0.381   6.866
    1XTA    OA3  265  24.406  -0.459   6.804
    1XTA    CO4  266  24.270  -0.429   6.846
    1XTA    CT1  267  24.156  -0.500   6.765
    1XTA    CL5  268  24.183  -0.480   6.615
    1XTA    CL6  269  24.092  -0.554   6.513
    1XTA    OA4  270  25.367  -0.465   6.235
    1XTA    CO5  271  25.354  -0.604   6.263
    1XTA    CL7  272  25.373  -0.654   6.414
    1XTA    CL8  273  25.261  -0.615   6.515
    1XTA    CL9  274  25.272  -0.468   6.557
    1XTA   CL10  275  25.320  -0.435   6.699
    1XTA    CO6  276  25.290  -0.291   6.737
    1XTA    OA5  277  25.374  -0.212   6.656
    1XTA    CO7  278  25.415  -0.090   6.710
    1XTA    CT2  279  25.494  -0.008   6.611
    1XTA   CL11  280  25.489   0.144   6.637
    1XTA   CL12  281  25.564   0.193   6.763
    1XTA    HL1  282  25.070   0.033   5.513
    1XTA    HL2  283  25.031   0.185   5.420
    1XTA    HL3  284  25.147   0.178   5.547
    1XTA    HL4  285  24.489  -0.038   6.574
    1XTA    HL5  286  24.647  -0.115   6.549
    1XTA    HL6  287  24.643   0.151   6.695
    1XTA    HL7  288  24.769   0.022   6.707
    1XTA    HL8  289  24.485   0.039   6.825
    1XTA    HL9  290  24.622   0.070   6.901
    1XTA   HL10  291  24.698  -0.189   6.839
    1XTA   HL11  292  24.588  -0.153   6.969
    1XTA   HL12  293  24.491  -0.242   6.696
    1XTA   HL13  294  24.402  -0.186   6.836
    1XTA   HL14  295  24.607  -0.430   6.853
    1XTA   HL15  296  24.502  -0.371   6.980
    1XTA   HL16  297  24.255  -0.457   6.948
    1XTA   HL17  298  24.251  -0.320   6.840
    1XTA   HL18  299  24.282  -0.504   6.595
    1XTA   HL19  300  24.186  -0.367   6.594
    1XTA   HL20  301  23.991  -0.570   6.550
    1XTA   HL21  302  24.139  -0.651   6.493
    1XTA   HL22  303  24.088  -0.498   6.415
    1XTA   HL23  304  25.437  -0.639   6.196
    1XTA   HL24  305  25.264  -0.642   6.215
    1XTA   HL25  306  25.380  -0.764   6.412
    1XTA   HL26  307  25.464  -0.608   6.455
    1XTA   HL27  308  25.172  -0.634   6.458
    1XTA   HL28  309  25.256  -0.694   6.595
    1XTA   HL29  310  25.331  -0.411   6.485
    1XTA   HL30  311  25.169  -0.416   6.539
    1XTA   HL31  312  25.257  -0.486   6.771
    1XTA   HL32  313  25.425  -0.464   6.703
    1XTA   HL33  314  25.184  -0.269   6.733
    1XTA   HL34  315  25.322  -0.276   6.839
    1XTA   HL35  316  25.476  -0.110   6.796
    1XTA   HL36  317  25.331  -0.030   6.750
    1XTA   HL37  318  25.385   0.173   6.634
    1XTA   HL38  319  25.547   0.191   6.558
    1XTA   HL39  320  25.590   0.301   6.757
    1XTA   HL40  321  25.660   0.147   6.778
    1XTA   HL41  322  25.513   0.170   6.855
    1XTA    CO8  323  24.021  -0.447   6.822
    1XTA    CO9  324  24.166  -0.646   6.794
    1XTA    OA6  325  24.132  -0.672   6.898
    1XTA   HL42  326  24.037  -0.341   6.852
    1XTA   HL43  327  24.007  -0.497   6.954
    1XTA   HL44  328  25.466  -0.149   6.439
    1XTA   HL45  329  25.333  -0.052   6.474
    1XTA   CO10  330  25.436  -0.049   6.475
    1XTA   CO11  331  25.643  -0.052   6.610
    1XTA    OA7  332  25.689  -0.065   6.745
    1XTA   HL46  333  25.656  -0.152   6.568
    1XTA   HL47  334  25.698   0.029   6.571
    1XTA   HL48  335  24.270  -0.672   6.783
    1XTA   HL49  336  24.112  -0.711   6.727
    1XTA     NT  337  24.614  -1.395   1.112
    1XTA    CN1  338  24.517  -1.474   1.054
    1XTA     C1  339  24.540  -1.601   0.992
    1XTA     C2  340  24.431  -1.659   0.929
    1XTA     C3  341  24.308  -1.597   0.920
    1XTA     C4  342  24.283  -1.474   0.988
    1XTA     C5  343  24.392  -1.410   1.051
    1XTA    CN2  344  24.713  -1.448   1.188
    1XTA     C6  345  24.681  -1.532   1.295
    1XTA     C7  346  24.777  -1.588   1.385
    1XTA     C8  347  24.911  -1.555   1.363
    1XTA     C9  348  24.938  -1.466   1.263
    1XTA    C10  349  24.844  -1.413   1.169
    1XTA    CN3  350  24.639  -1.267   1.068
    1XTA    C11  351  24.685  -1.244   0.938
    1XTA    C12  352  24.688  -1.115   0.886
    1XTA    C13  353  24.658  -1.008   0.969
    1XTA    C14  354  24.625  -1.026   1.100
    1XTA    C15  355  24.615  -1.156   1.152
    1XTA     H1  356  24.630  -1.655   1.017
    1XTA     H2  357  24.445  -1.754   0.874
    1XTA     H3  358  24.188  -1.419   0.980
    1XTA     H4  359  24.373  -1.317   1.098
    1XTA     H5  360  24.579  -1.556   1.309
    1XTA     H6  361  24.745  -1.663   1.446
    1XTA     H7  362  25.041  -1.440   1.239
    1XTA     H8  363  24.861  -1.347   1.084
    1XTA     H9  364  24.699  -1.335   0.878
    1XTA    H10  365  24.720  -1.112   0.777
    1XTA    H11  366  24.615  -0.932   1.157
    1XTA    H12  367  24.593  -1.177   1.257
    1XTA    OA1  368  24.217  -1.664   0.843
    1XTA    CO1  369  24.089  -1.603   0.814
    1XTA    OA2  370  25.016  -1.599   1.447
    1XTA    CO2  371  24.984  -1.633   1.591
    1XTA    CL1  372  25.105  -1.697   1.652
    1XTA    CL2  373  25.084  -1.724   1.799
    1XTA    CL3  374  25.199  -1.813   1.850
    1XTA    CL4  375  25.158  -1.894   1.965
    1XTA    CO3  376  25.279  -1.959   2.031
    1XTA    OA3  377  25.239  -2.016   2.149
    1XTA    CO4  378  25.344  -2.058   2.233
    1XTA    CT1  379  25.319  -2.041   2.387
    1XTA    CL5  380  25.281  -1.890   2.421
    1XTA    CL6  381  25.160  -1.837   2.351
    1XTA    OA4  382  24.672  -0.882   0.917
    1XTA    CO5  383  24.575  -0.855   0.818
    1XTA    CL7  384  24.531  -0.706   0.799
    1XTA    CL8  385  24.427  -0.695   0.687
    1XTA    CL9  386  24.370  -0.560   0.662
    1XTA   CL10  387  24.279  -0.524   0.777
    1XTA    CO6  388  24.224  -0.386   0.768
    1XTA    OA5  389  24.187  -0.358   0.899
    1XTA    CO7  390  24.102  -0.235   0.901
    1XTA    CT2  391  24.116  -0.167   1.035
    1XTA   CL11  392  24.264  -0.169   1.078
    1XTA   CL12  393  24.353  -0.070   0.998
    1XTA    HL1  394  24.027  -1.598   0.906
    1XTA    HL2  395  24.102  -1.508   0.764
    1XTA    HL3  396  24.046  -1.668   0.738
    1XTA    HL4  397  24.940  -1.547   1.652
    1XTA    HL5  398  24.907  -1.723   1.591
    1XTA    HL6  399  25.198  -1.638   1.645
    1XTA    HL7  400  25.121  -1.794   1.598
    1XTA    HL8  401  24.989  -1.755   1.824
    1XTA    HL9  402  25.099  -1.632   1.850
    1XTA   HL10  403  25.240  -1.878   1.767
    1XTA   HL11  404  25.286  -1.753   1.868
    1XTA   HL12  405  25.097  -1.973   1.920
    1XTA   HL13  406  25.094  -1.830   2.025
    1XTA   HL14  407  25.325  -2.033   1.964
    1XTA   HL15  408  25.357  -1.886   2.051
    1XTA   HL16  409  25.368  -2.163   2.209
    1XTA   HL17  410  25.439  -2.016   2.213
    1XTA   HL18  411  25.366  -1.831   2.402
    1XTA   HL19  412  25.257  -1.883   2.525
    1XTA   HL20  413  25.198  -1.804   2.258
    1XTA   HL21  414  25.113  -1.753   2.399
    1XTA   HL22  415  25.079  -1.906   2.329
    1XTA   HL23  416  24.484  -0.922   0.825
    1XTA   HL24  417  24.620  -0.887   0.727
    1XTA   HL25  418  24.497  -0.665   0.892
    1XTA   HL26  419  24.617  -0.644   0.777
    1XTA   HL27  420  24.473  -0.718   0.591
    1XTA   HL28  421  24.355  -0.769   0.699
    1XTA   HL29  422  24.449  -0.485   0.659
    1XTA   HL30  423  24.316  -0.561   0.574
    1XTA   HL31  424  24.195  -0.594   0.793
    1XTA   HL32  425  24.324  -0.532   0.872
    1XTA   HL33  426  24.288  -0.305   0.747
    1XTA   HL34  427  24.146  -0.390   0.697
    1XTA   HL35  428  24.000  -0.258   0.865
    1XTA   HL36  429  24.131  -0.158   0.828
    1XTA   HL37  430  24.299  -0.270   1.086
    1XTA   HL38  431  24.267  -0.133   1.180
    1XTA   HL39  432  24.338  -0.089   0.892
    1XTA   HL40  433  24.453  -0.068   1.042
    1XTA   HL41  434  24.315   0.031   1.007
    1XTA    CO8  435  25.450  -2.083   2.456
    1XTA    CO9  436  25.203  -2.139   2.434
    1XTA    OA6  437  25.535  -2.011   2.446
    1XTA   HL42  438  25.485  -2.176   2.425
    1XTA   HL43  439  25.430  -2.100   2.569
    1XTA   HL44  440  23.947  -0.271   1.089
    1XTA   HL45  441  24.085  -0.361   1.125
    1XTA   CO10  442  24.042  -0.258   1.133
    1XTA   CO11  443  24.043  -0.029   1.038
    1XTA    OA7  444  24.059  -0.228   1.271
    1XTA   HL46  445  24.057   0.029   1.131
    1XTA   HL47  446  23.938  -0.051   1.046
    1XTA   HL48  447  25.085  -2.124   2.362
    1XTA   HL49  448  25.241  -2.240   2.420
    1XTA     NT  449  24.993   2.511   0.529
    1XTA    CN1  450  24.948   2.407   0.453
    1XTA     C1  451  24.936   2.422   0.314
    1XTA     C2  452  24.888   2.318   0.234
    1XTA     C3  453  24.826   2.207   0.288
    1XTA     C4  454  24.832   2.191   0.428
    1XTA     C5  455  24.891   2.296   0.509
    1XTA    CN2  456  25.089   2.491   0.628
    1XTA     C6  457  25.225   2.494   0.599
    1XTA     C7  458  25.321   2.512   0.702
    1XTA     C8  459  25.281   2.508   0.839
    1XTA     C9  460  25.143   2.496   0.869
    1XTA    C10  461  25.046   2.488   0.766
    1XTA    CN3  462  24.913   2.620   0.550
    1XTA    C11  463  24.781   2.600   0.593
    1XTA    C12  464  24.700   2.708   0.636
    1XTA    C13  465  24.750   2.835   0.626
    1XTA    C14  466  24.880   2.852   0.566
    1XTA    C15  467  24.963   2.746   0.525
    1XTA     H1  468  24.961   2.520   0.269
    1XTA     H2  469  24.875   2.326   0.126
    1XTA     H3  470  24.784   2.106   0.482
    1XTA     H4  471  24.895   2.281   0.615
    1XTA     H5  472  25.256   2.506   0.497
    1XTA     H6  473  25.414   2.543   0.669
    1XTA     H7  474  25.104   2.507   0.966
    1XTA     H8  475  24.935   2.469   0.796
    1XTA     H9  476  24.746   2.503   0.626
    1XTA    H10  477  24.607   2.682   0.680
    1XTA    H11  478  24.926   2.946   0.553
    1XTA    H12  479  25.064   2.764   0.491
    1XTA    OA1  480  24.770   2.104   0.219
    1XTA    CO1  481  24.753   2.123   0.082
    1XTA    OA2  482  25.378   2.545   0.931
    1XTA    CO2  483  25.337   2.638   1.030
    1XTA    CL1  484  25.318   2.780   0.969
    1XTA    CL2  485  25.217   2.860   1.053
    1XTA    CL3  486  25.184   2.996   0.991
    1XTA    CL4  487  25.064   2.980   0.888
    1XTA    CO3  488  25.014   3.100   0.809
    1XTA    OA3  489  25.061   3.112   0.678
    1XTA    CO4  490  25.175   3.191   0.665
    1XTA    CT1  491  25.215   3.223   0.517
    1XTA    CL5  492  25.304   3.352   0.534
    1XTA    CL6  493  25.350   3.415   0.406
    1XTA    OA4  494  24.672   2.937   0.668
    1XTA    CO5  495  24.698   3.071   0.614
    1XTA    CL7  496  24.578   3.155   0.662
    1XTA    CL8  497  24.608   3.202   0.809
    1XTA    CL9  498  24.711   3.312   0.820
    1XTA   CL10  499  24.647   3.451   0.821
    1XTA    CO6  500  24.751   3.562   0.815
    1XTA    OA5  501  24.845   3.541   0.716
    1XTA    CO7  502  24.787   3.564   0.587
    1XTA    CT2  503  24.891   3.538   0.478
    1XTA   CL11  504  24.814   3.555   0.349
    1XTA   CL12  505  24.694   3.461   0.326
    1XTA    HL1  506  24.845   2.146   0.022
    1XTA    HL2  507  24.725   2.024   0.033
    1XTA    HL3  508  24.683   2.205   0.052
    1XTA    HL4  509  25.246   2.600   1.082
    1XTA    HL5  510  25.412   2.637   1.109
    1XTA    HL6  511  25.289   2.767   0.862
    1XTA    HL7  512  25.413   2.835   0.968
    1XTA    HL8  513  25.265   2.868   1.151
    1XTA    HL9  514  25.128   2.796   1.061
    1XTA   HL10  515  25.168   3.075   1.069
    1XTA   HL11  516  25.272   3.030   0.932
    1XTA   HL12  517  24.979   2.953   0.958
    1XTA   HL13  518  25.074   2.895   0.823
    1XTA   HL14  519  24.912   3.079   0.790
    1XTA   HL15  520  25.032   3.197   0.868
    1XTA   HL16  521  25.148   3.277   0.718
    1XTA   HL17  522  25.258   3.151   0.723
    1XTA   HL18  523  25.390   3.331   0.598
    1XTA   HL19  524  25.253   3.430   0.578
    1XTA   HL20  525  25.278   3.459   0.346
    1XTA   HL21  526  25.401   3.347   0.340
    1XTA   HL22  527  25.420   3.494   0.448
    1XTA   HL23  528  24.704   3.068   0.506
    1XTA   HL24  529  24.790   3.119   0.635
    1XTA   HL25  530  24.564   3.249   0.600
    1XTA   HL26  531  24.488   3.091   0.645
    1XTA   HL27  532  24.509   3.228   0.856
    1XTA   HL28  533  24.640   3.115   0.863
    1XTA   HL29  534  24.766   3.292   0.917
    1XTA   HL30  535  24.781   3.299   0.735
    1XTA   HL31  536  24.573   3.463   0.740
    1XTA   HL32  537  24.592   3.455   0.917
    1XTA   HL33  538  24.706   3.656   0.789
    1XTA   HL34  539  24.793   3.579   0.911
    1XTA   HL35  540  24.754   3.668   0.579
    1XTA   HL36  541  24.703   3.492   0.572
    1XTA   HL37  542  24.884   3.556   0.264
    1XTA   HL38  543  24.787   3.655   0.335
    1XTA   HL39  544  24.640   3.486   0.232
    1XTA   HL40  545  24.622   3.464   0.401
    1XTA   HL41  546  24.718   3.354   0.330
    1XTA    CO8  547  25.097   3.246   0.422
    1XTA    CO9  548  25.299   3.107   0.459
    1XTA    OA6  549  25.321   3.128   0.322
    1XTA   HL42  550  25.140   3.254   0.324
    1XTA   HL43  551  25.046   3.151   0.419
    1XTA   HL44  552  25.016   3.397   0.574
    1XTA   HL45  553  24.867   3.330   0.527
    1XTA   CO10  554  24.947   3.396   0.492
    1XTA   CO11  555  25.010   3.639   0.489
    1XTA    OA7  556  25.003   3.358   0.403
    1XTA   HL46  557  25.121   3.584   0.552
    1XTA   HL47  558  25.037   3.671   0.390
    1XTA   HL48  559  25.258   3.012   0.490
    1XTA   HL49  560  25.403   3.124   0.499
    1XTA     NT  561  23.818   4.880   6.807
    1XTA    CN1  562  23.742   4.986   6.793
    1XTA     C1  563  23.660   5.044   6.896
    1XTA     C2  564  23.586   5.158   6.871
    1XTA     C3  565  23.577   5.216   6.738
    1XTA     C4  566  23.654   5.157   6.637
    1XTA     C5  567  23.741   5.050   6.666
    1XTA    CN2  568  23.945   4.883   6.764
    1XTA     C6  569  23.992   4.812   6.657
    1XTA     C7  570  24.129   4.821   6.612
    1XTA     C8  571  24.224   4.888   6.693
    1XTA     C9  572  24.169   4.961   6.802
    1XTA    C10  573  24.036   4.955   6.840
    1XTA    CN3  574  23.767   4.770   6.875
    1XTA    C11  575  23.651   4.715   6.819
    1XTA    C12  576  23.612   4.590   6.871
    1XTA    C13  577  23.677   4.524   6.971
    1XTA    C14  578  23.789   4.588   7.032
    1XTA    C15  579  23.840   4.709   6.976
    1XTA     H1  580  23.649   5.013   6.999
    1XTA     H2  581  23.527   5.192   6.954
    1XTA     H3  582  23.650   5.201   6.539
    1XTA     H4  583  23.800   5.012   6.583
    1XTA     H5  584  23.921   4.761   6.594
    1XTA     H6  585  24.157   4.781   6.519
    1XTA     H7  586  24.246   5.017   6.855
    1XTA     H8  587  24.003   4.998   6.925
    1XTA     H9  588  23.589   4.753   6.742
    1XTA    H10  589  23.525   4.540   6.825
    1XTA    H11  590  23.827   4.531   7.111
    1XTA    H12  591  23.936   4.752   7.010
    1XTA    OA1  592  23.514   5.336   6.727
    1XTA    CO1  593  23.505   5.394   6.606
    1XTA    OA2  594  24.359   4.884   6.657
    1XTA    CO2  595  24.447   4.992   6.700
    1XTA    CL1  596  24.593   4.973   6.650
    1XTA    CL2  597  24.600   4.950   6.500
    1XTA    CL3  598  24.732   4.875   6.461
    1XTA    CL4  599  24.735   4.839   6.309
    1XTA    CO3  600  24.844   4.745   6.252
    1XTA    OA3  601  24.836   4.639   6.344
    1XTA    CO4  602  24.919   4.532   6.313
    1XTA    CT1  603  24.875   4.409   6.404
    1XTA    CL5  604  24.869   4.449   6.552
    1XTA    CL6  605  25.002   4.473   6.617
    1XTA    OA4  606  23.627   4.402   6.999
    1XTA    CO5  607  23.727   4.300   7.024
    1XTA    CL7  608  23.775   4.233   6.893
    1XTA    CL8  609  23.858   4.324   6.806
    1XTA    CL9  610  23.999   4.367   6.855
    1XTA   CL10  611  24.051   4.455   6.741
    1XTA    CO6  612  24.176   4.527   6.793
    1XTA    OA5  613  24.258   4.435   6.858
    1XTA    CO7  614  24.386   4.484   6.866
    1XTA    CT2  615  24.474   4.380   6.945
    1XTA   CL11  616  24.433   4.376   7.090
    1XTA   CL12  617  24.292   4.332   7.117
    1XTA    HL1  618  23.594   5.429   6.561
    1XTA    HL2  619  23.451   5.329   6.544
    1XTA    HL3  620  23.447   5.485   6.614
    1XTA    HL4  621  24.415   5.093   6.661
    1XTA    HL5  622  24.462   5.001   6.804
    1XTA    HL6  623  24.633   4.886   6.703
    1XTA    HL7  624  24.661   5.059   6.677
    1XTA    HL8  625  24.580   5.042   6.447
    1XTA    HL9  626  24.526   4.878   6.483
    1XTA   HL10  627  24.814   4.939   6.489
    1XTA   HL11  628  24.730   4.785   6.518
    1XTA   HL12  629  24.734   4.936   6.250
    1XTA   HL13  630  24.639   4.804   6.277
    1XTA   HL14  631  24.802   4.691   6.156
    1XTA   HL15  632  24.942   4.794   6.242
    1XTA   HL16  633  24.900   4.509   6.212
    1XTA   HL17  634  25.024   4.555   6.327
    1XTA   HL18  635  24.809   4.383   6.616
    1XTA   HL19  636  24.811   4.542   6.547
    1XTA   HL20  637  24.983   4.513   6.717
    1XTA   HL21  638  25.082   4.535   6.566
    1XTA   HL22  639  25.035   4.365   6.628
    1XTA   HL23  640  23.681   4.220   7.090
    1XTA   HL24  641  23.816   4.340   7.072
    1XTA   HL25  642  23.828   4.144   6.919
    1XTA   HL26  643  23.689   4.186   6.840
    1XTA   HL27  644  23.864   4.276   6.709
    1XTA   HL28  645  23.798   4.414   6.788
    1XTA   HL29  646  23.993   4.431   6.948
    1XTA   HL30  647  24.067   4.285   6.865
    1XTA   HL31  648  24.097   4.407   6.655
    1XTA   HL32  649  23.975   4.529   6.711
    1XTA   HL33  650  24.234   4.571   6.710
    1XTA   HL34  651  24.157   4.613   6.852
    1XTA   HL35  652  24.387   4.583   6.912
    1XTA   HL36  653  24.430   4.490   6.766
    1XTA   HL37  654  24.435   4.479   7.124
    1XTA   HL38  655  24.502   4.315   7.144
    1XTA   HL39  656  24.275   4.314   7.220
    1XTA   HL40  657  24.270   4.234   7.070
    1XTA   HL41  658  24.213   4.404   7.092
    1XTA    CO8  659  24.963   4.289   6.377
    1XTA    CO9  660  24.733   4.364   6.353
    1XTA    OA6  661  24.971   4.254   6.267
    1XTA   HL42  662  24.933   4.213   6.444
    1XTA   HL43  663  25.058   4.320   6.408
    1XTA   HL44  664  24.656   4.434   6.833
    1XTA   HL45  665  24.691   4.374   6.996
    1XTA   CO10  666  24.625   4.433   6.935
    1XTA   CO11  667  24.476   4.242   6.882
    1XTA    OA7  668  24.505   4.242   6.746
    1XTA   HL46  669  24.552   4.180   6.935
    1XTA   HL47  670  24.377   4.200   6.894
    1XTA   HL48  671  24.631   4.459   6.374
    1XTA   HL49  672  24.740   4.325   6.254
    1XTA     NT  673  25.925   2.102   5.647
    1XTA    CN1  674  25.844   2.113   5.754
    1XTA     C1  675  25.772   2.232   5.779
    1XTA     C2  676  25.696   2.248   5.896
    1XTA     C3  677  25.689   2.149   5.992
    1XTA     C4  678  25.760   2.029   5.978
    1XTA     C5  679  25.836   2.012   5.853
    1XTA    CN2  680  25.946   1.976   5.594
    1XTA     C6  681  25.844   1.903   5.539
    1XTA     C7  682  25.867   1.773   5.493
    1XTA     C8  683  25.997   1.720   5.497
    1XTA     C9  684  26.106   1.799   5.540
    1XTA    C10  685  26.081   1.931   5.590
    1XTA    CN3  686  25.982   2.210   5.589
    1XTA    C11  687  26.065   2.298   5.666
    1XTA    C12  688  26.133   2.404   5.608
    1XTA    C13  689  26.116   2.431   5.473
    1XTA    C14  690  26.032   2.348   5.397
    1XTA    C15  691  25.965   2.233   5.453
    1XTA     H1  692  25.788   2.321   5.718
    1XTA     H2  693  25.645   2.341   5.899
    1XTA     H3  694  25.758   1.944   6.050
    1XTA     H4  695  25.885   1.917   5.837
    1XTA     H5  696  25.740   1.936   5.541
    1XTA     H6  697  25.785   1.708   5.468
    1XTA     H7  698  26.206   1.764   5.542
    1XTA     H8  699  26.155   1.988   5.627
    1XTA     H9  700  26.083   2.282   5.777
    1XTA    H10  701  26.185   2.473   5.667
    1XTA    H11  702  26.026   2.352   5.286
    1XTA    H12  703  25.901   2.164   5.394
    1XTA    OA1  704  25.616   2.179   6.105
    1XTA    CO1  705  25.608   2.087   6.213
    1XTA    OA2  706  26.003   1.594   5.455
    1XTA    CO2  707  26.123   1.526   5.485
    1XTA    CL1  708  26.108   1.481   5.636
    1XTA    CL2  709  26.238   1.418   5.685
    1XTA    CL3  710  26.264   1.439   5.832
    1XTA    CL4  711  26.329   1.321   5.903
    1XTA    CO3  712  26.375   1.353   6.047
    1XTA    OA3  713  26.501   1.418   6.039
    1XTA    CO4  714  26.554   1.452   6.168
    1XTA    CT1  715  26.677   1.545   6.173
    1XTA    CL5  716  26.794   1.481   6.100
    1XTA    CL6  717  26.920   1.564   6.086
    1XTA    OA4  718  26.191   2.530   5.423
    1XTA    CO5  719  26.285   2.507   5.316
    1XTA    CL7  720  26.266   2.617   5.217
    1XTA    CL8  721  26.121   2.628   5.174
    1XTA    CL9  722  26.093   2.764   5.124
    1XTA   CL10  723  25.948   2.810   5.133
    1XTA    CO6  724  25.865   2.731   5.033
    1XTA    OA5  725  25.910   2.752   4.901
    1XTA    CO7  726  25.819   2.702   4.811
    1XTA    CT2  727  25.861   2.740   4.673
    1XTA   CL11  728  25.773   2.671   4.571
    1XTA   CL12  729  25.620   2.695   4.565
    1XTA    HL1  730  25.583   2.140   6.309
    1XTA    HL2  731  25.529   2.008   6.205
    1XTA    HL3  732  25.706   2.044   6.236
    1XTA    HL4  733  26.123   1.435   5.428
    1XTA    HL5  734  26.214   1.588   5.467
    1XTA    HL6  735  26.029   1.412   5.637
    1XTA    HL7  736  26.079   1.562   5.702
    1XTA    HL8  737  26.326   1.440   5.631
    1XTA    HL9  738  26.226   1.317   5.655
    1XTA   HL10  739  26.317   1.533   5.836
    1XTA   HL11  740  26.165   1.456   5.876
    1XTA   HL12  741  26.410   1.280   5.845
    1XTA   HL13  742  26.262   1.240   5.933
    1XTA   HL14  743  26.298   1.410   6.098
    1XTA   HL15  744  26.386   1.261   6.094
    1XTA   HL16  745  26.465   1.490   6.223
    1XTA   HL17  746  26.576   1.361   6.216
    1XTA   HL18  747  26.767   1.465   5.997
    1XTA   HL19  748  26.814   1.389   6.150
    1XTA   HL20  749  26.955   1.575   5.985
    1XTA   HL21  750  27.003   1.527   6.140
    1XTA   HL22  751  26.901   1.667   6.118
    1XTA   HL23  752  26.253   2.419   5.264
    1XTA   HL24  753  26.386   2.478   5.360
    1XTA   HL25  754  26.314   2.707   5.257
    1XTA   HL26  755  26.330   2.593   5.137
    1XTA   HL27  756  26.108   2.545   5.096
    1XTA   HL28  757  26.064   2.608   5.258
    1XTA   HL29  758  26.141   2.845   5.179
    1XTA   HL30  759  26.154   2.785   5.036
    1XTA   HL31  760  25.914   2.796   5.239
    1XTA   HL32  761  25.943   2.917   5.110
    1XTA   HL33  762  25.875   2.630   5.055
    1XTA   HL34  763  25.758   2.758   5.040
    1XTA   HL35  764  25.730   2.752   4.826
    1XTA   HL36  765  25.811   2.593   4.821
    1XTA   HL37  766  25.771   2.565   4.593
    1XTA   HL38  767  25.827   2.691   4.480
    1XTA   HL39  768  25.577   2.665   4.668
    1XTA   HL40  769  25.573   2.631   4.499
    1XTA   HL41  770  25.591   2.802   4.538
    1XTA    CO8  771  26.711   1.567   6.319
    1XTA    CO9  772  26.638   1.690   6.113
    1XTA    OA6  773  26.736   1.446   6.379
    1XTA   HL42  774  26.629   1.610   6.374
    1XTA   HL43  775  26.783   1.644   6.334
    1XTA   HL44  776  26.072   2.722   4.718
    1XTA   HL45  777  26.000   2.549   4.681
    1XTA   CO10  778  26.004   2.685   4.646
    1XTA   CO11  779  25.874   2.898   4.656
    1XTA    OA7  780  25.786   2.950   4.681
    1XTA   HL46  781  25.949   2.931   4.737
    1XTA   HL47  782  25.915   2.914   4.562
    1XTA   HL48  783  26.724   1.758   6.127
    1XTA   HL49  784  26.624   1.669   6.006
    1XTA     NT  785  24.342   0.297   6.195
    1XTA    CN1  786  24.423   0.338   6.298
    1XTA     C1  787  24.392   0.297   6.427
    1XTA     C2  788  24.463   0.346   6.536
    1XTA     C3  789  24.567   0.441   6.524
    1XTA     C4  790  24.596   0.477   6.389
    1XTA     C5  791  24.525   0.429   6.285
    1XTA    CN2  792  24.207   0.322   6.210
    1XTA     C6  793  24.154   0.435   6.153
    1XTA     C7  794  24.013   0.451   6.147
    1XTA     C8  795  23.926   0.365   6.216
    1XTA     C9  796  23.982   0.247   6.270
    1XTA    C10  797  24.120   0.220   6.265
    1XTA    CN3  798  24.382   0.236   6.081
    1XTA    C11  799  24.395   0.316   5.963
    1XTA    C12  800  24.426   0.252   5.846
    1XTA    C13  801  24.446   0.116   5.838
    1XTA    C14  802  24.437   0.044   5.959
    1XTA    C15  803  24.412   0.100   6.085
    1XTA     H1  804  24.322   0.217   6.454
    1XTA     H2  805  24.432   0.304   6.634
    1XTA     H3  806  24.678   0.538   6.373
    1XTA     H4  807  24.545   0.450   6.180
    1XTA     H5  808  24.222   0.498   6.099
    1XTA     H6  809  23.983   0.552   6.107
    1XTA     H7  810  23.923   0.175   6.325
    1XTA     H8  811  24.163   0.126   6.301
    1XTA     H9  812  24.358   0.425   5.954
    1XTA    H10  813  24.437   0.304   5.747
    1XTA    H11  814  24.458  -0.059   5.957
    1XTA    H12  815  24.404   0.046   6.180
    1XTA    OA1  816  24.644   0.492   6.628
    1XTA    CO1  817  24.611   0.447   6.759
    1XTA    OA2  818  23.792   0.402   6.217
    1XTA    CO2  819  23.723   0.344   6.332
    1XTA    CL1  820  23.783   0.393   6.469
    1XTA    CL2  821  23.712   0.335   6.589
    1XTA    CL3  822  23.792   0.359   6.716
    1XTA    CL4  823  23.810   0.513   6.747
    1XTA    CO3  824  23.956   0.561   6.711
    1XTA    OA3  825  23.978   0.693   6.757
    1XTA    CO4  826  23.923   0.787   6.664
    1XTA    CT1  827  23.902   0.914   6.739
    1XTA    CL5  828  24.043   0.974   6.778
    1XTA    CL6  829  24.115   0.923   6.897
    1XTA    OA4  830  24.498   0.056   5.732
    1XTA    CO5  831  24.514   0.123   5.606
    1XTA    CL7  832  24.376   0.164   5.543
    1XTA    CL8  833  24.387   0.275   5.435
    1XTA    CL9  834  24.264   0.277   5.352
    1XTA   CL10  835  24.284   0.365   5.227
    1XTA    CO6  836  24.160   0.374   5.145
    1XTA    OA5  837  24.070   0.467   5.208
    1XTA    CO7  838  23.964   0.506   5.124
    1XTA    CT2  839  23.861   0.598   5.196
    1XTA   CL11  840  23.935   0.720   5.268
    1XTA   CL12  841  24.024   0.807   5.176
    1XTA    HL1  842  24.637   0.336   6.762
    1XTA    HL2  843  24.693   0.496   6.819
    1XTA    HL3  844  24.511   0.470   6.789
    1XTA    HL4  845  23.618   0.383   6.336
    1XTA    HL5  846  23.715   0.233   6.321
    1XTA    HL6  847  23.791   0.495   6.470
    1XTA    HL7  848  23.892   0.364   6.484
    1XTA    HL8  849  23.702   0.229   6.563
    1XTA    HL9  850  23.611   0.381   6.595
    1XTA   HL10  851  23.745   0.314   6.800
    1XTA   HL11  852  23.888   0.311   6.714
    1XTA   HL12  853  23.805   0.528   6.855
    1XTA   HL13  854  23.734   0.581   6.703
    1XTA   HL14  855  24.018   0.498   6.775
    1XTA   HL15  856  23.997   0.540   6.611
    1XTA   HL16  857  23.988   0.803   6.575
    1XTA   HL17  858  23.828   0.750   6.620
    1XTA   HL18  859  24.032   1.079   6.780
    1XTA   HL19  860  24.111   0.954   6.698
    1XTA   HL20  861  24.139   0.817   6.883
    1XTA   HL21  862  24.055   0.928   6.988
    1XTA   HL22  863  24.212   0.965   6.937
    1XTA   HL23  864  24.549   0.051   5.526
    1XTA   HL24  865  24.578   0.213   5.616
    1XTA   HL25  866  24.322   0.093   5.494
    1XTA   HL26  867  24.297   0.194   5.618
    1XTA   HL27  868  24.416   0.368   5.472
    1XTA   HL28  869  24.475   0.246   5.366
    1XTA   HL29  870  24.229   0.184   5.329
    1XTA   HL30  871  24.178   0.324   5.411
    1XTA   HL31  872  24.330   0.457   5.252
    1XTA   HL32  873  24.363   0.330   5.160
    1XTA   HL33  874  24.187   0.403   5.045
    1XTA   HL34  875  24.111   0.275   5.142
    1XTA   HL35  876  23.903   0.420   5.093
    1XTA   HL36  877  23.996   0.554   5.029
    1XTA   HL37  878  23.992   0.687   5.354
    1XTA   HL38  879  23.855   0.794   5.299
    1XTA   HL39  880  24.099   0.736   5.139
    1XTA   HL40  881  24.091   0.886   5.215
    1XTA   HL41  882  23.957   0.844   5.095
    1XTA    CO8  883  23.810   0.882   6.858
    1XTA    CO9  884  23.827   1.014   6.655
    1XTA    OA6  885  23.910   1.070   6.557
    1XTA   HL42  886  23.768   0.976   6.882
    1XTA   HL43  887  23.872   0.852   6.945
    1XTA   HL44  888  23.753   0.430   5.286
    1XTA   HL45  889  23.869   0.486   5.375
    1XTA   CO10  890  23.790   0.525   5.311
    1XTA   CO11  891  23.760   0.641   5.090
    1XTA    OA7  892  23.713   0.594   5.357
    1XTA   HL46  893  23.650   0.709   5.150
    1XTA   HL47  894  23.796   0.712   5.019
    1XTA   HL48  895  23.784   1.099   6.708
    1XTA   HL49  896  23.752   0.965   6.605
    1XTA     NT  897  25.466   0.275   0.865
    1XTA    CN1  898  25.390   0.176   0.911
    1XTA     C1  899  25.397   0.050   0.848
    1XTA     C2  900  25.318  -0.052   0.898
    1XTA     C3  901  25.231  -0.033   1.009
    1XTA     C4  902  25.231   0.093   1.073
    1XTA     C5  903  25.308   0.199   1.024
    1XTA    CN2  904  25.599   0.262   0.842
    1XTA     C6  905  25.648   0.297   0.712
    1XTA     C7  906  25.788   0.289   0.693
    1XTA     C8  907  25.873   0.225   0.792
    1XTA     C9  908  25.825   0.200   0.910
    1XTA    C10  909  25.688   0.210   0.937
    1XTA    CN3  910  25.415   0.388   0.819
    1XTA    C11  911  25.332   0.395   0.707
    1XTA    C12  912  25.276   0.519   0.662
    1XTA    C13  913  25.300   0.627   0.733
    1XTA    C14  914  25.387   0.629   0.843
    1XTA    C15  915  25.448   0.507   0.884
    1XTA     H1  916  25.466   0.033   0.760
    1XTA     H2  917  25.327  -0.144   0.850
    1XTA     H3  918  25.162   0.102   1.161
    1XTA     H4  919  25.308   0.299   1.068
    1XTA     H5  920  25.573   0.332   0.639
    1XTA     H6  921  25.824   0.305   0.594
    1XTA     H7  922  25.896   0.149   0.978
    1XTA     H8  923  25.651   0.181   1.034
    1XTA     H9  924  25.310   0.303   0.647
    1XTA    H10  925  25.206   0.528   0.576
    1XTA    H11  926  25.395   0.714   0.906
    1XTA    H12  927  25.514   0.509   0.970
    1XTA    OA1  928  25.166  -0.146   1.054
    1XTA    CO1  929  25.078  -0.144   1.161
    1XTA    OA2  930  26.009   0.209   0.766
    1XTA    CO2  931  26.055   0.223   0.631
    1XTA    CL1  932  26.205   0.181   0.607
    1XTA    CL2  933  26.244   0.044   0.649
    1XTA    CL3  934  26.373   0.058   0.727
    1XTA    CL4  935  26.433  -0.078   0.768
    1XTA    CO3  936  26.519  -0.077   0.897
    1XTA    OA3  937  26.434  -0.071   1.004
    1XTA    CO4  938  26.493  -0.093   1.126
    1XTA    CT1  939  26.398  -0.075   1.244
    1XTA    CL5  940  26.298  -0.189   1.276
    1XTA    CL6  941  26.214  -0.231   1.159
    1XTA    OA4  942  25.236   0.744   0.698
    1XTA    CO5  943  25.098   0.741   0.687
    1XTA    CL7  944  25.029   0.742   0.822
    1XTA    CL8  945  24.878   0.776   0.808
    1XTA    CL9  946  24.793   0.721   0.919
    1XTA   CL10  947  24.654   0.779   0.927
    1XTA    CO6  948  24.648   0.893   1.029
    1XTA    OA5  949  24.644   0.834   1.156
    1XTA    CO7  950  24.664   0.930   1.261
    1XTA    CT2  951  24.721   0.844   1.375
    1XTA   CL11  952  24.850   0.769   1.327
    1XTA   CL12  953  24.903   0.655   1.416
    1XTA    HL1  954  25.129  -0.137   1.260
    1XTA    HL2  955  25.007  -0.059   1.146
    1XTA    HL3  956  25.020  -0.238   1.159
    1XTA    HL4  957  25.989   0.154   0.575
    1XTA    HL5  958  26.036   0.325   0.584
    1XTA    HL6  959  26.269   0.256   0.648
    1XTA    HL7  960  26.215   0.186   0.499
    1XTA    HL8  961  26.248  -0.026   0.563
    1XTA    HL9  962  26.166   0.013   0.719
    1XTA   HL10  963  26.452   0.114   0.671
    1XTA   HL11  964  26.352   0.126   0.806
    1XTA   HL12  965  26.498  -0.115   0.685
    1XTA   HL13  966  26.357  -0.152   0.783
    1XTA   HL14  967  26.590  -0.155   0.890
    1XTA   HL15  968  26.578   0.012   0.896
    1XTA   HL16  969  26.532  -0.193   1.134
    1XTA   HL17  970  26.580  -0.031   1.129
    1XTA   HL18  971  26.234  -0.155   1.359
    1XTA   HL19  972  26.360  -0.274   1.314
    1XTA   HL20  973  26.265  -0.276   1.075
    1XTA   HL21  974  26.161  -0.146   1.114
    1XTA   HL22  975  26.150  -0.311   1.197
    1XTA   HL23  976  25.061   0.649   0.632
    1XTA   HL24  977  25.057   0.825   0.630
    1XTA   HL25  978  25.044   0.644   0.862
    1XTA   HL26  979  25.082   0.813   0.886
    1XTA   HL27  980  24.880   0.885   0.804
    1XTA   HL28  981  24.848   0.750   0.705
    1XTA   HL29  982  24.789   0.617   0.917
    1XTA   HL30  983  24.849   0.748   1.008
    1XTA   HL31  984  24.622   0.813   0.833
    1XTA   HL32  985  24.587   0.700   0.966
    1XTA   HL33  986  24.723   0.966   1.006
    1XTA   HL34  987  24.553   0.947   1.012
    1XTA   HL35  988  24.579   0.990   1.291
    1XTA   HL36  989  24.744   0.993   1.224
    1XTA   HL37  990  24.934   0.837   1.315
    1XTA   HL38  991  24.827   0.728   1.227
    1XTA   HL39  992  24.915   0.678   1.524
    1XTA   HL40  993  25.002   0.614   1.384
    1XTA   HL41  994  24.830   0.570   1.404
    1XTA    CO8  995  26.322   0.057   1.224
    1XTA    CO9  996  26.488  -0.059   1.370
    1XTA    OA6  997  26.242   0.082   1.337
    1XTA   HL42  998  26.265   0.054   1.128
    1XTA   HL43  999  26.381   0.144   1.208
    1XTA   HL44 1000  24.593   0.677   1.315
    1XTA   HL45 1001  24.479   0.820   1.396
    1XTA   CO10 1002  24.603   0.746   1.402
    1XTA   CO11 1003  24.737   0.921   1.507
    1XTA    OA7 1004  24.832   0.981   1.497
    1XTA   HL46 1005  24.653   0.989   1.530
    1XTA   HL47 1006  24.746   0.854   1.588
    1XTA   HL48 1007  26.524  -0.152   1.407
    1XTA   HL49 1008  26.416  -0.035   1.448
    1XTA     NT 1009  26.882  -0.414   3.158
    1XTA    CN1 1010  26.956  -0.530   3.171
    1XTA     C1 1011  27.058  -0.538   3.266
    1XTA     C2 1012  27.132  -0.662   3.279
    1XTA     C3 1013  27.103  -0.776   3.200
    1XTA     C4 1014  27.004  -0.759   3.102
    1XTA     C5 1015  26.932  -0.641   3.090
    1XTA    CN2 1016  26.864  -0.365   3.027
    1XTA     C6 1017  26.733  -0.325   2.985
    1XTA     C7 1018  26.709  -0.279   2.847
    1XTA     C8 1019  26.817  -0.277   2.761
    1XTA     C9 1020  26.944  -0.308   2.806
    1XTA    C10 1021  26.973  -0.349   2.938
    1XTA    CN3 1022  26.812  -0.363   3.263
    1XTA    C11 1023  26.834  -0.227   3.288
    1XTA    C12 1024  26.765  -0.170   3.396
    1XTA    C13 1025  26.674  -0.244   3.474
    1XTA    C14 1026  26.652  -0.381   3.445
    1XTA    C15 1027  26.720  -0.437   3.336
    1XTA     H1 1028  27.082  -0.459   3.327
    1XTA     H2 1029  27.214  -0.656   3.351
    1XTA     H3 1030  26.976  -0.840   3.038
    1XTA     H4 1031  26.862  -0.638   3.012
    1XTA     H5 1032  26.650  -0.343   3.052
    1XTA     H6 1033  26.605  -0.253   2.821
    1XTA     H7 1034  27.030  -0.308   2.737
    1XTA     H8 1035  27.071  -0.370   2.970
    1XTA     H9 1036  26.908  -0.170   3.224
    1XTA    H10 1037  26.783  -0.065   3.407
    1XTA    H11 1038  26.586  -0.446   3.499
    1XTA    H12 1039  26.711  -0.544   3.303
    1XTA    OA1 1040  27.174  -0.893   3.202
    1XTA    CO1 1041  27.146  -0.962   3.325
    1XTA    OA2 1042  26.808  -0.244   2.630
    1XTA    CO2 1043  26.679  -0.262   2.577
    1XTA    CL1 1044  26.667  -0.211   2.430
    1XTA    CL2 1045  26.773  -0.258   2.328
    1XTA    CL3 1046  26.795  -0.405   2.295
    1XTA    CL4 1047  26.874  -0.475   2.399
    1XTA    CO3 1048  26.895  -0.620   2.381
    1XTA    OA3 1049  26.987  -0.643   2.277
    1XTA    CO4 1050  27.080  -0.754   2.290
    1XTA    CT1 1051  27.156  -0.786   2.157
    1XTA    CL5 1052  27.059  -0.839   2.049
    1XTA    CL6 1053  26.985  -0.968   2.079
    1XTA    OA4 1054  26.595  -0.189   3.577
    1XTA    CO5 1055  26.664  -0.109   3.677
    1XTA    CL7 1056  26.731  -0.198   3.776
    1XTA    CL8 1057  26.881  -0.225   3.743
    1XTA    CL9 1058  26.971  -0.096   3.744
    1XTA   CL10 1059  27.097  -0.134   3.663
    1XTA    CO6 1060  27.176  -0.253   3.723
    1XTA    OA5 1061  27.306  -0.236   3.671
    1XTA    CO7 1062  27.386  -0.344   3.695
    1XTA    CT2 1063  27.532  -0.311   3.662
    1XTA   CL11 1064  27.544  -0.253   3.519
    1XTA   CL12 1065  27.498  -0.332   3.398
    1XTA    HL1 1066  27.192  -1.060   3.319
    1XTA    HL2 1067  27.195  -0.924   3.408
    1XTA    HL3 1068  27.035  -0.981   3.341
    1XTA    HL4 1069  26.657  -0.370   2.570
    1XTA    HL5 1070  26.612  -0.201   2.634
    1XTA    HL6 1071  26.658  -0.100   2.435
    1XTA    HL7 1072  26.569  -0.241   2.397
    1XTA    HL8 1073  26.869  -0.204   2.352
    1XTA    HL9 1074  26.739  -0.217   2.235
    1XTA   HL10 1075  26.698  -0.459   2.287
    1XTA   HL11 1076  26.854  -0.410   2.207
    1XTA   HL12 1077  26.830  -0.451   2.495
    1XTA   HL13 1078  26.970  -0.433   2.412
    1XTA   HL14 1079  26.928  -0.668   2.467
    1XTA   HL15 1080  26.800  -0.669   2.362
    1XTA   HL16 1081  27.154  -0.716   2.363
    1XTA   HL17 1082  27.030  -0.836   2.334
    1XTA   HL18 1083  27.128  -0.860   1.966
    1XTA   HL19 1084  26.984  -0.766   2.015
    1XTA   HL20 1085  27.049  -1.060   2.075
    1XTA   HL21 1086  26.900  -0.985   2.012
    1XTA   HL22 1087  26.938  -0.958   2.179
    1XTA   HL23 1088  26.583  -0.050   3.726
    1XTA   HL24 1089  26.742  -0.039   3.643
    1XTA   HL25 1090  26.743  -0.128   3.864
    1XTA   HL26 1091  26.673  -0.279   3.814
    1XTA   HL27 1092  26.916  -0.306   3.808
    1XTA   HL28 1093  26.894  -0.272   3.651
    1XTA   HL29 1094  26.932  -0.010   3.693
    1XTA   HL30 1095  26.994  -0.066   3.842
    1XTA   HL31 1096  27.067  -0.158   3.557
    1XTA   HL32 1097  27.161  -0.045   3.663
    1XTA   HL33 1098  27.188  -0.242   3.831
    1XTA   HL34 1099  27.127  -0.335   3.691
    1XTA   HL35 1100  27.348  -0.434   3.643
    1XTA   HL36 1101  27.386  -0.373   3.801
    1XTA   HL37 1102  27.639  -0.226   3.496
    1XTA   HL38 1103  27.473  -0.170   3.514
    1XTA   HL39 1104  27.392  -0.365   3.409
    1XTA   HL40 1105  27.572  -0.411   3.385
    1XTA   HL41 1106  27.496  -0.263   3.309
    1XTA    CO8 1107  27.263  -0.891   2.194
    1XTA    CO9 1108  27.234  -0.660   2.113
    1XTA    OA6 1109  27.334  -0.626   2.216
    1XTA   HL42 1110  27.209  -0.960   2.249
    1XTA   HL43 1111  27.314  -0.838   2.281
    1XTA   HL44 1112  27.723  -0.413   3.643
    1XTA   HL45 1113  27.619  -0.481   3.760
    1XTA   CO10 1114  27.616  -0.440   3.664
    1XTA   CO11 1115  27.581  -0.209   3.770
    1XTA    OA7 1116  27.570  -0.544   3.579
    1XTA   HL46 1117  27.675  -0.236   3.814
    1XTA   HL47 1118  27.508  -0.218   3.846
    1XTA   HL48 1119  27.165  -0.575   2.088
    1XTA   HL49 1120  27.290  -0.689   2.025
    1XTA     NT 1121  24.586  -0.164   1.608
    1XTA    CN1 1122  24.525  -0.083   1.518
    1XTA     C1 1123  24.389  -0.042   1.540
    1XTA     C2 1124  24.325   0.039   1.446
    1XTA     C3 1125  24.395   0.084   1.332
    1XTA     C4 1126  24.527   0.037   1.308
    1XTA     C5 1127  24.592  -0.048   1.398
    1XTA    CN2 1128  24.546  -0.294   1.629
    1XTA     C6 1129  24.539  -0.340   1.761
    1XTA     C7 1130  24.497  -0.469   1.796
    1XTA     C8 1131  24.468  -0.558   1.687
    1XTA     C9 1132  24.471  -0.515   1.556
    1XTA    C10 1133  24.511  -0.382   1.525
    1XTA    CN3 1134  24.714  -0.131   1.657
    1XTA    C11 1135  24.828  -0.181   1.595
    1XTA    C12 1136  24.953  -0.172   1.655
    1XTA    C13 1137  24.964  -0.113   1.787
    1XTA    C14 1138  24.845  -0.058   1.853
    1XTA    C15 1139  24.720  -0.070   1.784
    1XTA     H1 1140  24.341  -0.058   1.632
    1XTA     H2 1141  24.222   0.073   1.462
    1XTA     H3 1142  24.580   0.060   1.212
    1XTA     H4 1143  24.681  -0.094   1.378
    1XTA     H5 1144  24.556  -0.256   1.827
    1XTA     H6 1145  24.486  -0.503   1.900
    1XTA     H7 1146  24.438  -0.576   1.478
    1XTA     H8 1147  24.510  -0.342   1.426
    1XTA     H9 1148  24.830  -0.226   1.494
    1XTA    H10 1149  25.038  -0.210   1.605
    1XTA    H11 1150  24.850   0.004   1.938
    1XTA    H12 1151  24.621  -0.035   1.815
    1XTA    OA1 1152  24.335   0.170   1.249
    1XTA    CO1 1153  24.208   0.212   1.280
    1XTA    OA2 1154  24.435  -0.689   1.709
    1XTA    CO2 1155  24.495  -0.754   1.824
    1XTA    CL1 1156  24.574  -0.884   1.776
    1XTA    CL2 1157  24.646  -0.861   1.650
    1XTA    CL3 1158  24.774  -0.778   1.681
    1XTA    CL4 1159  24.824  -0.700   1.558
    1XTA    CO3 1160  24.949  -0.620   1.583
    1XTA    OA3 1161  24.960  -0.563   1.711
    1XTA    CO4 1162  25.091  -0.507   1.749
    1XTA    CT1 1163  25.132  -0.540   1.890
    1XTA    CL5 1164  25.034  -0.462   1.984
    1XTA    CL6 1165  24.887  -0.481   1.978
    1XTA    OA4 1166  25.086  -0.095   1.850
    1XTA    CO5 1167  25.202  -0.076   1.774
    1XTA    CL7 1168  25.313  -0.047   1.875
    1XTA    CL8 1169  25.452  -0.053   1.809
    1XTA    CL9 1170  25.559   0.014   1.878
    1XTA   CL10 1171  25.583  -0.048   2.018
    1XTA    CO6 1172  25.644  -0.188   2.011
    1XTA    OA5 1173  25.662  -0.254   2.130
    1XTA    CO7 1174  25.555  -0.269   2.222
    1XTA    CT2 1175  25.518  -0.418   2.217
    1XTA   CL11 1176  25.420  -0.447   2.332
    1XTA   CL12 1177  25.294  -0.364   2.337
    1XTA    HL1 1178  24.211   0.259   1.379
    1XTA    HL2 1179  24.151   0.278   1.215
    1XTA    HL3 1180  24.150   0.125   1.281
    1XTA    HL4 1181  24.562  -0.690   1.886
    1XTA    HL5 1182  24.418  -0.796   1.897
    1XTA    HL6 1183  24.514  -0.971   1.775
    1XTA    HL7 1184  24.654  -0.905   1.853
    1XTA    HL8 1185  24.584  -0.823   1.576
    1XTA    HL9 1186  24.680  -0.962   1.625
    1XTA   HL10 1187  24.757  -0.707   1.761
    1XTA   HL11 1188  24.846  -0.847   1.737
    1XTA   HL12 1189  24.751  -0.620   1.536
    1XTA   HL13 1190  24.824  -0.762   1.471
    1XTA   HL14 1191  25.036  -0.688   1.586
    1XTA   HL15 1192  24.952  -0.543   1.509
    1XTA   HL16 1193  25.167  -0.539   1.680
    1XTA   HL17 1194  25.092  -0.396   1.730
    1XTA   HL18 1195  25.062  -0.358   1.980
    1XTA   HL19 1196  25.049  -0.488   2.088
    1XTA   HL20 1197  24.860  -0.589   1.969
    1XTA   HL21 1198  24.854  -0.435   1.881
    1XTA   HL22 1199  24.849  -0.427   2.066
    1XTA   HL23 1200  25.177   0.008   1.712
    1XTA   HL24 1201  25.229  -0.165   1.719
    1XTA   HL25 1202  25.301   0.039   1.936
    1XTA   HL26 1203  25.299  -0.134   1.940
    1XTA   HL27 1204  25.475  -0.155   1.788
    1XTA   HL28 1205  25.445  -0.005   1.711
    1XTA   HL29 1206  25.651   0.017   1.811
    1XTA   HL30 1207  25.528   0.117   1.906
    1XTA   HL31 1208  25.646   0.023   2.076
    1XTA   HL32 1209  25.482  -0.041   2.072
    1XTA   HL33 1210  25.581  -0.246   1.950
    1XTA   HL34 1211  25.737  -0.177   1.960
    1XTA   HL35 1212  25.462  -0.202   2.201
    1XTA   HL36 1213  25.589  -0.244   2.321
    1XTA   HL37 1214  25.452  -0.443   2.438
    1XTA   HL38 1215  25.386  -0.551   2.324
    1XTA   HL39 1216  25.238  -0.404   2.253
    1XTA   HL40 1217  25.300  -0.256   2.322
    1XTA   HL41 1218  25.236  -0.373   2.433
    1XTA    CO8 1219  25.282  -0.507   1.918
    1XTA    CO9 1220  25.124  -0.691   1.907
    1XTA    OA6 1221  25.328  -0.511   2.054
    1XTA   HL42 1222  25.294  -0.406   1.883
    1XTA   HL43 1223  25.347  -0.574   1.857
    1XTA   HL44 1224  25.720  -0.496   2.168
    1XTA   HL45 1225  25.683  -0.485   2.337
    1XTA   CO10 1226  25.638  -0.511   2.238
    1XTA   CO11 1227  25.451  -0.454   2.078
    1XTA    OA7 1228  25.616  -0.619   2.231
    1XTA   HL46 1229  25.545  -0.532   1.998
    1XTA   HL47 1230  25.451  -0.359   2.020
    1XTA   HL48 1231  25.020  -0.715   1.882
    1XTA   HL49 1232  25.192  -0.741   1.835
    1XTA     NT 1233  31.047  -0.243   5.795
    1XTA    CN1 1234  31.098  -0.266   5.922
    1XTA     C1 1235  31.049  -0.365   6.008
    1XTA     C2 1236  31.103  -0.385   6.136
    1XTA     C3 1237  31.211  -0.311   6.174
    1XTA     C4 1238  31.258  -0.206   6.097
    1XTA     C5 1239  31.206  -0.185   5.967
    1XTA    CN2 1240  31.002  -0.120   5.763
    1XTA     C6 1241  31.060  -0.051   5.654
    1XTA     C7 1242  31.035   0.086   5.642
    1XTA     C8 1243  30.944   0.152   5.725
    1XTA     C9 1244  30.883   0.078   5.825
    1XTA    C10 1245  30.919  -0.057   5.858
    1XTA    CN3 1246  31.012  -0.354   5.716
    1XTA    C11 1247  30.879  -0.363   5.661
    1XTA    C12 1248  30.842  -0.478   5.589
    1XTA    C13 1249  30.935  -0.585   5.565
    1XTA    C14 1250  31.060  -0.572   5.621
    1XTA    C15 1251  31.100  -0.459   5.692
    1XTA     H1 1252  30.966  -0.427   5.984
    1XTA     H2 1253  31.067  -0.459   6.200
    1XTA     H3 1254  31.346  -0.152   6.117
    1XTA     H4 1255  31.236  -0.109   5.898
    1XTA     H5 1256  31.144  -0.093   5.595
    1XTA     H6 1257  31.084   0.145   5.569
    1XTA     H7 1258  30.805   0.126   5.873
    1XTA     H8 1259  30.869  -0.116   5.940
    1XTA     H9 1260  30.805  -0.287   5.685
    1XTA    H10 1261  30.743  -0.488   5.553
    1XTA    H11 1262  31.129  -0.651   5.606
    1XTA    H12 1263  31.193  -0.467   5.743
    1XTA    OA1 1264  31.261  -0.318   6.298
    1XTA    CO1 1265  31.244  -0.206   6.381
    1XTA    OA2 1266  30.895   0.277   5.699
    1XTA    CO2 1267  30.868   0.300   5.554
    1XTA    CL1 1268  30.733   0.239   5.512
    1XTA    CL2 1269  30.711   0.249   5.361
    1XTA    CL3 1270  30.813   0.174   5.269
    1XTA    CL4 1271  30.825   0.033   5.296
    1XTA    CO3 1272  30.926  -0.033   5.203
    1XTA    OA3 1273  31.046   0.037   5.218
    1XTA    CO4 1274  31.140  -0.013   5.125
    1XTA    CT1 1275  31.285   0.026   5.151
    1XTA    CL5 1276  31.325  -0.019   5.290
    1XTA    CL6 1277  31.293  -0.166   5.327
    1XTA    OA4 1278  30.898  -0.696   5.488
    1XTA    CO5 1279  30.954  -0.817   5.531
    1XTA    CL7 1280  30.847  -0.931   5.505
    1XTA    CL8 1281  30.716  -0.920   5.586
    1XTA    CL9 1282  30.653  -1.058   5.579
    1XTA   CL10 1283  30.508  -1.049   5.620
    1XTA    CO6 1284  30.413  -1.177   5.585
    1XTA    OA5 1285  30.418  -1.287   5.681
    1XTA    CO7 1286  30.514  -1.384   5.636
    1XTA    CT2 1287  30.580  -1.449   5.761
    1XTA   CL11 1288  30.489  -1.551   5.826
    1XTA   CL12 1289  30.472  -1.680   5.743
    1XTA    HL1 1290  31.151  -0.152   6.361
    1XTA    HL2 1291  31.240  -0.246   6.481
    1XTA    HL3 1292  31.314  -0.128   6.364
    1XTA    HL4 1293  30.874   0.406   5.535
    1XTA    HL5 1294  30.953   0.263   5.496
    1XTA    HL6 1295  30.662   0.305   5.563
    1XTA    HL7 1296  30.720   0.134   5.550
    1XTA    HL8 1297  30.706   0.357   5.325
    1XTA    HL9 1298  30.615   0.201   5.339
    1XTA   HL10 1299  30.758   0.174   5.179
    1XTA   HL11 1300  30.908   0.221   5.249
    1XTA   HL12 1301  30.725  -0.017   5.286
    1XTA   HL13 1302  30.861   0.019   5.397
    1XTA   HL14 1303  30.938  -0.132   5.242
    1XTA   HL15 1304  30.879  -0.033   5.103
    1XTA   HL16 1305  31.129  -0.115   5.107
    1XTA   HL17 1306  31.117   0.038   5.032
    1XTA   HL18 1307  31.282   0.039   5.371
    1XTA   HL19 1308  31.439  -0.005   5.304
    1XTA   HL20 1309  31.322  -0.234   5.254
    1XTA   HL21 1310  31.188  -0.182   5.337
    1XTA   HL22 1311  31.330  -0.204   5.418
    1XTA   HL23 1312  30.976  -0.822   5.637
    1XTA   HL24 1313  31.051  -0.842   5.475
    1XTA   HL25 1314  30.824  -0.941   5.397
    1XTA   HL26 1315  30.891  -1.026   5.528
    1XTA   HL27 1316  30.726  -0.884   5.683
    1XTA   HL28 1317  30.651  -0.855   5.531
    1XTA   HL29 1318  30.653  -1.094   5.476
    1XTA   HL30 1319  30.715  -1.125   5.634
    1XTA   HL31 1320  30.501  -1.031   5.729
    1XTA   HL32 1321  30.461  -0.968   5.575
    1XTA   HL33 1322  30.312  -1.146   5.587
    1XTA   HL34 1323  30.439  -1.219   5.489
    1XTA   HL35 1324  30.592  -1.335   5.568
    1XTA   HL36 1325  30.462  -1.452   5.572
    1XTA   HL37 1326  30.394  -1.503   5.842
    1XTA   HL38 1327  30.529  -1.581   5.924
    1XTA   HL39 1328  30.569  -1.735   5.739
    1XTA   HL40 1329  30.446  -1.663   5.637
    1XTA   HL41 1330  30.392  -1.750   5.784
    1XTA    CO8 1331  31.307   0.177   5.139
    1XTA    CO9 1332  31.385  -0.039   5.046
    1XTA    OA6 1333  31.440   0.226   5.167
    1XTA   HL42 1334  31.230   0.230   5.189
    1XTA   HL43 1335  31.278   0.205   5.045
    1XTA   HL44 1336  30.652  -1.255   5.822
    1XTA   HL45 1337  30.496  -1.291   5.936
    1XTA   CO10 1338  30.610  -1.342   5.868
    1XTA   CO11 1339  30.713  -1.519   5.714
    1XTA    OA7 1340  30.790  -1.445   5.684
    1XTA   HL46 1341  30.746  -1.563   5.805
    1XTA   HL47 1342  30.681  -1.597   5.648
    1XTA   HL48 1343  31.494  -0.018   5.065
    1XTA   HL49 1344  31.380  -0.147   5.061
    1XTA     NT 1345  23.672   4.044   6.024
    1XTA    CN1 1346  23.676   4.173   5.991
    1XTA     C1 1347  23.645   4.268   6.088
    1XTA     C2 1348  23.644   4.407   6.048
    1XTA     C3 1349  23.679   4.446   5.917
    1XTA     C4 1350  23.715   4.345   5.822
    1XTA     C5 1351  23.712   4.208   5.853
    1XTA    CN2 1352  23.782   3.987   6.082
    1XTA     C6 1353  23.780   3.936   6.216
    1XTA     C7 1354  23.894   3.874   6.266
    1XTA     C8 1355  24.012   3.862   6.194
    1XTA     C9 1356  24.011   3.921   6.062
    1XTA    C10 1357  23.904   3.986   6.010
    1XTA    CN3 1358  23.559   3.972   5.998
    1XTA    C11 1359  23.550   3.898   5.881
    1XTA    C12 1360  23.441   3.816   5.853
    1XTA    C13 1361  23.351   3.791   5.954
    1XTA    C14 1362  23.364   3.856   6.078
    1XTA    C15 1363  23.463   3.951   6.101
    1XTA     H1 1364  23.622   4.235   6.189
    1XTA     H2 1365  23.596   4.477   6.117
    1XTA     H3 1366  23.737   4.373   5.727
    1XTA     H4 1367  23.730   4.136   5.778
    1XTA     H5 1368  23.691   3.939   6.284
    1XTA     H6 1369  23.885   3.827   6.363
    1XTA     H7 1370  24.104   3.933   6.011
    1XTA     H8 1371  23.905   4.023   5.911
    1XTA     H9 1372  23.631   3.899   5.810
    1XTA    H10 1373  23.448   3.752   5.768
    1XTA    H11 1374  23.290   3.827   6.151
    1XTA    H12 1375  23.477   4.001   6.194
    1XTA    OA1 1376  23.664   4.580   5.888
    1XTA    CO1 1377  23.711   4.632   5.764
    1XTA    OA2 1378  24.115   3.803   6.257
    1XTA    CO2 1379  24.189   3.715   6.177
    1XTA    CL1 1380  24.317   3.664   6.248
    1XTA    CL2 1381  24.397   3.569   6.167
    1XTA    CL3 1382  24.494   3.487   6.244
    1XTA    CL4 1383  24.573   3.381   6.154
    1XTA    CO3 1384  24.698   3.439   6.086
    1XTA    OA3 1385  24.729   3.364   5.973
    1XTA    CO4 1386  24.864   3.380   5.927
    1XTA    CT1 1387  24.961   3.272   5.977
    1XTA    CL5 1388  24.914   3.122   5.961
    1XTA    CL6 1389  24.836   3.082   5.835
    1XTA    OA4 1390  23.252   3.699   5.925
    1XTA    CO5 1391  23.230   3.603   6.029
    1XTA    CL7 1392  23.353   3.517   6.076
    1XTA    CL8 1393  23.379   3.392   5.984
    1XTA    CL9 1394  23.314   3.261   6.048
    1XTA   CL10 1395  23.311   3.149   5.947
    1XTA    CO6 1396  23.261   3.010   5.999
    1XTA    OA5 1397  23.265   2.933   5.880
    1XTA    CO7 1398  23.266   2.790   5.913
    1XTA    CT2 1399  23.258   2.694   5.793
    1XTA   CL11 1400  23.392   2.707   5.717
    1XTA   CL12 1401  23.413   2.600   5.614
    1XTA    HL1 1402  23.663   4.578   5.684
    1XTA    HL2 1403  23.673   4.734   5.749
    1XTA    HL3 1404  23.825   4.631   5.756
    1XTA    HL4 1405  24.124   3.630   6.176
    1XTA    HL5 1406  24.198   3.729   6.067
    1XTA    HL6 1407  24.294   3.601   6.334
    1XTA    HL7 1408  24.360   3.758   6.283
    1XTA    HL8 1409  24.449   3.625   6.089
    1XTA    HL9 1410  24.323   3.507   6.121
    1XTA   HL10 1411  24.568   3.552   6.304
    1XTA   HL11 1412  24.431   3.420   6.301
    1XTA   HL12 1413  24.497   3.351   6.081
    1XTA   HL13 1414  24.610   3.288   6.209
    1XTA   HL14 1415  24.671   3.542   6.054
    1XTA   HL15 1416  24.791   3.451   6.146
    1XTA   HL16 1417  24.864   3.375   5.816
    1XTA   HL17 1418  24.897   3.484   5.943
    1XTA   HL18 1419  24.852   3.097   6.049
    1XTA   HL19 1420  25.002   3.050   5.969
    1XTA   HL20 1421  24.887   3.114   5.743
    1XTA   HL21 1422  24.740   3.144   5.839
    1XTA   HL22 1423  24.814   2.979   5.823
    1XTA   HL23 1424  23.166   3.521   5.983
    1XTA   HL24 1425  23.176   3.647   6.111
    1XTA   HL25 1426  23.439   3.578   6.084
    1XTA   HL26 1427  23.332   3.484   6.175
    1XTA   HL27 1428  23.347   3.413   5.879
    1XTA   HL28 1429  23.489   3.370   5.978
    1XTA   HL29 1430  23.365   3.233   6.139
    1XTA   HL30 1431  23.218   3.283   6.087
    1XTA   HL31 1432  23.248   3.183   5.863
    1XTA   HL32 1433  23.418   3.144   5.903
    1XTA   HL33 1434  23.320   2.966   6.079
    1XTA   HL34 1435  23.167   3.013   6.047
    1XTA   HL35 1436  23.180   2.770   5.973
    1XTA   HL36 1437  23.351   2.768   5.973
    1XTA   HL37 1438  23.470   2.695   5.796
    1XTA   HL38 1439  23.389   2.810   5.675
    1XTA   HL39 1440  23.330   2.596   5.542
    1XTA   HL40 1441  23.428   2.498   5.647
    1XTA   HL41 1442  23.506   2.618   5.561
    1XTA    CO8 1443  24.981   3.287   6.127
    1XTA    CO9 1444  25.094   3.301   5.903
    1XTA    OA6 1445  25.171   3.227   5.934
    1XTA   HL42 1446  25.050   3.210   6.154
    1XTA   HL43 1447  24.868   3.266   6.201
    1XTA   HL44 1448  23.146   2.836   5.669
    1XTA   HL45 1449  23.051   2.739   5.778
    1XTA   CO10 1450  23.136   2.729   5.711
    1XTA   CO11 1451  23.243   2.547   5.845
    1XTA    OA7 1452  23.355   2.505   5.924
    1XTA   HL46 1453  23.150   2.519   5.900
    1XTA   HL47 1454  23.251   2.483   5.756
    1XTA   HL48 1455  25.127   3.405   5.925
    1XTA   HL49 1456  25.071   3.302   5.798
    1XTA     NT 1457  26.879   4.964   5.158
    1XTA    CN1 1458  26.869   4.867   5.072
    1XTA     C1 1459  26.790   4.761   5.112
    1XTA     C2 1460  26.768   4.646   5.027
    1XTA     C3 1461  26.835   4.645   4.905
    1XTA     C4 1462  26.902   4.757   4.855
    1XTA     C5 1463  26.919   4.867   4.943
    1XTA    CN2 1464  26.929   4.943   5.286
    1XTA     C6 1465  26.844   4.933   5.400
    1XTA     C7 1466  26.901   4.914   5.527
    1XTA     C8 1467  27.042   4.900   5.540
    1XTA     C9 1468  27.129   4.918   5.429
    1XTA    C10 1469  27.071   4.931   5.304
    1XTA    CN3 1470  26.858   5.096   5.131
    1XTA    C11 1471  26.963   5.188   5.141
    1XTA    C12 1472  26.942   5.323   5.117
    1XTA    C13 1473  26.817   5.367   5.078
    1XTA    C14 1474  26.707   5.282   5.072
    1XTA    C15 1475  26.728   5.142   5.096
    1XTA     H1 1476  26.745   4.749   5.212
    1XTA     H2 1477  26.711   4.562   5.058
    1XTA     H3 1478  26.952   4.755   4.759
    1XTA     H4 1479  26.980   4.946   4.903
    1XTA     H5 1480  26.738   4.950   5.386
    1XTA     H6 1481  26.836   4.906   5.614
    1XTA     H7 1482  27.231   4.914   5.448
    1XTA     H8 1483  27.132   4.943   5.216
    1XTA     H9 1484  27.061   5.139   5.162
    1XTA    H10 1485  27.027   5.397   5.116
    1XTA    H11 1486  26.599   5.300   5.051
    1XTA    H12 1487  26.655   5.075   5.089
    1XTA    OA1 1488  26.822   4.523   4.834
    1XTA    CO1 1489  26.919   4.502   4.727
    1XTA    OA2 1490  27.085   4.868   5.666
    1XTA    CO2 1491  27.218   4.811   5.672
    1XTA    CL1 1492  27.258   4.778   5.809
    1XTA    CL2 1493  27.416   4.778   5.839
    1XTA    CL3 1494  27.500   4.674   5.770
    1XTA    CL4 1495  27.574   4.734   5.647
    1XTA    CO3 1496  27.664   4.629   5.572
    1XTA    OA3 1497  27.596   4.511   5.522
    1XTA    CO4 1498  27.687   4.420   5.467
    1XTA    CT1 1499  27.617   4.319   5.372
    1XTA    CL5 1500  27.487   4.265   5.430
    1XTA    CL6 1501  27.405   4.166   5.351
    1XTA    OA4 1502  26.807   5.507   5.063
    1XTA    CO5 1503  26.702   5.566   5.001
    1XTA    CL7 1504  26.718   5.550   4.851
    1XTA    CL8 1505  26.587   5.472   4.808
    1XTA    CL9 1506  26.602   5.453   4.659
    1XTA   CL10 1507  26.467   5.406   4.597
    1XTA    CO6 1508  26.359   5.515   4.595
    1XTA    OA5 1509  26.394   5.628   4.518
    1XTA    CO7 1510  26.281   5.715   4.492
    1XTA    CT2 1511  26.341   5.853   4.440
    1XTA   CL11 1512  26.212   5.939   4.409
    1XTA   CL12 1513  26.129   5.992   4.527
    1XTA    HL1 1514  26.889   4.413   4.671
    1XTA    HL2 1515  26.908   4.587   4.662
    1XTA    HL3 1516  27.020   4.500   4.760
    1XTA    HL4 1517  27.232   4.728   5.608
    1XTA    HL5 1518  27.283   4.894   5.641
    1XTA    HL6 1519  27.214   4.679   5.834
    1XTA    HL7 1520  27.207   4.850   5.868
    1XTA    HL8 1521  27.440   4.766   5.950
    1XTA    HL9 1522  27.460   4.880   5.822
    1XTA   HL10 1523  27.576   4.643   5.843
    1XTA   HL11 1524  27.437   4.593   5.733
    1XTA   HL12 1525  27.629   4.823   5.674
    1XTA   HL13 1526  27.499   4.780   5.599
    1XTA   HL14 1527  27.702   4.682   5.488
    1XTA   HL15 1528  27.749   4.612   5.638
    1XTA   HL16 1529  27.771   4.477   5.420
    1XTA   HL17 1530  27.742   4.365   5.548
    1XTA   HL18 1531  27.417   4.347   5.439
    1XTA   HL19 1532  27.512   4.220   5.526
    1XTA   HL20 1533  27.310   4.158   5.394
    1XTA   HL21 1534  27.456   4.075   5.347
    1XTA   HL22 1535  27.379   4.188   5.250
    1XTA   HL23 1536  26.698   5.670   5.044
    1XTA   HL24 1537  26.606   5.524   5.037
    1XTA   HL25 1538  26.727   5.643   4.801
    1XTA   HL26 1539  26.809   5.502   4.830
    1XTA   HL27 1540  26.594   5.379   4.863
    1XTA   HL28 1541  26.502   5.530   4.841
    1XTA   HL29 1542  26.643   5.531   4.599
    1XTA   HL30 1543  26.674   5.369   4.644
    1XTA   HL31 1544  26.482   5.364   4.497
    1XTA   HL32 1545  26.427   5.332   4.653
    1XTA   HL33 1546  26.275   5.466   4.548
    1XTA   HL34 1547  26.347   5.555   4.698
    1XTA   HL35 1548  26.229   5.723   4.584
    1XTA   HL36 1549  26.204   5.678   4.422
    1XTA   HL37 1550  26.148   5.869   4.354
    1XTA   HL38 1551  26.226   6.026   4.340
    1XTA   HL39 1552  26.050   6.051   4.482
    1XTA   HL40 1553  26.182   6.039   4.606
    1XTA   HL41 1554  26.074   5.912   4.573
    1XTA    CO8 1555  27.720   4.209   5.344
    1XTA    CO9 1556  27.592   4.390   5.233
    1XTA    OA6 1557  27.678   4.448   5.194
    1XTA   HL42 1558  27.673   4.117   5.293
    1XTA   HL43 1559  27.825   4.257   5.251
    1XTA   HL44 1560  26.355   5.765   4.245
    1XTA   HL45 1561  26.505   5.767   4.350
    1XTA   CO10 1562  26.425   5.832   4.311
    1XTA   CO11 1563  26.424   5.931   4.544
    1XTA    OA7 1564  26.557   5.887   4.575
    1XTA   HL46 1565  26.438   6.040   4.520
    1XTA   HL47 1566  26.361   5.920   4.635
    1XTA   HL48 1567  27.510   4.460   5.243
    1XTA   HL49 1568  27.552   4.314   5.160
    1XTA     NT 1569  28.692  -0.608   5.117
    1XTA    CN1 1570  28.633  -0.483   5.105
    1XTA     C1 1571  28.526  -0.469   5.025
    1XTA     C2 1572  28.463  -0.346   5.008
    1XTA     C3 1573  28.511  -0.231   5.078
    1XTA     C4 1574  28.622  -0.253   5.164
    1XTA     C5 1575  28.687  -0.376   5.177
    1XTA    CN2 1576  28.749  -0.671   5.014
    1XTA     C6 1577  28.698  -0.797   4.972
    1XTA     C7 1578  28.761  -0.869   4.872
    1XTA     C8 1579  28.863  -0.807   4.795
    1XTA     C9 1580  28.892  -0.672   4.822
    1XTA    C10 1581  28.841  -0.606   4.933
    1XTA    CN3 1582  28.676  -0.657   5.241
    1XTA    C11 1583  28.549  -0.687   5.292
    1XTA    C12 1584  28.528  -0.737   5.420
    1XTA    C13 1585  28.633  -0.767   5.504
    1XTA    C14 1586  28.768  -0.752   5.447
    1XTA    C15 1587  28.783  -0.701   5.317
    1XTA     H1 1588  28.478  -0.545   4.966
    1XTA     H2 1589  28.372  -0.329   4.948
    1XTA     H3 1590  28.670  -0.176   5.221
    1XTA     H4 1591  28.773  -0.377   5.238
    1XTA     H5 1592  28.611  -0.834   5.026
    1XTA     H6 1593  28.742  -0.970   4.856
    1XTA     H7 1594  28.976  -0.637   4.768
    1XTA     H8 1595  28.879  -0.508   4.941
    1XTA     H9 1596  28.457  -0.670   5.232
    1XTA    H10 1597  28.428  -0.758   5.448
    1XTA    H11 1598  28.860  -0.785   5.499
    1XTA    H12 1599  28.883  -0.691   5.278
    1XTA    OA1 1600  28.441  -0.108   5.071
    1XTA    CO1 1601  28.491  -0.009   5.160
    1XTA    OA2 1602  28.920  -0.864   4.686
    1XTA    CO2 1603  28.838  -0.834   4.568
    1XTA    CL1 1604  28.820  -0.685   4.533
    1XTA    CL2 1605  28.786  -0.667   4.385
    1XTA    CL3 1606  28.763  -0.528   4.327
    1XTA    CL4 1607  28.786  -0.510   4.183
    1XTA    CO3 1608  28.764  -0.359   4.155
    1XTA    OA3 1609  28.634  -0.306   4.189
    1XTA    CO4 1610  28.555  -0.295   4.072
    1XTA    CT1 1611  28.408  -0.305   4.124
    1XTA    CL5 1612  28.297  -0.282   4.012
    1XTA    CL6 1613  28.313  -0.145   3.938
    1XTA    OA4 1614  28.609  -0.831   5.623
    1XTA    CO5 1615  28.715  -0.926   5.657
    1XTA    CL7 1616  28.658  -1.009   5.770
    1XTA    CL8 1617  28.544  -1.093   5.713
    1XTA    CL9 1618  28.490  -1.157   5.840
    1XTA   CL10 1619  28.394  -1.265   5.816
    1XTA    CO6 1620  28.345  -1.342   5.949
    1XTA    OA5 1621  28.436  -1.426   6.019
    1XTA    CO7 1622  28.471  -1.541   5.951
    1XTA    CT2 1623  28.593  -1.598   6.019
    1XTA   CL11 1624  28.563  -1.614   6.169
    1XTA   CL12 1625  28.447  -1.717   6.208
    1XTA    HL1 1626  28.511  -0.037   5.265
    1XTA    HL2 1627  28.586   0.031   5.124
    1XTA    HL3 1628  28.420   0.073   5.168
    1XTA    HL4 1629  28.892  -0.874   4.479
    1XTA    HL5 1630  28.734  -0.892   4.580
    1XTA    HL6 1631  28.900  -0.617   4.568
    1XTA    HL7 1632  28.730  -0.650   4.584
    1XTA    HL8 1633  28.698  -0.734   4.357
    1XTA    HL9 1634  28.869  -0.698   4.324
    1XTA   HL10 1635  28.660  -0.495   4.352
    1XTA   HL11 1636  28.822  -0.448   4.377
    1XTA   HL12 1637  28.718  -0.574   4.121
    1XTA   HL13 1638  28.889  -0.530   4.154
    1XTA   HL14 1639  28.838  -0.305   4.206
    1XTA   HL15 1640  28.805  -0.352   4.052
    1XTA   HL16 1641  28.568  -0.190   4.035
    1XTA   HL17 1642  28.570  -0.366   3.994
    1XTA   HL18 1643  28.198  -0.287   4.053
    1XTA   HL19 1644  28.324  -0.366   3.944
    1XTA   HL20 1645  28.315  -0.061   4.014
    1XTA   HL21 1646  28.233  -0.132   3.871
    1XTA   HL22 1647  28.411  -0.142   3.883
    1XTA   HL23 1648  28.812  -0.886   5.686
    1XTA   HL24 1649  28.725  -0.992   5.573
    1XTA   HL25 1650  28.730  -1.092   5.779
    1XTA   HL26 1651  28.627  -0.951   5.851
    1XTA   HL27 1652  28.461  -1.042   5.667
    1XTA   HL28 1653  28.586  -1.170   5.640
    1XTA   HL29 1654  28.574  -1.210   5.880
    1XTA   HL30 1655  28.459  -1.087   5.921
    1XTA   HL31 1656  28.304  -1.218   5.765
    1XTA   HL32 1657  28.430  -1.345   5.751
    1XTA   HL33 1658  28.316  -1.264   6.020
    1XTA   HL34 1659  28.245  -1.392   5.933
    1XTA   HL35 1660  28.498  -1.531   5.849
    1XTA   HL36 1661  28.393  -1.615   5.946
    1XTA   HL37 1662  28.532  -1.519   6.211
    1XTA   HL38 1663  28.665  -1.627   6.223
    1XTA   HL39 1664  28.442  -1.813   6.148
    1XTA   HL40 1665  28.359  -1.658   6.202
    1XTA   HL41 1666  28.460  -1.750   6.313
    1XTA    CO8 1667  28.405  -0.201   4.247
    1XTA    CO9 1668  28.386  -0.447   4.184
    1XTA    OA6 1669  28.254  -0.453   4.233
    1XTA   HL42 1670  28.445  -0.239   4.339
    1XTA   HL43 1671  28.453  -0.105   4.236
    1XTA   HL44 1672  28.667  -1.358   6.030
    1XTA   HL45 1673  28.776  -1.509   6.074
    1XTA   CO10 1674  28.709  -1.491   5.995
    1XTA   CO11 1675  28.627  -1.732   5.951
    1XTA    OA7 1676  28.685  -1.781   6.023
    1XTA   HL46 1677  28.536  -1.782   5.916
    1XTA   HL47 1678  28.677  -1.719   5.853
    1XTA   HL48 1679  28.464  -0.478   4.257
    1XTA   HL49 1680  28.386  -0.509   4.093
    1XTA     NT 1681  31.839  -1.018   6.958
    1XTA    CN1 1682  31.779  -1.142   6.966
    1XTA     C1 1683  31.797  -1.221   7.077
    1XTA     C2 1684  31.739  -1.352   7.079
    1XTA     C3 1685  31.664  -1.403   6.972
    1XTA     C4 1686  31.642  -1.323   6.859
    1XTA     C5 1687  31.700  -1.195   6.860
    1XTA    CN2 1688  31.905  -0.994   6.848
    1XTA     C6 1689  32.013  -1.060   6.798
    1XTA     C7 1690  32.069  -1.038   6.674
    1XTA     C8 1691  32.018  -0.930   6.592
    1XTA     C9 1692  31.916  -0.856   6.642
    1XTA    C10 1693  31.861  -0.886   6.772
    1XTA    CN3 1694  31.827  -0.937   7.069
    1XTA    C11 1695  31.710  -0.904   7.135
    1XTA    C12 1696  31.719  -0.808   7.242
    1XTA    C13 1697  31.842  -0.760   7.296
    1XTA    C14 1698  31.957  -0.797   7.230
    1XTA    C15 1699  31.952  -0.883   7.118
    1XTA     H1 1700  31.861  -1.193   7.154
    1XTA     H2 1701  31.740  -1.402   7.174
    1XTA     H3 1702  31.580  -1.362   6.773
    1XTA     H4 1703  31.687  -1.126   6.779
    1XTA     H5 1704  32.048  -1.146   6.851
    1XTA     H6 1705  32.140  -1.111   6.638
    1XTA     H7 1706  31.888  -0.771   6.588
    1XTA     H8 1707  31.798  -0.820   6.817
    1XTA     H9 1708  31.615  -0.949   7.105
    1XTA    H10 1709  31.623  -0.773   7.282
    1XTA    H11 1710  32.047  -0.756   7.275
    1XTA    H12 1711  32.051  -0.904   7.080
    1XTA    OA1 1712  31.608  -1.530   6.989
    1XTA    CO1 1713  31.490  -1.556   6.913
    1XTA    OA2 1714  32.061  -0.908   6.467
    1XTA    CO2 1715  32.186  -0.954   6.425
    1XTA    CL1 1716  32.204  -0.928   6.278
    1XTA    CL2 1717  32.185  -0.784   6.241
    1XTA    CL3 1718  32.207  -0.762   6.090
    1XTA    CL4 1719  32.162  -0.623   6.050
    1XTA    CO3 1720  32.214  -0.581   5.917
    1XTA    OA3 1721  32.174  -0.447   5.884
    1XTA    CO4 1722  32.230  -0.413   5.752
    1XTA    CT1 1723  32.173  -0.280   5.699
    1XTA    CL5 1724  32.219  -0.239   5.558
    1XTA    CL6 1725  32.369  -0.253   5.529
    1XTA    OA4 1726  31.841  -0.688   7.411
    1XTA    CO5 1727  31.770  -0.740   7.524
    1XTA    CL7 1728  31.769  -0.638   7.638
    1XTA    CL8 1729  31.707  -0.692   7.773
    1XTA    CL9 1730  31.690  -0.576   7.878
    1XTA   CL10 1731  31.649  -0.623   8.023
    1XTA    CO6 1732  31.500  -0.679   8.022
    1XTA    OA5 1733  31.455  -0.693   8.159
    1XTA    CO7 1734  31.338  -0.770   8.162
    1XTA    CT2 1735  31.280  -0.742   8.305
    1XTA   CL11 1736  31.176  -0.850   8.350
    1XTA   CL12 1737  31.038  -0.840   8.299
    1XTA    HL1 1738  31.502  -1.582   6.806
    1XTA    HL2 1739  31.448  -1.645   6.959
    1XTA    HL3 1740  31.412  -1.477   6.912
    1XTA    HL4 1741  32.254  -0.895   6.489
    1XTA    HL5 1742  32.197  -1.061   6.431
    1XTA    HL6 1743  32.133  -0.991   6.216
    1XTA    HL7 1744  32.307  -0.954   6.257
    1XTA    HL8 1745  32.239  -0.715   6.298
    1XTA    HL9 1746  32.079  -0.762   6.258
    1XTA   HL10 1747  32.308  -0.775   6.083
    1XTA   HL11 1748  32.160  -0.840   6.032
    1XTA   HL12 1749  32.180  -0.549   6.127
    1XTA   HL13 1750  32.053  -0.646   6.043
    1XTA   HL14 1751  32.322  -0.590   5.924
    1XTA   HL15 1752  32.184  -0.655   5.841
    1XTA   HL16 1753  32.333  -0.404   5.768
    1XTA   HL17 1754  32.211  -0.501   5.685
    1XTA   HL18 1755  32.202  -0.133   5.531
    1XTA   HL19 1756  32.170  -0.300   5.472
    1XTA   HL20 1757  32.409  -0.346   5.551
    1XTA   HL21 1758  32.413  -0.174   5.592
    1XTA   HL22 1759  32.385  -0.227   5.422
    1XTA   HL23 1760  31.833  -0.824   7.560
    1XTA   HL24 1761  31.668  -0.786   7.495
    1XTA   HL25 1762  31.871  -0.609   7.653
    1XTA   HL26 1763  31.721  -0.552   7.594
    1XTA   HL27 1764  31.617  -0.746   7.746
    1XTA   HL28 1765  31.773  -0.765   7.824
    1XTA   HL29 1766  31.784  -0.518   7.890
    1XTA   HL30 1767  31.626  -0.501   7.834
    1XTA   HL31 1768  31.719  -0.698   8.074
    1XTA   HL32 1769  31.657  -0.530   8.071
    1XTA   HL33 1770  31.435  -0.603   7.976
    1XTA   HL34 1771  31.496  -0.767   7.959
    1XTA   HL35 1772  31.367  -0.877   8.155
    1XTA   HL36 1773  31.274  -0.750   8.081
    1XTA   HL37 1774  31.168  -0.850   8.463
    1XTA   HL38 1775  31.208  -0.951   8.328
    1XTA   HL39 1776  31.045  -0.876   8.196
    1XTA   HL40 1777  30.994  -0.740   8.309
    1XTA   HL41 1778  30.967  -0.906   8.345
    1XTA    CO8 1779  32.213  -0.163   5.788
    1XTA    CO9 1780  32.021  -0.293   5.694
    1XTA    OA6 1781  31.978  -0.389   5.652
    1XTA   HL42 1782  32.178  -0.185   5.888
    1XTA   HL43 1783  32.357  -0.151   5.801
    1XTA   HL44 1784  31.282  -0.528   8.260
    1XTA   HL45 1785  31.129  -0.598   8.223
    1XTA   CO10 1786  31.213  -0.601   8.299
    1XTA   CO11 1787  31.381  -0.741   8.411
    1XTA    OA7 1788  31.177  -0.572   8.403
    1XTA   HL46 1789  31.314  -0.742   8.537
    1XTA   HL47 1790  31.439  -0.649   8.393
    1XTA   HL48 1791  31.993  -0.204   5.640
    1XTA   HL49 1792  31.975  -0.281   5.795
    1XTA     NT 1793  26.966   1.441   1.331
    1XTA    CN1 1794  27.057   1.533   1.289
    1XTA     C1 1795  27.030   1.672   1.296
    1XTA     C2 1796  27.123   1.774   1.254
    1XTA     C3 1797  27.253   1.729   1.210
    1XTA     C4 1798  27.279   1.590   1.215
    1XTA     C5 1799  27.184   1.496   1.248
    1XTA    CN2 1800  27.004   1.366   1.438
    1XTA     C6 1801  26.999   1.428   1.565
    1XTA     C7 1802  27.039   1.351   1.677
    1XTA     C8 1803  27.065   1.210   1.665
    1XTA     C9 1804  27.057   1.144   1.537
    1XTA    C10 1805  27.030   1.227   1.429
    1XTA    CN3 1806  26.852   1.413   1.259
    1XTA    C11 1807  26.734   1.367   1.319
    1XTA    C12 1808  26.619   1.343   1.238
    1XTA    C13 1809  26.624   1.350   1.096
    1XTA    C14 1810  26.742   1.390   1.034
    1XTA    C15 1811  26.854   1.417   1.117
    1XTA     H1 1812  26.930   1.703   1.336
    1XTA     H2 1813  27.093   1.878   1.263
    1XTA     H3 1814  27.375   1.560   1.179
    1XTA     H4 1815  27.202   1.389   1.244
    1XTA     H5 1816  26.986   1.534   1.572
    1XTA     H6 1817  27.039   1.405   1.768
    1XTA     H7 1818  27.069   1.038   1.515
    1XTA     H8 1819  27.022   1.172   1.334
    1XTA     H9 1820  26.730   1.354   1.429
    1XTA    H10 1821  26.532   1.317   1.293
    1XTA    H11 1822  26.757   1.397   0.925
    1XTA    H12 1823  26.952   1.428   1.071
    1XTA    OA1 1824  27.352   1.812   1.159
    1XTA    CO1 1825  27.337   1.944   1.179
    1XTA    OA2 1826  27.092   1.141   1.776
    1XTA    CO2 1827  27.148   1.013   1.757
    1XTA    CL1 1828  27.285   1.019   1.695
    1XTA    CL2 1829  27.331   0.891   1.616
    1XTA    CL3 1830  27.461   0.919   1.540
    1XTA    CL4 1831  27.443   1.006   1.416
    1XTA    CO3 1832  27.567   1.001   1.327
    1XTA    OA3 1833  27.541   1.082   1.212
    1XTA    CO4 1834  27.618   1.054   1.095
    1XTA    CT1 1835  27.595   1.166   0.983
    1XTA    CL5 1836  27.691   1.137   0.867
    1XTA    CL6 1837  27.836   1.130   0.900
    1XTA    OA4 1838  26.520   1.313   1.009
    1XTA    CO5 1839  26.406   1.238   1.064
    1XTA    CL7 1840  26.302   1.337   1.121
    1XTA    CL8 1841  26.173   1.273   1.174
    1XTA    CL9 1842  26.086   1.383   1.212
    1XTA   CL10 1843  26.133   1.466   1.342
    1XTA    CO6 1844  26.092   1.614   1.363
    1XTA    OA5 1845  26.184   1.658   1.459
    1XTA    CO7 1846  26.143   1.789   1.500
    1XTA    CT2 1847  26.069   1.794   1.629
    1XTA   CL11 1848  26.107   1.933   1.689
    1XTA   CL12 1849  26.025   1.973   1.813
    1XTA    HL1 1850  27.427   1.994   1.140
    1XTA    HL2 1851  27.246   1.990   1.139
    1XTA    HL3 1852  27.352   1.974   1.285
    1XTA    HL4 1853  27.147   0.959   1.852
    1XTA    HL5 1854  27.075   0.959   1.700
    1XTA    HL6 1855  27.342   1.047   1.778
    1XTA    HL7 1856  27.294   1.109   1.633
    1XTA    HL8 1857  27.250   0.851   1.546
    1XTA    HL9 1858  27.346   0.815   1.687
    1XTA   HL10 1859  27.530   0.963   1.608
    1XTA   HL11 1860  27.507   0.825   1.506
    1XTA   HL12 1861  27.417   1.104   1.451
    1XTA   HL13 1862  27.355   0.976   1.358
    1XTA   HL14 1863  27.662   1.029   1.380
    1XTA   HL15 1864  27.576   0.894   1.297
    1XTA   HL16 1865  27.720   1.036   1.115
    1XTA   HL17 1866  27.593   0.950   1.058
    1XTA   HL18 1867  27.678   1.217   0.789
    1XTA   HL19 1868  27.663   1.044   0.810
    1XTA   HL20 1869  27.859   1.042   0.966
    1XTA   HL21 1870  27.866   1.226   0.944
    1XTA   HL22 1871  27.895   1.112   0.812
    1XTA   HL23 1872  26.426   1.169   1.148
    1XTA   HL24 1873  26.355   1.180   0.984
    1XTA   HL25 1874  26.350   1.387   1.198
    1XTA   HL26 1875  26.267   1.407   1.041
    1XTA   HL27 1876  26.119   1.193   1.113
    1XTA   HL28 1877  26.198   1.220   1.262
    1XTA   HL29 1878  26.057   1.446   1.125
    1XTA   HL30 1879  25.986   1.350   1.247
    1XTA   HL31 1880  26.125   1.415   1.441
    1XTA   HL32 1881  26.240   1.480   1.322
    1XTA   HL33 1882  26.094   1.662   1.262
    1XTA   HL34 1883  25.984   1.597   1.394
    1XTA   HL35 1884  26.080   1.832   1.423
    1XTA   HL36 1885  26.236   1.846   1.502
    1XTA   HL37 1886  26.077   2.013   1.622
    1XTA   HL38 1887  26.218   1.936   1.714
    1XTA   HL39 1888  26.036   1.893   1.883
    1XTA   HL40 1889  25.917   1.977   1.795
    1XTA   HL41 1890  26.055   2.069   1.849
    1XTA    CO8 1891  27.613   1.306   1.038
    1XTA    CO9 1892  27.449   1.147   0.941
    1XTA    OA6 1893  27.434   1.012   0.906
    1XTA   HL42 1894  27.709   1.313   1.090
    1XTA   HL43 1895  27.533   1.335   1.110
    1XTA   HL44 1896  26.094   1.701   1.828
    1XTA   HL45 1897  26.096   1.581   1.708
    1XTA   CO10 1898  26.131   1.680   1.728
    1XTA   CO11 1899  25.920   1.778   1.604
    1XTA    OA7 1900  26.276   1.677   1.741
    1XTA   HL46 1901  25.879   1.784   1.702
    1XTA   HL47 1902  25.896   1.676   1.571
    1XTA   HL48 1903  27.410   1.202   0.857
    1XTA   HL49 1904  27.382   1.169   1.025
    1XTA     NT 1905  29.787  -0.511  -1.094
    1XTA    CN1 1906  29.659  -0.487  -1.061
    1XTA     C1 1907  29.573  -0.592  -1.013
    1XTA     C2 1908  29.438  -0.565  -0.975
    1XTA     C3 1909  29.397  -0.433  -0.971
    1XTA     C4 1910  29.486  -0.331  -1.005
    1XTA     C5 1911  29.611  -0.358  -1.064
    1XTA    CN2 1912  29.828  -0.490  -1.216
    1XTA     C6 1913  29.910  -0.380  -1.238
    1XTA     C7 1914  29.971  -0.355  -1.361
    1XTA     C8 1915  29.923  -0.426  -1.479
    1XTA     C9 1916  29.813  -0.509  -1.464
    1XTA    C10 1917  29.773  -0.548  -1.335
    1XTA    CN3 1918  29.859  -0.591  -1.007
    1XTA    C11 1919  29.921  -0.528  -0.901
    1XTA    C12 1920  29.993  -0.594  -0.795
    1XTA    C13 1921  29.995  -0.738  -0.801
    1XTA    C14 1922  29.928  -0.803  -0.906
    1XTA    C15 1923  29.859  -0.730  -1.009
    1XTA     H1 1924  29.604  -0.702  -1.008
    1XTA     H2 1925  29.381  -0.643  -0.934
    1XTA     H3 1926  29.450  -0.222  -0.998
    1XTA     H4 1927  29.679  -0.282  -1.101
    1XTA     H5 1928  29.960  -0.331  -1.155
    1XTA     H6 1929  30.051  -0.285  -1.377
    1XTA     H7 1930  29.760  -0.560  -1.546
    1XTA     H8 1931  29.705  -0.621  -1.317
    1XTA     H9 1932  29.905  -0.425  -0.887
    1XTA    H10 1933  30.035  -0.543  -0.713
    1XTA    H11 1934  29.928  -0.914  -0.910
    1XTA    H12 1935  29.813  -0.788  -1.084
    1XTA    OA1 1936  29.266  -0.395  -0.933
    1XTA    CO1 1937  29.167  -0.493  -0.912
    1XTA    OA2 1938  29.997  -0.409  -1.597
    1XTA    CO2 1939  29.993  -0.507  -1.692
    1XTA    CL1 1940  30.125  -0.586  -1.688
    1XTA    CL2 1941  30.132  -0.675  -1.561
    1XTA    CL3 1942  30.275  -0.723  -1.529
    1XTA    CL4 1943  30.280  -0.852  -1.447
    1XTA    CO3 1944  30.220  -0.971  -1.519
    1XTA    OA3 1945  30.195  -1.061  -1.417
    1XTA    CO4 1946  30.113  -1.156  -1.471
    1XTA    CT1 1947  30.092  -1.269  -1.361
    1XTA    CL5 1948  29.991  -1.386  -1.411
    1XTA    CL6 1949  30.024  -1.434  -1.548
    1XTA    OA4 1950  30.062  -0.819  -0.713
    1XTA    CO5 1951  30.173  -0.761  -0.635
    1XTA    CL7 1952  30.119  -0.730  -0.490
    1XTA    CL8 1953  30.227  -0.722  -0.387
    1XTA    CL9 1954  30.365  -0.659  -0.440
    1XTA   CL10 1955  30.361  -0.509  -0.444
    1XTA    CO6 1956  30.502  -0.443  -0.446
    1XTA    OA5 1957  30.493  -0.303  -0.408
    1XTA    CO7 1958  30.401  -0.224  -0.492
    1XTA    CT2 1959  30.427  -0.075  -0.496
    1XTA   CL11 1960  30.575  -0.051  -0.542
    1XTA   CL12 1961  30.609   0.098  -0.574
    1XTA    HL1 1962  29.201  -0.590  -0.863
    1XTA    HL2 1963  29.083  -0.450  -0.857
    1XTA    HL3 1964  29.126  -0.526  -1.010
    1XTA    HL4 1965  29.907  -0.570  -1.672
    1XTA    HL5 1966  29.983  -0.462  -1.788
    1XTA    HL6 1967  30.209  -0.520  -1.685
    1XTA    HL7 1968  30.134  -0.656  -1.773
    1XTA    HL8 1969  30.063  -0.757  -1.577
    1XTA    HL9 1970  30.095  -0.626  -1.474
    1XTA   HL10 1971  30.326  -0.746  -1.619
    1XTA   HL11 1972  30.333  -0.648  -1.481
    1XTA   HL12 1973  30.231  -0.844  -1.352
    1XTA   HL13 1974  30.380  -0.880  -1.409
    1XTA   HL14 1975  30.123  -0.945  -1.579
    1XTA   HL15 1976  30.290  -1.019  -1.591
    1XTA   HL16 1977  30.015  -1.106  -1.488
    1XTA   HL17 1978  30.145  -1.195  -1.565
    1XTA   HL18 1979  29.892  -1.358  -1.405
    1XTA   HL19 1980  30.004  -1.472  -1.350
    1XTA   HL20 1981  29.964  -1.511  -1.591
    1XTA   HL21 1982  30.130  -1.471  -1.557
    1XTA   HL22 1983  30.019  -1.345  -1.618
    1XTA   HL23 1984  30.233  -0.682  -0.683
    1XTA   HL24 1985  30.243  -0.847  -0.626
    1XTA   HL25 1986  30.054  -0.634  -0.483
    1XTA   HL26 1987  30.056  -0.807  -0.454
    1XTA   HL27 1988  30.205  -0.663  -0.305
    1XTA   HL28 1989  30.245  -0.830  -0.361
    1XTA   HL29 1990  30.434  -0.681  -0.358
    1XTA   HL30 1991  30.387  -0.698  -0.542
    1XTA   HL31 1992  30.299  -0.473  -0.525
    1XTA   HL32 1993  30.308  -0.470  -0.359
    1XTA   HL33 1994  30.556  -0.501  -0.373
    1XTA   HL34 1995  30.558  -0.458  -0.537
    1XTA   HL35 1996  30.299  -0.236  -0.457
    1XTA   HL36 1997  30.405  -0.254  -0.594
    1XTA   HL37 1998  30.586  -0.117  -0.630
    1XTA   HL38 1999  30.640  -0.078  -0.459
    1XTA   HL39 2000  30.588   0.164  -0.492
    1XTA   HL40 2001  30.571   0.132  -0.680
    1XTA   HL41 2002  30.718   0.115  -0.578
    1XTA    CO8 2003  30.030  -1.196  -1.233
    1XTA    CO9 2004  30.231  -1.326  -1.317
    1XTA    OA6 2005  30.006  -1.294  -1.139
    1XTA   HL42 2006  29.941  -1.149  -1.266
    1XTA   HL43 2007  30.096  -1.123  -1.200
    1XTA   HL44 2008  30.474  -0.056  -0.290
    1XTA   HL45 2009  30.299  -0.052  -0.335
    1XTA   CO10 2010  30.401  -0.016  -0.357
    1XTA   CO11 2011  30.328  -0.016  -0.597
    1XTA    OA7 2012  30.192  -0.049  -0.579
    1XTA   HL46 2013  30.336   0.094  -0.607
    1XTA   HL47 2014  30.367  -0.058  -0.695
    1XTA   HL48 2015  30.288  -1.259  -1.247
    1XTA   HL49 2016  30.295  -1.322  -1.401
    1XTA     NT 2017  29.483   4.137  -0.792
    1XTA    CN1 2018  29.605   4.192  -0.795
    1XTA     C1 2019  29.709   4.132  -0.717
    1XTA     C2 2020  29.840   4.185  -0.720
    1XTA     C3 2021  29.879   4.291  -0.802
    1XTA     C4 2022  29.773   4.359  -0.872
    1XTA     C5 2023  29.639   4.309  -0.867
    1XTA    CN2 2024  29.433   4.060  -0.895
    1XTA     C6 2025  29.519   3.963  -0.955
    1XTA     C7 2026  29.469   3.887  -1.061
    1XTA     C8 2027  29.337   3.895  -1.107
    1XTA     C9 2028  29.250   3.985  -1.042
    1XTA    C10 2029  29.302   4.073  -0.942
    1XTA    CN3 2030  29.396   4.167  -0.689
    1XTA    C11 2031  29.387   4.298  -0.642
    1XTA    C12 2032  29.291   4.332  -0.542
    1XTA    C13 2033  29.201   4.232  -0.492
    1XTA    C14 2034  29.223   4.103  -0.532
    1XTA    C15 2035  29.327   4.065  -0.621
    1XTA     H1 2036  29.691   4.059  -0.637
    1XTA     H2 2037  29.909   4.141  -0.649
    1XTA     H3 2038  29.783   4.444  -0.937
    1XTA     H4 2039  29.567   4.362  -0.928
    1XTA     H5 2040  29.623   3.953  -0.933
    1XTA     H6 2041  29.534   3.831  -1.120
    1XTA     H7 2042  29.151   4.004  -1.087
    1XTA     H8 2043  29.237   4.153  -0.909
    1XTA     H9 2044  29.450   4.373  -0.694
    1XTA    H10 2045  29.285   4.438  -0.515
    1XTA    H11 2046  29.156   4.032  -0.491
    1XTA    H12 2047  29.330   3.962  -0.652
    1XTA    OA1 2048  30.005   4.345  -0.822
    1XTA    CO1 2049  30.114   4.273  -0.767
    1XTA    OA2 2050  29.298   3.815  -1.212
    1XTA    CO2 2051  29.165   3.763  -1.201
    1XTA    CL1 2052  29.165   3.618  -1.261
    1XTA    CL2 2053  29.127   3.603  -1.410
    1XTA    CL3 2054  29.202   3.696  -1.507
    1XTA    CL4 2055  29.138   3.698  -1.652
    1XTA    CO3 2056  29.242   3.764  -1.742
    1XTA    OA3 2057  29.369   3.698  -1.748
    1XTA    CO4 2058  29.365   3.559  -1.780
    1XTA    CT1 2059  29.501   3.525  -1.836
    1XTA    CL5 2060  29.515   3.593  -1.974
    1XTA    CL6 2061  29.647   3.608  -2.043
    1XTA    OA4 2062  29.098   4.257  -0.406
    1XTA    CO5 2063  29.092   4.386  -0.347
    1XTA    CL7 2064  28.987   4.388  -0.230
    1XTA    CL8 2065  29.052   4.305  -0.112
    1XTA    CL9 2066  29.183   4.369  -0.070
    1XTA   CL10 2067  29.209   4.379   0.080
    1XTA    CO6 2068  29.156   4.513   0.145
    1XTA    OA5 2069  29.216   4.519   0.271
    1XTA    CO7 2070  29.350   4.580   0.276
    1XTA    CT2 2071  29.430   4.531   0.393
    1XTA   CL11 2072  29.459   4.373   0.383
    1XTA   CL12 2073  29.341   4.284   0.413
    1XTA    HL1 2074  30.107   4.160  -0.776
    1XTA    HL2 2075  30.194   4.306  -0.826
    1XTA    HL3 2076  30.112   4.294  -0.664
    1XTA    HL4 2077  29.133   3.751  -1.102
    1XTA    HL5 2078  29.089   3.831  -1.241
    1XTA    HL6 2079  29.083   3.566  -1.213
    1XTA    HL7 2080  29.251   3.566  -1.247
    1XTA    HL8 2081  29.023   3.617  -1.436
    1XTA    HL9 2082  29.142   3.496  -1.431
    1XTA   HL10 2083  29.198   3.791  -1.460
    1XTA   HL11 2084  29.314   3.681  -1.513
    1XTA   HL12 2085  29.046   3.767  -1.659
    1XTA   HL13 2086  29.117   3.601  -1.689
    1XTA   HL14 2087  29.189   3.756  -1.835
    1XTA   HL15 2088  29.246   3.873  -1.719
    1XTA   HL16 2089  29.343   3.496  -1.692
    1XTA   HL17 2090  29.288   3.539  -1.857
    1XTA   HL18 2091  29.481   3.692  -1.945
    1XTA   HL19 2092  29.425   3.555  -2.029
    1XTA   HL20 2093  29.638   3.604  -2.149
    1XTA   HL21 2094  29.711   3.529  -2.008
    1XTA   HL22 2095  29.692   3.693  -2.006
    1XTA   HL23 2096  29.075   4.462  -0.425
    1XTA   HL24 2097  29.179   4.418  -0.304
    1XTA   HL25 2098  28.964   4.491  -0.201
    1XTA   HL26 2099  28.895   4.352  -0.272
    1XTA   HL27 2100  28.996   4.296  -0.026
    1XTA   HL28 2101  29.078   4.202  -0.146
    1XTA   HL29 2102  29.264   4.311  -0.119
    1XTA   HL30 2103  29.194   4.471  -0.115
    1XTA   HL31 2104  29.166   4.290   0.128
    1XTA   HL32 2105  29.316   4.384   0.092
    1XTA   HL33 2106  29.187   4.593   0.074
    1XTA   HL34 2107  29.048   4.513   0.142
    1XTA   HL35 2108  29.345   4.691   0.269
    1XTA   HL36 2109  29.401   4.548   0.183
    1XTA   HL37 2110  29.539   4.359   0.452
    1XTA   HL38 2111  29.496   4.345   0.289
    1XTA   HL39 2112  29.246   4.301   0.358
    1XTA   HL40 2113  29.305   4.294   0.517
    1XTA   HL41 2114  29.365   4.178   0.386
    1XTA    CO8 2115  29.504   3.374  -1.857
    1XTA    CO9 2116  29.614   3.562  -1.729
    1XTA    OA6 2117  29.428   3.337  -1.934
    1XTA   HL42 2118  29.486   3.317  -1.765
    1XTA   HL43 2119  29.604   3.336  -1.887
    1XTA   HL44 2120  29.345   4.670   0.522
    1XTA   HL45 2121  29.251   4.516   0.522
    1XTA   CO10 2122  29.349   4.559   0.519
    1XTA   CO11 2123  29.561   4.616   0.402
    1XTA    OA7 2124  29.406   4.529   0.613
    1XTA   HL46 2125  29.550   4.745   0.438
    1XTA   HL47 2126  29.638   4.576   0.477
    1XTA   HL48 2127  29.743   3.564  -1.793
    1XTA   HL49 2128  29.590   3.673  -1.711
    1XTA     NT 2129  24.397   6.615   0.394
    1XTA    CN1 2130  24.335   6.691   0.302
    1XTA     C1 2131  24.198   6.726   0.311
    1XTA     C2 2132  24.141   6.817   0.224
    1XTA     C3 2133  24.214   6.869   0.114
    1XTA     C4 2134  24.347   6.843   0.109
    1XTA     C5 2135  24.413   6.752   0.201
    1XTA    CN2 2136  24.498   6.672   0.456
    1XTA     C6 2137  24.470   6.789   0.533
    1XTA     C7 2138  24.571   6.858   0.611
    1XTA     C8 2139  24.701   6.808   0.611
    1XTA     C9 2140  24.731   6.698   0.528
    1XTA    C10 2141  24.633   6.627   0.457
    1XTA    CN3 2142  24.404   6.481   0.387
    1XTA    C11 2143  24.417   6.409   0.510
    1XTA    C12 2144  24.435   6.274   0.505
    1XTA    C13 2145  24.418   6.199   0.386
    1XTA    C14 2146  24.390   6.266   0.263
    1XTA    C15 2147  24.376   6.411   0.265
    1XTA     H1 2148  24.143   6.689   0.395
    1XTA     H2 2149  24.038   6.834   0.228
    1XTA     H3 2150  24.401   6.879   0.016
    1XTA     H4 2151  24.514   6.727   0.181
    1XTA     H5 2152  24.379   6.836   0.539
    1XTA     H6 2153  24.540   6.948   0.650
    1XTA     H7 2154  24.832   6.657   0.535
    1XTA     H8 2155  24.665   6.528   0.421
    1XTA     H9 2156  24.436   6.470   0.597
    1XTA    H10 2157  24.442   6.226   0.597
    1XTA    H11 2158  24.392   6.209   0.172
    1XTA    H12 2159  24.358   6.467   0.175
    1XTA    OA1 2160  24.160   6.961   0.023
    1XTA    CO1 2161  24.031   7.011   0.062
    1XTA    OA2 2162  24.798   6.872   0.693
    1XTA    CO2 2163  24.899   6.791   0.753
    1XTA    CL1 2164  24.840   6.689   0.850
    1XTA    CL2 2165  24.944   6.591   0.899
    1XTA    CL3 2166  24.903   6.486   0.994
    1XTA    CL4 2167  25.018   6.394   1.024
    1XTA    CO3 2168  24.983   6.269   1.105
    1XTA    OA3 2169  25.099   6.214   1.167
    1XTA    CO4 2170  25.117   6.074   1.152
    1XTA    CT1 2171  25.230   6.021   1.243
    1XTA    CL5 2172  25.204   6.063   1.390
    1XTA    CL6 2173  25.073   6.020   1.454
    1XTA    OA4 2174  24.427   6.062   0.383
    1XTA    CO5 2175  24.445   5.994   0.501
    1XTA    CL7 2176  24.461   5.840   0.478
    1XTA    CL8 2177  24.516   5.765   0.597
    1XTA    CL9 2178  24.558   5.624   0.570
    1XTA   CL10 2179  24.444   5.534   0.527
    1XTA    CO6 2180  24.479   5.382   0.531
    1XTA    OA5 2181  24.607   5.355   0.481
    1XTA    CO7 2182  24.644   5.214   0.492
    1XTA    CT2 2183  24.785   5.183   0.425
    1XTA   CL11 2184  24.896   5.228   0.526
    1XTA   CL12 2185  25.040   5.200   0.486
    1XTA    HL1 2186  24.002   7.093   0.001
    1XTA    HL2 2187  23.954   6.937   0.059
    1XTA    HL3 2188  24.030   7.060   0.160
    1XTA    HL4 2189  24.972   6.756   0.679
    1XTA    HL5 2190  24.963   6.863   0.802
    1XTA    HL6 2191  24.753   6.636   0.810
    1XTA    HL7 2192  24.805   6.746   0.936
    1XTA    HL8 2193  25.010   6.647   0.965
    1XTA    HL9 2194  25.015   6.548   0.833
    1XTA   HL10 2195  24.865   6.527   1.081
    1XTA   HL11 2196  24.828   6.432   0.945
    1XTA   HL12 2197  25.093   6.457   1.080
    1XTA   HL13 2198  25.072   6.372   0.935
    1XTA   HL14 2199  24.922   6.291   1.197
    1XTA   HL15 2200  24.926   6.194   1.044
    1XTA   HL16 2201  25.024   6.020   1.171
    1XTA   HL17 2202  25.132   6.051   1.045
    1XTA   HL18 2203  25.210   6.176   1.385
    1XTA   HL19 2204  25.273   6.029   1.459
    1XTA   HL20 2205  25.059   5.913   1.478
    1XTA   HL21 2206  24.987   6.045   1.397
    1XTA   HL22 2207  25.076   6.064   1.553
    1XTA   HL23 2208  24.351   6.012   0.554
    1XTA   HL24 2209  24.526   6.028   0.563
    1XTA   HL25 2210  24.367   5.804   0.445
    1XTA   HL26 2211  24.531   5.833   0.400
    1XTA   HL27 2212  24.592   5.818   0.653
    1XTA   HL28 2213  24.434   5.759   0.668
    1XTA   HL29 2214  24.629   5.613   0.487
    1XTA   HL30 2215  24.606   5.592   0.659
    1XTA   HL31 2216  24.359   5.541   0.588
    1XTA   HL32 2217  24.405   5.562   0.430
    1XTA   HL33 2218  24.479   5.346   0.640
    1XTA   HL34 2219  24.404   5.319   0.485
    1XTA   HL35 2220  24.570   5.158   0.426
    1XTA   HL36 2221  24.635   5.164   0.588
    1XTA   HL37 2222  24.887   5.187   0.626
    1XTA   HL38 2223  24.874   5.331   0.546
    1XTA   HL39 2224  25.080   5.235   0.393
    1XTA   HL40 2225  25.051   5.093   0.480
    1XTA   HL41 2226  25.116   5.228   0.558
    1XTA    CO8 2227  25.370   6.083   1.202
    1XTA    CO9 2228  25.246   5.866   1.244
    1XTA    OA6 2229  25.265   5.827   1.147
    1XTA   HL42 2230  25.390   6.041   1.099
    1XTA   HL43 2231  25.477   6.041   1.288
    1XTA   HL44 2232  24.678   5.215   0.206
    1XTA   HL45 2233  24.884   5.213   0.229
    1XTA   CO10 2234  24.792   5.250   0.282
    1XTA   CO11 2235  24.780   5.030   0.406
    1XTA    OA7 2236  24.872   4.994   0.353
    1XTA   HL46 2237  24.786   4.972   0.501
    1XTA   HL47 2238  24.686   5.006   0.348
    1XTA   HL48 2239  25.157   5.821   1.286
    1XTA   HL49 2240  25.327   5.847   1.313
    1XTA     NT 2241  32.071   1.536   2.471
    1XTA    CN1 2242  32.112   1.463   2.574
    1XTA     C1 2243  32.214   1.507   2.656
    1XTA     C2 2244  32.246   1.435   2.770
    1XTA     C3 2245  32.181   1.316   2.803
    1XTA     C4 2246  32.077   1.263   2.719
    1XTA     C5 2247  32.038   1.340   2.605
    1XTA    CN2 2248  32.119   1.520   2.346
    1XTA     C6 2249  32.232   1.598   2.306
    1XTA     C7 2250  32.302   1.574   2.191
    1XTA     C8 2251  32.255   1.472   2.108
    1XTA     C9 2252  32.139   1.386   2.143
    1XTA    C10 2253  32.074   1.411   2.266
    1XTA    CN3 2254  31.984   1.641   2.487
    1XTA    C11 2255  31.906   1.693   2.383
    1XTA    C12 2256  31.823   1.799   2.398
    1XTA    C13 2257  31.838   1.880   2.511
    1XTA    C14 2258  31.922   1.840   2.618
    1XTA    C15 2259  32.002   1.722   2.606
    1XTA     H1 2260  32.278   1.592   2.622
    1XTA     H2 2261  32.331   1.477   2.832
    1XTA     H3 2262  32.032   1.171   2.741
    1XTA     H4 2263  31.962   1.306   2.535
    1XTA     H5 2264  32.255   1.687   2.371
    1XTA     H6 2265  32.381   1.645   2.169
    1XTA     H7 2266  32.109   1.313   2.078
    1XTA     H8 2267  31.987   1.351   2.308
    1XTA     H9 2268  31.910   1.654   2.282
    1XTA    H10 2269  31.771   1.819   2.304
    1XTA    H11 2270  31.933   1.892   2.711
    1XTA    H12 2271  32.061   1.696   2.692
    1XTA    OA1 2272  32.229   1.254   2.914
    1XTA    CO1 2273  32.202   1.117   2.928
    1XTA    OA2 2274  32.321   1.449   1.991
    1XTA    CO2 2275  32.343   1.310   1.971
    1XTA    CL1 2276  32.435   1.297   1.851
    1XTA    CL2 2277  32.373   1.289   1.713
    1XTA    CL3 2278  32.374   1.428   1.639
    1XTA    CL4 2279  32.345   1.402   1.492
    1XTA    CO3 2280  32.318   1.526   1.407
    1XTA    OA3 2281  32.281   1.631   1.494
    1XTA    CO4 2282  32.372   1.736   1.522
    1XTA    CT1 2283  32.320   1.858   1.619
    1XTA    CL5 2284  32.192   1.922   1.557
    1XTA    CL6 2285  32.212   1.961   1.409
    1XTA    OA4 2286  31.763   1.994   2.518
    1XTA    CO5 2287  31.823   2.104   2.594
    1XTA    CL7 2288  31.783   2.224   2.510
    1XTA    CL8 2289  31.812   2.209   2.362
    1XTA    CL9 2290  31.742   2.305   2.266
    1XTA   CL10 2291  31.808   2.307   2.126
    1XTA    CO6 2292  31.747   2.403   2.026
    1XTA    OA5 2293  31.823   2.402   1.907
    1XTA    CO7 2294  31.792   2.287   1.828
    1XTA    CT2 2295  31.918   2.262   1.730
    1XTA   CL11 2296  31.881   2.163   1.615
    1XTA   CL12 2297  31.785   2.216   1.507
    1XTA    HL1 2298  32.088   1.115   2.940
    1XTA    HL2 2299  32.247   1.073   2.837
    1XTA    HL3 2300  32.247   1.076   3.014
    1XTA    HL4 2301  32.397   1.260   2.051
    1XTA    HL5 2302  32.255   1.247   1.955
    1XTA    HL6 2303  32.483   1.196   1.862
    1XTA    HL7 2304  32.508   1.374   1.862
    1XTA    HL8 2305  32.270   1.256   1.721
    1XTA    HL9 2306  32.414   1.216   1.647
    1XTA   HL10 2307  32.320   1.496   1.699
    1XTA   HL11 2308  32.469   1.466   1.647
    1XTA   HL12 2309  32.255   1.344   1.479
    1XTA   HL13 2310  32.418   1.338   1.444
    1XTA   HL14 2311  32.407   1.551   1.350
    1XTA   HL15 2312  32.239   1.512   1.336
    1XTA   HL16 2313  32.452   1.680   1.571
    1XTA   HL17 2314  32.396   1.771   1.424
    1XTA   HL18 2315  32.163   2.002   1.625
    1XTA   HL19 2316  32.104   1.847   1.568
    1XTA   HL20 2317  32.143   2.048   1.371
    1XTA   HL21 2318  32.193   1.871   1.346
    1XTA   HL22 2319  32.314   2.002   1.395
    1XTA   HL23 2320  31.933   2.110   2.605
    1XTA   HL24 2321  31.782   2.096   2.695
    1XTA   HL25 2322  31.680   2.263   2.528
    1XTA   HL26 2323  31.836   2.304   2.552
    1XTA   HL27 2324  31.920   2.227   2.364
    1XTA   HL28 2325  31.793   2.106   2.331
    1XTA   HL29 2326  31.636   2.287   2.267
    1XTA   HL30 2327  31.757   2.411   2.298
    1XTA   HL31 2328  31.917   2.327   2.136
    1XTA   HL32 2329  31.796   2.206   2.098
    1XTA   HL33 2330  31.645   2.380   1.996
    1XTA   HL34 2331  31.747   2.500   2.074
    1XTA   HL35 2332  31.704   2.294   1.757
    1XTA   HL36 2333  31.770   2.204   1.893
    1XTA   HL37 2334  31.838   2.065   1.661
    1XTA   HL38 2335  31.979   2.133   1.564
    1XTA   HL39 2336  31.680   2.236   1.531
    1XTA   HL40 2337  31.784   2.151   1.427
    1XTA   HL41 2338  31.821   2.315   1.471
    1XTA    CO8 2339  32.432   1.962   1.635
    1XTA    CO9 2340  32.291   1.794   1.754
    1XTA    OA6 2341  32.245   1.879   1.853
    1XTA   HL42 2342  32.384   2.056   1.668
    1XTA   HL43 2343  32.505   1.929   1.711
    1XTA   HL44 2344  32.077   2.308   1.906
    1XTA   HL45 2345  32.120   2.190   1.754
    1XTA   CO10 2346  32.029   2.213   1.817
    1XTA   CO11 2347  31.969   2.397   1.669
    1XTA    OA7 2348  32.042   2.376   1.594
    1XTA   HL46 2349  31.892   2.460   1.641
    1XTA   HL47 2350  32.023   2.458   1.740
    1XTA   HL48 2351  32.384   1.748   1.788
    1XTA   HL49 2352  32.230   1.712   1.731
    1XTA     NT 2353  31.217   4.046   2.873
    1XTA    CN1 2354  31.195   4.159   2.800
    1XTA     C1 2355  31.276   4.277   2.822
    1XTA     C2 2356  31.257   4.386   2.740
    1XTA     C3 2357  31.172   4.385   2.626
    1XTA     C4 2358  31.088   4.273   2.612
    1XTA     C5 2359  31.094   4.164   2.704
    1XTA    CN2 2360  31.109   3.971   2.900
    1XTA     C6 2361  31.063   3.867   2.811
    1XTA     C7 2362  30.939   3.802   2.836
    1XTA     C8 2363  30.861   3.831   2.947
    1XTA     C9 2364  30.904   3.930   3.036
    1XTA    C10 2365  31.019   4.005   3.010
    1XTA    CN3 2366  31.336   3.980   2.868
    1XTA    C11 2367  31.400   3.956   2.989
    1XTA    C12 2368  31.520   3.883   2.995
    1XTA    C13 2369  31.573   3.826   2.878
    1XTA    C14 2370  31.507   3.857   2.750
    1XTA    C15 2371  31.392   3.939   2.748
    1XTA     H1 2372  31.352   4.284   2.900
    1XTA     H2 2373  31.312   4.472   2.743
    1XTA     H3 2374  31.014   4.261   2.532
    1XTA     H4 2375  31.021   4.084   2.686
    1XTA     H5 2376  31.123   3.851   2.721
    1XTA     H6 2377  30.904   3.719   2.772
    1XTA     H7 2378  30.844   3.954   3.129
    1XTA     H8 2379  31.043   4.087   3.077
    1XTA     H9 2380  31.350   3.990   3.075
    1XTA    H10 2381  31.570   3.861   3.091
    1XTA    H11 2382  31.559   3.825   2.662
    1XTA    H12 2383  31.350   3.959   2.649
    1XTA    OA1 2384  31.152   4.488   2.539
    1XTA    CO1 2385  31.236   4.599   2.549
    1XTA    OA2 2386  30.744   3.755   2.962
    1XTA    CO2 2387  30.644   3.788   3.053
    1XTA    CL1 2388  30.512   3.728   3.009
    1XTA    CL2 2389  30.407   3.749   3.129
    1XTA    CL3 2390  30.262   3.716   3.092
    1XTA    CL4 2391  30.182   3.829   3.025
    1XTA    CO3 2392  30.035   3.793   3.004
    1XTA    OA3 2393  30.020   3.682   2.916
    1XTA    CO4 2394  29.920   3.588   2.951
    1XTA    CT1 2395  29.895   3.472   2.847
    1XTA    CL5 2396  29.778   3.379   2.886
    1XTA    CL6 2397  29.798   3.333   3.030
    1XTA    OA4 2398  31.700   3.770   2.860
    1XTA    CO5 2399  31.793   3.780   2.966
    1XTA    CL7 2400  31.896   3.672   2.936
    1XTA    CL8 2401  32.029   3.714   2.995
    1XTA    CL9 2402  32.132   3.609   2.962
    1XTA   CL10 2403  32.257   3.631   3.052
    1XTA    CO6 2404  32.243   3.535   3.179
    1XTA    OA5 2405  32.140   3.582   3.255
    1XTA    CO7 2406  32.097   3.494   3.355
    1XTA    CT2 2407  31.998   3.564   3.442
    1XTA   CL11 2408  31.951   3.467   3.552
    1XTA   CL12 2409  32.047   3.429   3.670
    1XTA    HL1 2410  31.207   4.654   2.638
    1XTA    HL2 2411  31.338   4.574   2.557
    1XTA    HL3 2412  31.225   4.673   2.470
    1XTA    HL4 2413  30.675   3.746   3.152
    1XTA    HL5 2414  30.624   3.894   3.067
    1XTA    HL6 2415  30.518   3.618   2.987
    1XTA    HL7 2416  30.466   3.778   2.917
    1XTA    HL8 2417  30.408   3.852   3.167
    1XTA    HL9 2418  30.442   3.682   3.209
    1XTA   HL10 2419  30.254   3.623   3.030
    1XTA   HL11 2420  30.213   3.677   3.184
    1XTA   HL12 2421  30.234   3.846   2.934
    1XTA   HL13 2422  30.190   3.916   3.081
    1XTA   HL14 2423  29.990   3.778   3.101
    1XTA   HL15 2424  29.970   3.868   2.965
    1XTA   HL16 2425  29.958   3.554   3.045
    1XTA   HL17 2426  29.824   3.629   2.970
    1XTA   HL18 2427  29.772   3.295   2.822
    1XTA   HL19 2428  29.684   3.438   2.882
    1XTA   HL20 2429  29.809   3.411   3.108
    1XTA   HL21 2430  29.889   3.276   3.031
    1XTA   HL22 2431  29.726   3.257   3.064
    1XTA   HL23 2432  31.743   3.753   3.063
    1XTA   HL24 2433  31.843   3.879   2.962
    1XTA   HL25 2434  31.872   3.577   2.985
    1XTA   HL26 2435  31.910   3.672   2.824
    1XTA   HL27 2436  32.055   3.817   2.969
    1XTA   HL28 2437  31.999   3.724   3.103
    1XTA   HL29 2438  32.103   3.503   2.973
    1XTA   HL30 2439  32.166   3.613   2.856
    1XTA   HL31 2440  32.348   3.606   2.993
    1XTA   HL32 2441  32.265   3.732   3.082
    1XTA   HL33 2442  32.210   3.442   3.136
    1XTA   HL34 2443  32.336   3.521   3.240
    1XTA   HL35 2444  32.183   3.476   3.415
    1XTA   HL36 2445  32.063   3.405   3.306
    1XTA   HL37 2446  31.892   3.385   3.505
    1XTA   HL38 2447  31.863   3.521   3.591
    1XTA   HL39 2448  32.087   3.516   3.709
    1XTA   HL40 2449  32.129   3.371   3.641
    1XTA   HL41 2450  31.982   3.359   3.739
    1XTA    CO8 2451  30.026   3.402   2.835
    1XTA    CO9 2452  29.858   3.528   2.707
    1XTA    OA6 2453  29.775   3.594   2.713
    1XTA   HL42 2454  30.089   3.457   2.769
    1XTA   HL43 2455  30.089   3.413   2.962
    1XTA   HL44 2456  31.846   3.518   3.308
    1XTA   HL45 2457  31.909   3.686   3.297
    1XTA   CO10 2458  31.874   3.607   3.364
    1XTA   CO11 2459  32.060   3.687   3.514
    1XTA    OA7 2460  32.086   3.790   3.415
    1XTA   HL46 2461  31.995   3.728   3.591
    1XTA   HL47 2462  32.157   3.663   3.559
    1XTA   HL48 2463  29.837   3.437   2.643
    1XTA   HL49 2464  29.949   3.574   2.674
    1XTA     NT 2465  24.617   0.847   5.176
    1XTA    CN1 2466  24.753   0.830   5.196
    1XTA     C1 2467  24.835   0.804   5.090
    1XTA     C2 2468  24.969   0.769   5.102
    1XTA     C3 2469  25.019   0.757   5.233
    1XTA     C4 2470  24.938   0.770   5.349
    1XTA     C5 2471  24.810   0.812   5.327
    1XTA    CN2 2472  24.564   0.790   5.069
    1XTA     C6 2473  24.513   0.662   5.065
    1XTA     C7 2474  24.455   0.609   4.946
    1XTA     C8 2475  24.444   0.683   4.828
    1XTA     C9 2476  24.499   0.812   4.826
    1XTA    C10 2477  24.555   0.865   4.946
    1XTA    CN3 2478  24.551   0.939   5.249
    1XTA    C11 2479  24.433   0.911   5.318
    1XTA    C12 2480  24.364   1.003   5.401
    1XTA    C13 2481  24.422   1.128   5.434
    1XTA    C14 2482  24.552   1.152   5.378
    1XTA    C15 2483  24.603   1.063   5.281
    1XTA     H1 2484  24.805   0.804   4.988
    1XTA     H2 2485  25.042   0.745   5.031
    1XTA     H3 2486  24.969   0.762   5.448
    1XTA     H4 2487  24.751   0.829   5.420
    1XTA     H5 2488  24.509   0.594   5.155
    1XTA     H6 2489  24.409   0.509   4.948
    1XTA     H7 2490  24.491   0.869   4.734
    1XTA     H8 2491  24.581   0.968   4.945
    1XTA     H9 2492  24.387   0.814   5.296
    1XTA    H10 2493  24.267   0.988   5.439
    1XTA    H11 2494  24.602   1.239   5.413
    1XTA    H12 2495  24.702   1.091   5.258
    1XTA    OA1 2496  25.149   0.713   5.245
    1XTA    CO1 2497  25.218   0.756   5.361
    1XTA    OA2 2498  24.375   0.642   4.713
    1XTA    CO2 2499  24.270   0.543   4.724
    1XTA    CL1 2500  24.149   0.588   4.811
    1XTA    CL2 2501  24.066   0.701   4.740
    1XTA    CL3 2502  24.117   0.837   4.785
    1XTA    CL4 2503  24.057   0.954   4.705
    1XTA    CO3 2504  24.069   1.078   4.796
    1XTA    OA3 2505  24.031   1.185   4.721
    1XTA    CO4 2506  24.022   1.299   4.803
    1XTA    CT1 2507  23.972   1.410   4.713
    1XTA    CL5 2508  23.822   1.402   4.689
    1XTA    CL6 2509  23.766   1.284   4.604
    1XTA    OA4 2510  24.358   1.204   5.525
    1XTA    CO5 2511  24.427   1.287   5.614
    1XTA    CL7 2512  24.363   1.304   5.746
    1XTA    CL8 2513  24.387   1.187   5.837
    1XTA    CL9 2514  24.366   1.208   5.990
    1XTA   CL10 2515  24.223   1.265   6.021
    1XTA    CO6 2516  24.169   1.195   6.146
    1XTA    OA5 2517  24.031   1.197   6.169
    1XTA    CO7 2518  23.991   1.152   6.296
    1XTA    CT2 2519  23.932   1.261   6.388
    1XTA   CL11 2520  23.832   1.352   6.309
    1XTA   CL12 2521  23.888   1.462   6.205
    1XTA    HL1 2522  25.195   0.690   5.440
    1XTA    HL2 2523  25.323   0.747   5.338
    1XTA    HL3 2524  25.215   0.862   5.398
    1XTA    HL4 2525  24.219   0.529   4.630
    1XTA    HL5 2526  24.310   0.443   4.739
    1XTA    HL6 2527  24.187   0.617   4.905
    1XTA    HL7 2528  24.089   0.499   4.830
    1XTA    HL8 2529  23.962   0.681   4.768
    1XTA    HL9 2530  24.068   0.692   4.639
    1XTA   HL10 2531  24.093   0.866   4.894
    1XTA   HL11 2532  24.226   0.836   4.788
    1XTA   HL12 2533  23.958   0.935   4.670
    1XTA   HL13 2534  24.123   0.972   4.622
    1XTA   HL14 2535  23.993   1.072   4.870
    1XTA   HL15 2536  24.165   1.102   4.843
    1XTA   HL16 2537  23.951   1.273   4.884
    1XTA   HL17 2538  24.122   1.325   4.846
    1XTA   HL18 2539  23.797   1.509   4.648
    1XTA   HL19 2540  23.769   1.408   4.779
    1XTA   HL20 2541  23.809   1.294   4.512
    1XTA   HL21 2542  23.658   1.288   4.574
    1XTA   HL22 2543  23.802   1.184   4.638
    1XTA   HL23 2544  24.448   1.379   5.560
    1XTA   HL24 2545  24.525   1.250   5.639
    1XTA   HL25 2546  24.401   1.400   5.789
    1XTA   HL26 2547  24.257   1.321   5.739
    1XTA   HL27 2548  24.341   1.099   5.791
    1XTA   HL28 2549  24.488   1.167   5.833
    1XTA   HL29 2550  24.374   1.106   6.030
    1XTA   HL30 2551  24.448   1.272   6.027
    1XTA   HL31 2552  24.210   1.374   6.012
    1XTA   HL32 2553  24.158   1.225   5.946
    1XTA   HL33 2554  24.195   1.093   6.150
    1XTA   HL34 2555  24.220   1.239   6.232
    1XTA   HL35 2556  24.074   1.091   6.340
    1XTA   HL36 2557  23.907   1.080   6.272
    1XTA   HL37 2558  23.773   1.411   6.374
    1XTA   HL38 2559  23.761   1.283   6.265
    1XTA   HL39 2560  23.948   1.534   6.259
    1XTA   HL40 2561  23.810   1.510   6.148
    1XTA   HL41 2562  23.952   1.426   6.127
    1XTA    CO8 2563  24.038   1.405   4.570
    1XTA    CO9 2564  24.007   1.546   4.782
    1XTA    OA6 2565  23.937   1.546   4.909
    1XTA   HL42 2566  23.976   1.465   4.495
    1XTA   HL43 2567  24.020   1.303   4.533
    1XTA   HL44 2568  24.097   1.266   6.530
    1XTA   HL45 2569  24.121   1.368   6.390
    1XTA   CO10 2570  24.045   1.333   6.465
    1XTA   CO11 2571  23.846   1.183   6.497
    1XTA    OA7 2572  23.994   1.442   6.539
    1XTA   HL46 2573  23.759   1.143   6.442
    1XTA   HL47 2574  23.806   1.251   6.570
    1XTA   HL48 2575  23.985   1.628   4.718
    1XTA   HL49 2576  24.115   1.557   4.796
    1XTA     NT 2577  23.996   4.168   4.465
    1XTA    CN1 2578  24.061   4.090   4.376
    1XTA     C1 2579  24.181   4.127   4.314
    1XTA     C2 2580  24.257   4.039   4.242
    1XTA     C3 2581  24.226   3.903   4.236
    1XTA     C4 2582  24.107   3.860   4.295
    1XTA     C5 2583  24.023   3.953   4.365
    1XTA    CN2 2584  23.982   4.121   4.592
    1XTA     C6 2585  23.854   4.115   4.645
    1XTA     C7 2586  23.843   4.060   4.773
    1XTA     C8 2587  23.956   4.029   4.851
    1XTA     C9 2588  24.090   4.048   4.796
    1XTA    C10 2589  24.098   4.081   4.661
    1XTA    CN3 2590  23.941   4.286   4.428
    1XTA    C11 2591  23.857   4.293   4.318
    1XTA    C12 2592  23.794   4.408   4.276
    1XTA    C13 2593  23.814   4.530   4.343
    1XTA    C14 2594  23.908   4.530   4.450
    1XTA    C15 2595  23.961   4.407   4.495
    1XTA     H1 2596  24.213   4.229   4.329
    1XTA     H2 2597  24.345   4.071   4.193
    1XTA     H3 2598  24.078   3.757   4.295
    1XTA     H4 2599  23.935   3.912   4.418
    1XTA     H5 2600  23.773   4.137   4.578
    1XTA     H6 2601  23.740   4.058   4.814
    1XTA     H7 2602  24.186   4.015   4.849
    1XTA     H8 2603  24.198   4.090   4.609
    1XTA     H9 2604  23.837   4.204   4.270
    1XTA    H10 2605  23.732   4.411   4.190
    1XTA    H11 2606  23.930   4.625   4.499
    1XTA    H12 2607  24.035   4.412   4.579
    1XTA    OA1 2608  24.318   3.830   4.170
    1XTA    CO1 2609  24.290   3.689   4.168
    1XTA    OA2 2610  23.950   3.976   4.977
    1XTA    CO2 2611  23.829   3.923   5.026
    1XTA    CL1 2612  23.853   3.879   5.171
    1XTA    CL2 2613  23.987   3.794   5.193
    1XTA    CL3 2614  23.983   3.667   5.113
    1XTA    CL4 2615  24.116   3.591   5.123
    1XTA    CO3 2616  24.155   3.514   4.999
    1XTA    OA3 2617  24.244   3.405   5.031
    1XTA    CO4 2618  24.274   3.324   4.912
    1XTA    CT1 2619  24.393   3.226   4.927
    1XTA    CL5 2620  24.508   3.306   5.005
    1XTA    CL6 2621  24.635   3.221   5.015
    1XTA    OA4 2622  23.756   4.643   4.287
    1XTA    CO5 2623  23.759   4.764   4.366
    1XTA    CL7 2624  23.641   4.852   4.316
    1XTA    CL8 2625  23.505   4.793   4.332
    1XTA    CL9 2626  23.409   4.866   4.238
    1XTA   CL10 2627  23.263   4.854   4.277
    1XTA    CO6 2628  23.182   4.919   4.176
    1XTA    OA5 2629  23.215   4.853   4.059
    1XTA    CO7 2630  23.118   4.866   3.959
    1XTA    CT2 2631  23.169   4.792   3.831
    1XTA   CL11 2632  23.304   4.843   3.774
    1XTA   CL12 2633  23.411   4.852   3.874
    1XTA    HL1 2634  24.264   3.656   4.270
    1XTA    HL2 2635  24.209   3.667   4.099
    1XTA    HL3 2636  24.379   3.637   4.134
    1XTA    HL4 2637  23.762   4.006   5.021
    1XTA    HL5 2638  23.776   3.849   4.964
    1XTA    HL6 2639  23.760   3.821   5.187
    1XTA    HL7 2640  23.848   3.959   5.241
    1XTA    HL8 2641  24.012   3.767   5.293
    1XTA    HL9 2642  24.060   3.863   5.149
    1XTA   HL10 2643  23.909   3.603   5.155
    1XTA   HL11 2644  23.961   3.684   5.005
    1XTA   HL12 2645  24.094   3.501   5.184
    1XTA   HL13 2646  24.210   3.627   5.166
    1XTA   HL14 2647  24.065   3.472   4.947
    1XTA   HL15 2648  24.205   3.591   4.938
    1XTA   HL16 2649  24.183   3.262   4.881
    1XTA   HL17 2650  24.296   3.388   4.826
    1XTA   HL18 2651  24.471   3.338   5.103
    1XTA   HL19 2652  24.532   3.398   4.945
    1XTA   HL20 2653  24.707   3.283   5.072
    1XTA   HL21 2654  24.672   3.196   4.913
    1XTA   HL22 2655  24.618   3.125   5.070
    1XTA   HL23 2656  23.859   4.803   4.359
    1XTA   HL24 2657  23.743   4.739   4.470
    1XTA   HL25 2658  23.633   4.951   4.365
    1XTA   HL26 2659  23.648   4.867   4.207
    1XTA   HL27 2660  23.518   4.689   4.313
    1XTA   HL28 2661  23.478   4.796   4.442
    1XTA   HL29 2662  23.427   4.970   4.250
    1XTA   HL30 2663  23.432   4.852   4.138
    1XTA   HL31 2664  23.229   4.752   4.283
    1XTA   HL32 2665  23.256   4.887   4.385
    1XTA   HL33 2666  23.072   4.907   4.194
    1XTA   HL34 2667  23.202   5.022   4.155
    1XTA   HL35 2668  23.090   4.979   3.945
    1XTA   HL36 2669  23.025   4.816   3.974
    1XTA   HL37 2670  23.286   4.931   3.719
    1XTA   HL38 2671  23.333   4.771   3.698
    1XTA   HL39 2672  23.439   4.760   3.928
    1XTA   HL40 2673  23.401   4.937   3.934
    1XTA   HL41 2674  23.501   4.875   3.816
    1XTA    CO8 2675  24.448   3.194   4.787
    1XTA    CO9 2676  24.357   3.102   5.011
    1XTA    OA6 2677  24.474   3.308   4.711
    1XTA   HL42 2678  24.372   3.139   4.739
    1XTA   HL43 2679  24.529   3.128   4.777
    1XTA   HL44 2680  23.113   4.769   3.631
    1XTA   HL45 2681  22.978   4.744   3.734
    1XTA   CO10 2682  23.068   4.803   3.717
    1XTA   CO11 2683  23.182   4.637   3.863
    1XTA    OA7 2684  23.037   4.942   3.702
    1XTA   HL46 2685  23.275   4.614   3.917
    1XTA   HL47 2686  23.201   4.600   3.768
    1XTA   HL48 2687  24.299   3.130   5.100
    1XTA   HL49 2688  24.443   3.053   5.052
    1XTA     NT 2689  26.406  -2.025  -0.693
    1XTA    CN1 2690  26.369  -2.144  -0.630
    1XTA     C1 2691  26.407  -2.155  -0.494
    1XTA     C2 2692  26.375  -2.263  -0.419
    1XTA     C3 2693  26.306  -2.371  -0.479
    1XTA     C4 2694  26.279  -2.364  -0.616
    1XTA     C5 2695  26.305  -2.250  -0.694
    1XTA    CN2 2696  26.519  -2.015  -0.759
    1XTA     C6 2697  26.515  -1.977  -0.896
    1XTA     C7 2698  26.636  -1.951  -0.964
    1XTA     C8 2699  26.758  -1.964  -0.890
    1XTA     C9 2700  26.763  -2.002  -0.759
    1XTA    C10 2701  26.645  -2.033  -0.689
    1XTA    CN3 2702  26.325  -1.920  -0.685
    1XTA    C11 2703  26.369  -1.785  -0.668
    1XTA    C12 2704  26.270  -1.679  -0.674
    1XTA    C13 2705  26.135  -1.700  -0.685
    1XTA    C14 2706  26.094  -1.832  -0.695
    1XTA    C15 2707  26.184  -1.936  -0.702
    1XTA     H1 2708  26.464  -2.074  -0.444
    1XTA     H2 2709  26.390  -2.269  -0.315
    1XTA     H3 2710  26.239  -2.452  -0.662
    1XTA     H4 2711  26.283  -2.241  -0.799
    1XTA     H5 2712  26.418  -1.965  -0.939
    1XTA     H6 2713  26.628  -1.945  -1.069
    1XTA     H7 2714  26.854  -2.009  -0.705
    1XTA     H8 2715  26.651  -2.055  -0.582
    1XTA     H9 2716  26.474  -1.770  -0.654
    1XTA    H10 2717  26.301  -1.577  -0.662
    1XTA    H11 2718  25.983  -1.852  -0.704
    1XTA    H12 2719  26.133  -2.031  -0.710
    1XTA    OA1 2720  26.255  -2.475  -0.404
    1XTA    CO1 2721  26.229  -2.591  -0.466
    1XTA    OA2 2722  26.881  -1.940  -0.950
    1XTA    CO2 2723  26.913  -2.029  -1.051
    1XTA    CL1 2724  27.062  -2.043  -1.055
    1XTA    CL2 2725  27.102  -2.105  -0.920
    1XTA    CL3 2726  27.088  -2.253  -0.912
    1XTA    CL4 2727  27.161  -2.300  -0.782
    1XTA    CO3 2728  27.161  -2.454  -0.758
    1XTA    OA3 2729  27.251  -2.475  -0.647
    1XTA    CO4 2730  27.279  -2.613  -0.620
    1XTA    CT1 2731  27.295  -2.651  -0.472
    1XTA    CL5 2732  27.347  -2.794  -0.452
    1XTA    CL6 2733  27.259  -2.906  -0.509
    1XTA    OA4 2734  26.046  -1.596  -0.674
    1XTA    CO5 2735  25.995  -1.535  -0.797
    1XTA    CL7 2736  25.944  -1.392  -0.779
    1XTA    CL8 2737  26.041  -1.296  -0.706
    1XTA    CL9 2738  26.110  -1.202  -0.800
    1XTA   CL10 2739  26.204  -1.098  -0.746
    1XTA    CO6 2740  26.241  -0.986  -0.843
    1XTA    OA5 2741  26.340  -0.909  -0.779
    1XTA    CO7 2742  26.354  -0.774  -0.822
    1XTA    CT2 2743  26.481  -0.720  -0.754
    1XTA   CL11 2744  26.492  -0.567  -0.805
    1XTA   CL12 2745  26.417  -0.472  -0.720
    1XTA    HL1 2746  26.311  -2.642  -0.516
    1XTA    HL2 2747  26.191  -2.658  -0.388
    1XTA    HL3 2748  26.137  -2.581  -0.531
    1XTA    HL4 2749  26.864  -2.129  -1.019
    1XTA    HL5 2750  26.876  -2.000  -1.151
    1XTA    HL6 2751  27.108  -1.950  -1.069
    1XTA    HL7 2752  27.097  -2.110  -1.129
    1XTA    HL8 2753  27.062  -2.053  -0.833
    1XTA    HL9 2754  27.215  -2.095  -0.920
    1XTA   HL10 2755  26.980  -2.286  -0.914
    1XTA   HL11 2756  27.127  -2.286  -1.009
    1XTA   HL12 2757  27.116  -2.260  -0.700
    1XTA   HL13 2758  27.260  -2.261  -0.777
    1XTA   HL14 2759  27.060  -2.498  -0.750
    1XTA   HL15 2760  27.206  -2.500  -0.851
    1XTA   HL16 2761  27.199  -2.678  -0.660
    1XTA   HL17 2762  27.367  -2.645  -0.671
    1XTA   HL18 2763  27.338  -2.814  -0.351
    1XTA   HL19 2764  27.451  -2.808  -0.495
    1XTA   HL20 2765  27.158  -2.913  -0.472
    1XTA   HL21 2766  27.314  -2.992  -0.492
    1XTA   HL22 2767  27.256  -2.903  -0.622
    1XTA   HL23 2768  25.910  -1.600  -0.832
    1XTA   HL24 2769  26.074  -1.538  -0.872
    1XTA   HL25 2770  25.915  -1.362  -0.879
    1XTA   HL26 2771  25.848  -1.395  -0.719
    1XTA   HL27 2772  25.977  -1.238  -0.639
    1XTA   HL28 2773  26.120  -1.349  -0.643
    1XTA   HL29 2774  26.170  -1.261  -0.861
    1XTA   HL30 2775  26.027  -1.153  -0.863
    1XTA   HL31 2776  26.157  -1.051  -0.661
    1XTA   HL32 2777  26.292  -1.149  -0.712
    1XTA   HL33 2778  26.275  -1.027  -0.932
    1XTA   HL34 2779  26.149  -0.928  -0.865
    1XTA   HL35 2780  26.265  -0.720  -0.790
    1XTA   HL36 2781  26.364  -0.766  -0.929
    1XTA   HL37 2782  26.463  -0.567  -0.909
    1XTA   HL38 2783  26.594  -0.538  -0.804
    1XTA   HL39 2784  26.313  -0.511  -0.702
    1XTA   HL40 2785  26.413  -0.371  -0.762
    1XTA   HL41 2786  26.475  -0.459  -0.624
    1XTA    CO8 2787  27.149  -2.641  -0.417
    1XTA    CO9 2788  27.381  -2.537  -0.402
    1XTA    OA6 2789  27.420  -2.568  -0.300
    1XTA   HL42 2790  27.124  -2.536  -0.425
    1XTA   HL43 2791  27.074  -2.711  -0.503
    1XTA   HL44 2792  26.610  -0.894  -0.788
    1XTA   HL45 2793  26.605  -0.778  -0.929
    1XTA   CO10 2794  26.606  -0.787  -0.818
    1XTA   CO11 2795  26.483  -0.741  -0.597
    1XTA    OA7 2796  26.692  -0.739  -0.769
    1XTA   HL46 2797  26.471  -0.875  -0.571
    1XTA   HL47 2798  26.578  -0.715  -0.549
    1XTA   HL48 2799  27.332  -2.434  -0.401
    1XTA   HL49 2800  27.468  -2.509  -0.464
    1XTA     NT 2801  24.689   3.338  -0.238
    1XTA    CN1 2802  24.568   3.395  -0.262
    1XTA     C1 2803  24.487   3.373  -0.378
    1XTA     C2 2804  24.374   3.455  -0.400
    1XTA     C3 2805  24.326   3.551  -0.310
    1XTA     C4 2806  24.404   3.567  -0.194
    1XTA     C5 2807  24.522   3.497  -0.172
    1XTA    CN2 2808  24.776   3.314  -0.340
    1XTA     C6 2809  24.898   3.383  -0.354
    1XTA     C7 2810  24.990   3.343  -0.456
    1XTA     C8 2811  24.964   3.230  -0.533
    1XTA     C9 2812  24.835   3.167  -0.523
    1XTA    C10 2813  24.751   3.209  -0.421
    1XTA    CN3 2814  24.721   3.270  -0.129
    1XTA    C11 2815  24.809   3.325  -0.037
    1XTA    C12 2816  24.833   3.245   0.086
    1XTA    C13 2817  24.766   3.118   0.108
    1XTA    C14 2818  24.672   3.075   0.012
    1XTA    C15 2819  24.654   3.147  -0.104
    1XTA     H1 2820  24.512   3.301  -0.461
    1XTA     H2 2821  24.321   3.437  -0.493
    1XTA     H3 2822  24.368   3.647  -0.130
    1XTA     H4 2823  24.572   3.540  -0.084
    1XTA     H5 2824  24.922   3.475  -0.294
    1XTA     H6 2825  25.082   3.392  -0.476
    1XTA     H7 2826  24.804   3.088  -0.582
    1XTA     H8 2827  24.661   3.149  -0.405
    1XTA     H9 2828  24.866   3.424  -0.053
    1XTA    H10 2829  24.904   3.270   0.163
    1XTA    H11 2830  24.623   2.980   0.022
    1XTA    H12 2831  24.589   3.119  -0.184
    1XTA    OA1 2832  24.219   3.627  -0.346
    1XTA    CO1 2833  24.155   3.693  -0.238
    1XTA    OA2 2834  25.068   3.189  -0.614
    1XTA    CO2 2835  25.050   3.055  -0.673
    1XTA    CL1 2836  25.174   3.021  -0.763
    1XTA    CL2 2837  25.206   3.128  -0.867
    1XTA    CL3 2838  25.309   3.062  -0.966
    1XTA    CL4 2839  25.368   3.157  -1.066
    1XTA    CO3 2840  25.439   3.076  -1.178
    1XTA    OA3 2841  25.344   3.002  -1.252
    1XTA    CO4 2842  25.385   2.886  -1.326
    1XTA    CT1 2843  25.258   2.808  -1.373
    1XTA    CL5 2844  25.297   2.686  -1.460
    1XTA    CL6 2845  25.353   2.715  -1.603
    1XTA    OA4 2846  24.804   3.050   0.221
    1XTA    CO5 2847  24.795   2.910   0.212
    1XTA    CL7 2848  24.659   2.857   0.270
    1XTA    CL8 2849  24.676   2.702   0.273
    1XTA    CL9 2850  24.664   2.643   0.127
    1XTA   CL10 2851  24.513   2.643   0.085
    1XTA    CO6 2852  24.506   2.594  -0.063
    1XTA    OA5 2853  24.398   2.631  -0.139
    1XTA    CO7 2854  24.413   2.757  -0.199
    1XTA    CT2 2855  24.286   2.780  -0.290
    1XTA   CL11 2856  24.334   2.873  -0.399
    1XTA   CL12 2857  24.426   2.991  -0.362
    1XTA    HL1 2858  24.058   3.741  -0.267
    1XTA    HL2 2859  24.141   3.627  -0.151
    1XTA    HL3 2860  24.214   3.778  -0.204
    1XTA    HL4 2861  25.034   2.985  -0.588
    1XTA    HL5 2862  24.965   3.055  -0.734
    1XTA    HL6 2863  25.152   2.931  -0.818
    1XTA    HL7 2864  25.261   3.006  -0.695
    1XTA    HL8 2865  25.251   3.218  -0.820
    1XTA    HL9 2866  25.119   3.149  -0.926
    1XTA   HL10 2867  25.387   3.033  -0.904
    1XTA   HL11 2868  25.285   2.963  -1.005
    1XTA   HL12 2869  25.445   3.216  -1.017
    1XTA   HL13 2870  25.299   3.224  -1.123
    1XTA   HL14 2871  25.479   3.159  -1.241
    1XTA   HL15 2872  25.520   3.016  -1.135
    1XTA   HL16 2873  25.457   2.901  -1.408
    1XTA   HL17 2874  25.441   2.836  -1.255
    1XTA   HL18 2875  25.208   2.625  -1.468
    1XTA   HL19 2876  25.367   2.624  -1.406
    1XTA   HL20 2877  25.289   2.756  -1.683
    1XTA   HL21 2878  25.392   2.626  -1.647
    1XTA   HL22 2879  25.430   2.780  -1.601
    1XTA   HL23 2880  24.867   2.886   0.289
    1XTA   HL24 2881  24.843   2.878   0.128
    1XTA   HL25 2882  24.632   2.899   0.372
    1XTA   HL26 2883  24.583   2.891   0.203
    1XTA   HL27 2884  24.776   2.688   0.313
    1XTA   HL28 2885  24.605   2.643   0.336
    1XTA   HL29 2886  24.728   2.701   0.062
    1XTA   HL30 2887  24.701   2.539   0.129
    1XTA   HL31 2888  24.463   2.585   0.166
    1XTA   HL32 2889  24.483   2.752   0.097
    1XTA   HL33 2890  24.592   2.629  -0.113
    1XTA   HL34 2891  24.525   2.493  -0.048
    1XTA   HL35 2892  24.500   2.755  -0.262
    1XTA   HL36 2893  24.423   2.842  -0.124
    1XTA   HL37 2894  24.245   2.905  -0.456
    1XTA   HL38 2895  24.400   2.810  -0.463
    1XTA   HL39 2896  24.399   3.041  -0.264
    1XTA   HL40 2897  24.414   3.059  -0.450
    1XTA   HL41 2898  24.528   2.958  -0.360
    1XTA    CO8 2899  25.168   2.901  -1.450
    1XTA    CO9 2900  25.198   2.765  -1.246
    1XTA    OA6 2901  25.269   2.696  -1.187
    1XTA   HL42 2902  25.231   2.960  -1.518
    1XTA   HL43 2903  25.110   2.991  -1.355
    1XTA   HL44 2904  24.222   2.950  -0.185
    1XTA   HL45 2905  24.094   2.873  -0.263
    1XTA   CO10 2906  24.185   2.857  -0.211
    1XTA   CO11 2907  24.221   2.657  -0.349
    1XTA    OA7 2908  24.154   2.801  -0.121
    1XTA   HL46 2909  24.183   2.572  -0.245
    1XTA   HL47 2910  24.127   2.685  -0.407
    1XTA   HL48 2911  25.098   2.719  -1.256
    1XTA   HL49 2912  25.181   2.846  -1.176
    1XTA     NT 2913  25.074   3.846   0.002
    1XTA    CN1 2914  25.108   3.780  -0.111
    1XTA     C1 2915  25.178   3.664  -0.094
    1XTA     C2 2916  25.227   3.599  -0.211
    1XTA     C3 2917  25.203   3.651  -0.339
    1XTA     C4 2918  25.136   3.772  -0.352
    1XTA     C5 2919  25.090   3.838  -0.240
    1XTA    CN2 2920  24.944   3.850   0.033
    1XTA     C6 2921  24.875   3.969   0.044
    1XTA     C7 2922  24.733   3.967   0.029
    1XTA     C8 2923  24.658   3.842   0.040
    1XTA     C9 2924  24.732   3.724   0.047
    1XTA    C10 2925  24.874   3.726   0.033
    1XTA    CN3 2926  25.169   3.913   0.068
    1XTA    C11 2927  25.213   4.030   0.012
    1XTA    C12 2928  25.312   4.107   0.086
    1XTA    C13 2929  25.364   4.056   0.206
    1XTA    C14 2930  25.313   3.940   0.261
    1XTA    C15 2931  25.211   3.872   0.192
    1XTA     H1 2932  25.189   3.621  -0.001
    1XTA     H2 2933  25.277   3.507  -0.196
    1XTA     H3 2934  25.105   3.808  -0.451
    1XTA     H4 2935  25.041   3.929  -0.258
    1XTA     H5 2936  24.925   4.062   0.030
    1XTA     H6 2937  24.686   4.059   0.012
    1XTA     H7 2938  24.683   3.628   0.049
    1XTA     H8 2939  24.932   3.637   0.022
    1XTA     H9 2940  25.172   4.069  -0.074
    1XTA    H10 2941  25.346   4.207   0.046
    1XTA    H11 2942  25.359   3.913   0.357
    1XTA    H12 2943  25.176   3.784   0.237
    1XTA    OA1 2944  25.254   3.574  -0.444
    1XTA    CO1 2945  25.232   3.616  -0.574
    1XTA    OA2 2946  24.525   3.830   0.037
    1XTA    CO2 2947  24.446   3.948   0.046
    1XTA    CL1 2948  24.318   3.905   0.118
    1XTA    CL2 2949  24.346   3.828   0.253
    1XTA    CL3 2950  24.214   3.800   0.337
    1XTA    CL4 2951  24.226   3.715   0.467
    1XTA    CO3 2952  24.366   3.683   0.530
    1XTA    OA3 2953  24.405   3.790   0.617
    1XTA    CO4 2954  24.468   3.912   0.562
    1XTA    CT1 2955  24.531   4.019   0.661
    1XTA    CL5 2956  24.412   4.066   0.753
    1XTA    CL6 2957  24.278   4.107   0.686
    1XTA    OA4 2958  25.452   4.132   0.276
    1XTA    CO5 2959  25.449   4.274   0.291
    1XTA    CL7 2960  25.350   4.317   0.395
    1XTA    CL8 2961  25.205   4.332   0.352
    1XTA    CL9 2962  25.104   4.390   0.445
    1XTA   CL10 2963  24.952   4.385   0.410
    1XTA    CO6 2964  24.898   4.240   0.414
    1XTA    OA5 2965  24.956   4.177   0.529
    1XTA    CO7 2966  24.995   4.045   0.509
    1XTA    CT2 2967  25.012   3.965   0.638
    1XTA   CL11 2968  25.127   4.034   0.715
    1XTA   CL12 2969  25.129   3.981   0.862
    1XTA    HL1 2970  25.295   3.701  -0.607
    1XTA    HL2 2971  25.269   3.530  -0.629
    1XTA    HL3 2972  25.126   3.618  -0.591
    1XTA    HL4 2973  24.477   4.032   0.111
    1XTA    HL5 2974  24.429   3.994  -0.050
    1XTA    HL6 2975  24.253   3.855   0.048
    1XTA    HL7 2976  24.275   3.997   0.139
    1XTA    HL8 2977  24.431   3.874   0.310
    1XTA    HL9 2978  24.389   3.726   0.226
    1XTA   HL10 2979  24.167   3.892   0.363
    1XTA   HL11 2980  24.138   3.756   0.268
    1XTA   HL12 2981  24.189   3.613   0.444
    1XTA   HL13 2982  24.149   3.739   0.539
    1XTA   HL14 2983  24.355   3.599   0.601
    1XTA   HL15 2984  24.442   3.664   0.458
    1XTA   HL16 2985  24.562   3.882   0.505
    1XTA   HL17 2986  24.389   3.964   0.510
    1XTA   HL18 2987  24.459   4.147   0.812
    1XTA   HL19 2988  24.389   3.976   0.805
    1XTA   HL20 2989  24.210   4.023   0.650
    1XTA   HL21 2990  24.289   4.178   0.608
    1XTA   HL22 2991  24.209   4.165   0.754
    1XTA   HL23 2992  25.434   4.319   0.195
    1XTA   HL24 2993  25.547   4.308   0.324
    1XTA   HL25 2994  25.354   4.236   0.462
    1XTA   HL26 2995  25.383   4.408   0.444
    1XTA   HL27 2996  25.198   4.378   0.253
    1XTA   HL28 2997  25.164   4.235   0.332
    1XTA   HL29 2998  25.118   4.349   0.546
    1XTA   HL30 2999  25.131   4.492   0.458
    1XTA   HL31 3000  24.896   4.441   0.480
    1XTA   HL32 3001  24.939   4.431   0.311
    1XTA   HL33 3002  24.796   4.247   0.419
    1XTA   HL34 3003  24.932   4.189   0.315
    1XTA   HL35 3004  25.093   4.038   0.455
    1XTA   HL36 3005  24.930   4.006   0.436
    1XTA   HL37 3006  25.115   4.138   0.715
    1XTA   HL38 3007  25.220   4.020   0.677
    1XTA   HL39 3008  25.132   3.870   0.873
    1XTA   HL40 3009  25.041   4.016   0.913
    1XTA   HL41 3010  25.222   4.021   0.913
    1XTA    CO8 3011  24.591   4.147   0.592
    1XTA    CO9 3012  24.645   3.975   0.751
    1XTA    OA6 3013  24.752   3.935   0.663
    1XTA   HL42 3014  24.577   4.229   0.659
    1XTA   HL43 3015  24.704   4.135   0.592
    1XTA   HL44 3016  25.133   3.841   0.525
    1XTA   HL45 3017  25.090   3.752   0.680
    1XTA   CO10 3018  25.054   3.821   0.597
    1XTA   CO11 3019  24.879   3.968   0.713
    1XTA    OA7 3020  24.974   3.765   0.548
    1XTA   HL46 3021  24.868   4.078   0.791
    1XTA   HL47 3022  24.906   3.896   0.786
    1XTA   HL48 3023  24.627   3.901   0.824
    1XTA   HL49 3024  24.671   4.056   0.826
    1XTA     NT 3025  31.904  -0.049   0.549
    1XTA    CN1 3026  31.941   0.066   0.475
    1XTA     C1 3027  31.966   0.072   0.339
    1XTA     C2 3028  31.980   0.195   0.278
    1XTA     C3 3029  31.968   0.319   0.345
    1XTA     C4 3030  31.939   0.315   0.478
    1XTA     C5 3031  31.936   0.186   0.546
    1XTA    CN2 3032  31.986  -0.155   0.533
    1XTA     C6 3033  32.107  -0.152   0.602
    1XTA     C7 3034  32.199  -0.257   0.591
    1XTA     C8 3035  32.168  -0.371   0.513
    1XTA     C9 3036  32.042  -0.376   0.439
    1XTA    C10 3037  31.952  -0.264   0.453
    1XTA    CN3 3038  31.775  -0.075   0.568
    1XTA    C11 3039  31.736  -0.118   0.697
    1XTA    C12 3040  31.596  -0.153   0.726
    1XTA    C13 3041  31.500  -0.140   0.623
    1XTA    C14 3042  31.540  -0.089   0.493
    1XTA    C15 3043  31.675  -0.061   0.471
    1XTA     H1 3044  31.980  -0.020   0.278
    1XTA     H2 3045  31.996   0.196   0.172
    1XTA     H3 3046  31.922   0.411   0.532
    1XTA     H4 3047  31.902   0.190   0.651
    1XTA     H5 3048  32.128  -0.066   0.664
    1XTA     H6 3049  32.291  -0.246   0.648
    1XTA     H7 3050  32.004  -0.462   0.384
    1XTA     H8 3051  31.862  -0.262   0.401
    1XTA     H9 3052  31.812  -0.129   0.780
    1XTA    H10 3053  31.563  -0.184   0.826
    1XTA    H11 3054  31.477  -0.077   0.404
    1XTA    H12 3055  31.691  -0.020   0.374
    1XTA    OA1 3056  31.982   0.438   0.280
    1XTA    CO1 3057  32.048   0.443   0.153
    1XTA    OA2 3058  32.262  -0.474   0.505
    1XTA    CO2 3059  32.225  -0.595   0.441
    1XTA    CL1 3060  32.342  -0.693   0.448
    1XTA    CL2 3061  32.364  -0.732   0.592
    1XTA    CL3 3062  32.316  -0.872   0.630
    1XTA    CL4 3063  32.161  -0.900   0.621
    1XTA    CO3 3064  32.081  -0.822   0.728
    1XTA    OA3 3065  31.955  -0.893   0.738
    1XTA    CO4 3066  31.853  -0.837   0.818
    1XTA    CT1 3067  31.759  -0.943   0.870
    1XTA    CL5 3068  31.748  -1.059   0.765
    1XTA    CL6 3069  31.644  -1.174   0.788
    1XTA    OA4 3070  31.373  -0.179   0.652
    1XTA    CO5 3071  31.271  -0.108   0.586
    1XTA    CL7 3072  31.138  -0.149   0.645
    1XTA    CL8 3073  31.002  -0.093   0.595
    1XTA    CL9 3074  30.985   0.058   0.597
    1XTA   CL10 3075  30.969   0.127   0.730
    1XTA    CO6 3076  30.892   0.055   0.842
    1XTA    OA5 3077  30.890   0.135   0.961
    1XTA    CO7 3078  31.013   0.172   1.016
    1XTA    CT2 3079  30.992   0.256   1.138
    1XTA   CL11 3080  30.891   0.378   1.108
    1XTA   CL12 3081  30.855   0.463   1.225
    1XTA    HL1 3082  31.983   0.409   0.075
    1XTA    HL2 3083  32.062   0.550   0.130
    1XTA    HL3 3084  32.144   0.382   0.148
    1XTA    HL4 3085  32.143  -0.647   0.491
    1XTA    HL5 3086  32.206  -0.566   0.338
    1XTA    HL6 3087  32.430  -0.643   0.423
    1XTA    HL7 3088  32.330  -0.781   0.384
    1XTA    HL8 3089  32.331  -0.654   0.659
    1XTA    HL9 3090  32.473  -0.742   0.597
    1XTA   HL10 3091  32.365  -0.946   0.564
    1XTA   HL11 3092  32.359  -0.892   0.730
    1XTA   HL12 3093  32.145  -1.008   0.637
    1XTA   HL13 3094  32.123  -0.892   0.523
    1XTA   HL14 3095  32.129  -0.825   0.829
    1XTA   HL15 3096  32.069  -0.718   0.708
    1XTA   HL16 3097  31.895  -0.774   0.891
    1XTA   HL17 3098  31.792  -0.780   0.749
    1XTA   HL18 3099  31.849  -1.098   0.748
    1XTA   HL19 3100  31.726  -1.000   0.678
    1XTA   HL20 3101  31.547  -1.128   0.794
    1XTA   HL21 3102  31.649  -1.239   0.878
    1XTA   HL22 3103  31.637  -1.240   0.703
    1XTA   HL23 3104  31.277  -0.117   0.481
    1XTA   HL24 3105  31.280  -0.000   0.605
    1XTA   HL25 3106  31.130  -0.258   0.626
    1XTA   HL26 3107  31.139  -0.145   0.746
    1XTA   HL27 3108  30.975  -0.144   0.501
    1XTA   HL28 3109  30.933  -0.123   0.677
    1XTA   HL29 3110  31.059   0.107   0.537
    1XTA   HL30 3111  30.899   0.089   0.549
    1XTA   HL31 3112  31.072   0.155   0.752
    1XTA   HL32 3113  30.914   0.220   0.721
    1XTA   HL33 3114  30.787   0.031   0.819
    1XTA   HL34 3115  30.941  -0.037   0.857
    1XTA   HL35 3116  31.062   0.239   0.943
    1XTA   HL36 3117  31.077   0.087   1.048
    1XTA   HL37 3118  30.795   0.337   1.068
    1XTA   HL38 3119  30.933   0.440   1.025
    1XTA   HL39 3120  30.797   0.548   1.187
    1XTA   HL40 3121  30.934   0.515   1.271
    1XTA   HL41 3122  30.798   0.426   1.309
    1XTA    CO8 3123  31.628  -0.873   0.902
    1XTA    CO9 3124  31.812  -1.007   0.996
    1XTA    OA6 3125  31.534  -0.949   0.977
    1XTA   HL42 3126  31.587  -0.843   0.805
    1XTA   HL43 3127  31.650  -0.773   0.946
    1XTA   HL44 3128  31.118   0.381   1.267
    1XTA   HL45 3129  31.209   0.247   1.190
    1XTA   CO10 3130  31.128   0.318   1.181
    1XTA   CO11 3131  30.934   0.161   1.253
    1XTA    OA7 3132  31.168   0.410   1.080
    1XTA   HL46 3133  30.833   0.129   1.226
    1XTA   HL47 3134  30.937   0.211   1.347
    1XTA   HL48 3135  31.912  -1.045   0.979
    1XTA   HL49 3136  31.739  -1.086   1.015
    1XTA     NT 3137  25.108   3.116   4.687
    1XTA    CN1 3138  25.065   3.229   4.748
    1XTA     C1 3139  24.927   3.246   4.750
    1XTA     C2 3140  24.877   3.368   4.789
    1XTA     C3 3141  24.965   3.470   4.839
    1XTA     C4 3142  25.105   3.453   4.829
    1XTA     C5 3143  25.152   3.329   4.787
    1XTA    CN2 3144  25.154   3.018   4.767
    1XTA     C6 3145  25.283   2.966   4.763
    1XTA     C7 3146  25.323   2.873   4.866
    1XTA     C8 3147  25.230   2.827   4.964
    1XTA     C9 3148  25.102   2.874   4.957
    1XTA    C10 3149  25.062   2.979   4.871
    1XTA    CN3 3150  25.096   3.097   4.554
    1XTA    C11 3151  25.189   3.159   4.466
    1XTA    C12 3152  25.174   3.145   4.328
    1XTA    C13 3153  25.072   3.061   4.276
    1XTA    C14 3154  24.975   3.016   4.367
    1XTA    C15 3155  24.987   3.026   4.504
    1XTA     H1 3156  24.869   3.176   4.698
    1XTA     H2 3157  24.769   3.391   4.766
    1XTA     H3 3158  25.175   3.524   4.862
    1XTA     H4 3159  25.257   3.310   4.778
    1XTA     H5 3160  25.344   2.989   4.680
    1XTA     H6 3161  25.426   2.841   4.870
    1XTA     H7 3162  25.029   2.834   5.023
    1XTA     H8 3163  24.959   3.003   4.862
    1XTA     H9 3164  25.276   3.215   4.499
    1XTA    H10 3165  25.241   3.194   4.268
    1XTA    H11 3166  24.898   2.959   4.320
    1XTA    H12 3167  24.912   2.985   4.560
    1XTA    OA1 3168  24.906   3.594   4.865
    1XTA    CO1 3169  24.989   3.710   4.835
    1XTA    OA2 3170  25.266   2.729   5.058
    1XTA    CO2 3171  25.266   2.593   5.000
    1XTA    CL1 3172  25.266   2.496   5.119
    1XTA    CL2 3173  25.257   2.341   5.092
    1XTA    CL3 3174  25.321   2.270   5.222
    1XTA    CL4 3175  25.250   2.311   5.350
    1XTA    CO3 3176  25.100   2.289   5.362
    1XTA    OA3 3177  25.030   2.359   5.266
    1XTA    CO4 3178  24.893   2.347   5.285
    1XTA    CT1 3179  24.816   2.397   5.156
    1XTA    CL5 3180  24.805   2.288   5.056
    1XTA    CL6 3181  24.927   2.230   4.992
    1XTA    OA4 3182  25.047   3.055   4.142
    1XTA    CO5 3183  25.157   3.101   4.060
    1XTA    CL7 3184  25.143   3.057   3.913
    1XTA    CL8 3185  25.163   2.905   3.878
    1XTA    CL9 3186  25.067   2.814   3.954
    1XTA   CL10 3187  25.105   2.758   4.087
    1XTA    CO6 3188  25.015   2.659   4.152
    1XTA    OA5 3189  25.093   2.590   4.246
    1XTA    CO7 3190  25.105   2.667   4.367
    1XTA    CT2 3191  25.161   2.600   4.489
    1XTA   CL11 3192  25.313   2.569   4.481
    1XTA   CL12 3193  25.349   2.474   4.365
    1XTA    HL1 3194  25.072   3.721   4.899
    1XTA    HL2 3195  25.007   3.726   4.728
    1XTA    HL3 3196  24.926   3.791   4.861
    1XTA    HL4 3197  25.199   2.578   4.918
    1XTA    HL5 3198  25.363   2.585   4.947
    1XTA    HL6 3199  25.193   2.526   5.191
    1XTA    HL7 3200  25.361   2.506   5.176
    1XTA    HL8 3201  25.322   2.311   5.004
    1XTA    HL9 3202  25.154   2.307   5.068
    1XTA   HL10 3203  25.289   2.163   5.225
    1XTA   HL11 3204  25.430   2.271   5.228
    1XTA   HL12 3205  25.266   2.419   5.359
    1XTA   HL13 3206  25.298   2.257   5.430
    1XTA   HL14 3207  25.079   2.184   5.358
    1XTA   HL15 3208  25.064   2.326   5.461
    1XTA   HL16 3209  24.868   2.238   5.309
    1XTA   HL17 3210  24.867   2.428   5.350
    1XTA   HL18 3211  24.743   2.322   4.978
    1XTA   HL19 3212  24.753   2.204   5.099
    1XTA   HL20 3213  24.887   2.156   4.915
    1XTA   HL21 3214  24.993   2.181   5.061
    1XTA   HL22 3215  24.962   2.313   4.940
    1XTA   HL23 3216  25.252   3.055   4.100
    1XTA   HL24 3217  25.156   3.213   4.062
    1XTA   HL25 3218  25.046   3.085   3.879
    1XTA   HL26 3219  25.213   3.113   3.857
    1XTA   HL27 3220  25.150   2.885   3.765
    1XTA   HL28 3221  25.261   2.880   3.896
    1XTA   HL29 3222  24.985   2.881   3.970
    1XTA   HL30 3223  25.033   2.728   3.891
    1XTA   HL31 3224  25.204   2.715   4.072
    1XTA   HL32 3225  25.133   2.840   4.146
    1XTA   HL33 3226  24.933   2.706   4.199
    1XTA   HL34 3227  24.979   2.582   4.082
    1XTA   HL35 3228  24.999   2.701   4.389
    1XTA   HL36 3229  25.180   2.742   4.352
    1XTA   HL37 3230  25.331   2.523   4.583
    1XTA   HL38 3231  25.377   2.658   4.471
    1XTA   HL39 3232  25.291   2.383   4.369
    1XTA   HL40 3233  25.451   2.449   4.370
    1XTA   HL41 3234  25.344   2.530   4.269
    1XTA    CO8 3235  24.884   2.525   5.098
    1XTA    CO9 3236  24.670   2.430   5.196
    1XTA    OA6 3237  24.659   2.527   5.233
    1XTA   HL42 3238  24.890   2.597   5.176
    1XTA   HL43 3239  25.016   2.496   5.072
    1XTA   HL44 3240  24.998   2.451   4.471
    1XTA   HL45 3241  25.129   2.403   4.584
    1XTA   CO10 3242  25.067   2.490   4.547
    1XTA   CO11 3243  25.132   2.682   4.613
    1XTA    OA7 3244  25.029   2.587   4.644
    1XTA   HL46 3245  25.210   2.686   4.687
    1XTA   HL47 3246  25.096   2.784   4.591
    1XTA   HL48 3247  24.626   2.342   5.250
    1XTA   HL49 3248  24.607   2.425   5.105
    1XTA     NT 3249  25.723   4.050   4.142
    1XTA    CN1 3250  25.737   4.152   4.224
    1XTA     C1 3251  25.864   4.184   4.277
    1XTA     C2 3252  25.861   4.295   4.362
    1XTA     C3 3253  25.752   4.379   4.383
    1XTA     C4 3254  25.624   4.333   4.341
    1XTA     C5 3255  25.620   4.221   4.253
    1XTA    CN2 3256  25.689   4.066   4.009
    1XTA     C6 3257  25.561   4.020   3.969
    1XTA     C7 3258  25.526   4.021   3.829
    1XTA     C8 3259  25.617   4.089   3.739
    1XTA     C9 3260  25.737   4.137   3.783
    1XTA    C10 3261  25.773   4.127   3.920
    1XTA    CN3 3262  25.726   3.922   4.186
    1XTA    C11 3263  25.638   3.883   4.289
    1XTA    C12 3264  25.659   3.754   4.347
    1XTA    C13 3265  25.750   3.667   4.283
    1XTA    C14 3266  25.826   3.709   4.179
    1XTA    C15 3267  25.814   3.834   4.127
    1XTA     H1 3268  25.953   4.124   4.270
    1XTA     H2 3269  25.954   4.332   4.412
    1XTA     H3 3270  25.525   4.387   4.357
    1XTA     H4 3271  25.526   4.187   4.205
    1XTA     H5 3272  25.498   3.982   4.053
    1XTA     H6 3273  25.432   3.967   3.794
    1XTA     H7 3274  25.797   4.183   3.709
    1XTA     H8 3275  25.866   4.170   3.944
    1XTA     H9 3276  25.562   3.947   4.329
    1XTA    H10 3277  25.584   3.726   4.422
    1XTA    H11 3278  25.894   3.641   4.126
    1XTA    H12 3279  25.875   3.871   4.041
    1XTA    OA1 3280  25.773   4.489   4.468
    1XTA    CO1 3281  25.705   4.613   4.433
    1XTA    OA2 3282  25.581   4.111   3.604
    1XTA    CO2 3283  25.451   4.077   3.560
    1XTA    CL1 3284  25.445   4.109   3.415
    1XTA    CL2 3285  25.421   4.249   3.374
    1XTA    CL3 3286  25.285   4.292   3.429
    1XTA    CL4 3287  25.219   4.403   3.344
    1XTA    CO3 3288  25.293   4.533   3.354
    1XTA    OA3 3289  25.242   4.615   3.249
    1XTA    CO4 3290  25.250   4.757   3.265
    1XTA    CT1 3291  25.222   4.822   3.130
    1XTA    CL5 3292  25.073   4.829   3.104
    1XTA    CL6 3293  24.996   4.691   3.128
    1XTA    OA4 3294  25.749   3.540   4.331
    1XTA    CO5 3295  25.866   3.465   4.316
    1XTA    CL7 3296  25.885   3.401   4.171
    1XTA    CL8 3297  26.034   3.372   4.135
    1XTA    CL9 3298  26.039   3.285   4.005
    1XTA   CL10 3299  26.002   3.383   3.883
    1XTA    CO6 3300  26.027   3.320   3.744
    1XTA    OA5 3301  25.999   3.416   3.647
    1XTA    CO7 3302  25.863   3.403   3.593
    1XTA    CT2 3303  25.823   3.533   3.521
    1XTA   CL11 3304  25.836   3.650   3.621
    1XTA   CL12 3305  25.791   3.784   3.574
    1XTA    HL1 3306  25.776   4.694   4.428
    1XTA    HL2 3307  25.672   4.613   4.328
    1XTA    HL3 3308  25.626   4.633   4.500
    1XTA    HL4 3309  25.447   3.966   3.567
    1XTA    HL5 3310  25.381   4.135   3.621
    1XTA    HL6 3311  25.364   4.053   3.361
    1XTA    HL7 3312  25.539   4.080   3.373
    1XTA    HL8 3313  25.417   4.257   3.268
    1XTA    HL9 3314  25.486   4.327   3.391
    1XTA   HL10 3315  25.226   4.208   3.430
    1XTA   HL11 3316  25.299   4.318   3.537
    1XTA   HL12 3317  25.120   4.412   3.400
    1XTA   HL13 3318  25.215   4.375   3.239
    1XTA   HL14 3319  25.280   4.568   3.453
    1XTA   HL15 3320  25.400   4.516   3.334
    1XTA   HL16 3321  25.199   4.800   3.349
    1XTA   HL17 3322  25.353   4.777   3.287
    1XTA   HL18 3323  25.062   4.859   3.001
    1XTA   HL19 3324  25.025   4.907   3.163
    1XTA   HL20 3325  25.039   4.603   3.063
    1XTA   HL21 3326  24.888   4.706   3.107
    1XTA   HL22 3327  25.002   4.673   3.235
    1XTA   HL23 3328  25.870   3.393   4.392
    1XTA   HL24 3329  25.952   3.530   4.340
    1XTA   HL25 3330  25.820   3.321   4.152
    1XTA   HL26 3331  25.847   3.470   4.098
    1XTA   HL27 3332  26.086   3.463   4.120
    1XTA   HL28 3333  26.089   3.320   4.213
    1XTA   HL29 3334  26.142   3.237   3.995
    1XTA   HL30 3335  25.965   3.201   4.009
    1XTA   HL31 3336  25.899   3.420   3.902
    1XTA   HL32 3337  26.062   3.470   3.904
    1XTA   HL33 3338  26.133   3.299   3.740
    1XTA   HL34 3339  25.979   3.228   3.727
    1XTA   HL35 3340  25.793   3.388   3.681
    1XTA   HL36 3341  25.858   3.320   3.521
    1XTA   HL37 3342  25.939   3.657   3.650
    1XTA   HL38 3343  25.774   3.620   3.709
    1XTA   HL39 3344  25.695   3.787   3.532
    1XTA   HL40 3345  25.861   3.838   3.511
    1XTA   HL41 3346  25.782   3.855   3.659
    1XTA    CO8 3347  25.289   4.742   3.014
    1XTA    CO9 3348  25.294   4.958   3.121
    1XTA    OA6 3349  25.435   4.939   3.143
    1XTA   HL42 3350  25.391   4.723   3.040
    1XTA   HL43 3351  25.249   4.641   3.019
    1XTA   HL44 3352  25.675   3.409   3.415
    1XTA   HL45 3353  25.648   3.575   3.398
    1XTA   CO10 3354  25.678   3.505   3.472
    1XTA   CO11 3355  25.914   3.552   3.403
    1XTA    OA7 3356  25.880   3.476   3.291
    1XTA   HL46 3357  25.916   3.658   3.372
    1XTA   HL47 3358  26.012   3.521   3.434
    1XTA   HL48 3359  25.247   5.026   3.182
    1XTA   HL49 3360  25.276   4.996   3.018
    1XTA     NT 3361  26.363   1.333   6.705
    1XTA    CN1 3362  26.496   1.320   6.721
    1XTA     C1 3363  26.575   1.437   6.725
    1XTA     C2 3364  26.712   1.444   6.748
    1XTA     C3 3365  26.775   1.323   6.740
    1XTA     C4 3366  26.709   1.198   6.749
    1XTA     C5 3367  26.565   1.197   6.751
    1XTA    CN2 3368  26.301   1.237   6.638
    1XTA     C6 3369  26.220   1.143   6.709
    1XTA     C7 3370  26.155   1.035   6.640
    1XTA     C8 3371  26.164   1.034   6.495
    1XTA     C9 3372  26.250   1.123   6.431
    1XTA    C10 3373  26.312   1.231   6.499
    1XTA    CN3 3374  26.297   1.452   6.714
    1XTA    C11 3375  26.212   1.480   6.829
    1XTA    C12 3376  26.137   1.603   6.832
    1XTA    C13 3377  26.138   1.688   6.725
    1XTA    C14 3378  26.230   1.664   6.617
    1XTA    C15 3379  26.316   1.548   6.612
    1XTA     H1 3380  26.526   1.527   6.734
    1XTA     H2 3381  26.768   1.534   6.757
    1XTA     H3 3382  26.767   1.107   6.748
    1XTA     H4 3383  26.506   1.100   6.759
    1XTA     H5 3384  26.203   1.154   6.820
    1XTA     H6 3385  26.080   0.972   6.684
    1XTA     H7 3386  26.275   1.118   6.329
    1XTA     H8 3387  26.369   1.305   6.448
    1XTA     H9 3388  26.204   1.405   6.910
    1XTA    H10 3389  26.066   1.603   6.920
    1XTA    H11 3390  26.220   1.723   6.526
    1XTA    H12 3391  26.367   1.511   6.524
    1XTA    OA1 3392  26.914   1.306   6.723
    1XTA    CO1 3393  26.998   1.412   6.665
    1XTA    OA2 3394  26.083   0.931   6.436
    1XTA    CO2 3395  26.073   0.932   6.297
    1XTA    CL1 3396  25.964   0.821   6.262
    1XTA    CL2 3397  25.905   0.828   6.120
    1XTA    CL3 3398  26.014   0.846   6.019
    1XTA    CL4 3399  25.950   0.878   5.884
    1XTA    CO3 3400  26.064   0.877   5.783
    1XTA    OA3 3401  26.014   0.919   5.655
    1XTA    CO4 3402  25.989   1.059   5.643
    1XTA    CT1 3403  25.882   1.078   5.528
    1XTA    CL5 3404  25.757   1.002   5.564
    1XTA    CL6 3405  25.678   0.950   5.449
    1XTA    OA4 3406  26.064   1.797   6.725
    1XTA    CO5 3407  26.068   1.877   6.843
    1XTA    CL7 3408  25.968   1.994   6.844
    1XTA    CL8 3409  25.947   2.031   6.991
    1XTA    CL9 3410  25.857   2.150   7.004
    1XTA   CL10 3411  25.816   2.164   7.150
    1XTA    CO6 3412  25.893   2.269   7.228
    1XTA    OA5 3413  26.024   2.225   7.239
    1XTA    CO7 3414  26.030   2.152   7.358
    1XTA    CT2 3415  26.177   2.114   7.406
    1XTA   CL11 3416  26.180   2.082   7.553
    1XTA   CL12 3417  26.053   2.021   7.607
    1XTA    HL1 3418  26.990   1.431   6.558
    1XTA    HL2 3419  26.974   1.512   6.712
    1XTA    HL3 3420  27.100   1.385   6.685
    1XTA    HL4 3421  26.063   1.036   6.261
    1XTA    HL5 3422  26.180   0.906   6.261
    1XTA    HL6 3423  25.879   0.820   6.329
    1XTA    HL7 3424  26.017   0.732   6.287
    1XTA    HL8 3425  25.839   0.909   6.114
    1XTA    HL9 3426  25.852   0.741   6.095
    1XTA   HL10 3427  26.073   0.934   6.055
    1XTA   HL11 3428  26.092   0.768   6.025
    1XTA   HL12 3429  25.902   0.969   5.890
    1XTA   HL13 3430  25.867   0.812   5.857
    1XTA   HL14 3431  26.152   0.940   5.810
    1XTA   HL15 3432  26.102   0.774   5.763
    1XTA   HL16 3433  25.959   1.111   5.735
    1XTA   HL17 3434  26.080   1.109   5.608
    1XTA   HL18 3435  25.690   1.060   5.626
    1XTA   HL19 3436  25.789   0.913   5.631
    1XTA   HL20 3437  25.662   1.023   5.378
    1XTA   HL21 3438  25.583   0.920   5.491
    1XTA   HL22 3439  25.716   0.861   5.400
    1XTA   HL23 3440  26.170   1.918   6.850
    1XTA   HL24 3441  26.041   1.812   6.928
    1XTA   HL25 3442  25.993   2.079   6.781
    1XTA   HL26 3443  25.873   1.959   6.805
    1XTA   HL27 3444  25.910   1.949   7.055
    1XTA   HL28 3445  26.044   2.056   7.032
    1XTA   HL29 3446  25.908   2.241   6.964
    1XTA   HL30 3447  25.766   2.134   6.947
    1XTA   HL31 3448  25.708   2.186   7.146
    1XTA   HL32 3449  25.825   2.074   7.201
    1XTA   HL33 3450  25.886   2.356   7.167
    1XTA   HL34 3451  25.843   2.293   7.317
    1XTA   HL35 3452  25.969   2.060   7.353
    1XTA   HL36 3453  25.986   2.222   7.430
    1XTA   HL37 3454  26.185   2.171   7.611
    1XTA   HL38 3455  26.271   2.032   7.585
    1XTA   HL39 3456  26.063   1.981   7.707
    1XTA   HL40 3457  26.013   1.935   7.557
    1XTA   HL41 3458  25.972   2.096   7.623
    1XTA    CO8 3459  25.933   1.015   5.395
    1XTA    CO9 3460  25.840   1.222   5.509
    1XTA    OA6 3461  25.817   1.285   5.633
    1XTA   HL42 3462  25.954   0.908   5.397
    1XTA   HL43 3463  25.859   1.035   5.318
    1XTA   HL44 3464  26.279   2.268   7.290
    1XTA   HL45 3465  26.226   2.327   7.443
    1XTA   CO10 3466  26.267   2.238   7.393
    1XTA   CO11 3467  26.251   2.015   7.303
    1XTA    OA7 3468  26.395   2.221   7.450
    1XTA   HL46 3469  26.273   2.069   7.215
    1XTA   HL47 3470  26.352   1.999   7.345
    1XTA   HL48 3471  25.766   1.240   5.439
    1XTA   HL49 3472  25.926   1.274   5.475
    1XTA     NT 3473  27.210   2.002   3.755
    1XTA    CN1 3474  27.153   1.956   3.863
    1XTA     C1 3475  27.106   1.822   3.860
    1XTA     C2 3476  27.038   1.770   3.974
    1XTA     C3 3477  27.023   1.854   4.091
    1XTA     C4 3478  27.071   1.984   4.089
    1XTA     C5 3479  27.145   2.031   3.983
    1XTA    CN2 3480  27.153   2.109   3.694
    1XTA     C6 3481  27.203   2.238   3.728
    1XTA     C7 3482  27.156   2.352   3.667
    1XTA     C8 3483  27.041   2.341   3.585
    1XTA     C9 3484  26.979   2.214   3.566
    1XTA    C10 3485  27.032   2.102   3.623
    1XTA    CN3 3486  27.308   1.933   3.685
    1XTA    C11 3487  27.287   1.884   3.556
    1XTA    C12 3488  27.392   1.819   3.485
    1XTA    C13 3489  27.515   1.805   3.542
    1XTA    C14 3490  27.541   1.872   3.662
    1XTA    C15 3491  27.438   1.926   3.741
    1XTA     H1 3492  27.116   1.772   3.768
    1XTA     H2 3493  27.002   1.667   3.971
    1XTA     H3 3494  27.062   2.050   4.171
    1XTA     H4 3495  27.190   2.127   3.997
    1XTA     H5 3496  27.288   2.236   3.800
    1XTA     H6 3497  27.202   2.447   3.683
    1XTA     H7 3498  26.887   2.205   3.512
    1XTA     H8 3499  26.984   2.006   3.618
    1XTA     H9 3500  27.190   1.886   3.509
    1XTA    H10 3501  27.357   1.769   3.404
    1XTA    H11 3502  27.639   1.859   3.706
    1XTA    H12 3503  27.455   1.978   3.836
    1XTA    OA1 3504  26.955   1.816   4.203
    1XTA    CO1 3505  26.933   1.675   4.211
    1XTA    OA2 3506  26.997   2.457   3.528
    1XTA    CO2 3507  26.880   2.466   3.448
    1XTA    CL1 3508  26.841   2.607   3.419
    1XTA    CL2 3509  26.723   2.624   3.323
    1XTA    CL3 3510  26.635   2.751   3.341
    1XTA    CL4 3511  26.732   2.874   3.345
    1XTA    CO3 3512  26.787   2.896   3.207
    1XTA    OA3 3513  26.887   3.000   3.209
    1XTA    CO4 3514  27.011   2.958   3.246
    1XTA    CT1 3515  27.107   3.068   3.287
    1XTA    CL5 3516  27.162   3.150   3.168
    1XTA    CL6 3517  27.044   3.209   3.078
    1XTA    OA4 3518  27.616   1.736   3.478
    1XTA    CO5 3519  27.621   1.716   3.339
    1XTA    CL7 3520  27.633   1.568   3.302
    1XTA    CL8 3521  27.647   1.553   3.153
    1XTA    CL9 3522  27.515   1.594   3.079
    1XTA   CL10 3523  27.521   1.532   2.950
    1XTA    CO6 3524  27.409   1.562   2.856
    1XTA    OA5 3525  27.433   1.698   2.820
    1XTA    CO7 3526  27.332   1.781   2.874
    1XTA    CT2 3527  27.374   1.928   2.854
    1XTA   CL11 3528  27.450   1.961   2.713
    1XTA   CL12 3529  27.486   2.114   2.678
    1XTA    HL1 3530  26.876   1.663   4.304
    1XTA    HL2 3531  26.872   1.637   4.128
    1XTA    HL3 3532  27.026   1.622   4.206
    1XTA    HL4 3533  26.898   2.400   3.364
    1XTA    HL5 3534  26.800   2.409   3.506
    1XTA    HL6 3535  26.929   2.666   3.383
    1XTA    HL7 3536  26.813   2.659   3.509
    1XTA    HL8 3537  26.663   2.537   3.355
    1XTA    HL9 3538  26.749   2.616   3.217
    1XTA   HL10 3539  26.548   2.741   3.271
    1XTA   HL11 3540  26.587   2.750   3.438
    1XTA   HL12 3541  26.811   2.860   3.418
    1XTA   HL13 3542  26.671   2.963   3.380
    1XTA   HL14 3543  26.844   2.805   3.183
    1XTA   HL15 3544  26.708   2.920   3.129
    1XTA   HL16 3545  27.005   2.894   3.330
    1XTA   HL17 3546  27.044   2.896   3.165
    1XTA   HL18 3547  27.228   3.082   3.113
    1XTA   HL19 3548  27.228   3.236   3.201
    1XTA   HL20 3549  27.089   3.295   3.030
    1XTA   HL21 3550  26.958   3.248   3.134
    1XTA   HL22 3551  27.007   3.141   3.001
    1XTA   HL23 3552  27.700   1.777   3.299
    1XTA   HL24 3553  27.527   1.759   3.292
    1XTA   HL25 3554  27.724   1.523   3.347
    1XTA   HL26 3555  27.554   1.504   3.344
    1XTA   HL27 3556  27.737   1.612   3.119
    1XTA   HL28 3557  27.672   1.448   3.115
    1XTA   HL29 3558  27.423   1.562   3.132
    1XTA   HL30 3559  27.522   1.702   3.064
    1XTA   HL31 3560  27.618   1.556   2.907
    1XTA   HL32 3561  27.514   1.428   2.959
    1XTA   HL33 3562  27.424   1.501   2.769
    1XTA   HL34 3563  27.313   1.536   2.894
    1XTA   HL35 3564  27.313   1.749   2.978
    1XTA   HL36 3565  27.238   1.757   2.823
    1XTA   HL37 3566  27.397   1.917   2.630
    1XTA   HL38 3567  27.538   1.896   2.714
    1XTA   HL39 3568  27.576   2.156   2.733
    1XTA   HL40 3569  27.403   2.184   2.702
    1XTA   HL41 3570  27.507   2.137   2.575
    1XTA    CO8 3571  27.233   3.005   3.355
    1XTA    CO9 3572  27.047   3.160   3.398
    1XTA    OA6 3573  27.293   2.891   3.280
    1XTA   HL42 3574  27.217   2.956   3.456
    1XTA   HL43 3575  27.309   3.074   3.378
    1XTA   HL44 3576  27.476   2.069   2.979
    1XTA   HL45 3577  27.452   1.909   3.056
    1XTA   CO10 3578  27.478   1.960   2.965
    1XTA   CO11 3579  27.249   2.011   2.875
    1XTA    OA7 3580  27.217   2.012   3.011
    1XTA   HL46 3581  27.273   2.103   2.839
    1XTA   HL47 3582  27.166   1.972   2.821
    1XTA   HL48 3583  26.962   3.205   3.351
    1XTA   HL49 3584  27.110   3.244   3.423
    1XTA     NT 3585  24.549   1.187   0.695
    1XTA    CN1 3586  24.675   1.176   0.744
    1XTA     C1 3587  24.705   1.207   0.877
    1XTA     C2 3588  24.832   1.183   0.928
    1XTA     C3 3589  24.936   1.149   0.840
    1XTA     C4 3590  24.909   1.128   0.698
    1XTA     C5 3591  24.779   1.140   0.654
    1XTA    CN2 3592  24.506   1.295   0.626
    1XTA     C6 3593  24.516   1.425   0.671
    1XTA     C7 3594  24.451   1.532   0.604
    1XTA     C8 3595  24.393   1.509   0.478
    1XTA     C9 3596  24.376   1.377   0.432
    1XTA    C10 3597  24.440   1.271   0.503
    1XTA    CN3 3598  24.458   1.091   0.731
    1XTA    C11 3599  24.462   0.963   0.667
    1XTA    C12 3600  24.359   0.874   0.695
    1XTA    C13 3601  24.250   0.908   0.780
    1XTA    C14 3602  24.246   1.034   0.839
    1XTA    C15 3603  24.356   1.123   0.818
    1XTA     H1 3604  24.623   1.232   0.935
    1XTA     H2 3605  24.850   1.195   1.033
    1XTA     H3 3606  24.991   1.102   0.631
    1XTA     H4 3607  24.757   1.120   0.553
    1XTA     H5 3608  24.553   1.453   0.769
    1XTA     H6 3609  24.455   1.639   0.632
    1XTA     H7 3610  24.330   1.347   0.336
    1XTA     H8 3611  24.429   1.172   0.463
    1XTA     H9 3612  24.538   0.936   0.596
    1XTA    H10 3613  24.368   0.776   0.656
    1XTA    H11 3614  24.168   1.085   0.903
    1XTA    H12 3615  24.352   1.222   0.861
    1XTA    OA1 3616  25.055   1.146   0.902
    1XTA    CO1 3617  25.164   1.097   0.821
    1XTA    OA2 3618  24.344   1.607   0.392
    1XTA    CO2 3619  24.229   1.675   0.441
    1XTA    CL1 3620  24.175   1.763   0.334
    1XTA    CL2 3621  24.262   1.882   0.278
    1XTA    CL3 3622  24.329   1.973   0.377
    1XTA    CL4 3623  24.444   2.064   0.323
    1XTA    CO3 3624  24.493   2.163   0.433
    1XTA    OA3 3625  24.393   2.255   0.485
    1XTA    CO4 3626  24.424   2.300   0.612
    1XTA    CT1 3627  24.305   2.373   0.679
    1XTA    CL5 3628  24.237   2.480   0.591
    1XTA    CL6 3629  24.337   2.582   0.532
    1XTA    OA4 3630  24.150   0.812   0.795
    1XTA    CO5 3631  24.034   0.851   0.865
    1XTA    CL7 3632  23.946   0.941   0.779
    1XTA    CL8 3633  23.869   0.868   0.670
    1XTA    CL9 3634  23.938   0.812   0.547
    1XTA   CL10 3635  23.984   0.664   0.559
    1XTA    CO6 3636  23.985   0.592   0.418
    1XTA    OA5 3637  24.037   0.469   0.464
    1XTA    CO7 3638  24.028   0.383   0.352
    1XTA    CT2 3639  24.109   0.253   0.389
    1XTA   CL11 3640  24.098   0.160   0.273
    1XTA   CL12 3641  24.152   0.024   0.303
    1XTA    HL1 3642  25.247   1.069   0.882
    1XTA    HL2 3643  25.138   0.999   0.763
    1XTA    HL3 3644  25.195   1.165   0.738
    1XTA    HL4 3645  24.165   1.588   0.446
    1XTA    HL5 3646  24.245   1.721   0.537
    1XTA    HL6 3647  24.096   1.817   0.388
    1XTA    HL7 3648  24.138   1.720   0.250
    1XTA    HL8 3649  24.200   1.936   0.209
    1XTA    HL9 3650  24.344   1.837   0.222
    1XTA   HL10 3651  24.255   2.038   0.424
    1XTA   HL11 3652  24.368   1.912   0.461
    1XTA   HL12 3653  24.403   2.111   0.232
    1XTA   HL13 3654  24.522   2.002   0.290
    1XTA   HL14 3655  24.538   2.101   0.513
    1XTA   HL15 3656  24.577   2.223   0.401
    1XTA   HL16 3657  24.440   2.216   0.678
    1XTA   HL17 3658  24.513   2.364   0.614
    1XTA   HL18 3659  24.175   2.539   0.663
    1XTA   HL19 3660  24.179   2.439   0.508
    1XTA   HL20 3661  24.289   2.644   0.456
    1XTA   HL21 3662  24.427   2.533   0.493
    1XTA   HL22 3663  24.364   2.658   0.609
    1XTA   HL23 3664  24.067   0.904   0.956
    1XTA   HL24 3665  23.988   0.761   0.897
    1XTA   HL25 3666  23.874   0.988   0.851
    1XTA   HL26 3667  23.990   1.033   0.733
    1XTA   HL27 3668  23.796   0.802   0.719
    1XTA   HL28 3669  23.805   0.944   0.629
    1XTA   HL29 3670  23.884   0.831   0.458
    1XTA   HL30 3671  24.028   0.864   0.526
    1XTA   HL31 3672  24.079   0.667   0.602
    1XTA   HL32 3673  23.916   0.611   0.627
    1XTA   HL33 3674  23.882   0.611   0.379
    1XTA   HL34 3675  24.051   0.641   0.344
    1XTA   HL35 3676  24.076   0.432   0.264
    1XTA   HL36 3677  23.929   0.365   0.328
    1XTA   HL37 3678  24.156   0.206   0.191
    1XTA   HL38 3679  24.005   0.147   0.228
    1XTA   HL39 3680  24.096  -0.020   0.380
    1XTA   HL40 3681  24.258   0.037   0.345
    1XTA   HL41 3682  24.158  -0.048   0.226
    1XTA    CO8 3683  24.336   2.418   0.816
    1XTA    CO9 3684  24.199   2.276   0.732
    1XTA    OA6 3685  24.234   2.329   0.866
    1XTA   HL42 3686  24.316   2.517   0.847
    1XTA   HL43 3687  24.434   2.381   0.851
    1XTA   HL44 3688  23.953   0.158   0.507
    1XTA   HL45 3689  24.115   0.107   0.547
    1XTA   CO10 3690  24.054   0.193   0.524
    1XTA   CO11 3691  24.256   0.292   0.397
    1XTA    OA7 3692  24.076   0.247   0.617
    1XTA   HL46 3693  24.264   0.413   0.470
    1XTA   HL47 3694  24.289   0.336   0.302
    1XTA   HL48 3695  24.219   2.172   0.710
    1XTA   HL49 3696  24.098   2.293   0.699
    1XTA     NT 3697  25.598   1.572   2.273
    1XTA    CN1 3698  25.520   1.523   2.370
    1XTA     C1 3699  25.483   1.603   2.479
    1XTA     C2 3700  25.381   1.556   2.568
    1XTA     C3 3701  25.318   1.434   2.539
    1XTA     C4 3702  25.351   1.361   2.423
    1XTA     C5 3703  25.454   1.403   2.342
    1XTA    CN2 3704  25.724   1.612   2.302
    1XTA     C6 3705  25.754   1.743   2.337
    1XTA     C7 3706  25.887   1.787   2.352
    1XTA     C8 3707  25.990   1.694   2.339
    1XTA     C9 3708  25.962   1.559   2.316
    1XTA    C10 3709  25.833   1.523   2.280
    1XTA    CN3 3710  25.552   1.603   2.149
    1XTA    C11 3711  25.427   1.667   2.141
    1XTA    C12 3712  25.367   1.695   2.011
    1XTA    C13 3713  25.443   1.676   1.891
    1XTA    C14 3714  25.568   1.613   1.905
    1XTA    C15 3715  25.618   1.574   2.029
    1XTA     H1 3716  25.521   1.704   2.498
    1XTA     H2 3717  25.364   1.615   2.658
    1XTA     H3 3718  25.297   1.269   2.397
    1XTA     H4 3719  25.470   1.339   2.252
    1XTA     H5 3720  25.681   1.818   2.327
    1XTA     H6 3721  25.900   1.896   2.368
    1XTA     H7 3722  26.047   1.491   2.323
    1XTA     H8 3723  25.803   1.420   2.260
    1XTA     H9 3724  25.375   1.694   2.236
    1XTA    H10 3725  25.266   1.737   2.007
    1XTA    H11 3726  25.630   1.587   1.820
    1XTA    H12 3727  25.712   1.527   2.033
    1XTA    OA1 3728  25.226   1.384   2.630
    1XTA    CO1 3729  25.132   1.479   2.677
    1XTA    OA2 3730  26.121   1.729   2.360
    1XTA    CO2 3731  26.170   1.692   2.489
    1XTA    CL1 3732  26.096   1.773   2.592
    1XTA    CL2 3733  25.994   1.692   2.677
    1XTA    CL3 3734  25.891   1.778   2.749
    1XTA    CL4 3735  25.799   1.694   2.845
    1XTA    CO3 3736  25.671   1.666   2.777
    1XTA    OA3 3737  25.567   1.628   2.878
    1XTA    CO4 3738  25.569   1.486   2.894
    1XTA    CT1 3739  25.499   1.451   3.024
    1XTA    CL5 3740  25.348   1.474   3.026
    1XTA    CL6 3741  25.309   1.619   3.027
    1XTA    OA4 3742  25.384   1.703   1.772
    1XTA    CO5 3743  25.366   1.581   1.703
    1XTA    CL7 3744  25.249   1.505   1.747
    1XTA    CL8 3745  25.114   1.576   1.725
    1XTA    CL9 3746  25.076   1.674   1.830
    1XTA   CL10 3747  24.925   1.722   1.799
    1XTA    CO6 3748  24.912   1.776   1.658
    1XTA    OA5 3749  25.028   1.859   1.639
    1XTA    CO7 3750  25.020   1.931   1.511
    1XTA    CT2 3751  25.151   1.920   1.432
    1XTA   CL11 3752  25.147   2.010   1.299
    1XTA   CL12 3753  25.109   2.156   1.336
    1XTA    HL1 3754  25.044   1.434   2.710
    1XTA    HL2 3755  25.166   1.537   2.758
    1XTA    HL3 3756  25.104   1.553   2.610
    1XTA    HL4 3757  26.172   1.585   2.503
    1XTA    HL5 3758  26.276   1.726   2.493
    1XTA    HL6 3759  26.044   1.855   2.543
    1XTA    HL7 3760  26.172   1.814   2.658
    1XTA    HL8 3761  26.045   1.627   2.754
    1XTA    HL9 3762  25.931   1.639   2.609
    1XTA   HL10 3763  25.946   1.853   2.804
    1XTA   HL11 3764  25.841   1.829   2.659
    1XTA   HL12 3765  25.795   1.758   2.938
    1XTA   HL13 3766  25.859   1.608   2.876
    1XTA   HL14 3767  25.633   1.762   2.738
    1XTA   HL15 3768  25.669   1.618   2.680
    1XTA   HL16 3769  25.505   1.437   2.819
    1XTA   HL17 3770  25.662   1.445   2.892
    1XTA   HL18 3771  25.309   1.433   3.122
    1XTA   HL19 3772  25.295   1.417   2.952
    1XTA   HL20 3773  25.198   1.631   3.008
    1XTA   HL21 3774  25.339   1.663   2.932
    1XTA   HL22 3775  25.341   1.681   3.110
    1XTA   HL23 3776  25.453   1.528   1.703
    1XTA   HL24 3777  25.357   1.606   1.604
    1XTA   HL25 3778  25.244   1.417   1.689
    1XTA   HL26 3779  25.257   1.477   1.855
    1XTA   HL27 3780  25.110   1.616   1.622
    1XTA   HL28 3781  25.027   1.508   1.728
    1XTA   HL29 3782  25.090   1.635   1.935
    1XTA   HL30 3783  25.148   1.758   1.829
    1XTA   HL31 3784  24.850   1.644   1.818
    1XTA   HL32 3785  24.908   1.800   1.862
    1XTA   HL33 3786  24.915   1.699   1.585
    1XTA   HL34 3787  24.823   1.827   1.643
    1XTA   HL35 3788  24.989   2.037   1.536
    1XTA   HL36 3789  24.936   1.885   1.456
    1XTA   HL37 3790  25.069   1.962   1.241
    1XTA   HL38 3791  25.244   2.005   1.254
    1XTA   HL39 3792  25.010   2.177   1.383
    1XTA   HL40 3793  25.110   2.220   1.256
    1XTA   HL41 3794  25.184   2.199   1.403
    1XTA    CO8 3795  25.578   1.530   3.131
    1XTA    CO9 3796  25.525   1.303   3.043
    1XTA    OA6 3797  25.555   1.478   3.259
    1XTA   HL42 3798  25.551   1.635   3.114
    1XTA   HL43 3799  25.684   1.521   3.115
    1XTA   HL44 3800  25.253   1.740   1.477
    1XTA   HL45 3801  25.255   1.778   1.315
    1XTA   CO10 3802  25.183   1.770   1.399
    1XTA   CO11 3803  25.256   1.968   1.536
    1XTA    OA7 3804  25.380   1.998   1.472
    1XTA   HL46 3805  25.221   2.061   1.580
    1XTA   HL47 3806  25.246   1.905   1.626
    1XTA   HL48 3807  25.468   1.273   3.122
    1XTA   HL49 3808  25.625   1.294   3.076
    1XTA     NT 3809  30.000   7.406   4.985
    1XTA    CN1 3810  30.114   7.418   4.912
    1XTA     C1 3811  30.154   7.315   4.827
    1XTA     C2 3812  30.272   7.320   4.754
    1XTA     C3 3813  30.359   7.431   4.763
    1XTA     C4 3814  30.325   7.535   4.849
    1XTA     C5 3815  30.205   7.529   4.923
    1XTA    CN2 3816  29.940   7.284   5.014
    1XTA     C6 3817  29.998   7.194   5.103
    1XTA     C7 3818  29.942   7.071   5.137
    1XTA     C8 3819  29.828   7.030   5.063
    1XTA     C9 3820  29.764   7.122   4.974
    1XTA    C10 3821  29.820   7.245   4.953
    1XTA    CN3 3822  29.948   7.512   5.045
    1XTA    C11 3823  29.959   7.535   5.184
    1XTA    C12 3824  29.872   7.635   5.242
    1XTA    C13 3825  29.779   7.707   5.165
    1XTA    C14 3826  29.776   7.677   5.031
    1XTA    C15 3827  29.859   7.583   4.970
    1XTA     H1 3828  30.088   7.231   4.812
    1XTA     H2 3829  30.288   7.244   4.684
    1XTA     H3 3830  30.386   7.627   4.852
    1XTA     H4 3831  30.188   7.616   4.980
    1XTA     H5 3832  30.088   7.226   5.152
    1XTA     H6 3833  29.981   6.988   5.194
    1XTA     H7 3834  29.680   7.101   4.908
    1XTA     H8 3835  29.775   7.310   4.884
    1XTA     H9 3836  30.030   7.479   5.239
    1XTA    H10 3837  29.883   7.662   5.346
    1XTA    H11 3838  29.713   7.730   4.962
    1XTA    H12 3839  29.850   7.575   4.865
    1XTA    OA1 3840  30.478   7.447   4.690
    1XTA    CO1 3841  30.518   7.338   4.611
    1XTA    OA2 3842  29.783   6.896   5.080
    1XTA    CO2 3843  29.699   6.836   4.986
    1XTA    CL1 3844  29.666   6.694   5.032
    1XTA    CL2 3845  29.546   6.627   4.967
    1XTA    CL3 3846  29.534   6.644   4.811
    1XTA    CL4 3847  29.414   6.567   4.749
    1XTA    CO3 3848  29.273   6.622   4.767
    1XTA    OA3 3849  29.187   6.545   4.692
    1XTA    CO4 3850  29.051   6.542   4.741
    1XTA    CT1 3851  28.992   6.423   4.658
    1XTA    CL5 3852  29.073   6.294   4.677
    1XTA    CL6 3853  29.072   6.224   4.816
    1XTA    OA4 3854  29.697   7.792   5.234
    1XTA    CO5 3855  29.602   7.861   5.152
    1XTA    CL7 3856  29.532   7.961   5.235
    1XTA    CL8 3857  29.432   8.040   5.150
    1XTA    CL9 3858  29.337   8.122   5.229
    1XTA   CL10 3859  29.396   8.205   5.337
    1XTA    CO6 3860  29.293   8.302   5.379
    1XTA    OA5 3861  29.320   8.338   5.514
    1XTA    CO7 3862  29.411   8.443   5.536
    1XTA    CT2 3863  29.437   8.460   5.688
    1XTA   CL11 3864  29.455   8.311   5.728
    1XTA   CL12 3865  29.468   8.295   5.879
    1XTA    HL1 3866  30.626   7.358   4.584
    1XTA    HL2 3867  30.515   7.239   4.653
    1XTA    HL3 3868  30.474   7.332   4.514
    1XTA    HL4 3869  29.594   6.887   4.978
    1XTA    HL5 3870  29.742   6.836   4.892
    1XTA    HL6 3871  29.650   6.706   5.134
    1XTA    HL7 3872  29.749   6.633   5.016
    1XTA    HL8 3873  29.463   6.675   5.013
    1XTA    HL9 3874  29.535   6.521   4.998
    1XTA   HL10 3875  29.530   6.757   4.784
    1XTA   HL11 3876  29.627   6.607   4.773
    1XTA   HL12 3877  29.413   6.474   4.793
    1XTA   HL13 3878  29.439   6.556   4.640
    1XTA   HL14 3879  29.249   6.620   4.872
    1XTA   HL15 3880  29.271   6.725   4.736
    1XTA   HL16 3881  29.046   6.507   4.847
    1XTA   HL17 3882  28.999   6.637   4.731
    1XTA   HL18 3883  29.172   6.304   4.640
    1XTA   HL19 3884  29.038   6.221   4.604
    1XTA   HL20 3885  29.151   6.152   4.825
    1XTA   HL21 3886  28.974   6.188   4.844
    1XTA   HL22 3887  29.114   6.308   4.881
    1XTA   HL23 3888  29.526   7.802   5.099
    1XTA   HL24 3889  29.655   7.915   5.071
    1XTA   HL25 3890  29.489   7.906   5.322
    1XTA   HL26 3891  29.606   8.035   5.276
    1XTA   HL27 3892  29.500   8.101   5.096
    1XTA   HL28 3893  29.381   7.985   5.069
    1XTA   HL29 3894  29.285   8.188   5.158
    1XTA   HL30 3895  29.257   8.066   5.271
    1XTA   HL31 3896  29.440   8.143   5.421
    1XTA   HL32 3897  29.478   8.254   5.300
    1XTA   HL33 3898  29.292   8.395   5.323
    1XTA   HL34 3899  29.193   8.262   5.369
    1XTA   HL35 3900  29.377   8.540   5.492
    1XTA   HL36 3901  29.503   8.422   5.477
    1XTA   HL37 3902  29.554   8.275   5.686
    1XTA   HL38 3903  29.377   8.242   5.702
    1XTA   HL39 3904  29.488   8.192   5.912
    1XTA   HL40 3905  29.388   8.321   5.939
    1XTA   HL41 3906  29.548   8.351   5.924
    1XTA    CO8 3907  28.985   6.463   4.508
    1XTA    CO9 3908  28.838   6.404   4.694
    1XTA    OA6 3909  28.937   6.354   4.427
    1XTA   HL42 3910  29.081   6.490   4.481
    1XTA   HL43 3911  28.916   6.544   4.495
    1XTA   HL44 3912  29.255   8.597   5.677
    1XTA   HL45 3913  29.260   8.447   5.796
    1XTA   CO10 3914  29.317   8.533   5.751
    1XTA   CO11 3915  29.570   8.542   5.719
    1XTA    OA7 3916  29.673   8.471   5.656
    1XTA   HL46 3917  29.566   8.644   5.686
    1XTA   HL47 3918  29.598   8.545   5.825
    1XTA   HL48 3919  28.845   6.410   4.806
    1XTA   HL49 3920  28.828   6.289   4.683
    1XTA     NT 3921  24.230   2.413   6.526
    1XTA    CN1 3922  24.260   2.299   6.459
    1XTA     C1 3923  24.179   2.185   6.473
    1XTA     C2 3924  24.210   2.070   6.394
    1XTA     C3 3925  24.318   2.070   6.306
    1XTA     C4 3926  24.397   2.188   6.293
    1XTA     C5 3927  24.366   2.300   6.368
    1XTA    CN2 3928  24.113   2.473   6.530
    1XTA     C6 3929  24.022   2.431   6.626
    1XTA     C7 3930  23.894   2.489   6.638
    1XTA     C8 3931  23.861   2.603   6.560
    1XTA     C9 3932  23.957   2.647   6.462
    1XTA    C10 3933  24.077   2.580   6.438
    1XTA    CN3 3934  24.325   2.447   6.608
    1XTA    C11 3935  24.387   2.573   6.589
    1XTA    C12 3936  24.483   2.614   6.675
    1XTA    C13 3937  24.524   2.534   6.780
    1XTA    C14 3938  24.475   2.403   6.796
    1XTA    C15 3939  24.364   2.363   6.716
    1XTA     H1 3940  24.092   2.183   6.537
    1XTA     H2 3941  24.158   1.977   6.404
    1XTA     H3 3942  24.474   2.191   6.218
    1XTA     H4 3943  24.426   2.389   6.364
    1XTA     H5 3944  24.052   2.348   6.685
    1XTA     H6 3945  23.827   2.460   6.721
    1XTA     H7 3946  23.946   2.740   6.400
    1XTA     H8 3947  24.149   2.611   6.361
    1XTA     H9 3948  24.350   2.640   6.513
    1XTA    H10 3949  24.531   2.708   6.671
    1XTA    H11 3950  24.505   2.322   6.869
    1XTA    H12 3951  24.312   2.270   6.734
    1XTA    OA1 3952  24.339   1.951   6.237
    1XTA    CO1 3953  24.395   1.971   6.108
    1XTA    OA2 3954  23.746   2.669   6.572
    1XTA    CO2 3955  23.685   2.662   6.705
    1XTA    CL1 3956  23.583   2.774   6.712
    1XTA    CL2 3957  23.649   2.912   6.747
    1XTA    CL3 3958  23.743   2.899   6.861
    1XTA    CL4 3959  23.760   3.028   6.947
    1XTA    CO3 3960  23.821   3.146   6.867
    1XTA    OA3 3961  23.869   3.232   6.973
    1XTA    CO4 3962  23.899   3.362   6.924
    1XTA    CT1 3963  23.953   3.448   7.040
    1XTA    CL5 3964  23.839   3.494   7.141
    1XTA    CL6 3965  23.775   3.380   7.228
    1XTA    OA4 3966  24.635   2.581   6.851
    1XTA    CO5 3967  24.731   2.483   6.898
    1XTA    CL7 3968  24.839   2.567   6.976
    1XTA    CL8 3969  24.932   2.474   7.049
    1XTA    CL9 3970  24.857   2.415   7.166
    1XTA   CL10 3971  24.948   2.339   7.270
    1XTA    CO6 3972  24.876   2.244   7.371
    1XTA    OA5 3973  24.780   2.148   7.316
    1XTA    CO7 3974  24.838   2.026   7.256
    1XTA    CT2 3975  24.735   1.972   7.153
    1XTA   CL11 3976  24.793   1.844   7.088
    1XTA   CL12 3977  24.831   1.733   7.181
    1XTA    HL1 3978  24.362   1.890   6.041
    1XTA    HL2 3979  24.356   2.061   6.057
    1XTA    HL3 3980  24.499   1.978   6.098
    1XTA    HL4 3981  23.626   2.570   6.700
    1XTA    HL5 3982  23.748   2.662   6.799
    1XTA    HL6 3983  23.518   2.754   6.797
    1XTA    HL7 3984  23.524   2.782   6.621
    1XTA    HL8 3985  23.571   2.975   6.766
    1XTA    HL9 3986  23.707   2.957   6.668
    1XTA   HL10 3987  23.722   2.819   6.938
    1XTA   HL11 3988  23.849   2.878   6.816
    1XTA   HL12 3989  23.812   3.002   7.037
    1XTA   HL13 3990  23.663   3.060   6.988
    1XTA   HL14 3991  23.910   3.112   6.808
    1XTA   HL15 3992  23.757   3.194   6.798
    1XTA   HL16 3993  23.973   3.364   6.844
    1XTA   HL17 3994  23.808   3.409   6.886
    1XTA   HL18 3995  23.759   3.540   7.093
    1XTA   HL19 3996  23.892   3.571   7.203
    1XTA   HL20 3997  23.860   3.339   7.282
    1XTA   HL21 3998  23.730   3.309   7.159
    1XTA   HL22 3999  23.700   3.426   7.296
    1XTA   HL23 4000  24.772   2.422   6.818
    1XTA   HL24 4001  24.686   2.409   6.960
    1XTA   HL25 4002  24.889   2.635   6.908
    1XTA   HL26 4003  24.814   2.653   7.049
    1XTA   HL27 4004  24.978   2.407   6.979
    1XTA   HL28 4005  24.999   2.544   7.087
    1XTA   HL29 4006  24.809   2.498   7.216
    1XTA   HL30 4007  24.781   2.348   7.122
    1XTA   HL31 4008  25.009   2.284   7.209
    1XTA   HL32 4009  25.006   2.408   7.317
    1XTA   HL33 4010  24.948   2.181   7.415
    1XTA   HL34 4011  24.849   2.315   7.451
    1XTA   HL35 4012  24.848   1.948   7.331
    1XTA   HL36 4013  24.939   2.030   7.214
    1XTA   HL37 4014  24.887   1.874   7.039
    1XTA   HL38 4015  24.724   1.797   7.015
    1XTA   HL39 4016  24.912   1.760   7.243
    1XTA   HL40 4017  24.866   1.645   7.119
    1XTA   HL41 4018  24.749   1.671   7.229
    1XTA    CO8 4019  24.034   3.558   7.005
    1XTA    CO9 4020  24.073   3.390   7.107
    1XTA    OA6 4021  24.107   3.543   7.088
    1XTA   HL42 4022  23.987   3.652   7.043
    1XTA   HL43 4023  24.070   3.556   6.901
    1XTA   HL44 4024  24.634   2.133   7.052
    1XTA   HL45 4025  24.794   2.126   7.006
    1XTA   CO10 4026  24.711   2.064   7.027
    1XTA   CO11 4027  24.597   1.945   7.223
    1XTA    OA7 4028  24.619   1.854   7.325
    1XTA   HL46 4029  24.544   2.035   7.262
    1XTA   HL47 4030  24.523   1.901   7.152
    1XTA   HL48 4031  24.132   3.288   7.032
    1XTA   HL49 4032  24.057   3.366   7.214
    1XTA     NT 4033  24.871   0.187   4.816
    1XTA    CN1 4034  24.828   0.241   4.937
    1XTA     C1 4035  24.697   0.219   4.983
    1XTA     C2 4036  24.655   0.262   5.106
    1XTA     C3 4037  24.744   0.327   5.189
    1XTA     C4 4038  24.871   0.365   5.140
    1XTA     C5 4039  24.916   0.314   5.018
    1XTA    CN2 4040  24.879   0.054   4.795
    1XTA     C6 4041  24.959  -0.019   4.881
    1XTA     C7 4042  24.973  -0.157   4.867
    1XTA     C8 4043  24.914  -0.224   4.762
    1XTA     C9 4044  24.841  -0.148   4.670
    1XTA    C10 4045  24.817  -0.014   4.690
    1XTA    CN3 4046  24.906   0.265   4.711
    1XTA    C11 4047  25.042   0.279   4.680
    1XTA    C12 4048  25.086   0.367   4.576
    1XTA    C13 4049  24.989   0.441   4.505
    1XTA    C14 4050  24.852   0.427   4.533
    1XTA    C15 4051  24.812   0.331   4.629
    1XTA     H1 4052  24.634   0.163   4.915
    1XTA     H2 4053  24.548   0.255   5.137
    1XTA     H3 4054  24.949   0.413   5.202
    1XTA     H4 4055  25.016   0.325   4.975
    1XTA     H5 4056  25.017   0.025   4.963
    1XTA     H6 4057  25.015  -0.216   4.942
    1XTA     H7 4058  24.798  -0.197   4.580
    1XTA     H8 4059  24.772   0.046   4.615
    1XTA     H9 4060  25.109   0.228   4.751
    1XTA    H10 4061  25.189   0.377   4.549
    1XTA    H11 4062  24.786   0.484   4.469
    1XTA    H12 4063  24.707   0.316   4.641
    1XTA    OA1 4064  24.701   0.357   5.316
    1XTA    CO1 4065  24.793   0.430   5.399
    1XTA    OA2 4066  24.928  -0.361   4.759
    1XTA    CO2 4067  24.959  -0.419   4.637
    1XTA    CL1 4068  24.836  -0.467   4.571
    1XTA    CL2 4069  24.856  -0.552   4.446
    1XTA    CL3 4070  24.724  -0.571   4.382
    1XTA    CL4 4071  24.622  -0.658   4.455
    1XTA    CO3 4072  24.491  -0.675   4.385
    1XTA    OA3 4073  24.403  -0.759   4.457
    1XTA    CO4 4074  24.348  -0.695   4.566
    1XTA    CT1 4075  24.219  -0.771   4.598
    1XTA    CL5 4076  24.110  -0.772   4.483
    1XTA    CL6 4077  24.156  -0.835   4.351
    1XTA    OA4 4078  25.033   0.521   4.402
    1XTA    CO5 4079  24.969   0.485   4.273
    1XTA    CL7 4080  25.047   0.537   4.152
    1XTA    CL8 4081  24.987   0.505   4.015
    1XTA    CL9 4082  24.970   0.356   3.983
    1XTA   CL10 4083  25.093   0.265   3.972
    1XTA    CO6 4084  25.197   0.292   3.868
    1XTA    OA5 4085  25.138   0.279   3.743
    1XTA    CO7 4086  25.238   0.305   3.641
    1XTA    CT2 4087  25.176   0.327   3.499
    1XTA   CL11 4088  25.114   0.471   3.497
    1XTA   CL12 4089  25.220   0.584   3.494
    1XTA    HL1 4090  24.755   0.434   5.504
    1XTA    HL2 4091  24.894   0.391   5.391
    1XTA    HL3 4092  24.805   0.536   5.381
    1XTA    HL4 4093  25.013  -0.343   4.573
    1XTA    HL5 4094  25.022  -0.504   4.659
    1XTA    HL6 4095  24.780  -0.382   4.535
    1XTA    HL7 4096  24.778  -0.529   4.650
    1XTA    HL8 4097  24.910  -0.647   4.471
    1XTA    HL9 4098  24.926  -0.500   4.380
    1XTA   HL10 4099  24.684  -0.472   4.371
    1XTA   HL11 4100  24.730  -0.609   4.279
    1XTA   HL12 4101  24.599  -0.616   4.549
    1XTA   HL13 4102  24.652  -0.763   4.463
    1XTA   HL14 4103  24.444  -0.578   4.370
    1XTA   HL15 4104  24.508  -0.724   4.294
    1XTA   HL16 4105  24.406  -0.696   4.659
    1XTA   HL17 4106  24.334  -0.586   4.545
    1XTA   HL18 4107  24.091  -0.674   4.449
    1XTA   HL19 4108  24.021  -0.827   4.519
    1XTA   HL20 4109  24.088  -0.801   4.268
    1XTA   HL21 4110  24.144  -0.941   4.355
    1XTA   HL22 4111  24.257  -0.816   4.314
    1XTA   HL23 4112  24.862   0.510   4.279
    1XTA   HL24 4113  24.958   0.374   4.266
    1XTA   HL25 4114  25.056   0.643   4.159
    1XTA   HL26 4115  25.151   0.491   4.163
    1XTA   HL27 4116  24.889   0.550   4.016
    1XTA   HL28 4117  25.050   0.554   3.938
    1XTA   HL29 4118  24.899   0.322   4.063
    1XTA   HL30 4119  24.928   0.350   3.890
    1XTA   HL31 4120  25.134   0.274   4.068
    1XTA   HL32 4121  25.078   0.154   3.968
    1XTA   HL33 4122  25.223   0.397   3.882
    1XTA   HL34 4123  25.288   0.234   3.884
    1XTA   HL35 4124  25.320   0.232   3.649
    1XTA   HL36 4125  25.280   0.398   3.672
    1XTA   HL37 4126  25.059   0.488   3.593
    1XTA   HL38 4127  25.036   0.482   3.420
    1XTA   HL39 4128  25.286   0.589   3.578
    1XTA   HL40 4129  25.171   0.676   3.504
    1XTA   HL41 4130  25.280   0.588   3.404
    1XTA    CO8 4131  24.155  -0.696   4.722
    1XTA    CO9 4132  24.248  -0.915   4.637
    1XTA    OA6 4133  24.344  -0.927   4.739
    1XTA   HL42 4134  24.050  -0.727   4.732
    1XTA   HL43 4135  24.205  -0.742   4.807
    1XTA   HL44 4136  25.042   0.212   3.362
    1XTA   HL45 4137  24.986   0.244   3.532
    1XTA   CO10 4138  25.069   0.222   3.465
    1XTA   CO11 4139  25.292   0.315   3.393
    1XTA    OA7 4140  25.355   0.192   3.392
    1XTA   HL46 4141  25.251   0.334   3.294
    1XTA   HL47 4142  25.371   0.394   3.408
    1XTA   HL48 4143  24.285  -0.968   4.547
    1XTA   HL49 4144  24.162  -0.976   4.672
    1XTA     NT 4145  26.860   3.066   2.673
    1XTA    CN1 4146  26.833   3.196   2.643
    1XTA     C1 4147  26.817   3.277   2.748
    1XTA     C2 4148  26.788   3.412   2.726
    1XTA     C3 4149  26.762   3.470   2.602
    1XTA     C4 4150  26.781   3.390   2.492
    1XTA     C5 4151  26.820   3.251   2.514
    1XTA    CN2 4152  26.979   3.018   2.635
    1XTA     C6 4153  26.977   2.915   2.541
    1XTA     C7 4154  27.093   2.850   2.499
    1XTA     C8 4155  27.218   2.887   2.552
    1XTA     C9 4156  27.224   2.994   2.642
    1XTA    C10 4157  27.103   3.060   2.685
    1XTA    CN3 4158  26.769   2.977   2.735
    1XTA    C11 4159  26.809   2.893   2.841
    1XTA    C12 4160  26.729   2.796   2.895
    1XTA    C13 4161  26.603   2.779   2.834
    1XTA    C14 4162  26.554   2.868   2.742
    1XTA    C15 4163  26.635   2.969   2.692
    1XTA     H1 4164  26.823   3.245   2.852
    1XTA     H2 4165  26.778   3.464   2.822
    1XTA     H3 4166  26.763   3.420   2.385
    1XTA     H4 4167  26.848   3.188   2.432
    1XTA     H5 4168  26.886   2.880   2.501
    1XTA     H6 4169  27.085   2.774   2.435
    1XTA     H7 4170  27.313   3.025   2.692
    1XTA     H8 4171  27.118   3.130   2.770
    1XTA     H9 4172  26.910   2.898   2.881
    1XTA    H10 4173  26.764   2.716   2.958
    1XTA    H11 4174  26.452   2.858   2.702
    1XTA    H12 4175  26.601   3.023   2.604
    1XTA    OA1 4176  26.729   3.602   2.604
    1XTA    CO1 4177  26.703   3.655   2.476
    1XTA    OA2 4178  27.325   2.826   2.500
    1XTA    CO2 4179  27.451   2.899   2.522
    1XTA    CL1 4180  27.549   2.857   2.410
    1XTA    CL2 4181  27.515   2.925   2.276
    1XTA    CL3 4182  27.572   2.874   2.145
    1XTA    CL4 4183  27.503   2.737   2.110
    1XTA    CO3 4184  27.493   2.708   1.964
    1XTA    OA3 4185  27.365   2.735   1.918
    1XTA    CO4 4186  27.324   2.869   1.935
    1XTA    CT1 4187  27.188   2.874   1.865
    1XTA    CL5 4188  27.091   2.788   1.954
    1XTA    CL6 4189  27.067   2.833   2.100
    1XTA    OA4 4190  26.528   2.674   2.878
    1XTA    CO5 4191  26.431   2.621   2.790
    1XTA    CL7 4192  26.367   2.497   2.855
    1XTA    CL8 4193  26.459   2.377   2.868
    1XTA    CL9 4194  26.553   2.385   2.984
    1XTA   CL10 4195  26.667   2.284   2.983
    1XTA    CO6 4196  26.757   2.283   3.110
    1XTA    OA5 4197  26.861   2.185   3.100
    1XTA    CO7 4198  26.956   2.176   3.207
    1XTA    CT2 4199  27.069   2.081   3.179
    1XTA   CL11 4200  27.189   2.093   3.273
    1XTA   CL12 4201  27.247   2.232   3.287
    1XTA    HL1 4202  26.768   3.621   2.400
    1XTA    HL2 4203  26.605   3.617   2.431
    1XTA    HL3 4204  26.689   3.766   2.485
    1XTA    HL4 4205  27.426   2.998   2.496
    1XTA    HL5 4206  27.489   2.900   2.629
    1XTA    HL6 4207  27.530   2.752   2.393
    1XTA    HL7 4208  27.659   2.871   2.414
    1XTA    HL8 4209  27.552   3.030   2.285
    1XTA    HL9 4210  27.407   2.925   2.276
    1XTA   HL10 4211  27.540   2.954   2.080
    1XTA   HL11 4212  27.681   2.857   2.136
    1XTA   HL12 4213  27.410   2.734   2.157
    1XTA   HL13 4214  27.565   2.657   2.150
    1XTA   HL14 4215  27.566   2.764   1.907
    1XTA   HL15 4216  27.516   2.600   1.955
    1XTA   HL16 4217  27.312   2.907   2.043
    1XTA   HL17 4218  27.387   2.943   1.889
    1XTA   HL18 4219  27.127   2.688   1.944
    1XTA   HL19 4220  26.991   2.779   1.910
    1XTA   HL20 4221  26.986   2.784   2.145
    1XTA   HL21 4222  27.038   2.938   2.102
    1XTA   HL22 4223  27.157   2.824   2.170
    1XTA   HL23 4224  26.493   2.602   2.700
    1XTA   HL24 4225  26.345   2.679   2.779
    1XTA   HL25 4226  26.330   2.532   2.951
    1XTA   HL26 4227  26.278   2.452   2.799
    1XTA   HL27 4228  26.413   2.283   2.869
    1XTA   HL28 4229  26.511   2.376   2.775
    1XTA   HL29 4230  26.591   2.482   2.972
    1XTA   HL30 4231  26.504   2.376   3.081
    1XTA   HL31 4232  26.636   2.187   2.957
    1XTA   HL32 4233  26.732   2.319   2.903
    1XTA   HL33 4234  26.786   2.384   3.113
    1XTA   HL34 4235  26.691   2.264   3.194
    1XTA   HL35 4236  26.888   2.149   3.291
    1XTA   HL36 4237  26.996   2.274   3.227
    1XTA   HL37 4238  27.269   2.025   3.245
    1XTA   HL38 4239  27.156   2.073   3.373
    1XTA   HL39 4240  27.169   2.300   3.331
    1XTA   HL40 4241  27.292   2.274   3.198
    1XTA   HL41 4242  27.327   2.223   3.359
    1XTA    CO8 4243  27.179   2.811   1.723
    1XTA    CO9 4244  27.142   3.020   1.848
    1XTA    OA6 4245  27.066   2.848   1.653
    1XTA   HL42 4246  27.188   2.701   1.729
    1XTA   HL43 4247  27.253   2.846   1.654
    1XTA   HL44 4248  27.040   2.105   2.965
    1XTA   HL45 4249  27.164   2.204   3.030
    1XTA   CO10 4250  27.119   2.113   3.038
    1XTA   CO11 4251  27.018   1.935   3.180
    1XTA    OA7 4252  26.935   1.914   3.062
    1XTA   HL46 4253  27.100   1.869   3.173
    1XTA   HL47 4254  26.959   1.928   3.269
    1XTA   HL48 4255  27.194   3.072   1.765
    1XTA   HL49 4256  27.038   3.026   1.814
    1XTA     NT 4257  28.861   3.281   7.028
    1XTA    CN1 4258  28.758   3.193   7.048
    1XTA     C1 4259  28.734   3.084   6.958
    1XTA     C2 4260  28.626   2.997   6.980
    1XTA     C3 4261  28.533   3.012   7.084
    1XTA     C4 4262  28.560   3.117   7.168
    1XTA     C5 4263  28.669   3.210   7.154
    1XTA    CN2 4264  28.879   3.332   6.903
    1XTA     C6 4265  28.992   3.291   6.828
    1XTA     C7 4266  29.002   3.349   6.700
    1XTA     C8 4267  28.909   3.437   6.642
    1XTA     C9 4268  28.803   3.478   6.726
    1XTA    C10 4269  28.787   3.429   6.855
    1XTA    CN3 4270  28.919   3.335   7.136
    1XTA    C11 4271  28.889   3.462   7.177
    1XTA    C12 4272  28.936   3.508   7.298
    1XTA    C13 4273  29.021   3.424   7.369
    1XTA    C14 4274  29.057   3.295   7.324
    1XTA    C15 4275  28.996   3.247   7.208
    1XTA     H1 4276  28.806   3.077   6.874
    1XTA     H2 4277  28.617   2.916   6.913
    1XTA     H3 4278  28.501   3.138   7.249
    1XTA     H4 4279  28.681   3.295   7.225
    1XTA     H5 4280  29.064   3.214   6.869
    1XTA     H6 4281  29.077   3.315   6.635
    1XTA     H7 4282  28.726   3.541   6.678
    1XTA     H8 4283  28.702   3.455   6.914
    1XTA     H9 4284  28.829   3.526   7.117
    1XTA    H10 4285  28.920   3.609   7.332
    1XTA    H11 4286  29.114   3.225   7.385
    1XTA    H12 4287  29.031   3.152   7.173
    1XTA    OA1 4288  28.417   2.938   7.101
    1XTA    CO1 4289  28.374   2.866   6.988
    1XTA    OA2 4290  28.921   3.468   6.507
    1XTA    CO2 4291  28.846   3.583   6.461
    1XTA    CL1 4292  28.929   3.625   6.335
    1XTA    CL2 4293  28.858   3.734   6.264
    1XTA    CL3 4294  28.882   3.871   6.329
    1XTA    CL4 4295  28.762   3.961   6.320
    1XTA    CO3 4296  28.797   4.106   6.344
    1XTA    OA3 4297  28.870   4.117   6.467
    1XTA    CO4 4298  28.773   4.136   6.573
    1XTA    CT1 4299  28.859   4.132   6.711
    1XTA    CL5 4300  28.916   3.988   6.737
    1XTA    CL6 4301  28.808   3.884   6.740
    1XTA    OA4 4302  29.067   3.478   7.492
    1XTA    CO5 4303  29.150   3.397   7.573
    1XTA    CL7 4304  29.294   3.395   7.526
    1XTA    CL8 4305  29.358   3.534   7.493
    1XTA    CL9 4306  29.454   3.528   7.372
    1XTA   CL10 4307  29.582   3.443   7.404
    1XTA    CO6 4308  29.682   3.485   7.291
    1XTA    OA5 4309  29.622   3.445   7.171
    1XTA    CO7 4310  29.655   3.530   7.059
    1XTA    CT2 4311  29.632   3.446   6.926
    1XTA   CL11 4312  29.746   3.341   6.932
    1XTA   CL12 4313  29.761   3.250   6.806
    1XTA    HL1 4314  28.293   2.815   7.023
    1XTA    HL2 4315  28.331   2.935   6.918
    1XTA    HL3 4316  28.449   2.800   6.945
    1XTA    HL4 4317  28.744   3.547   6.445
    1XTA    HL5 4318  28.846   3.665   6.530
    1XTA    HL6 4319  28.920   3.536   6.277
    1XTA    HL7 4320  29.030   3.646   6.368
    1XTA    HL8 4321  28.747   3.717   6.283
    1XTA    HL9 4322  28.888   3.723   6.155
    1XTA   HL10 4323  28.898   3.845   6.430
    1XTA   HL11 4324  28.967   3.920   6.295
    1XTA   HL12 4325  28.689   3.926   6.396
    1XTA   HL13 4326  28.718   3.961   6.215
    1XTA   HL14 4327  28.850   4.134   6.254
    1XTA   HL15 4328  28.707   4.163   6.336
    1XTA   HL16 4329  28.723   4.226   6.556
    1XTA   HL17 4330  28.689   4.062   6.567
    1XTA   HL18 4331  28.974   3.987   6.836
    1XTA   HL19 4332  28.995   3.959   6.667
    1XTA   HL20 4333  28.849   3.784   6.726
    1XTA   HL21 4334  28.731   3.896   6.659
    1XTA   HL22 4335  28.750   3.894   6.838
    1XTA   HL23 4336  29.105   3.294   7.587
    1XTA   HL24 4337  29.147   3.451   7.663
    1XTA   HL25 4338  29.364   3.336   7.584
    1XTA   HL26 4339  29.296   3.344   7.437
    1XTA   HL27 4340  29.286   3.615   7.466
    1XTA   HL28 4341  29.403   3.567   7.588
    1XTA   HL29 4342  29.401   3.485   7.290
    1XTA   HL30 4343  29.488   3.634   7.353
    1XTA   HL31 4344  29.627   3.464   7.503
    1XTA   HL32 4345  29.559   3.335   7.405
    1XTA   HL33 4346  29.700   3.592   7.310
    1XTA   HL34 4347  29.774   3.421   7.292
    1XTA   HL35 4348  29.758   3.566   7.057
    1XTA   HL36 4349  29.591   3.621   7.061
    1XTA   HL37 4350  29.722   3.285   7.024
    1XTA   HL38 4351  29.838   3.390   6.943
    1XTA   HL39 4352  29.828   3.313   6.743
    1XTA   HL40 4353  29.670   3.240   6.749
    1XTA   HL41 4354  29.812   3.158   6.818
    1XTA    CO8 4355  28.775   4.183   6.827
    1XTA    CO9 4356  28.981   4.219   6.689
    1XTA    OA6 4357  28.726   4.286   6.800
    1XTA   HL42 4358  28.842   4.185   6.913
    1XTA   HL43 4359  28.686   4.119   6.835
    1XTA   HL44 4360  29.573   3.624   6.820
    1XTA   HL45 4361  29.744   3.600   6.798
    1XTA   CO10 4362  29.646   3.544   6.804
    1XTA   CO11 4363  29.489   3.381   6.913
    1XTA    OA7 4364  29.616   3.487   6.713
    1XTA   HL46 4365  29.432   3.387   6.786
    1XTA   HL47 4366  29.417   3.456   6.964
    1XTA   HL48 4367  28.951   4.351   6.653
    1XTA   HL49 4368  29.030   4.172   6.607
    1XTA     NT 4369  23.648   4.524   7.635
    1XTA    CN1 4370  23.692   4.639   7.573
    1XTA     C1 4371  23.751   4.731   7.657
    1XTA     C2 4372  23.840   4.827   7.604
    1XTA     C3 4373  23.855   4.840   7.461
    1XTA     C4 4374  23.771   4.764   7.375
    1XTA     C5 4375  23.702   4.655   7.434
    1XTA    CN2 4376  23.698   4.397   7.616
    1XTA     C6 4377  23.646   4.310   7.523
    1XTA     C7 4378  23.711   4.195   7.490
    1XTA     C8 4379  23.831   4.160   7.553
    1XTA     C9 4380  23.889   4.245   7.652
    1XTA    C10 4381  23.812   4.358   7.686
    1XTA    CN3 4382  23.546   4.535   7.720
    1XTA    C11 4383  23.414   4.576   7.673
    1XTA    C12 4384  23.308   4.573   7.764
    1XTA    C13 4385  23.326   4.538   7.901
    1XTA    C14 4386  23.460   4.514   7.950
    1XTA    C15 4387  23.567   4.507   7.860
    1XTA     H1 4388  23.756   4.719   7.766
    1XTA     H2 4389  23.905   4.896   7.661
    1XTA     H3 4390  23.774   4.789   7.269
    1XTA     H4 4391  23.648   4.592   7.365
    1XTA     H5 4392  23.553   4.345   7.477
    1XTA     H6 4393  23.675   4.130   7.411
    1XTA     H7 4394  23.980   4.226   7.715
    1XTA     H8 4395  23.849   4.422   7.768
    1XTA     H9 4396  23.394   4.628   7.582
    1XTA    H10 4397  23.215   4.618   7.737
    1XTA    H11 4398  23.480   4.522   8.057
    1XTA    H12 4399  23.667   4.504   7.897
    1XTA    OA1 4400  23.939   4.940   7.415
    1XTA    CO1 4401  24.008   4.915   7.288
    1XTA    OA2 4402  23.880   4.035   7.532
    1XTA    CO2 4403  24.013   4.011   7.597
    1XTA    CL1 4404  24.041   3.863   7.615
    1XTA    CL2 4405  23.927   3.790   7.699
    1XTA    CL3 4406  23.954   3.653   7.753
    1XTA    CL4 4407  23.957   3.541   7.651
    1XTA    CO3 4408  23.998   3.405   7.712
    1XTA    OA3 4409  23.993   3.304   7.618
    1XTA    CO4 4410  24.047   3.184   7.665
    1XTA    CT1 4411  24.009   3.064   7.574
    1XTA    CL5 4412  23.855   3.039   7.596
    1XTA    CL6 4413  23.777   2.960   7.488
    1XTA    OA4 4414  23.224   4.558   7.988
    1XTA    CO5 4415  23.239   4.565   8.128
    1XTA    CL7 4416  23.244   4.428   8.197
    1XTA    CL8 4417  23.111   4.374   8.225
    1XTA    CL9 4418  23.049   4.420   8.355
    1XTA   CL10 4419  22.905   4.371   8.373
    1XTA    CO6 4420  22.837   4.435   8.494
    1XTA    OA5 4421  22.716   4.367   8.531
    1XTA    CO7 4422  22.721   4.254   8.619
    1XTA    CT2 4423  22.608   4.151   8.596
    1XTA   CL11 4424  22.471   4.224   8.588
    1XTA   CL12 4425  22.415   4.315   8.699
    1XTA    HL1 4426  24.087   4.991   7.273
    1XTA    HL2 4427  24.044   4.811   7.278
    1XTA    HL3 4428  23.938   4.938   7.210
    1XTA    HL4 4429  24.086   4.070   7.539
    1XTA    HL5 4430  24.023   4.033   7.707
    1XTA    HL6 4431  24.142   3.850   7.667
    1XTA    HL7 4432  24.037   3.804   7.525
    1XTA    HL8 4433  23.835   3.787   7.641
    1XTA    HL9 4434  23.885   3.859   7.777
    1XTA   HL10 4435  24.044   3.660   7.816
    1XTA   HL11 4436  23.882   3.628   7.826
    1XTA   HL12 4437  24.024   3.575   7.567
    1XTA   HL13 4438  23.859   3.529   7.607
    1XTA   HL14 4439  24.101   3.401   7.749
    1XTA   HL15 4440  23.942   3.367   7.794
    1XTA   HL16 4441  24.150   3.180   7.661
    1XTA   HL17 4442  24.018   3.153   7.765
    1XTA   HL18 4443  23.810   3.130   7.606
    1XTA   HL19 4444  23.834   2.995   7.695
    1XTA   HL20 4445  23.788   3.013   7.398
    1XTA   HL21 4446  23.681   2.950   7.537
    1XTA   HL22 4447  23.831   2.867   7.470
    1XTA   HL23 4448  23.160   4.626   8.175
    1XTA   HL24 4449  23.330   4.613   8.150
    1XTA   HL25 4450  23.301   4.361   8.140
    1XTA   HL26 4451  23.294   4.438   8.291
    1XTA   HL27 4452  23.050   4.396   8.134
    1XTA   HL28 4453  23.105   4.264   8.233
    1XTA   HL29 4454  23.104   4.395   8.441
    1XTA   HL30 4455  23.053   4.529   8.351
    1XTA   HL31 4456  22.847   4.397   8.283
    1XTA   HL32 4457  22.897   4.262   8.397
    1XTA   HL33 4458  22.912   4.434   8.580
    1XTA   HL34 4459  22.807   4.535   8.462
    1XTA   HL35 4460  22.717   4.270   8.731
    1XTA   HL36 4461  22.816   4.209   8.586
    1XTA   HL37 4462  22.390   4.154   8.566
    1XTA   HL38 4463  22.461   4.281   8.494
    1XTA   HL39 4464  22.415   4.261   8.786
    1XTA   HL40 4465  22.307   4.339   8.681
    1XTA   HL41 4466  22.484   4.401   8.718
    1XTA    CO8 4467  24.089   2.940   7.614
    1XTA    CO9 4468  24.038   3.091   7.424
    1XTA    OA6 4469  24.055   2.833   7.532
    1XTA   HL42 4470  24.080   2.933   7.721
    1XTA   HL43 4471  24.196   2.958   7.601
    1XTA   HL44 4472  22.528   3.971   8.694
    1XTA   HL45 4473  22.697   4.000   8.722
    1XTA   CO10 4474  22.599   4.053   8.715
    1XTA   CO11 4475  22.648   4.082   8.468
    1XTA    OA7 4476  22.574   4.098   8.846
    1XTA   HL46 4477  22.656   4.155   8.388
    1XTA   HL47 4478  22.565   4.030   8.440
    1XTA   HL48 4479  23.983   3.178   7.386
    1XTA   HL49 4480  24.004   3.006   7.370
    1XTA     NT 4481  26.455   3.063  -0.304
    1XTA    CN1 4482  26.343   3.007  -0.349
    1XTA     C1 4483  26.290   3.049  -0.475
    1XTA     C2 4484  26.180   2.988  -0.527
    1XTA     C3 4485  26.107   2.893  -0.459
    1XTA     C4 4486  26.154   2.856  -0.331
    1XTA     C5 4487  26.276   2.904  -0.281
    1XTA    CN2 4488  26.456   3.129  -0.192
    1XTA     C6 4489  26.543   3.095  -0.083
    1XTA     C7 4490  26.536   3.160   0.041
    1XTA     C8 4491  26.438   3.258   0.060
    1XTA     C9 4492  26.362   3.302  -0.048
    1XTA    C10 4493  26.379   3.242  -0.175
    1XTA    CN3 4494  26.564   3.011  -0.354
    1XTA    C11 4495  26.609   2.889  -0.311
    1XTA    C12 4496  26.724   2.830  -0.360
    1XTA    C13 4497  26.807   2.906  -0.446
    1XTA    C14 4498  26.763   3.039  -0.488
    1XTA    C15 4499  26.642   3.090  -0.441
    1XTA     H1 4500  26.346   3.123  -0.536
    1XTA     H2 4501  26.148   3.019  -0.628
    1XTA     H3 4502  26.107   2.781  -0.268
    1XTA     H4 4503  26.326   2.862  -0.192
    1XTA     H5 4504  26.616   3.022  -0.093
    1XTA     H6 4505  26.593   3.127   0.117
    1XTA     H7 4506  26.283   3.365  -0.042
    1XTA     H8 4507  26.317   3.283  -0.248
    1XTA     H9 4508  26.551   2.832  -0.243
    1XTA    H10 4509  26.745   2.735  -0.329
    1XTA    H11 4510  26.817   3.095  -0.565
    1XTA    H12 4511  26.605   3.190  -0.467
    1XTA    OA1 4512  25.989   2.849  -0.516
    1XTA    CO1 4513  25.893   2.806  -0.426
    1XTA    OA2 4514  26.434   3.317   0.182
    1XTA    CO2 4515  26.315   3.378   0.230
    1XTA    CL1 4516  26.243   3.295   0.336
    1XTA    CL2 4517  26.212   3.154   0.289
    1XTA    CL3 4518  26.187   3.055   0.408
    1XTA    CL4 4519  26.298   2.965   0.449
    1XTA    CO3 4520  26.409   3.051   0.500
    1XTA    OA3 4521  26.528   2.977   0.535
    1XTA    CO4 4522  26.559   2.878   0.433
    1XTA    CT1 4523  26.711   2.832   0.464
    1XTA    CL5 4524  26.769   2.746   0.350
    1XTA    CL6 4525  26.781   2.821   0.219
    1XTA    OA4 4526  26.922   2.851  -0.493
    1XTA    CO5 4527  27.005   2.925  -0.589
    1XTA    CL7 4528  27.110   2.836  -0.659
    1XTA    CL8 4529  27.035   2.728  -0.736
    1XTA    CL9 4530  26.931   2.772  -0.845
    1XTA   CL10 4531  26.805   2.689  -0.843
    1XTA    CO6 4532  26.835   2.549  -0.898
    1XTA    OA5 4533  26.729   2.460  -0.896
    1XTA    CO7 4534  26.707   2.407  -0.767
    1XTA    CT2 4535  26.612   2.280  -0.786
    1XTA   CL11 4536  26.691   2.178  -0.869
    1XTA   CL12 4537  26.835   2.133  -0.835
    1XTA    HL1 4538  25.917   2.710  -0.374
    1XTA    HL2 4539  25.884   2.875  -0.348
    1XTA    HL3 4540  25.797   2.792  -0.479
    1XTA    HL4 4541  26.354   3.470   0.284
    1XTA    HL5 4542  26.251   3.419   0.156
    1XTA    HL6 4543  26.145   3.340   0.359
    1XTA    HL7 4544  26.296   3.287   0.431
    1XTA    HL8 4545  26.300   3.114   0.241
    1XTA    HL9 4546  26.129   3.140   0.221
    1XTA   HL10 4547  26.145   3.105   0.495
    1XTA   HL11 4548  26.105   2.983   0.388
    1XTA   HL12 4549  26.326   2.908   0.362
    1XTA   HL13 4550  26.260   2.892   0.521
    1XTA   HL14 4551  26.447   3.121   0.423
    1XTA   HL15 4552  26.385   3.103   0.592
    1XTA   HL16 4553  26.502   2.784   0.421
    1XTA   HL17 4554  26.553   2.926   0.333
    1XTA   HL18 4555  26.714   2.657   0.329
    1XTA   HL19 4556  26.868   2.712   0.392
    1XTA   HL20 4557  26.836   2.773   0.142
    1XTA   HL21 4558  26.846   2.912   0.240
    1XTA   HL22 4559  26.696   2.864   0.176
    1XTA   HL23 4560  27.054   3.005  -0.535
    1XTA   HL24 4561  26.943   2.977  -0.665
    1XTA   HL25 4562  27.166   2.895  -0.727
    1XTA   HL26 4563  27.173   2.799  -0.582
    1XTA   HL27 4564  27.111   2.658  -0.783
    1XTA   HL28 4565  26.984   2.664  -0.671
    1XTA   HL29 4566  26.891   2.873  -0.831
    1XTA   HL30 4567  26.969   2.767  -0.951
    1XTA   HL31 4568  26.779   2.671  -0.738
    1XTA   HL32 4569  26.714   2.737  -0.891
    1XTA   HL33 4570  26.873   2.568  -1.002
    1XTA   HL34 4571  26.928   2.502  -0.846
    1XTA   HL35 4572  26.665   2.481  -0.701
    1XTA   HL36 4573  26.806   2.370  -0.740
    1XTA   HL37 4574  26.703   2.226  -0.967
    1XTA   HL38 4575  26.623   2.092  -0.879
    1XTA   HL39 4576  26.902   2.197  -0.797
    1XTA   HL40 4577  26.871   2.101  -0.929
    1XTA   HL41 4578  26.833   2.046  -0.770
    1XTA    CO8 4579  26.721   2.754   0.600
    1XTA    CO9 4580  26.795   2.961   0.488
    1XTA    OA6 4581  26.901   2.938   0.495
    1XTA   HL42 4582  26.822   2.717   0.609
    1XTA   HL43 4583  26.722   2.845   0.710
    1XTA   HL44 4584  26.443   2.412  -0.813
    1XTA   HL45 4585  26.516   2.355  -1.006
    1XTA   CO10 4586  26.488   2.325  -0.871
    1XTA   CO11 4587  26.561   2.235  -0.653
    1XTA    OA7 4588  26.634   2.251  -0.564
    1XTA   HL46 4589  26.494   2.311  -0.623
    1XTA   HL47 4590  26.498   2.144  -0.658
    1XTA   HL48 4591  26.766   3.009   0.582
    1XTA   HL49 4592  26.776   3.040   0.409
    1XTA     NT 4593  24.227   5.046   1.040
    1XTA    CN1 4594  24.205   5.109   0.925
    1XTA     C1 4595  24.289   5.098   0.813
    1XTA     C2 4596  24.260   5.152   0.690
    1XTA     C3 4597  24.149   5.236   0.671
    1XTA     C4 4598  24.057   5.250   0.777
    1XTA     C5 4599  24.083   5.186   0.904
    1XTA    CN2 4600  24.325   5.092   1.122
    1XTA     C6 4601  24.289   5.156   1.243
    1XTA     C7 4602  24.392   5.184   1.336
    1XTA     C8 4603  24.526   5.166   1.311
    1XTA     C9 4604  24.562   5.103   1.189
    1XTA    C10 4605  24.463   5.061   1.092
    1XTA    CN3 4606  24.168   4.929   1.065
    1XTA    C11 4607  24.244   4.813   1.062
    1XTA    C12 4608  24.175   4.690   1.076
    1XTA    C13 4609  24.038   4.684   1.083
    1XTA    C14 4610  23.965   4.805   1.098
    1XTA    C15 4611  24.035   4.925   1.099
    1XTA     H1 4612  24.380   5.041   0.824
    1XTA     H2 4613  24.325   5.131   0.608
    1XTA     H3 4614  23.965   5.290   0.763
    1XTA     H4 4615  24.006   5.188   0.985
    1XTA     H5 4616  24.181   5.168   1.269
    1XTA     H6 4617  24.364   5.223   1.430
    1XTA     H7 4618  24.662   5.078   1.154
    1XTA     H8 4619  24.492   5.024   0.999
    1XTA     H9 4620  24.352   4.817   1.042
    1XTA    H10 4621  24.226   4.598   1.066
    1XTA    H11 4622  23.858   4.809   1.110
    1XTA    H12 4623  23.974   5.019   1.105
    1XTA    OA1 4624  24.150   5.293   0.547
    1XTA    CO1 4625  24.033   5.359   0.503
    1XTA    OA2 4626  24.629   5.196   1.400
    1XTA    CO2 4627  24.590   5.229   1.533
    1XTA    CL1 4628  24.711   5.281   1.608
    1XTA    CL2 4629  24.800   5.373   1.519
    1XTA    CL3 4630  24.740   5.512   1.484
    1XTA    CL4 4631  24.808   5.562   1.352
    1XTA    CO3 4632  24.960   5.559   1.353
    1XTA    OA3 4633  25.012   5.630   1.243
    1XTA    CO4 4634  25.133   5.573   1.191
    1XTA    CT1 4635  25.168   5.628   1.050
    1XTA    CL5 4636  25.314   5.591   1.012
    1XTA    CL6 4637  25.329   5.464   0.940
    1XTA    OA4 4638  23.983   4.566   1.085
    1XTA    CO5 4639  23.852   4.559   1.029
    1XTA    CL7 4640  23.816   4.409   1.015
    1XTA    CL8 4641  23.914   4.323   0.936
    1XTA    CL9 4642  23.891   4.172   0.942
    1XTA   CL10 4643  23.763   4.125   0.873
    1XTA    CO6 4644  23.755   3.969   0.872
    1XTA    OA5 4645  23.677   3.918   0.979
    1XTA    CO7 4646  23.737   3.936   1.103
    1XTA    CT2 4647  23.701   3.819   1.192
    1XTA   CL11 4648  23.551   3.784   1.192
    1XTA   CL12 4649  23.460   3.903   1.228
    1XTA    HL1 4650  23.996   5.449   0.560
    1XTA    HL2 4651  24.054   5.395   0.395
    1XTA    HL3 4652  23.951   5.284   0.496
    1XTA    HL4 4653  24.514   5.311   1.523
    1XTA    HL5 4654  24.530   5.147   1.579
    1XTA    HL6 4655  24.768   5.201   1.645
    1XTA    HL7 4656  24.685   5.342   1.693
    1XTA    HL8 4657  24.810   5.317   1.426
    1XTA    HL9 4658  24.900   5.382   1.557
    1XTA   HL10 4659  24.630   5.508   1.462
    1XTA   HL11 4660  24.755   5.589   1.564
    1XTA   HL12 4661  24.772   5.668   1.325
    1XTA   HL13 4662  24.768   5.507   1.265
    1XTA   HL14 4663  25.027   5.572   1.439
    1XTA   HL15 4664  24.987   5.449   1.339
    1XTA   HL16 4665  25.219   5.574   1.257
    1XTA   HL17 4666  25.099   5.470   1.165
    1XTA   HL18 4667  25.378   5.591   1.100
    1XTA   HL19 4668  25.364   5.669   0.961
    1XTA   HL20 4669  25.430   5.435   0.931
    1XTA   HL21 4670  25.277   5.455   0.846
    1XTA   HL22 4671  25.287   5.381   1.000
    1XTA   HL23 4672  23.854   4.622   0.946
    1XTA   HL24 4673  23.784   4.619   1.079
    1XTA   HL25 4674  23.821   4.374   1.112
    1XTA   HL26 4675  23.718   4.411   0.969
    1XTA   HL27 4676  23.913   4.354   0.826
    1XTA   HL28 4677  24.014   4.340   0.979
    1XTA   HL29 4678  23.977   4.122   0.894
    1XTA   HL30 4679  23.884   4.150   1.047
    1XTA   HL31 4680  23.662   4.163   0.896
    1XTA   HL32 4681  23.774   4.165   0.767
    1XTA   HL33 4682  23.712   3.937   0.776
    1XTA   HL34 4683  23.853   3.920   0.870
    1XTA   HL35 4684  23.713   4.032   1.151
    1XTA   HL36 4685  23.843   3.934   1.096
    1XTA   HL37 4686  23.544   3.704   1.265
    1XTA   HL38 4687  23.507   3.742   1.093
    1XTA   HL39 4688  23.457   3.962   1.139
    1XTA   HL40 4689  23.503   3.969   1.308
    1XTA   HL41 4690  23.360   3.868   1.243
    1XTA    CO8 4691  25.161   5.782   1.061
    1XTA    CO9 4692  25.066   5.575   0.953
    1XTA    OA6 4693  25.097   5.629   0.823
    1XTA   HL42 4694  25.061   5.824   1.095
    1XTA   HL43 4695  25.173   5.832   0.962
    1XTA   HL44 4696  23.692   3.909   1.382
    1XTA   HL45 4697  23.879   3.903   1.322
    1XTA   CO10 4698  23.760   3.835   1.330
    1XTA   CO11 4699  23.778   3.698   1.143
    1XTA    OA7 4700  23.892   3.715   1.146
    1XTA   HL46 4701  23.753   3.627   1.224
    1XTA   HL47 4702  23.747   3.668   1.042
    1XTA   HL48 4703  24.963   5.588   0.979
    1XTA   HL49 4704  25.064   5.466   0.948
    1XTA     NT 4705  32.592   4.713   1.567
    1XTA    CN1 4706  32.622   4.619   1.478
    1XTA     C1 4707  32.720   4.652   1.387
    1XTA     C2 4708  32.772   4.560   1.288
    1XTA     C3 4709  32.711   4.430   1.287
    1XTA     C4 4710  32.620   4.391   1.390
    1XTA     C5 4711  32.566   4.485   1.481
    1XTA    CN2 4712  32.625   4.681   1.698
    1XTA     C6 4713  32.524   4.635   1.789
    1XTA     C7 4714  32.551   4.630   1.927
    1XTA     C8 4715  32.678   4.669   1.977
    1XTA     C9 4716  32.774   4.727   1.885
    1XTA    C10 4717  32.745   4.733   1.746
    1XTA    CN3 4718  32.510   4.813   1.541
    1XTA    C11 4719  32.557   4.947   1.551
    1XTA    C12 4720  32.470   5.051   1.526
    1XTA    C13 4721  32.340   5.022   1.478
    1XTA    C14 4722  32.288   4.884   1.473
    1XTA    C15 4723  32.380   4.781   1.502
    1XTA     H1 4724  32.756   4.757   1.389
    1XTA     H2 4725  32.855   4.587   1.225
    1XTA     H3 4726  32.578   4.288   1.386
    1XTA     H4 4727  32.488   4.460   1.551
    1XTA     H5 4728  32.435   4.588   1.744
    1XTA     H6 4729  32.473   4.584   1.984
    1XTA     H7 4730  32.867   4.772   1.927
    1XTA     H8 4731  32.810   4.773   1.669
    1XTA     H9 4732  32.655   4.964   1.589
    1XTA    H10 4733  32.497   5.154   1.544
    1XTA    H11 4734  32.185   4.853   1.460
    1XTA    H12 4735  32.352   4.685   1.491
    1XTA    OA1 4736  32.753   4.332   1.196
    1XTA    CO1 4737  32.803   4.376   1.067
    1XTA    OA2 4738  32.717   4.673   2.109
    1XTA    CO2 4739  32.627   4.617   2.203
    1XTA    CL1 4740  32.707   4.619   2.340
    1XTA    CL2 4741  32.629   4.537   2.449
    1XTA    CL3 4742  32.676   4.537   2.592
    1XTA    CL4 4743  32.593   4.445   2.682
    1XTA    CO3 4744  32.632   4.447   2.829
    1XTA    OA3 4745  32.775   4.428   2.845
    1XTA    CO4 4746  32.799   4.387   2.973
    1XTA    CT1 4747  32.948   4.397   3.005
    1XTA    CL5 4748  32.976   4.546   3.057
    1XTA    CL6 4749  32.929   4.666   2.971
    1XTA    OA4 4750  32.262   5.130   1.449
    1XTA    CO5 4751  32.127   5.108   1.423
    1XTA    CL7 4752  32.072   5.247   1.408
    1XTA    CL8 4753  32.095   5.333   1.528
    1XTA    CL9 4754  32.009   5.291   1.649
    1XTA   CL10 4755  32.046   5.380   1.769
    1XTA    CO6 4756  32.186   5.367   1.825
    1XTA    OA5 4757  32.191   5.447   1.944
    1XTA    CO7 4758  32.324   5.456   2.010
    1XTA    CT2 4759  32.318   5.555   2.129
    1XTA   CL11 4760  32.465   5.541   2.194
    1XTA   CL12 4761  32.578   5.619   2.126
    1XTA    HL1 4762  32.739   4.447   1.021
    1XTA    HL2 4763  32.896   4.423   1.075
    1XTA    HL3 4764  32.831   4.280   1.009
    1XTA    HL4 4765  32.543   4.671   2.200
    1XTA    HL5 4766  32.604   4.508   2.180
    1XTA    HL6 4767  32.704   4.723   2.367
    1XTA    HL7 4768  32.806   4.581   2.319
    1XTA    HL8 4769  32.629   4.436   2.411
    1XTA    HL9 4770  32.532   4.573   2.433
    1XTA   HL10 4771  32.781   4.503   2.593
    1XTA   HL11 4772  32.664   4.639   2.642
    1XTA   HL12 4773  32.607   4.347   2.640
    1XTA   HL13 4774  32.487   4.469   2.682
    1XTA   HL14 4775  32.589   4.537   2.872
    1XTA   HL15 4776  32.571   4.369   2.876
    1XTA   HL16 4777  32.749   4.441   3.047
    1XTA   HL17 4778  32.754   4.292   2.979
    1XTA   HL18 4779  33.087   4.545   3.051
    1XTA   HL19 4780  32.948   4.572   3.166
    1XTA   HL20 4781  32.952   4.762   3.015
    1XTA   HL21 4782  32.823   4.670   2.955
    1XTA   HL22 4783  32.983   4.670   2.876
    1XTA   HL23 4784  32.070   5.063   1.507
    1XTA   HL24 4785  32.110   5.047   1.333
    1XTA   HL25 4786  32.116   5.283   1.312
    1XTA   HL26 4787  31.964   5.230   1.387
    1XTA   HL27 4788  32.202   5.339   1.548
    1XTA   HL28 4789  32.067   5.432   1.504
    1XTA   HL29 4790  31.903   5.296   1.620
    1XTA   HL30 4791  32.010   5.181   1.677
    1XTA   HL31 4792  32.038   5.484   1.748
    1XTA   HL32 4793  31.976   5.356   1.847
    1XTA   HL33 4794  32.217   5.265   1.858
    1XTA   HL34 4795  32.257   5.402   1.745
    1XTA   HL35 4796  32.404   5.482   1.938
    1XTA   HL36 4797  32.359   5.359   2.037
    1XTA   HL37 4798  32.494   5.443   2.176
    1XTA   HL38 4799  32.465   5.541   2.300
    1XTA   HL39 4800  32.544   5.718   2.099
    1XTA   HL40 4801  32.619   5.556   2.042
    1XTA   HL41 4802  32.660   5.635   2.193
    1XTA    CO8 4803  33.043   4.331   2.907
    1XTA    CO9 4804  32.989   4.291   3.112
    1XTA    OA6 4805  33.066   4.229   3.007
    1XTA   HL42 4806  33.132   4.386   2.900
    1XTA   HL43 4807  32.992   4.291   2.821
    1XTA   HL44 4808  32.208   5.563   2.322
    1XTA   HL45 4809  32.256   5.406   2.284
    1XTA   CO10 4810  32.226   5.498   2.238
    1XTA   CO11 4811  32.273   5.702   2.090
    1XTA    OA7 4812  32.337   5.763   1.977
    1XTA   HL46 4813  32.163   5.696   2.076
    1XTA   HL47 4814  32.295   5.768   2.177
    1XTA   HL48 4815  32.905   4.220   3.134
    1XTA   HL49 4816  33.049   4.324   3.192
    1XTA     NT 4817  32.457   7.070   1.513
    1XTA    CN1 4818  32.524   7.180   1.462
    1XTA     C1 4819  32.658   7.210   1.487
    1XTA     C2 4820  32.720   7.316   1.410
    1XTA     C3 4821  32.657   7.376   1.301
    1XTA     C4 4822  32.522   7.345   1.281
    1XTA     C5 4823  32.454   7.249   1.362
    1XTA    CN2 4824  32.495   6.948   1.472
    1XTA     C6 4825  32.615   6.893   1.512
    1XTA     C7 4826  32.651   6.760   1.462
    1XTA     C8 4827  32.570   6.691   1.370
    1XTA     C9 4828  32.444   6.750   1.334
    1XTA    C10 4829  32.405   6.876   1.390
    1XTA    CN3 4830  32.382   7.067   1.629
    1XTA    C11 4831  32.444   7.052   1.754
    1XTA    C12 4832  32.371   7.049   1.874
    1XTA    C13 4833  32.230   7.058   1.876
    1XTA    C14 4834  32.168   7.055   1.749
    1XTA    C15 4835  32.240   7.065   1.629
    1XTA     H1 4836  32.711   7.160   1.564
    1XTA     H2 4837  32.821   7.354   1.431
    1XTA     H3 4838  32.471   7.395   1.198
    1XTA     H4 4839  32.356   7.213   1.345
    1XTA     H5 4840  32.683   6.938   1.587
    1XTA     H6 4841  32.735   6.719   1.516
    1XTA     H7 4842  32.360   6.700   1.276
    1XTA     H8 4843  32.308   6.913   1.363
    1XTA     H9 4844  32.555   7.056   1.768
    1XTA    H10 4845  32.424   7.050   1.970
    1XTA    H11 4846  32.063   7.036   1.737
    1XTA    H12 4847  32.169   7.058   1.544
    1XTA    OA1 4848  32.729   7.465   1.217
    1XTA    CO1 4849  32.658   7.563   1.145
    1XTA    OA2 4850  32.605   6.565   1.333
    1XTA    CO2 4851  32.511   6.504   1.237
    1XTA    CL1 4852  32.592   6.401   1.154
    1XTA    CL2 4853  32.517   6.327   1.039
    1XTA    CL3 4854  32.602   6.259   0.933
    1XTA    CL4 4855  32.514   6.231   0.807
    1XTA    CO3 4856  32.462   6.354   0.744
    1XTA    OA3 4857  32.387   6.316   0.633
    1XTA    CO4 4858  32.257   6.380   0.624
    1XTA    CT1 4859  32.160   6.324   0.527
    1XTA    CL5 4860  32.218   6.323   0.383
    1XTA    CL6 4861  32.344   6.248   0.371
    1XTA    OA4 4862  32.165   7.079   1.997
    1XTA    CO5 4863  32.020   7.082   1.989
    1XTA    CL7 4864  31.963   7.094   2.128
    1XTA    CL8 4865  31.963   7.235   2.186
    1XTA    CL9 4866  32.097   7.279   2.255
    1XTA   CL10 4867  32.087   7.419   2.322
    1XTA    CO6 4868  32.206   7.463   2.421
    1XTA    OA5 4869  32.321   7.486   2.343
    1XTA    CO7 4870  32.311   7.614   2.274
    1XTA    CT2 4871  32.431   7.633   2.175
    1XTA   CL11 4872  32.444   7.776   2.123
    1XTA   CL12 4873  32.520   7.796   1.990
    1XTA    HL1 4874  32.718   7.636   1.085
    1XTA    HL2 4875  32.608   7.496   1.072
    1XTA    HL3 4876  32.598   7.626   1.209
    1XTA    HL4 4877  32.430   6.453   1.278
    1XTA    HL5 4878  32.476   6.579   1.168
    1XTA    HL6 4879  32.626   6.322   1.223
    1XTA    HL7 4880  32.680   6.450   1.110
    1XTA    HL8 4881  32.460   6.412   0.997
    1XTA    HL9 4882  32.442   6.257   1.067
    1XTA   HL10 4883  32.691   6.328   0.912
    1XTA   HL11 4884  32.650   6.171   0.968
    1XTA   HL12 4885  32.429   6.161   0.825
    1XTA   HL13 4886  32.572   6.184   0.733
    1XTA   HL14 4887  32.393   6.401   0.819
    1XTA   HL15 4888  32.537   6.428   0.721
    1XTA   HL16 4889  32.213   6.379   0.725
    1XTA   HL17 4890  32.265   6.486   0.608
    1XTA   HL18 4891  32.223   6.418   0.335
    1XTA   HL19 4892  32.156   6.263   0.323
    1XTA   HL20 4893  32.359   6.215   0.271
    1XTA   HL21 4894  32.358   6.174   0.443
    1XTA   HL22 4895  32.434   6.311   0.394
    1XTA   HL23 4896  31.981   6.990   1.936
    1XTA   HL24 4897  31.980   7.167   1.926
    1XTA   HL25 4898  31.861   7.055   2.132
    1XTA   HL26 4899  32.021   7.020   2.188
    1XTA   HL27 4900  31.921   7.308   2.115
    1XTA   HL28 4901  31.888   7.227   2.269
    1XTA   HL29 4902  32.128   7.204   2.327
    1XTA   HL30 4903  32.179   7.291   2.188
    1XTA   HL31 4904  32.082   7.489   2.238
    1XTA   HL32 4905  31.999   7.426   2.391
    1XTA   HL33 4906  32.179   7.555   2.474
    1XTA   HL34 4907  32.214   7.385   2.491
    1XTA   HL35 4908  32.312   7.699   2.350
    1XTA   HL36 4909  32.218   7.625   2.218
    1XTA   HL37 4910  32.466   7.848   2.199
    1XTA   HL38 4911  32.335   7.799   2.103
    1XTA   HL39 4912  32.512   7.897   1.971
    1XTA   HL40 4913  32.472   7.745   1.904
    1XTA   HL41 4914  32.621   7.780   1.990
    1XTA    CO8 4915  32.034   6.412   0.531
    1XTA    CO9 4916  32.125   6.183   0.567
    1XTA    OA6 4917  31.951   6.360   0.493
    1XTA   HL42 4918  32.047   6.501   0.468
    1XTA   HL43 4919  32.027   6.441   0.642
    1XTA   HL44 4920  32.496   7.518   2.004
    1XTA   HL45 4921  32.382   7.404   2.119
    1XTA   CO10 4922  32.409   7.530   2.064
    1XTA   CO11 4923  32.569   7.593   2.251
    1XTA    OA7 4924  32.652   7.612   2.188
    1XTA   HL46 4925  32.561   7.654   2.343
    1XTA   HL47 4926  32.584   7.488   2.284
    1XTA   HL48 4927  32.031   6.120   0.482
    1XTA   HL49 4928  32.218   6.133   0.563
    1XTA     NT 4929  24.915   4.977   3.679
    1XTA    CN1 4930  24.797   4.991   3.745
    1XTA     C1 4931  24.701   4.881   3.761
    1XTA     C2 4932  24.601   4.887   3.857
    1XTA     C3 4933  24.582   5.002   3.934
    1XTA     C4 4934  24.664   5.112   3.906
    1XTA     C5 4935  24.770   5.105   3.818
    1XTA    CN2 4936  25.014   4.900   3.730
    1XTA     C6 4937  25.057   4.781   3.669
    1XTA     C7 4938  25.146   4.691   3.730
    1XTA     C8 4939  25.201   4.713   3.854
    1XTA     C9 4940  25.161   4.834   3.915
    1XTA    C10 4941  25.072   4.928   3.857
    1XTA    CN3 4942  24.943   5.061   3.579
    1XTA    C11 4943  25.028   5.177   3.596
    1XTA    C12 4944  25.066   5.256   3.485
    1XTA    C13 4945  25.024   5.225   3.356
    1XTA    C14 4946  24.944   5.107   3.339
    1XTA    C15 4947  24.909   5.027   3.448
    1XTA     H1 4948  24.717   4.789   3.711
    1XTA     H2 4949  24.537   4.803   3.879
    1XTA     H3 4950  24.655   5.196   3.968
    1XTA     H4 4951  24.841   5.187   3.802
    1XTA     H5 4952  25.027   4.763   3.570
    1XTA     H6 4953  25.163   4.599   3.677
    1XTA     H7 4954  25.204   4.856   4.013
    1XTA     H8 4955  25.042   5.015   3.907
    1XTA     H9 4956  25.072   5.209   3.692
    1XTA    H10 4957  25.137   5.339   3.490
    1XTA    H11 4958  24.894   5.083   3.246
    1XTA    H12 4959  24.858   4.928   3.435
    1XTA    OA1 4960  24.481   4.998   4.022
    1XTA    CO1 4961  24.478   5.113   4.112
    1XTA    OA2 4962  25.286   4.627   3.917
    1XTA    CO2 4963  25.239   4.575   4.037
    1XTA    CL1 4964  25.177   4.440   4.003
    1XTA    CL2 4965  25.277   4.331   4.040
    1XTA    CL3 4966  25.223   4.188   4.031
    1XTA    CL4 4967  25.163   4.144   3.890
    1XTA    CO3 4968  25.110   3.998   3.898
    1XTA    OA3 4969  25.202   3.925   3.977
    1XTA    CO4 4970  25.157   3.790   4.001
    1XTA    CT1 4971  25.254   3.699   4.084
    1XTA    CL5 4972  25.329   3.771   4.206
    1XTA    CL6 4973  25.242   3.804   4.332
    1XTA    OA4 4974  25.046   5.302   3.243
    1XTA    CO5 4975  25.147   5.401   3.241
    1XTA    CL7 4976  25.278   5.342   3.213
    1XTA    CL8 4977  25.379   5.454   3.228
    1XTA    CL9 4978  25.514   5.417   3.188
    1XTA   CL10 4979  25.535   5.422   3.036
    1XTA    CO6 4980  25.668   5.378   2.983
    1XTA    OA5 4981  25.668   5.229   2.976
    1XTA    CO7 4982  25.726   5.178   3.102
    1XTA    CT2 4983  25.656   5.038   3.124
    1XTA   CL11 4984  25.673   4.945   2.994
    1XTA   CL12 4985  25.814   4.947   2.930
    1XTA    HL1 4986  24.399   5.098   4.188
    1XTA    HL2 4987  24.567   5.123   4.173
    1XTA    HL3 4988  24.450   5.207   4.054
    1XTA    HL4 4989  25.313   4.578   4.119
    1XTA    HL5 4990  25.156   4.637   4.078
    1XTA    HL6 4991  25.144   4.422   3.899
    1XTA    HL7 4992  25.098   4.435   4.082
    1XTA    HL8 4993  25.303   4.357   4.139
    1XTA    HL9 4994  25.374   4.340   3.979
    1XTA   HL10 4995  25.301   4.117   4.048
    1XTA   HL11 4996  25.149   4.174   4.107
    1XTA   HL12 4997  25.244   4.157   3.822
    1XTA   HL13 4998  25.079   4.212   3.861
    1XTA   HL14 4999  25.010   3.986   3.930
    1XTA   HL15 5000  25.121   3.953   3.802
    1XTA   HL16 5001  25.055   3.798   4.055
    1XTA   HL17 5002  25.136   3.739   3.908
    1XTA   HL18 5003  25.393   3.854   4.175
    1XTA   HL19 5004  25.396   3.699   4.255
    1XTA   HL20 5005  25.154   3.866   4.295
    1XTA   HL21 5006  25.303   3.871   4.399
    1XTA   HL22 5007  25.218   3.719   4.392
    1XTA   HL23 5008  25.133   5.472   3.322
    1XTA   HL24 5009  25.110   5.465   3.159
    1XTA   HL25 5010  25.284   5.265   3.290
    1XTA   HL26 5011  25.264   5.299   3.117
    1XTA   HL27 5012  25.356   5.554   3.188
    1XTA   HL28 5013  25.377   5.464   3.338
    1XTA   HL29 5014  25.583   5.481   3.240
    1XTA   HL30 5015  25.515   5.317   3.240
    1XTA   HL31 5016  25.449   5.373   2.986
    1XTA   HL32 5017  25.512   5.528   3.016
    1XTA   HL33 5018  25.673   5.413   2.879
    1XTA   HL34 5019  25.757   5.414   3.032
    1XTA   HL35 5020  25.696   5.243   3.182
    1XTA   HL36 5021  25.832   5.178   3.102
    1XTA   HL37 5022  25.613   5.005   2.916
    1XTA   HL38 5023  25.624   4.853   3.014
    1XTA   HL39 5024  25.837   5.043   2.883
    1XTA   HL40 5025  25.815   4.882   2.845
    1XTA   HL41 5026  25.890   4.914   3.007
    1XTA    CO8 5027  25.374   3.659   3.990
    1XTA    CO9 5028  25.190   3.567   4.115
    1XTA    OA6 5029  25.325   3.622   3.864
    1XTA   HL42 5030  25.437   3.583   4.039
    1XTA   HL43 5031  25.443   3.741   3.973
    1XTA   HL44 5032  25.482   5.113   3.243
    1XTA   HL45 5033  25.465   5.126   3.058
    1XTA   CO10 5034  25.503   5.065   3.140
    1XTA   CO11 5035  25.711   4.969   3.254
    1XTA    OA7 5036  25.694   5.061   3.366
    1XTA   HL46 5037  25.647   4.883   3.277
    1XTA   HL47 5038  25.804   4.921   3.237
    1XTA   HL48 5039  25.198   3.508   4.027
    1XTA   HL49 5040  25.260   3.516   4.183
    1XTA     NT 5041  24.926   4.885   5.673
    1XTA    CN1 5042  24.955   4.941   5.549
    1XTA     C1 5043  25.090   4.932   5.502
    1XTA     C2 5044  25.122   4.984   5.376
    1XTA     C3 5045  25.027   5.056   5.301
    1XTA     C4 5046  24.892   5.056   5.345
    1XTA     C5 5047  24.855   5.000   5.471
    1XTA    CN2 5048  24.944   4.971   5.773
    1XTA     C6 5049  25.034   4.943   5.880
    1XTA     C7 5050  25.038   5.025   5.984
    1XTA     C8 5051  24.953   5.141   6.002
    1XTA     C9 5052  24.871   5.173   5.894
    1XTA    C10 5053  24.865   5.088   5.784
    1XTA    CN3 5054  24.847   4.773   5.692
    1XTA    C11 5055  24.921   4.659   5.708
    1XTA    C12 5056  24.855   4.535   5.726
    1XTA    C13 5057  24.715   4.532   5.728
    1XTA    C14 5058  24.643   4.652   5.721
    1XTA    C15 5059  24.707   4.777   5.699
    1XTA     H1 5060  25.164   4.882   5.567
    1XTA     H2 5061  25.218   4.984   5.331
    1XTA     H3 5062  24.824   5.103   5.276
    1XTA     H4 5063  24.761   5.000   5.518
    1XTA     H5 5064  25.095   4.850   5.888
    1XTA     H6 5065  25.093   4.994   6.071
    1XTA     H7 5066  24.803   5.255   5.906
    1XTA     H8 5067  24.797   5.117   5.702
    1XTA     H9 5068  25.029   4.655   5.701
    1XTA    H10 5069  24.909   4.439   5.734
    1XTA    H11 5070  24.540   4.647   5.724
    1XTA    H12 5071  24.660   4.870   5.694
    1XTA    OA1 5072  25.041   5.105   5.167
    1XTA    CO1 5073  25.172   5.108   5.123
    1XTA    OA2 5074  24.955   5.217   6.118
    1XTA    CO2 5075  24.828   5.279   6.154
    1XTA    CL1 5076  24.829   5.354   6.288
    1XTA    CL2 5077  24.822   5.263   6.403
    1XTA    CL3 5078  24.914   5.312   6.520
    1XTA    CL4 5079  25.068   5.273   6.497
    1XTA    CO3 5080  25.161   5.323   6.612
    1XTA    OA3 5081  25.104   5.283   6.741
    1XTA    CO4 5082  25.180   5.332   6.851
    1XTA    CT1 5083  25.146   5.275   6.984
    1XTA    CL5 5084  25.164   5.373   7.107
    1XTA    CL6 5085  25.309   5.406   7.141
    1XTA    OA4 5086  24.649   4.418   5.716
    1XTA    CO5 5087  24.626   4.349   5.841
    1XTA    CL7 5088  24.538   4.234   5.812
    1XTA    CL8 5089  24.502   4.152   5.937
    1XTA    CL9 5090  24.598   4.029   5.961
    1XTA   CL10 5091  24.581   3.958   6.099
    1XTA    CO6 5092  24.674   3.841   6.123
    1XTA    OA5 5093  24.806   3.877   6.098
    1XTA    CO7 5094  24.853   3.983   6.177
    1XTA    CT2 5095  24.995   4.031   6.146
    1XTA   CL11 5096  25.007   4.104   6.019
    1XTA   CL12 5097  25.147   4.162   5.978
    1XTA    HL1 5098  25.207   5.002   5.116
    1XTA    HL2 5099  25.173   5.150   5.024
    1XTA    HL3 5100  25.248   5.164   5.182
    1XTA    HL4 5101  24.800   5.356   6.074
    1XTA    HL5 5102  24.744   5.213   6.145
    1XTA    HL6 5103  24.741   5.414   6.286
    1XTA    HL7 5104  24.920   5.411   6.286
    1XTA    HL8 5105  24.849   5.161   6.382
    1XTA    HL9 5106  24.719   5.262   6.441
    1XTA   HL10 5107  24.903   5.416   6.540
    1XTA   HL11 5108  24.889   5.261   6.615
    1XTA   HL12 5109  25.106   5.310   6.402
    1XTA   HL13 5110  25.075   5.167   6.480
    1XTA   HL14 5111  25.266   5.293   6.592
    1XTA   HL15 5112  25.161   5.435   6.608
    1XTA   HL16 5113  25.281   5.323   6.838
    1XTA   HL17 5114  25.162   5.438   6.857
    1XTA   HL18 5115  25.100   5.339   7.187
    1XTA   HL19 5116  25.111   5.468   7.090
    1XTA   HL20 5117  25.348   5.334   7.211
    1XTA   HL21 5118  25.325   5.499   7.193
    1XTA   HL22 5119  25.367   5.421   7.051
    1XTA   HL23 5120  24.572   4.422   5.909
    1XTA   HL24 5121  24.722   4.329   5.893
    1XTA   HL25 5122  24.449   4.277   5.779
    1XTA   HL26 5123  24.592   4.168   5.737
    1XTA   HL27 5124  24.495   4.213   6.032
    1XTA   HL28 5125  24.401   4.109   5.923
    1XTA   HL29 5126  24.564   3.954   5.881
    1XTA   HL30 5127  24.702   4.057   5.940
    1XTA   HL31 5128  24.586   4.037   6.171
    1XTA   HL32 5129  24.482   3.924   6.086
    1XTA   HL33 5130  24.663   3.811   6.229
    1XTA   HL34 5131  24.645   3.764   6.056
    1XTA   HL35 5132  24.847   3.949   6.284
    1XTA   HL36 5133  24.783   4.066   6.165
    1XTA   HL37 5134  24.932   4.186   6.032
    1XTA   HL38 5135  24.956   4.055   5.944
    1XTA   HL39 5136  25.137   4.217   5.890
    1XTA   HL40 5137  25.219   4.080   5.964
    1XTA   HL41 5138  25.180   4.240   6.048
    1XTA    CO8 5139  25.237   5.147   7.009
    1XTA    CO9 5140  25.004   5.214   6.981
    1XTA    OA6 5141  24.932   5.301   6.992
    1XTA   HL42 5142  25.188   5.114   7.103
    1XTA   HL43 5143  25.201   5.050   6.910
    1XTA   HL44 5144  25.094   3.849   6.066
    1XTA   HL45 5145  25.193   3.947   6.178
    1XTA   CO10 5146  25.093   3.912   6.156
    1XTA   CO11 5147  25.040   4.123   6.263
    1XTA    OA7 5148  25.049   3.833   6.269
    1XTA   HL46 5149  25.033   4.071   6.355
    1XTA   HL47 5150  25.149   4.150   6.239
    1XTA   HL48 5151  24.983   5.155   7.079
    1XTA   HL49 5152  24.982   5.163   6.885
    1XTA     NT 5153  31.275   5.800   3.523
    1XTA    CN1 5154  31.360   5.765   3.624
    1XTA     C1 5155  31.461   5.857   3.659
    1XTA     C2 5156  31.562   5.825   3.749
    1XTA     C3 5157  31.562   5.691   3.804
    1XTA     C4 5158  31.461   5.604   3.775
    1XTA     C5 5159  31.358   5.643   3.688
    1XTA    CN2 5160  31.326   5.777   3.398
    1XTA     C6 5161  31.359   5.653   3.348
    1XTA     C7 5162  31.418   5.639   3.223
    1XTA     C8 5163  31.443   5.754   3.145
    1XTA     C9 5164  31.403   5.883   3.193
    1XTA    C10 5165  31.346   5.892   3.321
    1XTA    CN3 5166  31.136   5.794   3.535
    1XTA    C11 5167  31.070   5.907   3.596
    1XTA    C12 5168  30.935   5.910   3.596
    1XTA    C13 5169  30.861   5.806   3.538
    1XTA    C14 5170  30.924   5.693   3.488
    1XTA    C15 5171  31.067   5.687   3.482
    1XTA     H1 5172  31.463   5.949   3.612
    1XTA     H2 5173  31.646   5.885   3.766
    1XTA     H3 5174  31.454   5.513   3.830
    1XTA     H4 5175  31.280   5.566   3.666
    1XTA     H5 5176  31.352   5.559   3.411
    1XTA     H6 5177  31.460   5.540   3.191
    1XTA     H7 5178  31.406   5.965   3.126
    1XTA     H8 5179  31.324   5.992   3.358
    1XTA     H9 5180  31.135   5.982   3.633
    1XTA    H10 5181  30.872   5.993   3.642
    1XTA    H11 5182  30.868   5.608   3.453
    1XTA    H12 5183  31.115   5.608   3.435
    1XTA    OA1 5184  31.653   5.636   3.882
    1XTA    CO1 5185  31.761   5.720   3.928
    1XTA    OA2 5186  31.484   5.739   3.012
    1XTA    CO2 5187  31.446   5.620   2.936
    1XTA    CL1 5188  31.424   5.673   2.796
    1XTA    CL2 5189  31.326   5.788   2.796
    1XTA    CL3 5190  31.273   5.825   2.658
    1XTA    CL4 5191  31.385   5.855   2.547
    1XTA    CO3 5192  31.461   5.743   2.463
    1XTA    OA3 5193  31.507   5.778   2.335
    1XTA    CO4 5194  31.587   5.682   2.279
    1XTA    CT1 5195  31.634   5.728   2.142
    1XTA    CL5 5196  31.736   5.842   2.157
    1XTA    CL6 5197  31.807   5.878   2.032
    1XTA    OA4 5198  30.729   5.813   3.505
    1XTA    CO5 5199  30.657   5.932   3.531
    1XTA    CL7 5200  30.703   6.045   3.440
    1XTA    CL8 5201  30.700   6.007   3.293
    1XTA    CL9 5202  30.760   6.100   3.197
    1XTA   CL10 5203  30.779   6.038   3.062
    1XTA    CO6 5204  30.853   6.133   2.965
    1XTA    OA5 5205  30.992   6.145   3.007
    1XTA    CO7 5206  31.070   6.197   2.901
    1XTA    CT2 5207  31.192   6.280   2.957
    1XTA   CL11 5208  31.156   6.427   2.973
    1XTA   CL12 5209  31.049   6.464   3.085
    1XTA    HL1 5210  31.811   5.748   3.836
    1XTA    HL2 5211  31.709   5.791   4.002
    1XTA    HL3 5212  31.836   5.659   3.986
    1XTA    HL4 5213  31.534   5.557   2.943
    1XTA    HL5 5214  31.354   5.588   2.986
    1XTA    HL6 5215  31.385   5.599   2.725
    1XTA    HL7 5216  31.520   5.714   2.757
    1XTA    HL8 5217  31.389   5.866   2.848
    1XTA    HL9 5218  31.242   5.771   2.862
    1XTA   HL10 5219  31.203   5.754   2.624
    1XTA   HL11 5220  31.213   5.919   2.684
    1XTA   HL12 5221  31.457   5.918   2.596
    1XTA   HL13 5222  31.345   5.934   2.483
    1XTA   HL14 5223  31.542   5.710   2.520
    1XTA   HL15 5224  31.394   5.664   2.429
    1XTA   HL16 5225  31.675   5.649   2.334
    1XTA   HL17 5226  31.525   5.593   2.274
    1XTA   HL18 5227  31.809   5.818   2.238
    1XTA   HL19 5228  31.685   5.936   2.188
    1XTA   HL20 5229  31.740   5.922   1.951
    1XTA   HL21 5230  31.885   5.809   1.998
    1XTA   HL22 5231  31.868   5.966   2.060
    1XTA   HL23 5232  30.661   5.948   3.637
    1XTA   HL24 5233  30.549   5.893   3.513
    1XTA   HL25 5234  30.644   6.141   3.455
    1XTA   HL26 5235  30.803   6.066   3.457
    1XTA   HL27 5236  30.748   5.910   3.274
    1XTA   HL28 5237  30.600   5.995   3.269
    1XTA   HL29 5238  30.704   6.195   3.181
    1XTA   HL30 5239  30.852   6.137   3.246
    1XTA   HL31 5240  30.830   5.946   3.059
    1XTA   HL32 5241  30.682   6.027   3.017
    1XTA   HL33 5242  30.847   6.096   2.862
    1XTA   HL34 5243  30.808   6.228   2.971
    1XTA   HL35 5244  31.002   6.276   2.862
    1XTA   HL36 5245  31.091   6.131   2.815
    1XTA   HL37 5246  31.133   6.472   2.878
    1XTA   HL38 5247  31.248   6.474   3.002
    1XTA   HL39 5248  31.094   6.432   3.177
    1XTA   HL40 5249  30.954   6.408   3.072
    1XTA   HL41 5250  31.039   6.572   3.086
    1XTA    CO8 5251  31.517   5.768   2.046
    1XTA    CO9 5252  31.698   5.604   2.071
    1XTA    OA6 5253  31.769   5.547   2.137
    1XTA   HL42 5254  31.450   5.682   2.023
    1XTA   HL43 5255  31.563   5.778   1.909
    1XTA   HL44 5256  31.392   6.314   2.862
    1XTA   HL45 5257  31.349   6.156   2.855
    1XTA   CO10 5258  31.300   6.259   2.852
    1XTA   CO11 5259  31.243   6.218   3.087
    1XTA    OA7 5260  31.240   6.293   2.725
    1XTA   HL46 5261  31.280   6.119   3.074
    1XTA   HL47 5262  31.159   6.203   3.152
    1XTA   HL48 5263  31.740   5.637   1.981
    1XTA   HL49 5264  31.618   5.536   2.053
    1XTA     NT 5265  24.639   3.509   5.457
    1XTA    CN1 5266  24.581   3.627   5.434
    1XTA     C1 5267  24.622   3.740   5.503
    1XTA     C2 5268  24.559   3.864   5.482
    1XTA     C3 5269  24.454   3.870   5.390
    1XTA     C4 5270  24.415   3.756   5.310
    1XTA     C5 5271  24.477   3.626   5.339
    1XTA    CN2 5272  24.575   3.410   5.526
    1XTA     C6 5273  24.518   3.301   5.464
    1XTA     C7 5274  24.465   3.200   5.541
    1XTA     C8 5275  24.460   3.208   5.679
    1XTA     C9 5276  24.510   3.317   5.743
    1XTA    C10 5277  24.571   3.415   5.674
    1XTA    CN3 5278  24.753   3.476   5.403
    1XTA    C11 5279  24.860   3.463   5.489
    1XTA    C12 5280  24.985   3.423   5.441
    1XTA    C13 5281  25.002   3.397   5.304
    1XTA    C14 5282  24.892   3.407   5.216
    1XTA    C15 5283  24.769   3.446   5.268
    1XTA     H1 5284  24.701   3.729   5.567
    1XTA     H2 5285  24.582   3.945   5.556
    1XTA     H3 5286  24.330   3.755   5.245
    1XTA     H4 5287  24.443   3.544   5.277
    1XTA     H5 5288  24.509   3.292   5.358
    1XTA     H6 5289  24.421   3.115   5.493
    1XTA     H7 5290  24.507   3.314   5.851
    1XTA     H8 5291  24.627   3.500   5.723
    1XTA     H9 5292  24.846   3.492   5.592
    1XTA    H10 5293  25.079   3.415   5.501
    1XTA    H11 5294  24.902   3.406   5.109
    1XTA    H12 5295  24.688   3.455   5.203
    1XTA    OA1 5296  24.408   3.996   5.359
    1XTA    CO1 5297  24.293   4.003   5.271
    1XTA    OA2 5298  24.381   3.104   5.734
    1XTA    CO2 5299  24.452   3.046   5.841
    1XTA    CL1 5300  24.371   2.917   5.868
    1XTA    CL2 5301  24.446   2.836   5.971
    1XTA    CL3 5302  24.369   2.716   6.019
    1XTA    CL4 5303  24.468   2.610   6.079
    1XTA    CO3 5304  24.544   2.652   6.199
    1XTA    OA3 5305  24.628   2.536   6.219
    1XTA    CO4 5306  24.685   2.536   6.349
    1XTA    CT1 5307  24.814   2.452   6.363
    1XTA    CL5 5308  24.796   2.302   6.353
    1XTA    CL6 5309  24.756   2.257   6.214
    1XTA    OA4 5310  25.121   3.377   5.240
    1XTA    CO5 5311  25.209   3.290   5.314
    1XTA    CL7 5312  25.321   3.245   5.220
    1XTA    CL8 5313  25.407   3.127   5.272
    1XTA    CL9 5314  25.453   3.151   5.417
    1XTA   CL10 5315  25.541   3.033   5.467
    1XTA    CO6 5316  25.588   3.051   5.608
    1XTA    OA5 5317  25.485   3.091   5.693
    1XTA    CO7 5318  25.536   3.150   5.811
    1XTA    CT2 5319  25.415   3.158   5.912
    1XTA   CL11 5320  25.458   3.250   6.031
    1XTA   CL12 5321  25.597   3.224   6.087
    1XTA    HL1 5322  24.270   4.113   5.260
    1XTA    HL2 5323  24.313   3.967   5.170
    1XTA    HL3 5324  24.200   3.954   5.312
    1XTA    HL4 5325  24.555   3.016   5.808
    1XTA    HL5 5326  24.461   3.108   5.932
    1XTA    HL6 5327  24.366   2.856   5.777
    1XTA    HL7 5328  24.265   2.938   5.900
    1XTA    HL8 5329  24.464   2.893   6.066
    1XTA    HL9 5330  24.545   2.814   5.928
    1XTA   HL10 5331  24.280   2.729   6.085
    1XTA   HL11 5332  24.321   2.667   5.934
    1XTA   HL12 5333  24.541   2.580   5.998
    1XTA   HL13 5334  24.410   2.516   6.095
    1XTA   HL14 5335  24.597   2.749   6.183
    1XTA   HL15 5336  24.477   2.668   6.281
    1XTA   HL16 5337  24.706   2.639   6.360
    1XTA   HL17 5338  24.613   2.506   6.435
    1XTA   HL18 5339  24.715   2.273   6.431
    1XTA   HL19 5340  24.888   2.246   6.367
    1XTA   HL20 5341  24.822   2.300   6.139
    1XTA   HL21 5342  24.654   2.280   6.192
    1XTA   HL22 5343  24.752   2.145   6.202
    1XTA   HL23 5344  25.161   3.200   5.345
    1XTA   HL24 5345  25.256   3.340   5.402
    1XTA   HL25 5346  25.265   3.212   5.132
    1XTA   HL26 5347  25.375   3.337   5.198
    1XTA   HL27 5348  25.366   3.026   5.261
    1XTA   HL28 5349  25.499   3.103   5.215
    1XTA   HL29 5350  25.492   3.255   5.437
    1XTA   HL30 5351  25.362   3.149   5.486
    1XTA   HL31 5352  25.496   2.937   5.457
    1XTA   HL32 5353  25.637   3.037   5.409
    1XTA   HL33 5354  25.632   2.957   5.648
    1XTA   HL34 5355  25.666   3.126   5.608
    1XTA   HL35 5356  25.592   3.243   5.802
    1XTA   HL36 5357  25.606   3.075   5.840
    1XTA   HL37 5358  25.397   3.233   6.112
    1XTA   HL38 5359  25.446   3.356   6.003
    1XTA   HL39 5360  25.629   3.112   6.088
    1XTA   HL40 5361  25.593   3.250   6.195
    1XTA   HL41 5362  25.672   3.294   6.043
    1XTA    CO8 5363  24.860   2.473   6.509
    1XTA    CO9 5364  24.915   2.503   6.262
    1XTA    OA6 5365  24.870   2.616   6.523
    1XTA   HL42 5366  24.951   2.418   6.535
    1XTA   HL43 5367  24.780   2.448   6.587
    1XTA   HL44 5368  25.273   3.013   5.991
    1XTA   HL45 5369  25.373   2.963   5.854
    1XTA   CO10 5370  25.374   3.013   5.956
    1XTA   CO11 5371  25.290   3.219   5.853
    1XTA    OA7 5372  25.455   2.976   6.029
    1XTA   HL46 5373  25.263   3.158   5.728
    1XTA   HL47 5374  25.321   3.321   5.830
    1XTA   HL48 5375  24.886   2.496   6.163
    1XTA   HL49 5376  24.925   2.607   6.280
    1XTA     NT 5377  24.547  -0.503   6.259
    1XTA    CN1 5378  24.639  -0.468   6.353
    1XTA     C1 5379  24.761  -0.419   6.316
    1XTA     C2 5380  24.863  -0.396   6.409
    1XTA     C3 5381  24.846  -0.419   6.546
    1XTA     C4 5382  24.716  -0.469   6.583
    1XTA     C5 5383  24.611  -0.493   6.492
    1XTA    CN2 5384  24.512  -0.637   6.259
    1XTA     C6 5385  24.597  -0.728   6.194
    1XTA     C7 5386  24.560  -0.867   6.199
    1XTA     C8 5387  24.438  -0.911   6.253
    1XTA     C9 5388  24.353  -0.813   6.306
    1XTA    C10 5389  24.387  -0.681   6.312
    1XTA    CN3 5390  24.452  -0.421   6.209
    1XTA    C11 5391  24.436  -0.400   6.073
    1XTA    C12 5392  24.335  -0.310   6.029
    1XTA    C13 5393  24.252  -0.240   6.114
    1XTA    C14 5394  24.275  -0.253   6.254
    1XTA    C15 5395  24.378  -0.337   6.293
    1XTA     H1 5396  24.780  -0.395   6.217
    1XTA     H2 5397  24.961  -0.364   6.375
    1XTA     H3 5398  24.697  -0.488   6.694
    1XTA     H4 5399  24.508  -0.532   6.518
    1XTA     H5 5400  24.694  -0.693   6.149
    1XTA     H6 5401  24.628  -0.939   6.163
    1XTA     H7 5402  24.253  -0.834   6.334
    1XTA     H8 5403  24.315  -0.609   6.351
    1XTA     H9 5404  24.492  -0.463   6.007
    1XTA    H10 5405  24.328  -0.285   5.917
    1XTA    H11 5406  24.217  -0.190   6.320
    1XTA    H12 5407  24.398  -0.363   6.401
    1XTA    OA1 5408  24.952  -0.387   6.628
    1XTA    CO1 5409  24.941  -0.442   6.761
    1XTA    OA2 5410  24.419  -1.047   6.265
    1XTA    CO2 5411  24.291  -1.098   6.293
    1XTA    CL1 5412  24.269  -1.140   6.439
    1XTA    CL2 5413  24.375  -1.250   6.483
    1XTA    CL3 5414  24.357  -1.294   6.629
    1XTA    CL4 5415  24.395  -1.440   6.653
    1XTA    CO3 5416  24.354  -1.490   6.795
    1XTA    OA3 5417  24.213  -1.495   6.787
    1XTA    CO4 5418  24.155  -1.526   6.919
    1XTA    CT1 5419  24.002  -1.513   6.902
    1XTA    CL5 5420  23.955  -1.369   6.872
    1XTA    CL6 5421  23.986  -1.268   6.990
    1XTA    OA4 5422  24.154  -0.168   6.052
    1XTA    CO5 5423  24.057  -0.108   6.135
    1XTA    CL7 5424  23.960  -0.226   6.166
    1XTA    CL8 5425  23.815  -0.193   6.194
    1XTA    CL9 5426  23.788  -0.156   6.340
    1XTA   CL10 5427  23.634  -0.143   6.369
    1XTA    CO6 5428  23.610  -0.085   6.508
    1XTA    OA5 5429  23.644  -0.198   6.598
    1XTA    CO7 5430  23.680  -0.166   6.727
    1XTA    CT2 5431  23.741  -0.293   6.790
    1XTA   CL11 5432  23.632  -0.409   6.808
    1XTA   CL12 5433  23.563  -0.458   6.681
    1XTA    HL1 5434  25.029  -0.426   6.830
    1XTA    HL2 5435  24.858  -0.410   6.821
    1XTA    HL3 5436  24.920  -0.552   6.753
    1XTA    HL4 5437  24.220  -1.026   6.255
    1XTA    HL5 5438  24.272  -1.176   6.230
    1XTA    HL6 5439  24.167  -1.183   6.447
    1XTA    HL7 5440  24.275  -1.051   6.503
    1XTA    HL8 5441  24.469  -1.203   6.472
    1XTA    HL9 5442  24.372  -1.340   6.415
    1XTA   HL10 5443  24.413  -1.237   6.710
    1XTA   HL11 5444  24.253  -1.293   6.674
    1XTA   HL12 5445  24.507  -1.451   6.642
    1XTA   HL13 5446  24.350  -1.506   6.577
    1XTA   HL14 5447  24.396  -1.594   6.808
    1XTA   HL15 5448  24.381  -1.426   6.881
    1XTA   HL16 5449  24.195  -1.626   6.946
    1XTA   HL17 5450  24.202  -1.461   6.990
    1XTA   HL18 5451  23.849  -1.375   6.844
    1XTA   HL19 5452  24.004  -1.324   6.790
    1XTA   HL20 5453  23.943  -1.311   7.079
    1XTA   HL21 5454  23.939  -1.177   6.976
    1XTA   HL22 5455  24.090  -1.231   7.000
    1XTA   HL23 5456  23.995  -0.033   6.087
    1XTA   HL24 5457  24.093  -0.059   6.230
    1XTA   HL25 5458  23.957  -0.295   6.080
    1XTA   HL26 5459  24.004  -0.295   6.240
    1XTA   HL27 5460  23.785  -0.109   6.125
    1XTA   HL28 5461  23.752  -0.280   6.177
    1XTA   HL29 5462  23.843  -0.227   6.402
    1XTA   HL30 5463  23.821  -0.055   6.369
    1XTA   HL31 5464  23.593  -0.079   6.292
    1XTA   HL32 5465  23.574  -0.237   6.361
    1XTA   HL33 5466  23.668   0.011   6.529
    1XTA   HL34 5467  23.506  -0.055   6.527
    1XTA   HL35 5468  23.591  -0.140   6.785
    1XTA   HL36 5469  23.738  -0.074   6.734
    1XTA   HL37 5470  23.560  -0.386   6.876
    1XTA   HL38 5471  23.677  -0.497   6.831
    1XTA   HL39 5472  23.495  -0.546   6.693
    1XTA   HL40 5473  23.633  -0.482   6.599
    1XTA   HL41 5474  23.502  -0.373   6.648
    1XTA    CO8 5475  23.933  -1.567   7.033
    1XTA    CO9 5476  23.939  -1.600   6.790
    1XTA    OA6 5477  23.791  -1.536   7.044
    1XTA   HL42 5478  23.973  -1.506   7.109
    1XTA   HL43 5479  23.953  -1.669   7.054
    1XTA   HL44 5480  23.838  -0.334   6.972
    1XTA   HL45 5481  23.883  -0.135   6.927
    1XTA   CO10 5482  23.786  -0.244   6.932
    1XTA   CO11 5483  23.862  -0.351   6.710
    1XTA    OA7 5484  23.903  -0.449   6.741
    1XTA   HL46 5485  23.834  -0.374   6.608
    1XTA   HL47 5486  23.938  -0.280   6.693
    1XTA   HL48 5487  23.834  -1.569   6.785
    1XTA   HL49 5488  23.970  -1.586   6.693
    1XTA     NT 5489  27.899   3.434   4.733
    1XTA    CN1 5490  28.019   3.385   4.680
    1XTA     C1 5491  28.139   3.387   4.760
    1XTA     C2 5492  28.257   3.342   4.696
    1XTA     C3 5493  28.257   3.304   4.560
    1XTA     C4 5494  28.142   3.310   4.485
    1XTA     C5 5495  28.020   3.343   4.548
    1XTA    CN2 5496  27.912   3.544   4.806
    1XTA     C6 5497  27.943   3.664   4.735
    1XTA     C7 5498  27.948   3.791   4.804
    1XTA     C8 5499  27.945   3.787   4.944
    1XTA     C9 5500  27.922   3.667   5.010
    1XTA    C10 5501  27.906   3.543   4.944
    1XTA    CN3 5502  27.786   3.364   4.718
    1XTA    C11 5503  27.723   3.296   4.824
    1XTA    C12 5504  27.607   3.223   4.806
    1XTA    C13 5505  27.537   3.235   4.689
    1XTA    C14 5506  27.589   3.317   4.587
    1XTA    C15 5507  27.714   3.378   4.598
    1XTA     H1 5508  28.154   3.435   4.856
    1XTA     H2 5509  28.344   3.349   4.756
    1XTA     H3 5510  28.143   3.282   4.381
    1XTA     H4 5511  27.936   3.347   4.480
    1XTA     H5 5512  27.945   3.656   4.627
    1XTA     H6 5513  27.938   3.877   4.748
    1XTA     H7 5514  27.912   3.661   5.116
    1XTA     H8 5515  27.890   3.447   4.994
    1XTA     H9 5516  27.768   3.303   4.926
    1XTA    H10 5517  27.563   3.173   4.892
    1XTA    H11 5518  27.519   3.338   4.504
    1XTA    H12 5519  27.766   3.440   4.528
    1XTA    OA1 5520  28.370   3.277   4.496
    1XTA    CO1 5521  28.492   3.328   4.545
    1XTA    OA2 5522  27.946   3.906   5.018
    1XTA    CO2 5523  27.921   4.032   4.939
    1XTA    CL1 5524  27.780   4.047   4.888
    1XTA    CL2 5525  27.693   4.073   5.007
    1XTA    CL3 5526  27.557   4.005   5.014
    1XTA    CL4 5527  27.446   4.080   4.942
    1XTA    CO3 5528  27.337   3.982   4.900
    1XTA    OA3 5529  27.214   4.057   4.872
    1XTA    CO4 5530  27.096   3.971   4.860
    1XTA    CT1 5531  26.982   4.041   4.790
    1XTA    CL5 5532  26.923   4.174   4.864
    1XTA    CL6 5533  26.873   4.165   5.009
    1XTA    OA4 5534  27.421   3.161   4.666
    1XTA    CO5 5535  27.312   3.247   4.706
    1XTA    CL7 5536  27.184   3.173   4.746
    1XTA    CL8 5537  27.202   3.108   4.880
    1XTA    CL9 5538  27.059   3.055   4.915
    1XTA   CL10 5539  27.073   2.938   5.017
    1XTA    CO6 5540  26.936   2.880   5.049
    1XTA    OA5 5541  26.946   2.737   5.100
    1XTA    CO7 5542  26.829   2.700   5.184
    1XTA    CT2 5543  26.844   2.572   5.267
    1XTA   CL11 5544  26.711   2.565   5.339
    1XTA   CL12 5545  26.692   2.454   5.441
    1XTA    HL1 5546  28.493   3.438   4.545
    1XTA    HL2 5547  28.511   3.294   4.649
    1XTA    HL3 5548  28.578   3.293   4.483
    1XTA    HL4 5549  27.948   4.110   5.012
    1XTA    HL5 5550  28.001   4.046   4.867
    1XTA    HL6 5551  27.744   3.966   4.832
    1XTA    HL7 5552  27.766   4.126   4.812
    1XTA    HL8 5553  27.675   4.176   5.026
    1XTA    HL9 5554  27.741   4.026   5.096
    1XTA   HL10 5555  27.576   3.910   4.970
    1XTA   HL11 5556  27.526   3.991   5.120
    1XTA   HL12 5557  27.472   4.153   4.862
    1XTA   HL13 5558  27.399   4.146   5.010
    1XTA   HL14 5559  27.367   3.922   4.820
    1XTA   HL15 5560  27.311   3.913   4.975
    1XTA   HL16 5561  27.131   3.883   4.805
    1XTA   HL17 5562  27.061   3.941   4.952
    1XTA   HL18 5563  26.849   4.203   4.796
    1XTA   HL19 5564  26.998   4.254   4.866
    1XTA   HL20 5565  26.818   4.250   5.049
    1XTA   HL21 5566  26.960   4.147   5.066
    1XTA   HL22 5567  26.794   4.092   5.021
    1XTA   HL23 5568  27.293   3.308   4.617
    1XTA   HL24 5569  27.345   3.305   4.794
    1XTA   HL25 5570  27.107   3.250   4.749
    1XTA   HL26 5571  27.153   3.098   4.673
    1XTA   HL27 5572  27.261   3.020   4.871
    1XTA   HL28 5573  27.249   3.172   4.954
    1XTA   HL29 5574  27.003   3.129   4.968
    1XTA   HL30 5575  27.007   3.010   4.833
    1XTA   HL31 5576  27.136   2.858   4.975
    1XTA   HL32 5577  27.121   2.968   5.110
    1XTA   HL33 5578  26.879   2.939   5.125
    1XTA   HL34 5579  26.883   2.879   4.955
    1XTA   HL35 5580  26.737   2.694   5.120
    1XTA   HL36 5581  26.815   2.782   5.256
    1XTA   HL37 5582  26.638   2.559   5.261
    1XTA   HL38 5583  26.708   2.657   5.399
    1XTA   HL39 5584  26.760   2.464   5.526
    1XTA   HL40 5585  26.681   2.353   5.406
    1XTA   HL41 5586  26.597   2.475   5.490
    1XTA    CO8 5587  26.877   3.930   4.768
    1XTA    CO9 5588  27.040   4.077   4.653
    1XTA    OA6 5589  26.812   3.887   4.891
    1XTA   HL42 5590  26.930   3.837   4.720
    1XTA   HL43 5591  26.799   3.964   4.701
    1XTA   HL44 5592  27.055   2.609   5.303
    1XTA   HL45 5593  26.959   2.695   5.428
    1XTA   CO10 5594  26.961   2.597   5.365
    1XTA   CO11 5595  26.882   2.450   5.175
    1XTA    OA7 5596  26.970   2.508   5.427
    1XTA   HL46 5597  27.018   2.459   5.134
    1XTA   HL47 5598  26.868   2.363   5.229
    1XTA   HL48 5599  27.099   4.167   4.672
    1XTA   HL49 5600  27.116   4.007   4.626
    1XTA     NT 5601  24.162   3.565   2.445
    1XTA    CN1 5602  24.150   3.493   2.564
    1XTA     C1 5603  24.022   3.437   2.591
    1XTA     C2 5604  24.000   3.363   2.712
    1XTA     C3 5605  24.113   3.324   2.784
    1XTA     C4 5606  24.247   3.361   2.745
    1XTA     C5 5607  24.263   3.448   2.634
    1XTA    CN2 5608  24.230   3.680   2.454
    1XTA     C6 5609  24.369   3.683   2.420
    1XTA     C7 5610  24.439   3.805   2.422
    1XTA     C8 5611  24.373   3.927   2.449
    1XTA     C9 5612  24.237   3.925   2.485
    1XTA    C10 5613  24.165   3.804   2.486
    1XTA    CN3 5614  24.135   3.503   2.329
    1XTA    C11 5615  24.151   3.359   2.308
    1XTA    C12 5616  24.101   3.293   2.195
    1XTA    C13 5617  24.036   3.367   2.095
    1XTA    C14 5618  24.018   3.507   2.114
    1XTA    C15 5619  24.069   3.577   2.228
    1XTA     H1 5620  23.944   3.460   2.522
    1XTA     H2 5621  23.900   3.329   2.752
    1XTA     H3 5622  24.336   3.322   2.791
    1XTA     H4 5623  24.364   3.475   2.617
    1XTA     H5 5624  24.422   3.595   2.385
    1XTA     H6 5625  24.546   3.794   2.386
    1XTA     H7 5626  24.178   4.018   2.510
    1XTA     H8 5627  24.056   3.797   2.501
    1XTA     H9 5628  24.192   3.305   2.382
    1XTA    H10 5629  24.119   3.187   2.192
    1XTA    H11 5630  23.971   3.563   2.038
    1XTA    H12 5631  24.060   3.682   2.249
    1XTA    OA1 5632  24.091   3.242   2.892
    1XTA    CO1 5633  24.207   3.206   2.971
    1XTA    OA2 5634  24.442   4.050   2.443
    1XTA    CO2 5635  24.578   4.048   2.477
    1XTA    CL1 5636  24.620   4.191   2.497
    1XTA    CL2 5637  24.767   4.193   2.548
    1XTA    CL3 5638  24.853   4.312   2.505
    1XTA    CL4 5639  24.853   4.313   2.350
    1XTA    CO3 5640  24.969   4.400   2.297
    1XTA    OA3 5641  24.914   4.530   2.293
    1XTA    CO4 5642  24.999   4.628   2.245
    1XTA    CT1 5643  24.919   4.763   2.233
    1XTA    CL5 5644  24.822   4.802   2.366
    1XTA    CL6 5645  24.710   4.707   2.391
    1XTA    OA4 5646  24.002   3.309   1.977
    1XTA    CO5 5647  23.985   3.169   1.977
    1XTA    CL7 5648  23.923   3.121   1.846
    1XTA    CL8 5649  23.999   3.173   1.728
    1XTA    CL9 5650  23.982   3.081   1.603
    1XTA   CL10 5651  24.066   3.149   1.493
    1XTA    CO6 5652  24.043   3.094   1.349
    1XTA    OA5 5653  23.948   3.181   1.278
    1XTA    CO7 5654  23.815   3.158   1.328
    1XTA    CT2 5655  23.711   3.192   1.220
    1XTA   CL11 5656  23.728   3.337   1.175
    1XTA   CL12 5657  23.635   3.389   1.069
    1XTA    HL1 5658  24.286   3.153   2.918
    1XTA    HL2 5659  24.242   3.290   3.037
    1XTA    HL3 5660  24.161   3.149   3.051
    1XTA    HL4 5661  24.590   3.994   2.572
    1XTA    HL5 5662  24.636   3.995   2.403
    1XTA    HL6 5663  24.548   4.225   2.572
    1XTA    HL7 5664  24.606   4.244   2.408
    1XTA    HL8 5665  24.817   4.104   2.507
    1XTA    HL9 5666  24.789   4.183   2.654
    1XTA   HL10 5667  24.828   4.406   2.551
    1XTA   HL11 5668  24.961   4.298   2.536
    1XTA   HL12 5669  24.757   4.342   2.308
    1XTA   HL13 5670  24.860   4.202   2.325
    1XTA   HL14 5671  25.061   4.399   2.354
    1XTA   HL15 5672  24.991   4.368   2.191
    1XTA   HL16 5673  25.081   4.643   2.311
    1XTA   HL17 5674  25.034   4.606   2.149
    1XTA   HL18 5675  24.788   4.908   2.354
    1XTA   HL19 5676  24.902   4.804   2.442
    1XTA   HL20 5677  24.747   4.607   2.414
    1XTA   HL21 5678  24.650   4.694   2.308
    1XTA   HL22 5679  24.654   4.736   2.479
    1XTA   HL23 5680  23.917   3.140   2.055
    1XTA   HL24 5681  24.078   3.111   1.980
    1XTA   HL25 5682  23.932   3.011   1.853
    1XTA   HL26 5683  23.822   3.153   1.844
    1XTA   HL27 5684  23.945   3.261   1.705
    1XTA   HL28 5685  24.103   3.194   1.761
    1XTA   HL29 5686  24.019   2.976   1.620
    1XTA   HL30 5687  23.881   3.075   1.576
    1XTA   HL31 5688  24.057   3.257   1.499
    1XTA   HL32 5689  24.168   3.133   1.518
    1XTA   HL33 5690  24.131   3.079   1.286
    1XTA   HL34 5691  24.007   2.997   1.362
    1XTA   HL35 5692  23.793   3.224   1.408
    1XTA   HL36 5693  23.815   3.059   1.365
    1XTA   HL37 5694  23.831   3.352   1.140
    1XTA   HL38 5695  23.715   3.394   1.261
    1XTA   HL39 5696  23.642   3.329   0.972
    1XTA   HL40 5697  23.660   3.491   1.050
    1XTA   HL41 5698  23.531   3.372   1.103
    1XTA    CO8 5699  24.833   4.752   2.106
    1XTA    CO9 5700  25.024   4.875   2.198
    1XTA    OA6 5701  25.070   4.929   2.321
    1XTA   HL42 5702  24.778   4.657   2.118
    1XTA   HL43 5703  24.759   4.836   2.107
    1XTA   HL44 5704  23.508   3.170   1.208
    1XTA   HL45 5705  23.570   3.068   1.324
    1XTA   CO10 5706  23.582   3.168   1.290
    1XTA   CO11 5707  23.736   3.092   1.101
    1XTA    OA7 5708  23.551   3.270   1.389
    1XTA   HL46 5709  23.835   3.109   1.062
    1XTA   HL47 5710  23.655   3.113   1.022
    1XTA   HL48 5711  24.979   4.953   2.136
    1XTA   HL49 5712  25.108   4.833   2.136
    1XTA     NT 5713  26.550   5.263   7.028
    1XTA    CN1 5714  26.583   5.137   6.993
    1XTA     C1 5715  26.500   5.055   6.914
    1XTA     C2 5716  26.526   4.923   6.886
    1XTA     C3 5717  26.637   4.864   6.944
    1XTA     C4 5718  26.709   4.939   7.035
    1XTA     C5 5719  26.690   5.078   7.058
    1XTA    CN2 5720  26.538   5.351   6.931
    1XTA     C6 5721  26.416   5.399   6.885
    1XTA     C7 5722  26.405   5.494   6.784
    1XTA     C8 5723  26.518   5.555   6.725
    1XTA     C9 5724  26.645   5.511   6.780
    1XTA    C10 5725  26.649   5.411   6.880
    1XTA    CN3 5726  26.565   5.315   7.158
    1XTA    C11 5727  26.679   5.378   7.199
    1XTA    C12 5728  26.693   5.416   7.339
    1XTA    C13 5729  26.578   5.425   7.423
    1XTA    C14 5730  26.458   5.369   7.379
    1XTA    C15 5731  26.458   5.310   7.254
    1XTA     H1 5732  26.416   5.097   6.862
    1XTA     H2 5733  26.458   4.872   6.819
    1XTA     H3 5734  26.790   4.897   7.089
    1XTA     H4 5735  26.755   5.131   7.122
    1XTA     H5 5736  26.338   5.332   6.920
    1XTA     H6 5737  26.302   5.517   6.758
    1XTA     H7 5738  26.728   5.551   6.730
    1XTA     H8 5739  26.748   5.378   6.908
    1XTA     H9 5740  26.767   5.384   7.124
    1XTA    H10 5741  26.785   5.448   7.376
    1XTA    H11 5742  26.379   5.369   7.448
    1XTA    H12 5743  26.370   5.262   7.224
    1XTA    OA1 5744  26.680   4.735   6.915
    1XTA    CO1 5745  26.610   4.669   6.811
    1XTA    OA2 5746  26.521   5.640   6.614
    1XTA    CO2 5747  26.399   5.695   6.564
    1XTA    CL1 5748  26.363   5.820   6.640
    1XTA    CL2 5749  26.473   5.908   6.696
    1XTA    CL3 5750  26.425   6.034   6.776
    1XTA    CL4 5751  26.367   6.144   6.694
    1XTA    CO3 5752  26.470   6.243   6.640
    1XTA    OA3 5753  26.398   6.345   6.577
    1XTA    CO4 5754  26.341   6.316   6.453
    1XTA    CT1 5755  26.267   6.434   6.389
    1XTA    CL5 5756  26.189   6.387   6.259
    1XTA    CL6 5757  26.086   6.272   6.283
    1XTA    OA4 5758  26.597   5.483   7.549
    1XTA    CO5 5759  26.559   5.400   7.666
    1XTA    CL7 5760  26.578   5.486   7.786
    1XTA    CL8 5761  26.472   5.469   7.901
    1XTA    CL9 5762  26.478   5.585   8.000
    1XTA   CL10 5763  26.617   5.583   8.079
    1XTA    CO6 5764  26.649   5.712   8.166
    1XTA    OA5 5765  26.773   5.699   8.239
    1XTA    CO7 5766  26.889   5.724   8.164
    1XTA    CT2 5767  27.006   5.669   8.241
    1XTA   CL11 5768  27.005   5.741   8.380
    1XTA   CL12 5769  27.101   5.686   8.485
    1XTA    HL1 5770  26.616   4.723   6.726
    1XTA    HL2 5771  26.663   4.583   6.784
    1XTA    HL3 5772  26.502   4.642   6.835
    1XTA    HL4 5773  26.437   5.724   6.464
    1XTA    HL5 5774  26.320   5.625   6.569
    1XTA    HL6 5775  26.297   5.799   6.719
    1XTA    HL7 5776  26.298   5.874   6.565
    1XTA    HL8 5777  26.543   5.939   6.615
    1XTA    HL9 5778  26.536   5.849   6.760
    1XTA   HL10 5779  26.349   5.993   6.849
    1XTA   HL11 5780  26.505   6.072   6.837
    1XTA   HL12 5781  26.308   6.202   6.773
    1XTA   HL13 5782  26.291   6.102   6.621
    1XTA   HL14 5783  26.525   6.292   6.720
    1XTA   HL15 5784  26.553   6.200   6.582
    1XTA   HL16 5785  26.416   6.281   6.382
    1XTA   HL17 5786  26.275   6.230   6.463
    1XTA   HL18 5787  26.269   6.352   6.190
    1XTA   HL19 5788  26.130   6.461   6.210
    1XTA   HL20 5789  26.039   6.251   6.193
    1XTA   HL21 5790  26.013   6.299   6.354
    1XTA   HL22 5791  26.157   6.187   6.322
    1XTA   HL23 5792  26.612   5.306   7.674
    1XTA   HL24 5793  26.458   5.364   7.653
    1XTA   HL25 5794  26.677   5.467   7.823
    1XTA   HL26 5795  26.570   5.586   7.749
    1XTA   HL27 5796  26.375   5.461   7.845
    1XTA   HL28 5797  26.490   5.373   7.953
    1XTA   HL29 5798  26.467   5.691   7.954
    1XTA   HL30 5799  26.395   5.577   8.076
    1XTA   HL31 5800  26.626   5.505   8.144
    1XTA   HL32 5801  26.699   5.567   8.014
    1XTA   HL33 5802  26.652   5.800   8.093
    1XTA   HL34 5803  26.570   5.727   8.240
    1XTA   HL35 5804  26.903   5.825   8.131
    1XTA   HL36 5805  26.887   5.664   8.072
    1XTA   HL37 5806  26.919   5.731   8.436
    1XTA   HL38 5807  27.016   5.847   8.358
    1XTA   HL39 5808  27.199   5.674   8.438
    1XTA   HL40 5809  27.073   5.583   8.513
    1XTA   HL41 5810  27.103   5.744   8.577
    1XTA    CO8 5811  26.375   6.538   6.353
    1XTA    CO9 5812  26.165   6.498   6.480
    1XTA    OA6 5813  26.061   6.578   6.426
    1XTA   HL42 5814  26.471   6.494   6.313
    1XTA   HL43 5815  26.341   6.617   6.280
    1XTA   HL44 5816  27.145   5.801   8.139
    1XTA   HL45 5817  27.227   5.661   8.206
    1XTA   CO10 5818  27.132   5.694   8.159
    1XTA   CO11 5819  26.985   5.516   8.243
    1XTA    OA7 5820  27.109   5.623   8.028
    1XTA   HL46 5821  26.953   5.474   8.148
    1XTA   HL47 5822  26.900   5.487   8.314
    1XTA   HL48 5823  26.210   6.553   6.557
    1XTA   HL49 5824  26.112   6.415   6.524
    1XTA     NT 5825  22.008   3.186   1.608
    1XTA    CN1 5826  21.934   3.075   1.634
    1XTA     C1 5827  21.808   3.070   1.579
    1XTA     C2 5828  21.728   2.957   1.584
    1XTA     C3 5829  21.768   2.853   1.668
    1XTA     C4 5830  21.890   2.862   1.741
    1XTA     C5 5831  21.978   2.968   1.712
    1XTA    CN2 5832  21.964   3.306   1.657
    1XTA     C6 5833  21.939   3.311   1.796
    1XTA     C7 5834  21.896   3.430   1.850
    1XTA     C8 5835  21.881   3.545   1.769
    1XTA     C9 5836  21.910   3.538   1.633
    1XTA    C10 5837  21.944   3.420   1.573
    1XTA    CN3 5838  22.127   3.169   1.548
    1XTA    C11 5839  22.239   3.229   1.603
    1XTA    C12 5840  22.370   3.219   1.551
    1XTA    C13 5841  22.390   3.147   1.430
    1XTA    C14 5842  22.271   3.097   1.361
    1XTA    C15 5843  22.149   3.104   1.426
    1XTA     H1 5844  21.783   3.158   1.517
    1XTA     H2 5845  21.637   2.948   1.531
    1XTA     H3 5846  21.924   2.784   1.802
    1XTA     H4 5847  22.074   2.973   1.759
    1XTA     H5 5848  21.969   3.226   1.855
    1XTA     H6 5849  21.874   3.444   1.955
    1XTA     H7 5850  21.916   3.631   1.575
    1XTA     H8 5851  21.969   3.413   1.467
    1XTA     H9 5852  22.233   3.294   1.684
    1XTA    H10 5853  22.446   3.285   1.598
    1XTA    H11 5854  22.287   3.056   1.262
    1XTA    H12 5855  22.052   3.066   1.393
    1XTA    OA1 5856  21.693   2.743   1.694
    1XTA    CO1 5857  21.601   2.703   1.603
    1XTA    OA2 5858  21.832   3.649   1.841
    1XTA    CO2 5859  21.797   3.760   1.765
    1XTA    CL1 5860  21.728   3.862   1.853
    1XTA    CL2 5861  21.786   3.891   1.994
    1XTA    CL3 5862  21.938   3.914   1.978
    1XTA    CL4 5863  22.006   3.967   2.109
    1XTA    CO3 5864  22.155   3.982   2.089
    1XTA    OA3 5865  22.198   4.083   2.179
    1XTA    CO4 5866  22.228   4.036   2.312
    1XTA    CT1 5867  22.258   4.145   2.411
    1XTA    CL5 5868  22.371   4.241   2.355
    1XTA    CL6 5869  22.505   4.177   2.305
    1XTA    OA4 5870  22.509   3.142   1.369
    1XTA    CO5 5871  22.539   3.214   1.256
    1XTA    CL7 5872  22.690   3.231   1.259
    1XTA    CL8 5873  22.745   3.331   1.371
    1XTA    CL9 5874  22.894   3.323   1.396
    1XTA   CL10 5875  22.947   3.198   1.470
    1XTA    CO6 5876  23.048   3.243   1.574
    1XTA    OA5 5877  23.152   3.310   1.504
    1XTA    CO7 5878  23.249   3.380   1.593
    1XTA    CT2 5879  23.382   3.401   1.519
    1XTA   CL11 5880  23.391   3.518   1.416
    1XTA   CL12 5881  23.306   3.501   1.278
    1XTA    HL1 5882  21.584   2.598   1.622
    1XTA    HL2 5883  21.511   2.755   1.601
    1XTA    HL3 5884  21.646   2.712   1.501
    1XTA    HL4 5885  21.882   3.809   1.724
    1XTA    HL5 5886  21.725   3.740   1.686
    1XTA    HL6 5887  21.628   3.817   1.862
    1XTA    HL7 5888  21.710   3.960   1.803
    1XTA    HL8 5889  21.773   3.810   2.070
    1XTA    HL9 5890  21.746   3.977   2.052
    1XTA   HL10 5891  21.993   3.828   1.948
    1XTA   HL11 5892  21.948   3.994   1.905
    1XTA   HL12 5893  21.960   3.902   2.182
    1XTA   HL13 5894  21.969   4.068   2.128
    1XTA   HL14 5895  22.202   3.891   2.092
    1XTA   HL15 5896  22.170   4.025   1.991
    1XTA   HL16 5897  22.136   3.983   2.351
    1XTA   HL17 5898  22.309   3.966   2.308
    1XTA   HL18 5899  22.398   4.314   2.428
    1XTA   HL19 5900  22.327   4.308   2.273
    1XTA   HL20 5901  22.574   4.249   2.260
    1XTA   HL21 5902  22.480   4.099   2.234
    1XTA   HL22 5903  22.559   4.124   2.378
    1XTA   HL23 5904  22.500   3.309   1.249
    1XTA   HL24 5905  22.519   3.156   1.165
    1XTA   HL25 5906  22.739   3.134   1.287
    1XTA   HL26 5907  22.728   3.259   1.159
    1XTA   HL27 5908  22.705   3.428   1.360
    1XTA   HL28 5909  22.700   3.303   1.470
    1XTA   HL29 5910  22.935   3.331   1.302
    1XTA   HL30 5911  22.917   3.407   1.462
    1XTA   HL31 5912  22.861   3.134   1.506
    1XTA   HL32 5913  23.000   3.141   1.395
    1XTA   HL33 5914  23.007   3.310   1.645
    1XTA   HL34 5915  23.095   3.163   1.631
    1XTA   HL35 5916  23.269   3.331   1.689
    1XTA   HL36 5917  23.217   3.479   1.635
    1XTA   HL37 5918  23.495   3.532   1.404
    1XTA   HL38 5919  23.358   3.615   1.459
    1XTA   HL39 5920  23.325   3.402   1.221
    1XTA   HL40 5921  23.337   3.579   1.205
    1XTA   HL41 5922  23.199   3.514   1.295
    1XTA    CO8 5923  22.309   4.089   2.545
    1XTA    CO9 5924  22.128   4.216   2.444
    1XTA    OA6 5925  22.310   4.162   2.629
    1XTA   HL42 5926  22.405   4.033   2.542
    1XTA   HL43 5927  22.244   4.009   2.561
    1XTA   HL44 5928  23.430   3.164   1.556
    1XTA   HL45 5929  23.348   3.233   1.393
    1XTA   CO10 5930  23.431   3.271   1.459
    1XTA   CO11 5931  23.487   3.424   1.630
    1XTA    OA7 5932  23.582   3.461   1.597
    1XTA   HL46 5933  23.443   3.484   1.714
    1XTA   HL47 5934  23.507   3.330   1.678
    1XTA   HL48 5935  22.146   4.322   2.529
    1XTA   HL49 5936  22.094   4.257   2.345
    1XTA     NT 5937  26.589   0.694   3.340
    1XTA    CN1 5938  26.659   0.741   3.234
    1XTA     C1 5939  26.798   0.777   3.248
    1XTA     C2 5940  26.874   0.806   3.131
    1XTA     C3 5941  26.803   0.816   3.007
    1XTA     C4 5942  26.666   0.784   2.994
    1XTA     C5 5943  26.591   0.749   3.111
    1XTA    CN2 5944  26.646   0.605   3.418
    1XTA     C6 5945  26.678   0.476   3.373
    1XTA     C7 5946  26.738   0.381   3.451
    1XTA     C8 5947  26.765   0.407   3.586
    1XTA     C9 5948  26.746   0.538   3.634
    1XTA    C10 5949  26.679   0.630   3.552
    1XTA    CN3 5950  26.482   0.769   3.374
    1XTA    C11 5951  26.358   0.703   3.382
    1XTA    C12 5952  26.240   0.767   3.412
    1XTA    C13 5953  26.241   0.908   3.431
    1XTA    C14 5954  26.367   0.980   3.435
    1XTA    C15 5955  26.483   0.905   3.411
    1XTA     H1 5956  26.852   0.756   3.340
    1XTA     H2 5957  26.982   0.813   3.145
    1XTA     H3 5958  26.606   0.793   2.902
    1XTA     H4 5959  26.487   0.726   3.117
    1XTA     H5 5960  26.651   0.456   3.272
    1XTA     H6 5961  26.740   0.285   3.409
    1XTA     H7 5962  26.757   0.554   3.736
    1XTA     H8 5963  26.645   0.730   3.595
    1XTA     H9 5964  26.365   0.597   3.355
    1XTA    H10 5965  26.145   0.713   3.409
    1XTA    H11 5966  26.358   1.086   3.454
    1XTA    H12 5967  26.575   0.968   3.423
    1XTA    OA1 5968  26.872   0.841   2.892
    1XTA    CO1 5969  27.017   0.842   2.898
    1XTA    OA2 5970  26.799   0.309   3.678
    1XTA    CO2 5971  26.748   0.310   3.806
    1XTA    CL1 5972  26.764   0.178   3.864
    1XTA    CL2 5973  26.746   0.169   4.012
    1XTA    CL3 5974  26.604   0.196   4.061
    1XTA    CL4 5975  26.501   0.092   4.005
    1XTA    CO3 5976  26.368   0.094   4.077
    1XTA    OA3 5977  26.321   0.231   4.093
    1XTA    CO4 5978  26.193   0.235   4.157
    1XTA    CT1 5979  26.128   0.376   4.157
    1XTA    CL5 5980  26.215   0.494   4.216
    1XTA    CL6 5981  26.143   0.616   4.268
    1XTA    OA4 5982  26.129   0.981   3.481
    1XTA    CO5 5983  26.000   0.920   3.453
    1XTA    CL7 5984  25.889   1.024   3.453
    1XTA    CL8 5985  25.890   1.119   3.336
    1XTA    CL9 5986  25.838   1.071   3.200
    1XTA   CL10 5987  25.898   1.137   3.083
    1XTA    CO6 5988  25.870   1.062   2.949
    1XTA    OA5 5989  25.734   1.071   2.944
    1XTA    CO7 5990  25.673   1.034   2.822
    1XTA    CT2 5991  25.517   1.022   2.843
    1XTA   CL11 5992  25.477   0.880   2.901
    1XTA   CL12 5993  25.512   0.753   2.825
    1XTA    HL1 5994  27.059   0.834   2.799
    1XTA    HL2 5995  27.045   0.930   2.947
    1XTA    HL3 5996  27.046   0.750   2.948
    1XTA    HL4 5997  26.801   0.376   3.877
    1XTA    HL5 5998  26.644   0.334   3.819
    1XTA    HL6 5999  26.872   0.146   3.848
    1XTA    HL7 6000  26.701   0.110   3.802
    1XTA    HL8 6001  26.821   0.226   4.065
    1XTA    HL9 6002  26.781   0.071   4.051
    1XTA   HL10 6003  26.609   0.195   4.170
    1XTA   HL11 6004  26.568   0.295   4.029
    1XTA   HL12 6005  26.550  -0.004   4.027
    1XTA   HL13 6006  26.501   0.109   3.891
    1XTA   HL14 6007  26.288   0.034   4.027
    1XTA   HL15 6008  26.393   0.064   4.171
    1XTA   HL16 6009  26.136   0.161   4.103
    1XTA   HL17 6010  26.209   0.198   4.262
    1XTA   HL18 6011  26.284   0.527   4.138
    1XTA   HL19 6012  26.278   0.454   4.298
    1XTA   HL20 6013  26.076   0.656   4.192
    1XTA   HL21 6014  26.213   0.695   4.289
    1XTA   HL22 6015  26.084   0.593   4.358
    1XTA   HL23 6016  25.971   0.845   3.526
    1XTA   HL24 6017  26.000   0.873   3.357
    1XTA   HL25 6018  25.799   0.963   3.465
    1XTA   HL26 6019  25.902   1.082   3.541
    1XTA   HL27 6020  25.832   1.203   3.365
    1XTA   HL28 6021  25.995   1.154   3.323
    1XTA   HL29 6022  25.865   0.967   3.189
    1XTA   HL30 6023  25.729   1.063   3.205
    1XTA   HL31 6024  25.866   1.242   3.069
    1XTA   HL32 6025  26.002   1.148   3.095
    1XTA   HL33 6026  25.922   1.118   2.871
    1XTA   HL34 6027  25.898   0.955   2.952
    1XTA   HL35 6028  25.716   0.947   2.769
    1XTA   HL36 6029  25.690   1.114   2.756
    1XTA   HL37 6030  25.369   0.884   2.919
    1XTA   HL38 6031  25.519   0.871   2.998
    1XTA   HL39 6032  25.500   0.679   2.902
    1XTA   HL40 6033  25.611   0.748   2.777
    1XTA   HL41 6034  25.436   0.736   2.749
    1XTA    CO8 6035  25.994   0.380   4.226
    1XTA    CO9 6036  26.100   0.398   4.013
    1XTA    OA6 6037  26.043   0.339   4.359
    1XTA   HL42 6038  25.924   0.313   4.177
    1XTA   HL43 6039  25.943   0.479   4.227
    1XTA   HL44 6040  25.497   1.181   2.689
    1XTA   HL45 6041  25.496   0.988   2.642
    1XTA   CO10 6042  25.445   1.050   2.713
    1XTA   CO11 6043  25.466   1.126   2.950
    1XTA    OA7 6044  25.506   1.220   2.929
    1XTA   HL46 6045  25.354   1.134   2.944
    1XTA   HL47 6046  25.490   1.084   3.044
    1XTA   HL48 6047  26.029   0.313   3.984
    1XTA   HL49 6048  26.045   0.489   4.002
    1XTA     NT 6049  23.901   4.614   2.989
    1XTA    CN1 6050  23.886   4.533   2.878
    1XTA     C1 6051  23.963   4.415   2.872
    1XTA     C2 6052  23.964   4.335   2.762
    1XTA     C3 6053  23.896   4.370   2.644
    1XTA     C4 6054  23.812   4.484   2.648
    1XTA     C5 6055  23.816   4.568   2.760
    1XTA    CN2 6056  23.798   4.634   3.070
    1XTA     C6 6057  23.810   4.601   3.204
    1XTA     C7 6058  23.696   4.615   3.293
    1XTA     C8 6059  23.572   4.666   3.243
    1XTA     C9 6060  23.562   4.689   3.104
    1XTA    C10 6061  23.674   4.672   3.025
    1XTA    CN3 6062  23.999   4.707   2.998
    1XTA    C11 6063  23.968   4.823   2.926
    1XTA    C12 6064  24.042   4.944   2.950
    1XTA    C13 6065  24.147   4.934   3.043
    1XTA    C14 6066  24.184   4.811   3.099
    1XTA    C15 6067  24.112   4.695   3.081
    1XTA     H1 6068  24.017   4.390   2.965
    1XTA     H2 6069  24.027   4.252   2.772
    1XTA     H3 6070  23.741   4.506   2.564
    1XTA     H4 6071  23.759   4.663   2.767
    1XTA     H5 6072  23.902   4.566   3.242
    1XTA     H6 6073  23.698   4.584   3.396
    1XTA     H7 6074  23.474   4.717   3.053
    1XTA     H8 6075  23.665   4.701   2.920
    1XTA     H9 6076  23.871   4.826   2.880
    1XTA    H10 6077  24.017   5.040   2.912
    1XTA    H11 6078  24.268   4.803   3.161
    1XTA    H12 6079  24.120   4.604   3.142
    1XTA    OA1 6080  23.897   4.292   2.531
    1XTA    CO1 6081  23.991   4.188   2.508
    1XTA    OA2 6082  23.454   4.676   3.319
    1XTA    CO2 6083  23.402   4.548   3.340
    1XTA    CL1 6084  23.263   4.557   3.408
    1XTA    CL2 6085  23.147   4.575   3.311
    1XTA    CL3 6086  23.133   4.721   3.286
    1XTA    CL4 6087  23.023   4.745   3.183
    1XTA    CO3 6088  22.978   4.898   3.186
    1XTA    OA3 6089  22.924   4.928   3.309
    1XTA    CO4 6090  22.903   5.061   3.349
    1XTA    CT1 6091  22.988   5.081   3.483
    1XTA    CL5 6092  22.953   5.214   3.551
    1XTA    CL6 6093  22.973   5.329   3.461
    1XTA    OA4 6094  24.220   5.053   3.054
    1XTA    CO5 6095  24.302   5.065   3.169
    1XTA    CL7 6096  24.449   5.030   3.124
    1XTA    CL8 6097  24.540   5.045   3.246
    1XTA    CL9 6098  24.522   4.939   3.355
    1XTA   CL10 6099  24.571   4.808   3.307
    1XTA    CO6 6100  24.576   4.705   3.421
    1XTA    OA5 6101  24.444   4.708   3.478
    1XTA    CO7 6102  24.447   4.661   3.611
    1XTA    CT2 6103  24.305   4.625   3.674
    1XTA   CL11 6104  24.202   4.584   3.570
    1XTA   CL12 6105  24.137   4.681   3.474
    1XTA    HL1 6106  23.961   4.088   2.551
    1XTA    HL2 6107  24.008   4.179   2.401
    1XTA    HL3 6108  24.077   4.227   2.566
    1XTA    HL4 6109  23.398   4.499   3.240
    1XTA    HL5 6110  23.464   4.479   3.396
    1XTA    HL6 6111  23.272   4.629   3.480
    1XTA    HL7 6112  23.249   4.469   3.469
    1XTA    HL8 6113  23.068   4.526   3.367
    1XTA    HL9 6114  23.159   4.514   3.225
    1XTA   HL10 6115  23.110   4.767   3.380
    1XTA   HL11 6116  23.229   4.762   3.254
    1XTA   HL12 6117  22.935   4.679   3.188
    1XTA   HL13 6118  23.049   4.732   3.079
    1XTA   HL14 6119  23.072   4.950   3.178
    1XTA   HL15 6120  22.899   4.917   3.109
    1XTA   HL16 6121  22.924   5.132   3.273
    1XTA   HL17 6122  22.800   5.060   3.383
    1XTA   HL18 6123  23.015   5.224   3.640
    1XTA   HL19 6124  22.853   5.208   3.586
    1XTA   HL20 6125  23.078   5.349   3.468
    1XTA   HL21 6126  22.917   5.411   3.492
    1XTA   HL22 6127  22.946   5.315   3.354
    1XTA   HL23 6128  24.268   5.000   3.247
    1XTA   HL24 6129  24.300   5.169   3.203
    1XTA   HL25 6130  24.445   4.921   3.085
    1XTA   HL26 6131  24.471   5.088   3.038
    1XTA   HL27 6132  24.649   5.054   3.219
    1XTA   HL28 6133  24.520   5.149   3.280
    1XTA   HL29 6134  24.585   4.964   3.439
    1XTA   HL30 6135  24.422   4.931   3.391
    1XTA   HL31 6136  24.496   4.775   3.231
    1XTA   HL32 6137  24.668   4.811   3.262
    1XTA   HL33 6138  24.598   4.614   3.377
    1XTA   HL34 6139  24.651   4.730   3.495
    1XTA   HL35 6140  24.519   4.724   3.671
    1XTA   HL36 6141  24.502   4.569   3.605
    1XTA   HL37 6142  24.127   4.516   3.607
    1XTA   HL38 6143  24.265   4.507   3.525
    1XTA   HL39 6144  24.206   4.718   3.403
    1XTA   HL40 6145  24.073   4.761   3.529
    1XTA   HL41 6146  24.071   4.612   3.421
    1XTA    CO8 6147  23.132   5.078   3.436
    1XTA    CO9 6148  22.967   4.967   3.578
    1XTA    OA6 6149  23.201   5.108   3.518
    1XTA   HL42 6150  23.129   5.137   3.340
    1XTA   HL43 6151  23.150   4.977   3.391
    1XTA   HL44 6152  24.165   4.723   3.815
    1XTA   HL45 6153  24.334   4.765   3.835
    1XTA   CO10 6154  24.255   4.744   3.760
    1XTA   CO11 6155  24.316   4.511   3.779
    1XTA    OA7 6156  24.352   4.389   3.707
    1XTA   HL46 6157  24.395   4.525   3.850
    1XTA   HL47 6158  24.223   4.505   3.833
    1XTA   HL48 6159  22.990   4.851   3.504
    1XTA   HL49 6160  22.864   4.973   3.609
    1XTA     NT 6161  25.854   6.912   1.024
    1XTA    CN1 6162  25.740   6.925   1.097
    1XTA     C1 6163  25.700   6.834   1.200
    1XTA     C2 6164  25.586   6.851   1.279
    1XTA     C3 6165  25.497   6.954   1.248
    1XTA     C4 6166  25.522   7.037   1.137
    1XTA     C5 6167  25.639   7.019   1.066
    1XTA    CN2 6168  25.975   6.896   1.081
    1XTA     C6 6169  26.048   7.013   1.113
    1XTA     C7 6170  26.173   7.010   1.167
    1XTA     C8 6171  26.222   6.886   1.212
    1XTA     C9 6172  26.156   6.769   1.180
    1XTA    C10 6173  26.030   6.772   1.114
    1XTA    CN3 6174  25.843   6.894   0.891
    1XTA    C11 6175  25.817   6.766   0.838
    1XTA    C12 6176  25.818   6.751   0.700
    1XTA    C13 6177  25.850   6.855   0.613
    1XTA    C14 6178  25.882   6.984   0.661
    1XTA    C15 6179  25.878   6.997   0.804
    1XTA     H1 6180  25.763   6.752   1.220
    1XTA     H2 6181  25.570   6.772   1.351
    1XTA     H3 6182  25.453   7.115   1.105
    1XTA     H4 6183  25.668   7.090   0.990
    1XTA     H5 6184  26.001   7.108   1.087
    1XTA     H6 6185  26.235   7.101   1.186
    1XTA     H7 6186  26.200   6.678   1.196
    1XTA     H8 6187  25.977   6.679   1.090
    1XTA     H9 6188  25.775   6.676   0.889
    1XTA    H10 6189  25.795   6.653   0.658
    1XTA    H11 6190  25.908   7.077   0.598
    1XTA    H12 6191  25.901   7.092   0.844
    1XTA    OA1 6192  25.374   6.970   1.314
    1XTA    CO1 6193  25.335   6.872   1.411
    1XTA    OA2 6194  26.349   6.895   1.267
    1XTA    CO2 6195  26.410   6.780   1.316
    1XTA    CL1 6196  26.520   6.739   1.205
    1XTA    CL2 6197  26.478   6.632   1.107
    1XTA    CL3 6198  26.599   6.581   1.024
    1XTA    CL4 6199  26.554   6.459   0.939
    1XTA    CO3 6200  26.679   6.397   0.873
    1XTA    OA3 6201  26.768   6.374   0.981
    1XTA    CO4 6202  26.764   6.244   1.043
    1XTA    CT1 6203  26.862   6.218   1.152
    1XTA    CL5 6204  26.846   6.319   1.275
    1XTA    CL6 6205  26.716   6.299   1.346
    1XTA    OA4 6206  25.836   6.852   0.473
    1XTA    CO5 6207  25.782   6.726   0.417
    1XTA    CL7 6208  25.739   6.746   0.273
    1XTA    CL8 6209  25.677   6.620   0.217
    1XTA    CL9 6210  25.612   6.637   0.073
    1XTA   CL10 6211  25.467   6.604   0.068
    1XTA    CO6 6212  25.396   6.634  -0.064
    1XTA    OA5 6213  25.419   6.770  -0.088
    1XTA    CO7 6214  25.372   6.824  -0.215
    1XTA    CT2 6215  25.415   6.968  -0.225
    1XTA   CL11 6216  25.564   6.987  -0.210
    1XTA   CL12 6217  25.641   6.888  -0.303
    1XTA    HL1 6218  25.243   6.899   1.462
    1XTA    HL2 6219  25.338   6.771   1.366
    1XTA    HL3 6220  25.408   6.862   1.489
    1XTA    HL4 6221  26.466   6.814   1.408
    1XTA    HL5 6222  26.346   6.698   1.349
    1XTA    HL6 6223  26.610   6.694   1.263
    1XTA    HL7 6224  26.564   6.821   1.163
    1XTA    HL8 6225  26.394   6.652   1.038
    1XTA    HL9 6226  26.456   6.536   1.164
    1XTA   HL10 6227  26.640   6.664   0.965
    1XTA   HL11 6228  26.671   6.548   1.091
    1XTA   HL12 6229  26.470   6.480   0.870
    1XTA   HL13 6230  26.522   6.388   1.012
    1XTA   HL14 6231  26.645   6.301   0.836
    1XTA   HL15 6232  26.719   6.466   0.795
    1XTA   HL16 6233  26.661   6.241   1.072
    1XTA   HL17 6234  26.784   6.176   0.957
    1XTA   HL18 6235  26.845   6.422   1.249
    1XTA   HL19 6236  26.923   6.305   1.352
    1XTA   HL20 6237  26.671   6.202   1.367
    1XTA   HL21 6238  26.653   6.380   1.311
    1XTA   HL22 6239  26.733   6.332   1.451
    1XTA   HL23 6240  25.699   6.698   0.477
    1XTA   HL24 6241  25.865   6.651   0.434
    1XTA   HL25 6242  25.675   6.833   0.272
    1XTA   HL26 6243  25.822   6.784   0.213
    1XTA   HL27 6244  25.745   6.535   0.210
    1XTA   HL28 6245  25.608   6.581   0.290
    1XTA   HL29 6246  25.629   6.736   0.025
    1XTA   HL30 6247  25.659   6.562   0.004
    1XTA   HL31 6248  25.446   6.501   0.084
    1XTA   HL32 6249  25.419   6.656   0.148
    1XTA   HL33 6250  25.453   6.574  -0.139
    1XTA   HL34 6251  25.295   6.619  -0.051
    1XTA   HL35 6252  25.264   6.797  -0.220
    1XTA   HL36 6253  25.405   6.767  -0.296
    1XTA   HL37 6254  25.589   6.973  -0.108
    1XTA   HL38 6255  25.592   7.083  -0.241
    1XTA   HL39 6256  25.745   6.918  -0.287
    1XTA   HL40 6257  25.617   6.886  -0.402
    1XTA   HL41 6258  25.631   6.782  -0.266
    1XTA    CO8 6259  27.004   6.231   1.096
    1XTA    CO9 6260  26.846   6.073   1.207
    1XTA    OA6 6261  26.746   6.027   1.199
    1XTA   HL42 6262  27.021   6.319   1.033
    1XTA   HL43 6263  27.030   6.138   0.999
    1XTA   HL44 6264  25.239   7.047  -0.146
    1XTA   HL45 6265  25.345   7.013  -0.016
    1XTA   CO10 6266  25.339   7.047  -0.115
    1XTA   CO11 6267  25.373   7.037  -0.352
    1XTA    OA7 6268  25.357   7.188  -0.106
    1XTA   HL46 6269  25.426   6.979  -0.432
    1XTA   HL47 6270  25.431   7.130  -0.363
    1XTA   HL48 6271  26.885   6.085   1.307
    1XTA   HL49 6272  26.916   6.009   1.152
    1XTA     NT 6273  26.596   4.230   7.656
    1XTA    CN1 6274  26.532   4.288   7.549
    1XTA     C1 6275  26.394   4.279   7.535
    1XTA     C2 6276  26.332   4.346   7.427
    1XTA     C3 6277  26.404   4.415   7.331
    1XTA     C4 6278  26.542   4.419   7.348
    1XTA     C5 6279  26.608   4.347   7.448
    1XTA    CN2 6280  26.612   4.095   7.680
    1XTA     C6 6281  26.714   4.020   7.628
    1XTA     C7 6282  26.730   3.885   7.654
    1XTA     C8 6283  26.651   3.824   7.750
    1XTA     C9 6284  26.539   3.897   7.803
    1XTA    C10 6285  26.517   4.029   7.768
    1XTA    CN3 6286  26.679   4.310   7.731
    1XTA    C11 6287  26.817   4.317   7.711
    1XTA    C12 6288  26.895   4.417   7.771
    1XTA    C13 6289  26.832   4.504   7.857
    1XTA    C14 6290  26.695   4.489   7.889
    1XTA    C15 6291  26.618   4.390   7.830
    1XTA     H1 6292  26.331   4.234   7.611
    1XTA     H2 6293  26.219   4.344   7.421
    1XTA     H3 6294  26.605   4.456   7.270
    1XTA     H4 6295  26.714   4.337   7.440
    1XTA     H5 6296  26.787   4.071   7.568
    1XTA     H6 6297  26.816   3.832   7.614
    1XTA     H7 6298  26.470   3.843   7.865
    1XTA     H8 6299  26.434   4.082   7.807
    1XTA     H9 6300  26.866   4.250   7.646
    1XTA    H10 6301  27.005   4.435   7.752
    1XTA    H11 6302  26.652   4.553   7.956
    1XTA    H12 6303  26.511   4.374   7.847
    1XTA    OA1 6304  26.342   4.463   7.227
    1XTA    CO1 6305  26.417   4.510   7.118
    1XTA    OA2 6306  26.650   3.691   7.777
    1XTA    CO2 6307  26.758   3.612   7.734
    1XTA    CL1 6308  26.750   3.490   7.816
    1XTA    CL2 6309  26.781   3.507   7.960
    1XTA    CL3 6310  26.680   3.437   8.056
    1XTA    CL4 6311  26.728   3.423   8.195
    1XTA    CO3 6312  26.823   3.311   8.234
    1XTA    OA3 6313  26.949   3.353   8.189
    1XTA    CO4 6314  27.047   3.250   8.190
    1XTA    CT1 6315  27.152   3.270   8.082
    1XTA    CL5 6316  27.195   3.421   8.079
    1XTA    CL6 6317  27.223   3.488   8.213
    1XTA    OA4 6318  26.909   4.597   7.918
    1XTA    CO5 6319  26.849   4.712   7.981
    1XTA    CL7 6320  26.967   4.802   8.003
    1XTA    CL8 6321  26.927   4.926   8.085
    1XTA    CL9 6322  26.860   5.023   7.989
    1XTA   CL10 6323  26.850   5.158   8.061
    1XTA    CO6 6324  26.731   5.167   8.167
    1XTA    OA5 6325  26.602   5.137   8.116
    1XTA    CO7 6326  26.513   5.125   8.221
    1XTA    CT2 6327  26.380   5.071   8.169
    1XTA   CL11 6328  26.336   5.165   8.045
    1XTA   CL12 6329  26.205   5.121   7.971
    1XTA    HL1 6330  26.484   4.426   7.093
    1XTA    HL2 6331  26.356   4.539   7.034
    1XTA    HL3 6332  26.480   4.595   7.143
    1XTA    HL4 6333  26.743   3.593   7.629
    1XTA    HL5 6334  26.855   3.660   7.741
    1XTA    HL6 6335  26.812   3.412   7.777
    1XTA    HL7 6336  26.653   3.441   7.816
    1XTA    HL8 6337  26.774   3.609   7.995
    1XTA    HL9 6338  26.880   3.475   7.979
    1XTA   HL10 6339  26.585   3.490   8.059
    1XTA   HL11 6340  26.652   3.342   8.018
    1XTA   HL12 6341  26.645   3.396   8.258
    1XTA   HL13 6342  26.755   3.520   8.236
    1XTA   HL14 6343  26.834   3.298   8.345
    1XTA   HL15 6344  26.792   3.220   8.196
    1XTA   HL16 6345  27.096   3.231   8.284
    1XTA   HL17 6346  27.008   3.150   8.158
    1XTA   HL18 6347  27.112   3.481   8.035
    1XTA   HL19 6348  27.292   3.424   8.025
    1XTA   HL20 6349  27.134   3.502   8.270
    1XTA   HL21 6350  27.273   3.585   8.187
    1XTA   HL22 6351  27.291   3.423   8.269
    1XTA   HL23 6352  26.802   4.679   8.074
    1XTA   HL24 6353  26.786   4.769   7.920
    1XTA   HL25 6354  27.050   4.753   8.052
    1XTA   HL26 6355  27.002   4.832   7.901
    1XTA   HL27 6356  26.871   4.901   8.173
    1XTA   HL28 6357  27.029   4.971   8.116
    1XTA   HL29 6358  26.919   5.040   7.901
    1XTA   HL30 6359  26.761   4.993   7.953
    1XTA   HL31 6360  26.938   5.182   8.108
    1XTA   HL32 6361  26.826   5.235   7.989
    1XTA   HL33 6362  26.761   5.110   8.257
    1XTA   HL34 6363  26.740   5.274   8.197
    1XTA   HL35 6364  26.508   5.216   8.280
    1XTA   HL36 6365  26.552   5.054   8.297
    1XTA   HL37 6366  26.420   5.172   7.968
    1XTA   HL38 6367  26.332   5.270   8.074
    1XTA   HL39 6368  26.201   5.015   7.934
    1XTA   HL40 6369  26.184   5.173   7.881
    1XTA   HL41 6370  26.114   5.128   8.027
    1XTA    CO8 6371  27.082   3.243   7.948
    1XTA    CO9 6372  27.271   3.175   8.102
    1XTA    OA6 6373  27.153   3.312   7.842
    1XTA   HL42 6374  26.973   3.278   7.948
    1XTA   HL43 6375  27.078   3.133   7.926
    1XTA   HL44 6376  26.170   5.071   8.225
    1XTA   HL45 6377  26.272   5.008   8.347
    1XTA   CO10 6378  26.268   5.082   8.271
    1XTA   CO11 6379  26.402   4.924   8.130
    1XTA    OA7 6380  26.276   5.206   8.331
    1XTA   HL46 6381  26.386   4.900   8.026
    1XTA   HL47 6382  26.504   4.892   8.137
    1XTA   HL48 6383  27.331   3.169   8.009
    1XTA   HL49 6384  27.337   3.223   8.173
    1XTA     NT 6385  25.874   6.561   3.463
    1XTA    CN1 6386  25.988   6.498   3.488
    1XTA     C1 6387  25.985   6.364   3.530
    1XTA     C2 6388  26.105   6.292   3.556
    1XTA     C3 6389  26.222   6.361   3.549
    1XTA     C4 6390  26.230   6.499   3.513
    1XTA     C5 6391  26.111   6.561   3.480
    1XTA    CN2 6392  25.773   6.566   3.557
    1XTA     C6 6393  25.643   6.535   3.518
    1XTA     C7 6394  25.535   6.568   3.604
    1XTA     C8 6395  25.557   6.619   3.736
    1XTA     C9 6396  25.688   6.624   3.783
    1XTA    C10 6397  25.796   6.600   3.693
    1XTA    CN3 6398  25.861   6.621   3.342
    1XTA    C11 6399  25.835   6.550   3.221
    1XTA    C12 6400  25.823   6.618   3.100
    1XTA    C13 6401  25.824   6.766   3.105
    1XTA    C14 6402  25.848   6.830   3.223
    1XTA    C15 6403  25.871   6.761   3.339
    1XTA     H1 6404  25.891   6.321   3.555
    1XTA     H2 6405  26.109   6.196   3.600
    1XTA     H3 6406  26.320   6.558   3.510
    1XTA     H4 6407  26.116   6.673   3.464
    1XTA     H5 6408  25.625   6.500   3.418
    1XTA     H6 6409  25.438   6.551   3.573
    1XTA     H7 6410  25.709   6.638   3.888
    1XTA     H8 6411  25.889   6.612   3.737
    1XTA     H9 6412  25.833   6.442   3.235
    1XTA    H10 6413  25.802   6.563   3.016
    1XTA    H11 6414  25.843   6.938   3.228
    1XTA    H12 6415  25.883   6.807   3.437
    1XTA    OA1 6416  26.344   6.295   3.579
    1XTA    CO1 6417  26.430   6.358   3.679
    1XTA    OA2 6418  25.446   6.653   3.805
    1XTA    CO2 6419  25.465   6.651   3.946
    1XTA    CL1 6420  25.333   6.702   4.007
    1XTA    CL2 6421  25.200   6.620   3.971
    1XTA    CL3 6422  25.146   6.662   3.828
    1XTA    CL4 6423  25.014   6.581   3.804
    1XTA    CO3 6424  24.950   6.617   3.670
    1XTA    OA3 6425  25.044   6.591   3.572
    1XTA    CO4 6426  25.012   6.616   3.436
    1XTA    CT1 6427  25.130   6.574   3.341
    1XTA    CL5 6428  25.108   6.624   3.196
    1XTA    CL6 6429  24.989   6.554   3.121
    1XTA    OA4 6430  25.808   6.842   2.990
    1XTA    CO5 6431  25.734   6.789   2.881
    1XTA    CL7 6432  25.704   6.896   2.775
    1XTA    CL8 6433  25.836   6.954   2.726
    1XTA    CL9 6434  25.816   7.068   2.621
    1XTA   CL10 6435  25.945   7.124   2.561
    1XTA    CO6 6436  25.914   7.193   2.430
    1XTA    OA5 6437  25.825   7.303   2.452
    1XTA    CO7 6438  25.802   7.387   2.337
    1XTA    CT2 6439  25.728   7.510   2.371
    1XTA   CL11 6440  25.581   7.480   2.415
    1XTA   CL12 6441  25.570   7.413   2.553
    1XTA    HL1 6442  26.461   6.452   3.641
    1XTA    HL2 6443  26.366   6.374   3.764
    1XTA    HL3 6444  26.512   6.294   3.708
    1XTA    HL4 6445  25.495   6.551   3.987
    1XTA    HL5 6446  25.546   6.719   3.984
    1XTA    HL6 6447  25.316   6.810   3.974
    1XTA    HL7 6448  25.345   6.708   4.118
    1XTA    HL8 6449  25.131   6.654   4.044
    1XTA    HL9 6450  25.233   6.513   3.988
    1XTA   HL10 6451  25.127   6.766   3.826
    1XTA   HL11 6452  25.222   6.637   3.757
    1XTA   HL12 6453  24.946   6.618   3.888
    1XTA   HL13 6454  25.023   6.471   3.811
    1XTA   HL14 6455  24.848   6.572   3.646
    1XTA   HL15 6456  24.930   6.728   3.676
    1XTA   HL16 6457  24.914   6.578   3.407
    1XTA   HL17 6458  24.992   6.728   3.428
    1XTA   HL18 6459  25.204   6.604   3.144
    1XTA   HL19 6460  25.104   6.728   3.199
    1XTA   HL20 6461  24.980   6.594   3.015
    1XTA   HL21 6462  24.898   6.572   3.177
    1XTA   HL22 6463  25.001   6.444   3.120
    1XTA   HL23 6464  25.647   6.744   2.936
    1XTA   HL24 6465  25.792   6.706   2.841
    1XTA   HL25 6466  25.648   6.860   2.689
    1XTA   HL26 6467  25.649   6.981   2.812
    1XTA   HL27 6468  25.900   6.990   2.806
    1XTA   HL28 6469  25.885   6.879   2.667
    1XTA   HL29 6470  25.761   7.025   2.539
    1XTA   HL30 6471  25.749   7.137   2.654
    1XTA   HL31 6472  25.996   7.198   2.625
    1XTA   HL32 6473  26.015   7.039   2.537
    1XTA   HL33 6474  26.006   7.244   2.399
    1XTA   HL34 6475  25.885   7.122   2.350
    1XTA   HL35 6476  25.746   7.331   2.267
    1XTA   HL36 6477  25.898   7.411   2.279
    1XTA   HL37 6478  25.525   7.420   2.340
    1XTA   HL38 6479  25.525   7.580   2.420
    1XTA   HL39 6480  25.627   7.322   2.558
    1XTA   HL40 6481  25.464   7.391   2.566
    1XTA   HL41 6482  25.605   7.482   2.627
    1XTA    CO8 6483  25.147   6.417   3.348
    1XTA    CO9 6484  25.254   6.648   3.395
    1XTA    OA6 6485  25.234   6.362   3.252
    1XTA   HL42 6486  25.046   6.373   3.332
    1XTA   HL43 6487  25.180   6.388   3.449
    1XTA   HL44 6488  25.671   7.531   2.167
    1XTA   HL45 6489  25.803   7.631   2.189
    1XTA   CO10 6490  25.710   7.599   2.237
    1XTA   CO11 6491  25.803   7.586   2.482
    1XTA    OA7 6492  25.933   7.612   2.433
    1XTA   HL46 6493  25.750   7.676   2.520
    1XTA   HL47 6494  25.802   7.527   2.575
    1XTA   HL48 6495  25.342   6.605   3.354
    1XTA   HL49 6496  25.250   6.628   3.500
    1XTA     NT 6497  25.244  -0.912   3.817
    1XTA    CN1 6498  25.196  -1.020   3.881
    1XTA     C1 6499  25.125  -1.026   4.000
    1XTA     C2 6500  25.089  -1.148   4.060
    1XTA     C3 6501  25.116  -1.268   3.990
    1XTA     C4 6502  25.179  -1.263   3.868
    1XTA     C5 6503  25.226  -1.144   3.815
    1XTA    CN2 6504  25.168  -0.847   3.732
    1XTA     C6 6505  25.064  -0.766   3.766
    1XTA     C7 6506  24.982  -0.709   3.665
    1XTA     C8 6507  25.007  -0.730   3.531
    1XTA     C9 6508  25.113  -0.815   3.493
    1XTA    C10 6509  25.192  -0.872   3.594
    1XTA    CN3 6510  25.349  -0.845   3.873
    1XTA    C11 6511  25.483  -0.871   3.841
    1XTA    C12 6512  25.584  -0.807   3.914
    1XTA    C13 6513  25.556  -0.723   4.024
    1XTA    C14 6514  25.425  -0.695   4.059
    1XTA    C15 6515  25.322  -0.752   3.975
    1XTA     H1 6516  25.088  -0.943   4.055
    1XTA     H2 6517  25.035  -1.141   4.151
    1XTA     H3 6518  25.202  -1.355   3.813
    1XTA     H4 6519  25.283  -1.132   3.721
    1XTA     H5 6520  25.028  -0.742   3.861
    1XTA     H6 6521  24.893  -0.649   3.691
    1XTA     H7 6522  25.139  -0.837   3.388
    1XTA     H8 6523  25.274  -0.936   3.575
    1XTA     H9 6524  25.496  -0.944   3.768
    1XTA    H10 6525  25.688  -0.846   3.897
    1XTA    H11 6526  25.402  -0.635   4.148
    1XTA    H12 6527  25.222  -0.731   4.006
    1XTA    OA1 6528  25.073  -1.392   4.038
    1XTA    CO1 6529  25.028  -1.392   4.174
    1XTA    OA2 6530  24.926  -0.680   3.435
    1XTA    CO2 6531  24.904  -0.767   3.322
    1XTA    CL1 6532  24.777  -0.725   3.248
    1XTA    CL2 6533  24.747  -0.820   3.130
    1XTA    CL3 6534  24.605  -0.805   3.078
    1XTA    CL4 6535  24.569  -0.920   2.978
    1XTA    CO3 6536  24.426  -0.891   2.918
    1XTA    OA3 6537  24.411  -0.770   2.857
    1XTA    CO4 6538  24.293  -0.765   2.771
    1XTA    CT1 6539  24.273  -0.620   2.721
    1XTA    CL5 6540  24.143  -0.617   2.642
    1XTA    CL6 6541  24.013  -0.675   2.713
    1XTA    OA4 6542  25.659  -0.682   4.099
    1XTA    CO5 6543  25.639  -0.625   4.223
    1XTA    CL7 6544  25.608  -0.718   4.332
    1XTA    CL8 6545  25.689  -0.849   4.347
    1XTA    CL9 6546  25.667  -0.931   4.472
    1XTA   CL10 6547  25.694  -1.078   4.461
    1XTA    CO6 6548  25.840  -1.111   4.445
    1XTA    OA5 6549  25.902  -1.093   4.572
    1XTA    CO7 6550  26.038  -1.092   4.551
    1XTA    CT2 6551  26.133  -1.122   4.669
    1XTA   CL11 6552  26.279  -1.117   4.619
    1XTA   CL12 6553  26.329  -1.003   4.522
    1XTA    HL1 6554  25.005  -1.500   4.207
    1XTA    HL2 6555  25.109  -1.350   4.237
    1XTA    HL3 6556  24.940  -1.331   4.194
    1XTA    HL4 6557  24.988  -0.766   3.265
    1XTA    HL5 6558  24.878  -0.873   3.354
    1XTA    HL6 6559  24.800  -0.623   3.198
    1XTA    HL7 6560  24.686  -0.721   3.308
    1XTA    HL8 6561  24.738  -0.918   3.175
    1XTA    HL9 6562  24.818  -0.809   3.050
    1XTA   HL10 6563  24.529  -0.806   3.156
    1XTA   HL11 6564  24.583  -0.716   3.021
    1XTA   HL12 6565  24.576  -1.018   3.027
    1XTA   HL13 6566  24.646  -0.920   2.904
    1XTA   HL14 6567  24.380  -0.972   2.858
    1XTA   HL15 6568  24.366  -0.881   3.007
    1XTA   HL16 6569  24.302  -0.846   2.695
    1XTA   HL17 6570  24.213  -0.790   2.832
    1XTA   HL18 6571  24.159  -0.685   2.563
    1XTA   HL19 6572  24.138  -0.527   2.591
    1XTA   HL20 6573  23.925  -0.642   2.662
    1XTA   HL21 6574  24.006  -0.632   2.815
    1XTA   HL22 6575  24.023  -0.785   2.725
    1XTA   HL23 6576  25.567  -0.547   4.221
    1XTA   HL24 6577  25.736  -0.568   4.249
    1XTA   HL25 6578  25.622  -0.676   4.427
    1XTA   HL26 6579  25.496  -0.741   4.332
    1XTA   HL27 6580  25.648  -0.912   4.271
    1XTA   HL28 6581  25.791  -0.826   4.324
    1XTA   HL29 6582  25.731  -0.895   4.558
    1XTA   HL30 6583  25.563  -0.910   4.512
    1XTA   HL31 6584  25.665  -1.125   4.553
    1XTA   HL32 6585  25.636  -1.116   4.376
    1XTA   HL33 6586  25.858  -1.215   4.418
    1XTA   HL34 6587  25.886  -1.047   4.373
    1XTA   HL35 6588  26.053  -0.994   4.512
    1XTA   HL36 6589  26.061  -1.164   4.465
    1XTA   HL37 6590  26.304  -1.214   4.567
    1XTA   HL38 6591  26.343  -1.132   4.706
    1XTA   HL39 6592  26.312  -0.915   4.577
    1XTA   HL40 6593  26.267  -0.987   4.431
    1XTA   HL41 6594  26.435  -1.025   4.504
    1XTA    CO8 6595  24.385  -0.585   2.624
    1XTA    CO9 6596  24.275  -0.512   2.837
    1XTA    OA6 6597  24.208  -0.548   2.959
    1XTA   HL42 6598  24.385  -0.474   2.604
    1XTA   HL43 6599  24.471  -0.610   2.682
    1XTA   HL44 6600  26.086  -1.331   4.653
    1XTA   HL45 6601  26.188  -1.277   4.782
    1XTA   CO10 6602  26.097  -1.252   4.728
    1XTA   CO11 6603  26.109  -1.011   4.781
    1XTA    OA7 6604  26.008  -1.258   4.787
    1XTA   HL46 6605  25.972  -0.987   4.798
    1XTA   HL47 6606  26.157  -0.922   4.745
    1XTA   HL48 6607  24.230  -0.419   2.803
    1XTA   HL49 6608  24.378  -0.487   2.858
    1XTA     NT 6609  30.046   6.411   6.088
    1XTA    CN1 6610  30.039   6.505   5.988
    1XTA     C1 6611  30.116   6.621   5.989
    1XTA     C2 6612  30.125   6.706   5.880
    1XTA     C3 6613  30.050   6.686   5.762
    1XTA     C4 6614  29.968   6.570   5.765
    1XTA     C5 6615  29.963   6.484   5.875
    1XTA    CN2 6616  29.963   6.408   6.185
    1XTA     C6 6617  29.852   6.316   6.183
    1XTA     C7 6618  29.764   6.312   6.288
    1XTA     C8 6619  29.763   6.410   6.392
    1XTA     C9 6620  29.872   6.499   6.395
    1XTA    C10 6621  29.977   6.495   6.299
    1XTA    CN3 6622  30.160   6.341   6.100
    1XTA    C11 6623  30.261   6.387   6.187
    1XTA    C12 6624  30.378   6.312   6.202
    1XTA    C13 6625  30.397   6.205   6.110
    1XTA    C14 6626  30.294   6.170   6.018
    1XTA    C15 6627  30.171   6.231   6.014
    1XTA     H1 6628  30.181   6.629   6.071
    1XTA     H2 6629  30.178   6.800   5.882
    1XTA     H3 6630  29.904   6.546   5.675
    1XTA     H4 6631  29.910   6.388   5.872
    1XTA     H5 6632  29.840   6.245   6.101
    1XTA     H6 6633  29.697   6.229   6.300
    1XTA     H7 6634  29.871   6.570   6.482
    1XTA     H8 6635  30.055   6.569   6.303
    1XTA     H9 6636  30.232   6.475   6.248
    1XTA    H10 6637  30.457   6.344   6.273
    1XTA    H11 6638  30.304   6.091   5.941
    1XTA    H12 6639  30.096   6.216   5.935
    1XTA    OA1 6640  30.050   6.770   5.654
    1XTA    CO1 6641  30.092   6.904   5.666
    1XTA    OA2 6642  29.669   6.428   6.494
    1XTA    CO2 6643  29.592   6.311   6.534
    1XTA    CL1 6644  29.650   6.272   6.668
    1XTA    CL2 6645  29.604   6.141   6.730
    1XTA    CL3 6646  29.689   6.024   6.689
    1XTA    CL4 6647  29.689   5.991   6.544
    1XTA    CO3 6648  29.755   5.861   6.515
    1XTA    OA3 6649  29.709   5.762   6.608
    1XTA    CO4 6650  29.574   5.722   6.594
    1XTA    CT1 6651  29.531   5.614   6.698
    1XTA    CL5 6652  29.513   5.674   6.836
    1XTA    CL6 6653  29.411   5.793   6.846
    1XTA    OA4 6654  30.508   6.125   6.115
    1XTA    CO5 6655  30.633   6.190   6.119
    1XTA    CL7 6656  30.689   6.242   5.985
    1XTA    CL8 6657  30.820   6.320   6.007
    1XTA    CL9 6658  30.887   6.365   5.875
    1XTA   CL10 6659  30.807   6.470   5.797
    1XTA    CO6 6660  30.831   6.446   5.648
    1XTA    OA5 6661  30.978   6.456   5.624
    1XTA    CO7 6662  31.029   6.416   5.496
    1XTA    CT2 6663  31.184   6.448   5.499
    1XTA   CL11 6664  31.261   6.358   5.380
    1XTA   CL12 6665  31.254   6.205   5.416
    1XTA    HL1 6666  30.089   6.951   5.575
    1XTA    HL2 6667  30.010   6.939   5.723
    1XTA    HL3 6668  30.193   6.916   5.712
    1XTA    HL4 6669  29.489   6.334   6.552
    1XTA    HL5 6670  29.588   6.224   6.468
    1XTA    HL6 6671  29.619   6.357   6.740
    1XTA    HL7 6672  29.758   6.260   6.660
    1XTA    HL8 6673  29.499   6.115   6.713
    1XTA    HL9 6674  29.622   6.154   6.835
    1XTA   HL10 6675  29.797   6.037   6.723
    1XTA   HL11 6676  29.659   5.944   6.753
    1XTA   HL12 6677  29.733   6.074   6.479
    1XTA   HL13 6678  29.581   6.002   6.520
    1XTA   HL14 6679  29.736   5.829   6.409
    1XTA   HL15 6680  29.864   5.871   6.527
    1XTA   HL16 6681  29.504   5.808   6.598
    1XTA   HL17 6682  29.562   5.685   6.491
    1XTA   HL18 6683  29.611   5.722   6.865
    1XTA   HL19 6684  29.498   5.595   6.915
    1XTA   HL20 6685  29.445   5.877   6.788
    1XTA   HL21 6686  29.398   5.811   6.949
    1XTA   HL22 6687  29.322   5.755   6.796
    1XTA   HL23 6688  30.704   6.122   6.168
    1XTA   HL24 6689  30.630   6.273   6.193
    1XTA   HL25 6690  30.713   6.163   5.920
    1XTA   HL26 6691  30.622   6.316   5.943
    1XTA   HL27 6692  30.785   6.408   6.057
    1XTA   HL28 6693  30.887   6.270   6.079
    1XTA   HL29 6694  30.990   6.389   5.884
    1XTA   HL30 6695  30.906   6.272   5.822
    1XTA   HL31 6696  30.698   6.454   5.821
    1XTA   HL32 6697  30.852   6.569   5.836
    1XTA   HL33 6698  30.779   6.356   5.596
    1XTA   HL34 6699  30.770   6.528   5.596
    1XTA   HL35 6700  30.985   6.472   5.421
    1XTA   HL36 6701  31.004   6.310   5.476
    1XTA   HL37 6702  31.365   6.393   5.372
    1XTA   HL38 6703  31.204   6.380   5.296
    1XTA   HL39 6704  31.284   6.182   5.513
    1XTA   HL40 6705  31.320   6.148   5.345
    1XTA   HL41 6706  31.158   6.163   5.414
    1XTA    CO8 6707  29.653   5.517   6.700
    1XTA    CO9 6708  29.400   5.548   6.637
    1XTA    OA6 6709  29.428   5.498   6.545
    1XTA   HL42 6710  29.669   5.475   6.598
    1XTA   HL43 6711  29.773   5.572   6.744
    1XTA   HL44 6712  31.235   6.503   5.704
    1XTA   HL45 6713  31.207   6.333   5.680
    1XTA   CO10 6714  31.254   6.423   5.636
    1XTA   CO11 6715  31.215   6.593   5.465
    1XTA    OA7 6716  31.396   6.413   5.616
    1XTA   HL46 6717  31.323   6.619   5.459
    1XTA   HL47 6718  31.175   6.594   5.367
    1XTA   HL48 6719  29.316   5.618   6.626
    1XTA   HL49 6720  29.355   5.479   6.703
    1XTA     NT 6721  26.863   6.112   6.544
    1XTA    CN1 6722  26.924   5.990   6.530
    1XTA     C1 6723  26.873   5.881   6.603
    1XTA     C2 6724  26.930   5.751   6.598
    1XTA     C3 6725  27.041   5.735   6.511
    1XTA     C4 6726  27.085   5.839   6.432
    1XTA     C5 6727  27.034   5.968   6.439
    1XTA    CN2 6728  26.871   6.195   6.648
    1XTA     C6 6729  26.774   6.188   6.750
    1XTA     C7 6730  26.774   6.269   6.863
    1XTA     C8 6731  26.871   6.365   6.876
    1XTA     C9 6732  26.978   6.365   6.777
    1XTA    C10 6733  26.985   6.272   6.670
    1XTA    CN3 6734  26.797   6.157   6.442
    1XTA    C11 6735  26.699   6.065   6.390
    1XTA    C12 6736  26.617   6.118   6.286
    1XTA    C13 6737  26.648   6.241   6.223
    1XTA    C14 6738  26.758   6.319   6.262
    1XTA    C15 6739  26.831   6.281   6.380
    1XTA     H1 6740  26.783   5.895   6.667
    1XTA     H2 6741  26.882   5.668   6.647
    1XTA     H3 6742  27.160   5.829   6.359
    1XTA     H4 6743  27.072   6.048   6.373
    1XTA     H5 6744  26.691   6.109   6.731
    1XTA     H6 6745  26.688   6.266   6.925
    1XTA     H7 6746  27.063   6.435   6.796
    1XTA     H8 6747  27.063   6.276   6.593
    1XTA     H9 6748  26.678   5.967   6.438
    1XTA    H10 6749  26.536   6.057   6.250
    1XTA    H11 6750  26.784   6.408   6.211
    1XTA    H12 6751  26.915   6.335   6.409
    1XTA    OA1 6752  27.103   5.617   6.494
    1XTA    CO1 6753  27.070   5.515   6.581
    1XTA    OA2 6754  26.859   6.451   6.984
    1XTA    CO2 6755  26.921   6.577   6.953
    1XTA    CL1 6756  27.051   6.591   7.034
    1XTA    CL2 6757  27.125   6.718   7.015
    1XTA    CL3 6758  27.197   6.722   6.877
    1XTA    CL4 6759  27.307   6.621   6.864
    1XTA    CO3 6760  27.384   6.622   6.725
    1XTA    OA3 6761  27.315   6.546   6.629
    1XTA    CO4 6762  27.378   6.542   6.506
    1XTA    CT1 6763  27.300   6.449   6.413
    1XTA    CL5 6764  27.385   6.434   6.279
    1XTA    CL6 6765  27.309   6.416   6.144
    1XTA    OA4 6766  26.591   6.289   6.109
    1XTA    CO5 6767  26.584   6.187   6.000
    1XTA    CL7 6768  26.492   6.225   5.886
    1XTA    CL8 6769  26.342   6.245   5.930
    1XTA    CL9 6770  26.249   6.249   5.809
    1XTA   CL10 6771  26.252   6.386   5.746
    1XTA    CO6 6772  26.189   6.497   5.830
    1XTA    OA5 6773  26.048   6.472   5.854
    1XTA    CO7 6774  25.998   6.590   5.927
    1XTA    CT2 6775  25.845   6.577   5.953
    1XTA   CL11 6776  25.798   6.445   6.019
    1XTA   CL12 6777  25.644   6.428   6.031
    1XTA    HL1 6778  27.097   5.543   6.679
    1XTA    HL2 6779  26.966   5.479   6.578
    1XTA    HL3 6780  27.125   5.434   6.547
    1XTA    HL4 6781  26.948   6.592   6.844
    1XTA    HL5 6782  26.849   6.657   6.964
    1XTA    HL6 6783  27.109   6.498   7.016
    1XTA    HL7 6784  27.019   6.602   7.133
    1XTA    HL8 6785  27.197   6.730   7.101
    1XTA    HL9 6786  27.065   6.809   7.036
    1XTA   HL10 6787  27.116   6.701   6.805
    1XTA   HL11 6788  27.228   6.828   6.857
    1XTA   HL12 6789  27.278   6.521   6.881
    1XTA   HL13 6790  27.378   6.628   6.943
    1XTA   HL14 6791  27.372   6.717   6.674
    1XTA   HL15 6792  27.484   6.589   6.737
    1XTA   HL16 6793  27.387   6.644   6.462
    1XTA   HL17 6794  27.485   6.509   6.505
    1XTA   HL18 6795  27.454   6.352   6.302
    1XTA   HL19 6796  27.450   6.514   6.259
    1XTA   HL20 6797  27.273   6.515   6.133
    1XTA   HL21 6798  27.222   6.341   6.157
    1XTA   HL22 6799  27.368   6.391   6.063
    1XTA   HL23 6800  26.529   6.106   6.051
    1XTA   HL24 6801  26.680   6.150   5.970
    1XTA   HL25 6802  26.522   6.322   5.840
    1XTA   HL26 6803  26.502   6.141   5.815
    1XTA   HL27 6804  26.315   6.160   5.993
    1XTA   HL28 6805  26.337   6.335   5.992
    1XTA   HL29 6806  26.271   6.167   5.728
    1XTA   HL30 6807  26.146   6.238   5.844
    1XTA   HL31 6808  26.340   6.426   5.701
    1XTA   HL32 6809  26.188   6.375   5.657
    1XTA   HL33 6810  26.236   6.514   5.921
    1XTA   HL34 6811  26.206   6.588   5.773
    1XTA   HL35 6812  26.015   6.686   5.872
    1XTA   HL36 6813  26.053   6.604   6.023
    1XTA   HL37 6814  25.841   6.440   6.120
    1XTA   HL38 6815  25.827   6.358   5.958
    1XTA   HL39 6816  25.593   6.491   6.103
    1XTA   HL40 6817  25.616   6.337   6.060
    1XTA   HL41 6818  25.595   6.450   5.931
    1XTA    CO8 6819  27.161   6.510   6.402
    1XTA    CO9 6820  27.288   6.306   6.477
    1XTA    OA6 6821  27.177   6.641   6.360
    1XTA   HL42 6822  27.091   6.514   6.489
    1XTA   HL43 6823  27.107   6.458   6.329
    1XTA   HL44 6824  25.668   6.617   5.821
    1XTA   HL45 6825  25.815   6.692   5.764
    1XTA   CO10 6826  25.774   6.596   5.810
    1XTA   CO11 6827  25.822   6.701   6.046
    1XTA    OA7 6828  25.806   6.495   5.727
    1XTA   HL46 6829  25.810   6.783   5.976
    1XTA   HL47 6830  25.716   6.698   6.083
    1XTA   HL48 6831  27.259   6.326   6.578
    1XTA   HL49 6832  27.201   6.272   6.423
    1XTA     NT 6833  31.147  -0.093   2.538
    1XTA    CN1 6834  31.043  -0.005   2.521
    1XTA     C1 6835  30.908  -0.040   2.531
    1XTA     C2 6836  30.810   0.051   2.531
    1XTA     C3 6837  30.840   0.191   2.511
    1XTA     C4 6838  30.971   0.231   2.491
    1XTA     C5 6839  31.073   0.134   2.501
    1XTA    CN2 6840  31.171  -0.131   2.665
    1XTA     C6 6841  31.252  -0.059   2.754
    1XTA     C7 6842  31.263  -0.107   2.887
    1XTA     C8 6843  31.188  -0.220   2.924
    1XTA     C9 6844  31.116  -0.305   2.835
    1XTA    C10 6845  31.103  -0.252   2.704
    1XTA    CN3 6846  31.232  -0.134   2.438
    1XTA    C11 6847  31.198  -0.245   2.355
    1XTA    C12 6848  31.281  -0.290   2.253
    1XTA    C13 6849  31.402  -0.219   2.229
    1XTA    C14 6850  31.428  -0.109   2.303
    1XTA    C15 6851  31.355  -0.073   2.415
    1XTA     H1 6852  30.873  -0.143   2.539
    1XTA     H2 6853  30.707   0.022   2.559
    1XTA     H3 6854  30.999   0.331   2.460
    1XTA     H4 6855  31.172   0.167   2.479
    1XTA     H5 6856  31.306   0.028   2.724
    1XTA     H6 6857  31.332  -0.047   2.952
    1XTA     H7 6858  31.059  -0.390   2.871
    1XTA     H8 6859  31.042  -0.291   2.621
    1XTA     H9 6860  31.099  -0.294   2.373
    1XTA    H10 6861  31.240  -0.370   2.190
    1XTA    H11 6862  31.513  -0.050   2.274
    1XTA    H12 6863  31.381   0.018   2.461
    1XTA    OA1 6864  30.726   0.268   2.533
    1XTA    CO1 6865  30.751   0.405   2.551
    1XTA    OA2 6866  31.189  -0.264   3.056
    1XTA    CO2 6867  31.219  -0.173   3.156
    1XTA    CL1 6868  31.189  -0.239   3.293
    1XTA    CL2 6869  31.284  -0.194   3.408
    1XTA    CL3 6870  31.298  -0.045   3.436
    1XTA    CL4 6871  31.186  -0.007   3.523
    1XTA    CO3 6872  31.047  -0.013   3.468
    1XTA    OA3 6873  31.040   0.052   3.340
    1XTA    CO4 6874  30.932   0.009   3.264
    1XTA    CT1 6875  30.886   0.115   3.163
    1XTA    CL5 6876  30.868   0.260   3.208
    1XTA    CL6 6877  30.751   0.285   3.306
    1XTA    OA4 6878  31.478  -0.238   2.121
    1XTA    CO5 6879  31.456  -0.347   2.035
    1XTA    CL7 6880  31.579  -0.373   1.946
    1XTA    CL8 6881  31.594  -0.252   1.851
    1XTA    CL9 6882  31.725  -0.240   1.773
    1XTA   CL10 6883  31.709  -0.174   1.637
    1XTA    CO6 6884  31.637  -0.034   1.642
    1XTA    OA5 6885  31.720   0.042   1.733
    1XTA    CO7 6886  31.667   0.172   1.740
    1XTA    CT2 6887  31.641   0.227   1.877
    1XTA   CL11 6888  31.562   0.362   1.871
    1XTA   CL12 6889  31.610   0.466   1.775
    1XTA    HL1 6890  30.656   0.453   2.566
    1XTA    HL2 6891  30.809   0.424   2.647
    1XTA    HL3 6892  30.798   0.441   2.465
    1XTA    HL4 6893  31.319  -0.155   3.135
    1XTA    HL5 6894  31.167  -0.076   3.132
    1XTA    HL6 6895  31.206  -0.348   3.281
    1XTA    HL7 6896  31.085  -0.218   3.314
    1XTA    HL8 6897  31.381  -0.223   3.371
    1XTA    HL9 6898  31.284  -0.257   3.503
    1XTA   HL10 6899  31.389  -0.024   3.486
    1XTA   HL11 6900  31.289   0.013   3.339
    1XTA   HL12 6901  31.199   0.101   3.547
    1XTA   HL13 6902  31.183  -0.050   3.623
    1XTA   HL14 6903  31.024  -0.122   3.471
    1XTA   HL15 6904  30.985   0.042   3.536
    1XTA   HL16 6905  30.948  -0.091   3.226
    1XTA   HL17 6906  30.846  -0.010   3.327
    1XTA   HL18 6907  30.870   0.323   3.120
    1XTA   HL19 6908  30.964   0.278   3.252
    1XTA   HL20 6909  30.779   0.242   3.404
    1XTA   HL21 6910  30.658   0.243   3.273
    1XTA   HL22 6911  30.749   0.386   3.326
    1XTA   HL23 6912  31.370  -0.332   1.966
    1XTA   HL24 6913  31.439  -0.433   2.090
    1XTA   HL25 6914  31.672  -0.391   1.996
    1XTA   HL26 6915  31.562  -0.458   1.887
    1XTA   HL27 6916  31.523  -0.254   1.767
    1XTA   HL28 6917  31.573  -0.169   1.916
    1XTA   HL29 6918  31.807  -0.189   1.830
    1XTA   HL30 6919  31.773  -0.334   1.772
    1XTA   HL31 6920  31.801  -0.159   1.582
    1XTA   HL32 6921  31.659  -0.248   1.577
    1XTA   HL33 6922  31.623   0.000   1.543
    1XTA   HL34 6923  31.537  -0.059   1.684
    1XTA   HL35 6924  31.579   0.173   1.681
    1XTA   HL36 6925  31.725   0.242   1.684
    1XTA   HL37 6926  31.531   0.401   1.970
    1XTA   HL38 6927  31.459   0.343   1.829
    1XTA   HL39 6928  31.594   0.432   1.671
    1XTA   HL40 6929  31.713   0.482   1.806
    1XTA   HL41 6930  31.551   0.558   1.793
    1XTA    CO8 6931  30.759   0.060   3.089
    1XTA    CO9 6932  30.997   0.117   3.053
    1XTA    OA6 6933  30.968   0.210   2.951
    1XTA   HL42 6934  30.737   0.128   3.011
    1XTA   HL43 6935  30.784  -0.028   3.024
    1XTA   HL44 6936  31.749   0.310   2.032
    1XTA   HL45 6937  31.846   0.340   1.870
    1XTA   CO10 6938  31.773   0.254   1.947
    1XTA   CO11 6939  31.553   0.118   1.945
    1XTA    OA7 6940  31.453   0.093   1.896
    1XTA   HL46 6941  31.610   0.030   1.956
    1XTA   HL47 6942  31.543   0.158   2.043
    1XTA   HL48 6943  31.020   0.015   3.018
    1XTA   HL49 6944  31.086   0.159   3.101
    1XTA     NT 6945  28.607   6.776  -0.646
    1XTA    CN1 6946  28.564   6.865  -0.735
    1XTA     C1 6947  28.472   6.967  -0.700
    1XTA     C2 6948  28.427   7.055  -0.803
    1XTA     C3 6949  28.466   7.035  -0.938
    1XTA     C4 6950  28.560   6.933  -0.970
    1XTA     C5 6951  28.610   6.851  -0.870
    1XTA    CN2 6952  28.562   6.651  -0.652
    1XTA     C6 6953  28.424   6.629  -0.669
    1XTA     C7 6954  28.372   6.499  -0.683
    1XTA     C8 6955  28.456   6.390  -0.667
    1XTA     C9 6956  28.593   6.414  -0.638
    1XTA    C10 6957  28.649   6.541  -0.629
    1XTA    CN3 6958  28.686   6.821  -0.549
    1XTA    C11 6959  28.824   6.861  -0.558
    1XTA    C12 6960  28.897   6.912  -0.452
    1XTA    C13 6961  28.832   6.932  -0.328
    1XTA    C14 6962  28.702   6.891  -0.314
    1XTA    C15 6963  28.626   6.842  -0.423
    1XTA     H1 6964  28.435   6.984  -0.601
    1XTA     H2 6965  28.359   7.137  -0.786
    1XTA     H3 6966  28.593   6.922  -1.069
    1XTA     H4 6967  28.690   6.780  -0.897
    1XTA     H5 6968  28.368   6.721  -0.681
    1XTA     H6 6969  28.266   6.494  -0.714
    1XTA     H7 6970  28.668   6.336  -0.644
    1XTA     H8 6971  28.759   6.542  -0.625
    1XTA     H9 6972  28.873   6.857  -0.654
    1XTA    H10 6973  29.001   6.943  -0.463
    1XTA    H11 6974  28.652   6.901  -0.221
    1XTA    H12 6975  28.517   6.818  -0.417
    1XTA    OA1 6976  28.438   7.120  -1.037
    1XTA    CO1 6977  28.319   7.196  -1.020
    1XTA    OA2 6978  28.397   6.271  -0.692
    1XTA    CO2 6979  28.480   6.148  -0.684
    1XTA    CL1 6980  28.400   6.027  -0.728
    1XTA    CL2 6981  28.437   5.997  -0.876
    1XTA    CL3 6982  28.388   5.868  -0.929
    1XTA    CL4 6983  28.443   5.848  -1.073
    1XTA    CO3 6984  28.423   5.701  -1.108
    1XTA    OA3 6985  28.292   5.665  -1.086
    1XTA    CO4 6986  28.214   5.707  -1.199
    1XTA    CT1 6987  28.063   5.658  -1.174
    1XTA    CL5 6988  28.055   5.504  -1.150
    1XTA    CL6 6989  28.125   5.411  -1.257
    1XTA    OA4 6990  28.901   6.987  -0.221
    1XTA    CO5 6991  29.009   7.068  -0.253
    1XTA    CL7 6992  29.025   7.161  -0.136
    1XTA    CL8 6993  29.098   7.291  -0.163
    1XTA    CL9 6994  29.037   7.404  -0.078
    1XTA   CL10 6995  29.051   7.397   0.073
    1XTA    CO6 6996  28.962   7.474   0.167
    1XTA    OA5 6997  28.829   7.425   0.142
    1XTA    CO7 6998  28.726   7.520   0.093
    1XTA    CT2 6999  28.592   7.452   0.073
    1XTA   CL11 7000  28.609   7.321  -0.017
    1XTA   CL12 7001  28.655   7.189   0.044
    1XTA    HL1 7002  28.239   7.124  -1.004
    1XTA    HL2 7003  28.325   7.271  -0.938
    1XTA    HL3 7004  28.276   7.244  -1.110
    1XTA    HL4 7005  28.572   6.150  -0.740
    1XTA    HL5 7006  28.506   6.142  -0.581
    1XTA    HL6 7007  28.292   6.036  -0.717
    1XTA    HL7 7008  28.426   5.935  -0.668
    1XTA    HL8 7009  28.547   5.999  -0.880
    1XTA    HL9 7010  28.401   6.075  -0.939
    1XTA   HL10 7011  28.426   5.782  -0.875
    1XTA   HL11 7012  28.280   5.858  -0.931
    1XTA   HL12 7013  28.548   5.876  -1.076
    1XTA   HL13 7014  28.397   5.910  -1.148
    1XTA   HL14 7015  28.447   5.688  -1.209
    1XTA   HL15 7016  28.488   5.647  -1.042
    1XTA   HL16 7017  28.212   5.813  -1.209
    1XTA   HL17 7018  28.245   5.679  -1.293
    1XTA   HL18 7019  27.952   5.478  -1.138
    1XTA   HL19 7020  28.110   5.487  -1.056
    1XTA   HL20 7021  28.093   5.433  -1.359
    1XTA   HL21 7022  28.110   5.309  -1.240
    1XTA   HL22 7023  28.234   5.426  -1.251
    1XTA   HL23 7024  28.988   7.125  -0.348
    1XTA   HL24 7025  29.098   7.006  -0.256
    1XTA   HL25 7026  28.923   7.185  -0.119
    1XTA   HL26 7027  29.068   7.101  -0.053
    1XTA   HL27 7028  29.202   7.271  -0.144
    1XTA   HL28 7029  29.096   7.312  -0.270
    1XTA   HL29 7030  29.078   7.501  -0.101
    1XTA   HL30 7031  28.928   7.422  -0.105
    1XTA   HL31 7032  29.034   7.297   0.105
    1XTA   HL32 7033  29.163   7.395   0.096
    1XTA   HL33 7034  28.986   7.454   0.266
    1XTA   HL34 7035  28.972   7.585   0.159
    1XTA   HL35 7036  28.769   7.554   0.005
    1XTA   HL36 7037  28.724   7.604   0.164
    1XTA   HL37 7038  28.670   7.354  -0.098
    1XTA   HL38 7039  28.507   7.315  -0.059
    1XTA   HL39 7040  28.608   7.148   0.137
    1XTA   HL40 7041  28.758   7.199   0.050
    1XTA   HL41 7042  28.648   7.109  -0.039
    1XTA    CO8 7043  27.975   5.702  -1.295
    1XTA    CO9 7044  28.015   5.718  -1.041
    1XTA    OA6 7045  27.866   5.688  -1.304
    1XTA   HL42 7046  28.027   5.653  -1.378
    1XTA   HL43 7047  27.982   5.812  -1.317
    1XTA   HL44 7048  28.477   7.672   0.055
    1XTA   HL45 7049  28.384   7.494   0.008
    1XTA   CO10 7050  28.484   7.542  -0.000
    1XTA   CO11 7051  28.544   7.413   0.214
    1XTA    OA7 7052  28.490   7.503   0.252
    1XTA   HL46 7053  28.479   7.325   0.195
    1XTA   HL47 7054  28.633   7.393   0.262
    1XTA   HL48 7055  28.098   5.676  -0.935
    1XTA   HL49 7056  28.032   5.822  -1.052
    1XTA     NT 7057  30.146   6.095   0.524
    1XTA    CN1 7058  30.261   6.121   0.478
    1XTA     C1 7059  30.369   6.028   0.486
    1XTA     C2 7060  30.492   6.066   0.419
    1XTA     C3 7061  30.499   6.186   0.342
    1XTA     C4 7062  30.396   6.278   0.347
    1XTA     C5 7063  30.278   6.243   0.415
    1XTA    CN2 7064  30.128   6.083   0.656
    1XTA     C6 7065  30.079   5.956   0.704
    1XTA     C7 7066  30.063   5.937   0.842
    1XTA     C8 7067  30.086   6.043   0.932
    1XTA     C9 7068  30.126   6.169   0.880
    1XTA    C10 7069  30.151   6.190   0.741
    1XTA    CN3 7070  30.052   6.043   0.437
    1XTA    C11 7071  29.912   6.072   0.447
    1XTA    C12 7072  29.822   6.028   0.355
    1XTA    C13 7073  29.867   5.966   0.238
    1XTA    C14 7074  30.004   5.940   0.222
    1XTA    C15 7075  30.097   5.974   0.319
    1XTA     H1 7076  30.359   5.933   0.533
    1XTA     H2 7077  30.571   5.998   0.421
    1XTA     H3 7078  30.407   6.372   0.295
    1XTA     H4 7079  30.205   6.321   0.427
    1XTA     H5 7080  30.066   5.864   0.640
    1XTA     H6 7081  30.032   5.840   0.879
    1XTA     H7 7082  30.138   6.254   0.947
    1XTA     H8 7083  30.177   6.286   0.703
    1XTA     H9 7084  29.875   6.112   0.547
    1XTA    H10 7085  29.713   6.047   0.364
    1XTA    H11 7086  30.032   5.889   0.132
    1XTA    H12 7087  30.205   5.957   0.305
    1XTA    OA1 7088  30.608   6.219   0.265
    1XTA    CO1 7089  30.719   6.128   0.274
    1XTA    OA2 7090  30.063   6.005   1.064
    1XTA    CO2 7091  30.122   6.090   1.162
    1XTA    CL1 7092  30.272   6.071   1.157
    1XTA    CL2 7093  30.325   5.933   1.213
    1XTA    CL3 7094  30.463   5.885   1.159
    1XTA    CL4 7095  30.506   5.752   1.218
    1XTA    CO3 7096  30.555   5.744   1.357
    1XTA    OA3 7097  30.601   5.612   1.380
    1XTA    CO4 7098  30.617   5.578   1.513
    1XTA    CT1 7099  30.648   5.424   1.524
    1XTA    CL5 7100  30.520   5.340   1.495
    1XTA    CL6 7101  30.466   5.361   1.354
    1XTA    OA4 7102  29.764   5.938   0.150
    1XTA    CO5 7103  29.796   5.838   0.059
    1XTA    CL7 7104  29.806   5.896  -0.082
    1XTA    CL8 7105  29.952   5.930  -0.124
    1XTA    CL9 7106  30.027   5.796  -0.159
    1XTA   CL10 7107  30.167   5.791  -0.097
    1XTA    CO6 7108  30.226   5.649  -0.109
    1XTA    OA5 7109  30.363   5.665  -0.074
    1XTA    CO7 7110  30.435   5.547  -0.042
    1XTA    CT2 7111  30.556   5.508  -0.124
    1XTA   CL11 7112  30.638   5.389  -0.076
    1XTA   CL12 7113  30.701   5.410   0.066
    1XTA    HL1 7114  30.702   6.028   0.225
    1XTA    HL2 7115  30.800   6.169   0.216
    1XTA    HL3 7116  30.758   6.098   0.368
    1XTA    HL4 7117  30.087   6.192   1.147
    1XTA    HL5 7118  30.085   6.063   1.256
    1XTA    HL6 7119  30.322   6.153   1.211
    1XTA    HL7 7120  30.304   6.079   1.054
    1XTA    HL8 7121  30.261   5.854   1.174
    1XTA    HL9 7122  30.311   5.933   1.325
    1XTA   HL10 7123  30.459   5.894   1.054
    1XTA   HL11 7124  30.536   5.964   1.181
    1XTA   HL12 7125  30.590   5.718   1.169
    1XTA   HL13 7126  30.427   5.684   1.195
    1XTA   HL14 7127  30.644   5.820   1.377
    1XTA   HL15 7128  30.477   5.765   1.435
    1XTA   HL16 7129  30.699   5.638   1.557
    1XTA   HL17 7130  30.517   5.603   1.556
    1XTA   HL18 7131  30.451   5.374   1.568
    1XTA   HL19 7132  30.547   5.233   1.507
    1XTA   HL20 7133  30.430   5.460   1.334
    1XTA   HL21 7134  30.389   5.284   1.336
    1XTA   HL22 7135  30.542   5.347   1.284
    1XTA   HL23 7136  29.712   5.770   0.070
    1XTA   HL24 7137  29.884   5.778   0.074
    1XTA   HL25 7138  29.759   5.828  -0.158
    1XTA   HL26 7139  29.744   5.987  -0.078
    1XTA   HL27 7140  29.940   5.991  -0.213
    1XTA   HL28 7141  29.996   5.987  -0.043
    1XTA   HL29 7142  29.973   5.713  -0.116
    1XTA   HL30 7143  30.029   5.781  -0.268
    1XTA   HL31 7144  30.224   5.871  -0.149
    1XTA   HL32 7145  30.160   5.826   0.006
    1XTA   HL33 7146  30.180   5.585  -0.039
    1XTA   HL34 7147  30.212   5.609  -0.209
    1XTA   HL35 7148  30.371   5.467  -0.042
    1XTA   HL36 7149  30.472   5.557   0.059
    1XTA   HL37 7150  30.714   5.357  -0.149
    1XTA   HL38 7151  30.565   5.307  -0.068
    1XTA   HL39 7152  30.662   5.489   0.120
    1XTA   HL40 7153  30.807   5.436   0.055
    1XTA   HL41 7154  30.697   5.329   0.128
    1XTA    CO8 7155  30.695   5.385   1.663
    1XTA    CO9 7156  30.769   5.389   1.433
    1XTA    OA6 7157  30.889   5.448   1.475
    1XTA   HL42 7158  30.787   5.441   1.671
    1XTA   HL43 7159  30.736   5.288   1.639
    1XTA   HL44 7160  30.574   5.699  -0.147
    1XTA   HL45 7161  30.736   5.621  -0.119
    1XTA   CO10 7162  30.638   5.618  -0.165
    1XTA   CO11 7163  30.523   5.503  -0.273
    1XTA    OA7 7164  30.642   5.599  -0.277
    1XTA   HL46 7165  30.556   5.374  -0.323
    1XTA   HL47 7166  30.425   5.542  -0.306
    1XTA   HL48 7167  30.753   5.403   1.326
    1XTA   HL49 7168  30.782   5.284   1.424
    1XTA     NT 7169  28.725   0.933   6.061
    1XTA    CN1 7170  28.647   1.001   6.151
    1XTA     C1 7171  28.672   1.132   6.190
    1XTA     C2 7172  28.578   1.198   6.271
    1XTA     C3 7173  28.465   1.136   6.328
    1XTA     C4 7174  28.439   1.001   6.298
    1XTA     C5 7175  28.528   0.941   6.199
    1XTA    CN2 7176  28.747   0.800   6.068
    1XTA     C6 7177  28.754   0.722   5.952
    1XTA     C7 7178  28.769   0.583   5.962
    1XTA     C8 7179  28.786   0.523   6.085
    1XTA     C9 7180  28.801   0.607   6.198
    1XTA    C10 7181  28.777   0.742   6.192
    1XTA    CN3 7182  28.787   1.004   5.967
    1XTA    C11 7183  28.723   1.073   5.864
    1XTA    C12 7184  28.793   1.126   5.760
    1XTA    C13 7185  28.936   1.112   5.745
    1XTA    C14 7186  29.007   1.063   5.865
    1XTA    C15 7187  28.931   1.007   5.970
    1XTA     H1 7188  28.764   1.184   6.170
    1XTA     H2 7189  28.598   1.301   6.306
    1XTA     H3 7190  28.342   0.953   6.322
    1XTA     H4 7191  28.498   0.840   6.164
    1XTA     H5 7192  28.745   0.770   5.852
    1XTA     H6 7193  28.760   0.531   5.871
    1XTA     H7 7194  28.823   0.574   6.299
    1XTA     H8 7195  28.783   0.809   6.274
    1XTA     H9 7196  28.618   1.079   5.872
    1XTA    H10 7197  28.734   1.169   5.674
    1XTA    H11 7198  29.117   1.065   5.880
    1XTA    H12 7199  28.980   0.972   6.056
    1XTA    OA1 7200  28.371   1.217   6.398
    1XTA    CO1 7201  28.239   1.164   6.383
    1XTA    OA2 7202  28.786   0.385   6.099
    1XTA    CO2 7203  28.710   0.312   6.003
    1XTA    CL1 7204  28.694   0.164   6.048
    1XTA    CL2 7205  28.570   0.150   6.142
    1XTA    CL3 7206  28.526   0.010   6.176
    1XTA    CL4 7207  28.640  -0.072   6.235
    1XTA    CO3 7208  28.600  -0.206   6.300
    1XTA    OA3 7209  28.715  -0.285   6.312
    1XTA    CO4 7210  28.688  -0.394   6.394
    1XTA    CT1 7211  28.797  -0.501   6.395
    1XTA    CL5 7212  28.780  -0.593   6.515
    1XTA    CL6 7213  28.643  -0.669   6.520
    1XTA    OA4 7214  29.003   1.137   5.632
    1XTA    CO5 7215  28.923   1.162   5.518
    1XTA    CL7 7216  29.020   1.168   5.397
    1XTA    CL8 7217  28.979   1.086   5.272
    1XTA    CL9 7218  29.058   1.129   5.148
    1XTA   CL10 7219  29.202   1.066   5.158
    1XTA    CO6 7220  29.296   1.074   5.039
    1XTA    OA5 7221  29.426   1.013   5.062
    1XTA    CO7 7222  29.424   0.870   5.075
    1XTA    CT2 7223  29.558   0.823   5.021
    1XTA   CL11 7224  29.571   0.847   4.870
    1XTA   CL12 7225  29.443   0.838   4.776
    1XTA    HL1 7226  28.177   1.244   6.423
    1XTA    HL2 7227  28.221   1.139   6.278
    1XTA    HL3 7228  28.211   1.068   6.433
    1XTA    HL4 7229  28.616   0.362   5.990
    1XTA    HL5 7230  28.771   0.302   5.914
    1XTA    HL6 7231  28.784   0.134   6.098
    1XTA    HL7 7232  28.676   0.095   5.964
    1XTA    HL8 7233  28.483   0.194   6.094
    1XTA    HL9 7234  28.592   0.208   6.230
    1XTA   HL10 7235  28.449   0.022   6.247
    1XTA   HL11 7236  28.481  -0.038   6.092
    1XTA   HL12 7237  28.705  -0.007   6.307
    1XTA   HL13 7238  28.709  -0.100   6.154
    1XTA   HL14 7239  28.548  -0.196   6.397
    1XTA   HL15 7240  28.519  -0.253   6.235
    1XTA   HL16 7241  28.672  -0.363   6.491
    1XTA   HL17 7242  28.592  -0.430   6.363
    1XTA   HL18 7243  28.794  -0.529   6.602
    1XTA   HL19 7244  28.866  -0.661   6.519
    1XTA   HL20 7245  28.635  -0.739   6.436
    1XTA   HL21 7246  28.550  -0.610   6.523
    1XTA   HL22 7247  28.652  -0.718   6.618
    1XTA   HL23 7248  28.853   1.253   5.532
    1XTA   HL24 7249  28.856   1.074   5.516
    1XTA   HL25 7250  29.045   1.270   5.364
    1XTA   HL26 7251  29.121   1.142   5.433
    1XTA   HL27 7252  28.992   0.982   5.289
    1XTA   HL28 7253  28.877   1.109   5.250
    1XTA   HL29 7254  29.017   1.106   5.043
    1XTA   HL30 7255  29.068   1.236   5.135
    1XTA   HL31 7256  29.255   1.104   5.251
    1XTA   HL32 7257  29.189   0.960   5.167
    1XTA   HL33 7258  29.246   1.033   4.954
    1XTA   HL34 7259  29.309   1.185   5.025
    1XTA   HL35 7260  29.330   0.830   5.034
    1XTA   HL36 7261  29.422   0.867   5.180
    1XTA   HL37 7262  29.645   0.778   4.820
    1XTA   HL38 7263  29.605   0.950   4.859
    1XTA   HL39 7264  29.370   0.917   4.794
    1XTA   HL40 7265  29.393   0.748   4.793
    1XTA   HL41 7266  29.472   0.845   4.673
    1XTA    CO8 7267  28.938  -0.439   6.401
    1XTA    CO9 7268  28.795  -0.584   6.269
    1XTA    OA6 7269  28.970  -0.376   6.313
    1XTA   HL42 7270  29.022  -0.505   6.391
    1XTA   HL43 7271  28.948  -0.398   6.503
    1XTA   HL44 7272  29.492   0.631   5.018
    1XTA   HL45 7273  29.657   0.645   4.984
    1XTA   CO10 7274  29.583   0.675   5.051
    1XTA   CO11 7275  29.677   0.899   5.087
    1XTA    OA7 7276  29.612   0.635   5.157
    1XTA   HL46 7277  29.795   0.869   5.013
    1XTA   HL47 7278  29.705   0.847   5.178
    1XTA   HL48 7279  28.815  -0.722   6.298
    1XTA   HL49 7280  28.895  -0.582   6.231
    1XTA     NT 7281  30.184  -0.778   0.072
    1XTA    CN1 7282  30.309  -0.734   0.056
    1XTA     C1 7283  30.353  -0.620   0.131
    1XTA     C2 7284  30.488  -0.581   0.135
    1XTA     C3 7285  30.581  -0.649   0.054
    1XTA     C4 7286  30.534  -0.751  -0.031
    1XTA     C5 7287  30.397  -0.786  -0.033
    1XTA    CN2 7288  30.105  -0.821  -0.029
    1XTA     C6 7289  30.119  -0.952  -0.077
    1XTA     C7 7290  30.031  -0.997  -0.180
    1XTA     C8 7291  29.926  -0.918  -0.222
    1XTA     C9 7292  29.905  -0.790  -0.169
    1XTA    C10 7293  29.993  -0.745  -0.075
    1XTA    CN3 7294  30.137  -0.808   0.193
    1XTA    C11 7295  30.053  -0.719   0.265
    1XTA    C12 7296  30.021  -0.741   0.399
    1XTA    C13 7297  30.068  -0.853   0.465
    1XTA    C14 7298  30.146  -0.944   0.397
    1XTA    C15 7299  30.176  -0.923   0.263
    1XTA     H1 7300  30.281  -0.564   0.184
    1XTA     H2 7301  30.528  -0.497   0.194
    1XTA     H3 7302  30.604  -0.806  -0.090
    1XTA     H4 7303  30.368  -0.861  -0.103
    1XTA     H5 7304  30.198  -1.007  -0.038
    1XTA     H6 7305  30.051  -1.100  -0.220
    1XTA     H7 7306  29.829  -0.725  -0.209
    1XTA     H8 7307  29.982  -0.653  -0.018
    1XTA     H9 7308  30.018  -0.635   0.210
    1XTA    H10 7309  29.970  -0.675   0.464
    1XTA    H11 7310  30.188  -1.033   0.446
    1XTA    H12 7311  30.232  -0.996   0.210
    1XTA    OA1 7312  30.713  -0.616   0.059
    1XTA    CO1 7313  30.758  -0.558   0.183
    1XTA    OA2 7314  29.851  -0.964  -0.330
    1XTA    CO2 7315  29.720  -0.915  -0.344
    1XTA    CL1 7316  29.653  -0.971  -0.475
    1XTA    CL2 7317  29.614  -1.120  -0.447
    1XTA    CL3 7318  29.565  -1.189  -0.579
    1XTA    CL4 7319  29.667  -1.190  -0.693
    1XTA    CO3 7320  29.783  -1.293  -0.678
    1XTA    OA3 7321  29.898  -1.246  -0.749
    1XTA    CO4 7322  29.998  -1.337  -0.793
    1XTA    CT1 7323  30.067  -1.256  -0.906
    1XTA    CL5 7324  30.182  -1.347  -0.948
    1XTA    CL6 7325  30.307  -1.371  -0.855
    1XTA    OA4 7326  30.020  -0.864   0.592
    1XTA    CO5 7327  29.975  -0.994   0.624
    1XTA    CL7 7328  29.948  -0.994   0.771
    1XTA    CL8 7329  29.880  -1.126   0.816
    1XTA    CL9 7330  29.834  -1.119   0.962
    1XTA   CL10 7331  29.686  -1.091   0.963
    1XTA    CO6 7332  29.639  -1.038   1.099
    1XTA    OA5 7333  29.707  -0.917   1.130
    1XTA    CO7 7334  29.692  -0.891   1.267
    1XTA    CT2 7335  29.814  -0.821   1.326
    1XTA   CL11 7336  29.805  -0.676   1.269
    1XTA   CL12 7337  29.934  -0.591   1.278
    1XTA    HL1 7338  30.862  -0.572   0.178
    1XTA    HL2 7339  30.733  -0.452   0.204
    1XTA    HL3 7340  30.728  -0.617   0.268
    1XTA    HL4 7341  29.669  -0.937  -0.251
    1XTA    HL5 7342  29.729  -0.804  -0.362
    1XTA    HL6 7343  29.709  -0.952  -0.565
    1XTA    HL7 7344  29.566  -0.912  -0.490
    1XTA    HL8 7345  29.533  -1.125  -0.375
    1XTA    HL9 7346  29.701  -1.173  -0.411
    1XTA   HL10 7347  29.556  -1.297  -0.540
    1XTA   HL11 7348  29.468  -1.151  -0.614
    1XTA   HL12 7349  29.717  -1.089  -0.703
    1XTA   HL13 7350  29.619  -1.219  -0.784
    1XTA   HL14 7351  29.824  -1.307  -0.577
    1XTA   HL15 7352  29.752  -1.392  -0.709
    1XTA   HL16 7353  30.072  -1.354  -0.705
    1XTA   HL17 7354  29.972  -1.437  -0.832
    1XTA   HL18 7355  30.233  -1.286  -1.030
    1XTA   HL19 7356  30.141  -1.442  -0.983
    1XTA   HL20 7357  30.371  -1.286  -0.830
    1XTA   HL21 7358  30.387  -1.432  -0.915
    1XTA   HL22 7359  30.260  -1.412  -0.761
    1XTA   HL23 7360  30.040  -1.083   0.603
    1XTA   HL24 7361  29.877  -1.003   0.566
    1XTA   HL25 7362  30.040  -0.970   0.826
    1XTA   HL26 7363  29.880  -0.914   0.792
    1XTA   HL27 7364  29.797  -1.150   0.737
    1XTA   HL28 7365  29.961  -1.201   0.810
    1XTA   HL29 7366  29.845  -1.212   1.008
    1XTA   HL30 7367  29.879  -1.032   1.022
    1XTA   HL31 7368  29.650  -1.031   0.878
    1XTA   HL32 7369  29.625  -1.175   0.951
    1XTA   HL33 7370  29.539  -1.012   1.099
    1XTA   HL34 7371  29.641  -1.115   1.173
    1XTA   HL35 7372  29.682  -0.982   1.319
    1XTA   HL36 7373  29.598  -0.846   1.291
    1XTA   HL37 7374  29.723  -0.622   1.323
    1XTA   HL38 7375  29.763  -0.678   1.167
    1XTA   HL39 7376  29.902  -0.498   1.231
    1XTA   HL40 7377  30.017  -0.637   1.230
    1XTA   HL41 7378  29.958  -0.580   1.379
    1XTA    CO8 7379  30.115  -1.119  -0.868
    1XTA    CO9 7380  29.967  -1.233  -1.023
    1XTA    OA6 7381  30.169  -1.045  -0.967
    1XTA   HL42 7382  30.189  -1.130  -0.779
    1XTA   HL43 7383  30.037  -1.058  -0.816
    1XTA   HL44 7384  29.951  -0.909   1.171
    1XTA   HL45 7385  30.020  -0.830   1.318
    1XTA   CO10 7386  29.941  -0.896   1.285
    1XTA   CO11 7387  29.827  -0.820   1.476
    1XTA    OA7 7388  29.710  -0.815   1.546
    1XTA   HL46 7389  29.877  -0.917   1.512
    1XTA   HL47 7390  29.903  -0.748   1.507
    1XTA   HL48 7391  29.932  -1.125  -1.042
    1XTA   HL49 7392  29.866  -1.267  -0.992
    1XTA     NT 7393  27.151   5.545   2.126
    1XTA    CN1 7394  27.152   5.651   2.047
    1XTA     C1 7395  27.032   5.708   1.988
    1XTA     C2 7396  27.045   5.821   1.896
    1XTA     C3 7397  27.174   5.875   1.866
    1XTA     C4 7398  27.290   5.813   1.916
    1XTA     C5 7399  27.277   5.706   2.005
    1XTA    CN2 7400  27.186   5.565   2.250
    1XTA     C6 7401  27.298   5.501   2.302
    1XTA     C7 7402  27.324   5.521   2.439
    1XTA     C8 7403  27.258   5.618   2.516
    1XTA     C9 7404  27.145   5.682   2.462
    1XTA    C10 7405  27.108   5.657   2.325
    1XTA    CN3 7406  27.107   5.426   2.076
    1XTA    C11 7407  27.171   5.358   1.970
    1XTA    C12 7408  27.118   5.239   1.919
    1XTA    C13 7409  26.995   5.191   1.970
    1XTA    C14 7410  26.930   5.259   2.077
    1XTA    C15 7411  26.988   5.378   2.129
    1XTA     H1 7412  26.938   5.661   1.994
    1XTA     H2 7413  26.954   5.864   1.852
    1XTA     H3 7414  27.389   5.856   1.916
    1XTA     H4 7415  27.367   5.665   2.054
    1XTA     H5 7416  27.355   5.428   2.250
    1XTA     H6 7417  27.413   5.473   2.468
    1XTA     H7 7418  27.098   5.759   2.530
    1XTA     H8 7419  27.027   5.706   2.285
    1XTA     H9 7420  27.253   5.405   1.923
    1XTA    H10 7421  27.173   5.179   1.847
    1XTA    H11 7422  26.838   5.223   2.115
    1XTA    H12 7423  26.927   5.421   2.200
    1XTA    OA1 7424  27.178   5.986   1.783
    1XTA    CO1 7425  27.294   6.071   1.796
    1XTA    OA2 7426  27.289   5.650   2.648
    1XTA    CO2 7427  27.382   5.560   2.711
    1XTA    CL1 7428  27.370   5.563   2.867
    1XTA    CL2 7429  27.259   5.471   2.902
    1XTA    CL3 7430  27.242   5.445   3.059
    1XTA    CL4 7431  27.122   5.349   3.091
    1XTA    CO3 7432  27.097   5.323   3.235
    1XTA    OA3 7433  27.004   5.218   3.258
    1XTA    CO4 7434  26.929   5.247   3.378
    1XTA    CT1 7435  26.794   5.172   3.384
    1XTA    CL5 7436  26.811   5.026   3.365
    1XTA    CL6 7437  26.900   4.956   3.470
    1XTA    OA4 7438  26.944   5.072   1.916
    1XTA    CO5 7439  26.926   5.064   1.772
    1XTA    CL7 7440  26.863   4.935   1.740
    1XTA    CL8 7441  26.824   4.915   1.596
    1XTA    CL9 7442  26.713   5.003   1.550
    1XTA   CL10 7443  26.644   4.956   1.422
    1XTA    CO6 7444  26.522   5.038   1.382
    1XTA    OA5 7445  26.573   5.164   1.361
    1XTA    CO7 7446  26.592   5.209   1.231
    1XTA    CT2 7447  26.636   5.361   1.227
    1XTA   CL11 7448  26.664   5.416   1.085
    1XTA   CL12 7449  26.552   5.401   0.978
    1XTA    HL1 7450  27.261   6.171   1.772
    1XTA    HL2 7451  27.345   6.076   1.900
    1XTA    HL3 7452  27.365   6.035   1.721
    1XTA    HL4 7453  27.370   5.465   2.678
    1XTA    HL5 7454  27.482   5.590   2.685
    1XTA    HL6 7455  27.351   5.665   2.896
    1XTA    HL7 7456  27.458   5.522   2.914
    1XTA    HL8 7457  27.265   5.377   2.844
    1XTA    HL9 7458  27.177   5.521   2.868
    1XTA   HL10 7459  27.326   5.401   3.101
    1XTA   HL11 7460  27.228   5.540   3.115
    1XTA   HL12 7461  27.131   5.255   3.027
    1XTA   HL13 7462  27.031   5.403   3.053
    1XTA   HL14 7463  27.183   5.270   3.280
    1XTA   HL15 7464  27.083   5.415   3.294
    1XTA   HL16 7465  26.998   5.248   3.458
    1XTA   HL17 7466  26.901   5.352   3.376
    1XTA   HL18 7467  26.842   5.008   3.267
    1XTA   HL19 7468  26.716   4.981   3.379
    1XTA   HL20 7469  26.991   5.021   3.491
    1XTA   HL21 7470  26.942   4.863   3.435
    1XTA   HL22 7471  26.851   4.944   3.568
    1XTA   HL23 7472  27.019   5.076   1.713
    1XTA   HL24 7473  26.863   5.145   1.735
    1XTA   HL25 7474  26.928   4.850   1.767
    1XTA   HL26 7475  26.781   4.928   1.805
    1XTA   HL27 7476  26.910   4.902   1.528
    1XTA   HL28 7477  26.775   4.820   1.599
    1XTA   HL29 7478  26.637   5.011   1.631
    1XTA   HL30 7479  26.763   5.102   1.533
    1XTA   HL31 7480  26.720   4.943   1.342
    1XTA   HL32 7481  26.604   4.857   1.434
    1XTA   HL33 7482  26.471   5.006   1.291
    1XTA   HL34 7483  26.455   5.040   1.463
    1XTA   HL35 7484  26.503   5.177   1.173
    1XTA   HL36 7485  26.662   5.145   1.182
    1XTA   HL37 7486  26.763   5.386   1.055
    1XTA   HL38 7487  26.674   5.527   1.109
    1XTA   HL39 7488  26.451   5.422   1.017
    1XTA   HL40 7489  26.560   5.297   0.950
    1XTA   HL41 7490  26.568   5.461   0.889
    1XTA    CO8 7491  26.698   5.216   3.274
    1XTA    CO9 7492  26.744   5.197   3.529
    1XTA    OA6 7493  26.703   5.326   3.269
    1XTA   HL42 7494  26.601   5.173   3.303
    1XTA   HL43 7495  26.739   5.173   3.184
    1XTA   HL44 7496  26.804   5.469   1.299
    1XTA   HL45 7497  26.756   5.342   1.407
    1XTA   CO10 7498  26.773   5.365   1.301
    1XTA   CO11 7499  26.541   5.457   1.307
    1XTA    OA7 7500  26.853   5.307   1.260
    1XTA   HL46 7501  26.575   5.466   1.446
    1XTA   HL47 7502  26.435   5.421   1.304
    1XTA   HL48 7503  26.831   5.153   3.630
    1XTA   HL49 7504  26.741   5.306   3.534
    1XTA     NT 7505  25.381  -2.485   2.133
    1XTA    CN1 7506  25.428  -2.609   2.117
    1XTA     C1 7507  25.379  -2.692   2.018
    1XTA     C2 7508  25.429  -2.828   2.009
    1XTA     C3 7509  25.534  -2.867   2.092
    1XTA     C4 7510  25.585  -2.785   2.190
    1XTA     C5 7511  25.531  -2.656   2.205
    1XTA    CN2 7512  25.464  -2.380   2.115
    1XTA     C6 7513  25.550  -2.331   2.221
    1XTA     C7 7514  25.627  -2.216   2.199
    1XTA     C8 7515  25.628  -2.151   2.078
    1XTA     C9 7516  25.542  -2.195   1.977
    1XTA    C10 7517  25.468  -2.312   1.992
    1XTA    CN3 7518  25.258  -2.472   2.192
    1XTA    C11 7519  25.163  -2.371   2.153
    1XTA    C12 7520  25.040  -2.365   2.214
    1XTA    C13 7521  24.996  -2.452   2.312
    1XTA    C14 7522  25.085  -2.557   2.351
    1XTA    C15 7523  25.214  -2.560   2.295
    1XTA     H1 7524  25.298  -2.660   1.953
    1XTA     H2 7525  25.408  -2.896   1.928
    1XTA     H3 7526  25.659  -2.813   2.271
    1XTA     H4 7527  25.558  -2.598   2.289
    1XTA     H5 7528  25.542  -2.373   2.318
    1XTA     H6 7529  25.685  -2.180   2.281
    1XTA     H7 7530  25.549  -2.145   1.883
    1XTA     H8 7531  25.408  -2.361   1.910
    1XTA     H9 7532  25.180  -2.297   2.079
    1XTA    H10 7533  24.983  -2.279   2.192
    1XTA    H11 7534  25.055  -2.634   2.417
    1XTA    H12 7535  25.280  -2.634   2.326
    1XTA    OA1 7536  25.582  -3.000   2.093
    1XTA    CO1 7537  25.679  -3.037   2.194
    1XTA    OA2 7538  25.704  -2.039   2.045
    1XTA    CO2 7539  25.787  -1.986   2.146
    1XTA    CL1 7540  25.795  -1.830   2.124
    1XTA    CL2 7541  25.871  -1.767   2.231
    1XTA    CL3 7542  25.914  -1.629   2.213
    1XTA    CL4 7543  25.946  -1.560   2.343
    1XTA    CO3 7544  26.090  -1.590   2.382
    1XTA    OA3 7545  26.109  -1.554   2.517
    1XTA    CO4 7546  26.238  -1.554   2.574
    1XTA    CT1 7547  26.239  -1.572   2.725
    1XTA    CL5 7548  26.186  -1.444   2.797
    1XTA    CL6 7549  26.282  -1.325   2.802
    1XTA    OA4 7550  24.874  -2.435   2.380
    1XTA    CO5 7551  24.771  -2.365   2.307
    1XTA    CL7 7552  24.648  -2.362   2.398
    1XTA    CL8 7553  24.669  -2.291   2.533
    1XTA    CL9 7554  24.550  -2.306   2.626
    1XTA   CL10 7555  24.570  -2.210   2.745
    1XTA    CO6 7556  24.701  -2.234   2.822
    1XTA    OA5 7557  24.826  -2.195   2.767
    1XTA    CO7 7558  24.938  -2.196   2.858
    1XTA    CT2 7559  25.059  -2.139   2.779
    1XTA   CL11 7560  25.062  -1.991   2.806
    1XTA   CL12 7561  24.937  -1.918   2.756
    1XTA    HL1 7562  25.621  -3.034   2.285
    1XTA    HL2 7563  25.714  -3.141   2.177
    1XTA    HL3 7564  25.754  -2.964   2.193
    1XTA    HL4 7565  25.741  -1.993   2.244
    1XTA    HL5 7566  25.891  -2.018   2.150
    1XTA    HL6 7567  25.690  -1.800   2.124
    1XTA    HL7 7568  25.851  -1.797   2.035
    1XTA    HL8 7569  25.958  -1.828   2.238
    1XTA    HL9 7570  25.815  -1.781   2.325
    1XTA   HL10 7571  25.987  -1.624   2.127
    1XTA   HL11 7572  25.826  -1.580   2.172
    1XTA   HL12 7573  25.872  -1.581   2.422
    1XTA   HL13 7574  25.928  -1.446   2.333
    1XTA   HL14 7575  26.110  -1.693   2.357
    1XTA   HL15 7576  26.165  -1.529   2.323
    1XTA   HL16 7577  26.305  -1.627   2.527
    1XTA   HL17 7578  26.291  -1.463   2.556
    1XTA   HL18 7579  26.159  -1.463   2.901
    1XTA   HL19 7580  26.090  -1.424   2.755
    1XTA   HL20 7581  26.258  -1.253   2.876
    1XTA   HL21 7582  26.282  -1.275   2.710
    1XTA   HL22 7583  26.383  -1.357   2.827
    1XTA   HL23 7584  24.770  -2.414   2.206
    1XTA   HL24 7585  24.798  -2.259   2.298
    1XTA   HL25 7586  24.562  -2.315   2.352
    1XTA   HL26 7587  24.621  -2.467   2.408
    1XTA   HL27 7588  24.754  -2.340   2.587
    1XTA   HL28 7589  24.694  -2.192   2.510
    1XTA   HL29 7590  24.453  -2.286   2.566
    1XTA   HL30 7591  24.542  -2.413   2.666
    1XTA   HL31 7592  24.558  -2.104   2.713
    1XTA   HL32 7593  24.500  -2.247   2.813
    1XTA   HL33 7594  24.685  -2.169   2.917
    1XTA   HL34 7595  24.712  -2.330   2.863
    1XTA   HL35 7596  24.951  -2.295   2.889
    1XTA   HL36 7597  24.920  -2.132   2.938
    1XTA   HL37 7598  25.153  -1.942   2.767
    1XTA   HL38 7599  25.059  -1.973   2.914
    1XTA   HL39 7600  24.929  -1.940   2.651
    1XTA   HL40 7601  24.951  -1.817   2.771
    1XTA   HL41 7602  24.839  -1.952   2.804
    1XTA    CO8 7603  26.379  -1.613   2.764
    1XTA    CO9 7604  26.151  -1.688   2.760
    1XTA    OA6 7605  26.382  -1.619   2.881
    1XTA   HL42 7606  26.448  -1.539   2.728
    1XTA   HL43 7607  26.398  -1.709   2.712
    1XTA   HL44 7608  25.053  -2.276   2.617
    1XTA   HL45 7609  24.980  -2.133   2.570
    1XTA   CO10 7610  25.064  -2.171   2.624
    1XTA   CO11 7611  25.185  -2.200   2.829
    1XTA    OA7 7612  25.182  -2.121   2.568
    1XTA   HL46 7613  25.180  -2.306   2.803
    1XTA   HL47 7614  25.263  -2.173   2.765
    1XTA   HL48 7615  26.016  -1.655   2.734
    1XTA   HL49 7616  26.143  -1.686   2.870
    1XTA     NT 7617  27.863  -2.898   2.943
    1XTA    CN1 7618  27.996  -2.908   2.966
    1XTA     C1 7619  28.095  -2.868   2.871
    1XTA     C2 7620  28.233  -2.864   2.906
    1XTA     C3 7621  28.285  -2.907   3.027
    1XTA     C4 7622  28.188  -2.930   3.127
    1XTA     C5 7623  28.046  -2.934   3.101
    1XTA    CN2 7624  27.784  -2.794   2.978
    1XTA     C6 7625  27.713  -2.801   3.105
    1XTA     C7 7626  27.631  -2.695   3.144
    1XTA     C8 7627  27.602  -2.589   3.060
    1XTA     C9 7628  27.656  -2.590   2.931
    1XTA    C10 7629  27.757  -2.682   2.893
    1XTA    CN3 7630  27.809  -2.994   2.861
    1XTA    C11 7631  27.800  -2.991   2.717
    1XTA    C12 7632  27.711  -3.080   2.650
    1XTA    C13 7633  27.659  -3.194   2.723
    1XTA    C14 7634  27.683  -3.204   2.860
    1XTA    C15 7635  27.760  -3.108   2.928
    1XTA     H1 7636  28.061  -2.825   2.775
    1XTA     H2 7637  28.313  -2.853   2.829
    1XTA     H3 7638  28.218  -2.946   3.234
    1XTA     H4 7639  27.964  -2.940   3.174
    1XTA     H5 7640  27.733  -2.889   3.166
    1XTA     H6 7641  27.600  -2.703   3.246
    1XTA     H7 7642  27.632  -2.518   2.862
    1XTA     H8 7643  27.813  -2.672   2.799
    1XTA     H9 7644  27.864  -2.914   2.669
    1XTA    H10 7645  27.698  -3.065   2.551
    1XTA    H11 7646  27.655  -3.300   2.903
    1XTA    H12 7647  27.766  -3.131   3.033
    1XTA    OA1 7648  28.419  -2.934   3.044
    1XTA    CO1 7649  28.457  -2.979   3.173
    1XTA    OA2 7650  27.507  -2.502   3.090
    1XTA    CO2 7651  27.546  -2.371   3.093
    1XTA    CL1 7652  27.432  -2.281   3.043
    1XTA    CL2 7653  27.380  -2.331   2.904
    1XTA    CL3 7654  27.274  -2.231   2.845
    1XTA    CL4 7655  27.253  -2.279   2.693
    1XTA    CO3 7656  27.360  -2.229   2.600
    1XTA    OA3 7657  27.309  -2.211   2.469
    1XTA    CO4 7658  27.412  -2.155   2.385
    1XTA    CT1 7659  27.386  -2.010   2.353
    1XTA    CL5 7660  27.479  -1.959   2.240
    1XTA    CL6 7661  27.456  -2.015   2.104
    1XTA    OA4 7662  27.593  -3.298   2.664
    1XTA    CO5 7663  27.544  -3.288   2.530
    1XTA    CL7 7664  27.644  -3.331   2.430
    1XTA    CL8 7665  27.603  -3.313   2.286
    1XTA    CL9 7666  27.716  -3.341   2.186
    1XTA   CL10 7667  27.817  -3.227   2.166
    1XTA    CO6 7668  27.956  -3.282   2.166
    1XTA    OA5 7669  28.047  -3.181   2.152
    1XTA    CO7 7670  28.062  -3.131   2.015
    1XTA    CT2 7671  28.169  -3.019   2.016
    1XTA   CL11 7672  28.282  -3.065   2.112
    1XTA   CL12 7673  28.404  -2.977   2.116
    1XTA    HL1 7674  28.554  -3.023   3.178
    1XTA    HL2 7675  28.461  -2.892   3.243
    1XTA    HL3 7676  28.383  -3.051   3.213
    1XTA    HL4 7677  27.575  -2.350   3.190
    1XTA    HL5 7678  27.638  -2.354   3.035
    1XTA    HL6 7679  27.484  -2.180   3.056
    1XTA    HL7 7680  27.351  -2.284   3.119
    1XTA    HL8 7681  27.336  -2.435   2.924
    1XTA    HL9 7682  27.466  -2.346   2.842
    1XTA   HL10 7683  27.181  -2.231   2.907
    1XTA   HL11 7684  27.319  -2.125   2.850
    1XTA   HL12 7685  27.160  -2.246   2.662
    1XTA   HL13 7686  27.244  -2.392   2.679
    1XTA   HL14 7687  27.401  -2.130   2.629
    1XTA   HL15 7688  27.444  -2.293   2.605
    1XTA   HL16 7689  27.512  -2.164   2.418
    1XTA   HL17 7690  27.420  -2.213   2.295
    1XTA   HL18 7691  27.579  -1.979   2.258
    1XTA   HL19 7692  27.480  -1.848   2.228
    1XTA   HL20 7693  27.357  -1.996   2.068
    1XTA   HL21 7694  27.465  -2.126   2.106
    1XTA   HL22 7695  27.540  -1.985   2.040
    1XTA   HL23 7696  27.497  -3.196   2.520
    1XTA   HL24 7697  27.466  -3.362   2.526
    1XTA   HL25 7698  27.732  -3.276   2.448
    1XTA   HL26 7699  27.662  -3.443   2.454
    1XTA   HL27 7700  27.523  -3.385   2.251
    1XTA   HL28 7701  27.553  -3.222   2.263
    1XTA   HL29 7702  27.764  -3.431   2.225
    1XTA   HL30 7703  27.675  -3.357   2.087
    1XTA   HL31 7704  27.789  -3.184   2.071
    1XTA   HL32 7705  27.821  -3.152   2.244
    1XTA   HL33 7706  27.990  -3.331   2.258
    1XTA   HL34 7707  27.973  -3.347   2.086
    1XTA   HL35 7708  27.964  -3.106   1.968
    1XTA   HL36 7709  28.108  -3.211   1.950
    1XTA   HL37 7710  28.306  -3.166   2.096
    1XTA   HL38 7711  28.234  -3.056   2.212
    1XTA   HL39 7712  28.470  -3.003   2.195
    1XTA   HL40 7713  28.375  -2.879   2.128
    1XTA   HL41 7714  28.461  -2.986   2.025
    1XTA    CO8 7715  27.409  -1.931   2.475
    1XTA    CO9 7716  27.237  -1.987   2.308
    1XTA    OA6 7717  27.380  -1.798   2.437
    1XTA   HL42 7718  27.514  -1.929   2.510
    1XTA   HL43 7719  27.342  -1.953   2.562
    1XTA   HL44 7720  28.060  -2.938   2.182
    1XTA   HL45 7721  28.157  -2.811   2.099
    1XTA   CO10 7722  28.099  -2.906   2.083
    1XTA   CO11 7723  28.219  -2.965   1.875
    1XTA    OA7 7724  27.989  -2.866   2.005
    1XTA   HL46 7725  28.139  -2.904   1.825
    1XTA   HL47 7726  28.299  -2.896   1.887
    1XTA   HL48 7727  27.228  -1.891   2.261
    1XTA   HL49 7728  27.212  -2.045   2.226
    1XTA     NT 7729  27.428   2.856   3.821
    1XTA    CN1 7730  27.299   2.820   3.817
    1XTA     C1 7731  27.203   2.876   3.911
    1XTA     C2 7732  27.064   2.844   3.890
    1XTA     C3 7733  27.018   2.766   3.781
    1XTA     C4 7734  27.116   2.710   3.695
    1XTA     C5 7735  27.257   2.735   3.712
    1XTA    CN2 7736  27.467   2.984   3.804
    1XTA     C6 7737  27.505   3.059   3.917
    1XTA     C7 7738  27.538   3.193   3.911
    1XTA     C8 7739  27.523   3.263   3.783
    1XTA     C9 7740  27.493   3.188   3.672
    1XTA    C10 7741  27.458   3.052   3.678
    1XTA    CN3 7742  27.520   2.768   3.863
    1XTA    C11 7743  27.497   2.696   3.982
    1XTA    C12 7744  27.593   2.610   4.037
    1XTA    C13 7745  27.716   2.600   3.976
    1XTA    C14 7746  27.752   2.676   3.863
    1XTA    C15 7747  27.648   2.752   3.804
    1XTA     H1 7748  27.234   2.948   3.984
    1XTA     H2 7749  26.984   2.890   3.947
    1XTA     H3 7750  27.092   2.662   3.601
    1XTA     H4 7751  27.318   2.680   3.653
    1XTA     H5 7752  27.512   3.017   4.016
    1XTA     H6 7753  27.573   3.245   3.995
    1XTA     H7 7754  27.489   3.248   3.582
    1XTA     H8 7755  27.428   2.999   3.585
    1XTA     H9 7756  27.400   2.696   4.027
    1XTA    H10 7757  27.557   2.544   4.119
    1XTA    H11 7758  27.842   2.659   3.812
    1XTA    H12 7759  27.664   2.812   3.714
    1XTA    OA1 7760  26.883   2.757   3.750
    1XTA    CO1 7761  26.777   2.824   3.821
    1XTA    OA2 7762  27.548   3.398   3.769
    1XTA    CO2 7763  27.493   3.472   3.875
    1XTA    CL1 7764  27.501   3.624   3.848
    1XTA    CL2 7765  27.641   3.668   3.820
    1XTA    CL3 7766  27.646   3.823   3.794
    1XTA    CL4 7767  27.570   3.866   3.669
    1XTA    CO3 7768  27.642   3.827   3.537
    1XTA    OA3 7769  27.567   3.897   3.432
    1XTA    CO4 7770  27.650   3.884   3.313
    1XTA    CT1 7771  27.573   3.927   3.182
    1XTA    CL5 7772  27.475   3.817   3.148
    1XTA    CL6 7773  27.358   3.816   3.248
    1XTA    OA4 7774  27.798   2.501   4.032
    1XTA    CO5 7775  27.879   2.423   3.949
    1XTA    CL7 7776  27.808   2.376   3.816
    1XTA    CL8 7777  27.674   2.306   3.852
    1XTA    CL9 7778  27.589   2.282   3.719
    1XTA   CL10 7779  27.548   2.409   3.647
    1XTA    CO6 7780  27.483   2.385   3.518
    1XTA    OA5 7781  27.416   2.500   3.475
    1XTA    CO7 7782  27.509   2.595   3.426
    1XTA    CT2 7783  27.449   2.696   3.319
    1XTA   CL11 7784  27.366   2.619   3.206
    1XTA   CL12 7785  27.224   2.579   3.246
    1XTA    HL1 7786  26.681   2.805   3.783
    1XTA    HL2 7787  26.781   2.786   3.919
    1XTA    HL3 7788  26.784   2.933   3.830
    1XTA    HL4 7789  27.396   3.450   3.901
    1XTA    HL5 7790  27.552   3.458   3.963
    1XTA    HL6 7791  27.467   3.671   3.940
    1XTA    HL7 7792  27.433   3.639   3.759
    1XTA    HL8 7793  27.672   3.610   3.731
    1XTA    HL9 7794  27.704   3.637   3.904
    1XTA   HL10 7795  27.606   3.859   3.883
    1XTA   HL11 7796  27.749   3.859   3.793
    1XTA   HL12 7797  27.531   3.971   3.666
    1XTA   HL13 7798  27.489   3.799   3.670
    1XTA   HL14 7799  27.737   3.870   3.523
    1XTA   HL15 7800  27.645   3.719   3.522
    1XTA   HL16 7801  27.739   3.942   3.324
    1XTA   HL17 7802  27.687   3.785   3.290
    1XTA   HL18 7803  27.528   3.718   3.133
    1XTA   HL19 7804  27.428   3.848   3.052
    1XTA   HL20 7805  27.385   3.775   3.340
    1XTA   HL21 7806  27.276   3.748   3.214
    1XTA   HL22 7807  27.314   3.917   3.265
    1XTA   HL23 7808  27.927   2.340   4.009
    1XTA   HL24 7809  27.964   2.494   3.930
    1XTA   HL25 7810  27.797   2.450   3.738
    1XTA   HL26 7811  27.886   2.312   3.772
    1XTA   HL27 7812  27.683   2.198   3.884
    1XTA   HL28 7813  27.618   2.359   3.928
    1XTA   HL29 7814  27.642   2.211   3.659
    1XTA   HL30 7815  27.496   2.232   3.756
    1XTA   HL31 7816  27.492   2.480   3.710
    1XTA   HL32 7817  27.635   2.466   3.631
    1XTA   HL33 7818  27.537   2.330   3.446
    1XTA   HL34 7819  27.403   2.321   3.549
    1XTA   HL35 7820  27.589   2.554   3.371
    1XTA   HL36 7821  27.556   2.653   3.504
    1XTA   HL37 7822  27.416   2.528   3.177
    1XTA   HL38 7823  27.363   2.683   3.121
    1XTA   HL39 7824  27.185   2.515   3.172
    1XTA   HL40 7825  27.156   2.665   3.261
    1XTA   HL41 7826  27.230   2.529   3.337
    1XTA    CO8 7827  27.683   3.941   3.071
    1XTA    CO9 7828  27.514   4.065   3.194
    1XTA    OA6 7829  27.723   3.842   3.046
    1XTA   HL42 7830  27.773   4.001   3.106
    1XTA   HL43 7831  27.643   3.992   2.986
    1XTA   HL44 7832  27.620   2.690   3.208
    1XTA   HL45 7833  27.523   2.832   3.169
    1XTA   CO10 7834  27.561   2.772   3.252
    1XTA   CO11 7835  27.361   2.813   3.375
    1XTA    OA7 7836  27.629   2.817   3.329
    1XTA   HL46 7837  27.258   2.752   3.455
    1XTA   HL47 7838  27.429   2.874   3.440
    1XTA   HL48 7839  27.437   4.108   3.086
    1XTA   HL49 7840  27.443   4.057   3.278
    1XTA     NT 7841  26.885  -3.276   4.443
    1XTA    CN1 7842  26.926  -3.399   4.411
    1XTA     C1 7843  26.852  -3.522   4.433
    1XTA     C2 7844  26.894  -3.645   4.375
    1XTA     C3 7845  27.024  -3.659   4.324
    1XTA     C4 7846  27.107  -3.548   4.329
    1XTA     C5 7847  27.059  -3.421   4.367
    1XTA    CN2 7848  26.940  -3.208   4.544
    1XTA     C6 7849  27.057  -3.128   4.528
    1XTA     C7 7850  27.110  -3.052   4.637
    1XTA     C8 7851  27.040  -3.043   4.754
    1XTA     C9 7852  26.923  -3.114   4.773
    1XTA    C10 7853  26.878  -3.203   4.670
    1XTA    CN3 7854  26.822  -3.208   4.343
    1XTA    C11 7855  26.886  -3.156   4.228
    1XTA    C12 7856  26.815  -3.082   4.139
    1XTA    C13 7857  26.678  -3.068   4.142
    1XTA    C14 7858  26.608  -3.121   4.249
    1XTA    C15 7859  26.679  -3.195   4.350
    1XTA     H1 7860  26.754  -3.508   4.471
    1XTA     H2 7861  26.820  -3.728   4.364
    1XTA     H3 7862  27.204  -3.554   4.300
    1XTA     H4 7863  27.122  -3.336   4.358
    1XTA     H5 7864  27.113  -3.117   4.441
    1XTA     H6 7865  27.199  -2.977   4.614
    1XTA     H7 7866  26.866  -3.098   4.862
    1XTA     H8 7867  26.799  -3.267   4.691
    1XTA     H9 7868  26.989  -3.172   4.211
    1XTA    H10 7869  26.874  -3.053   4.060
    1XTA    H11 7870  26.495  -3.120   4.249
    1XTA    H12 7871  26.628  -3.242   4.442
    1XTA    OA1 7872  27.061  -3.770   4.250
    1XTA    CO1 7873  27.177  -3.756   4.166
    1XTA    OA2 7874  27.072  -2.951   4.848
    1XTA    CO2 7875  27.134  -2.828   4.803
    1XTA    CL1 7876  27.159  -2.741   4.931
    1XTA    CL2 7877  27.255  -2.631   4.912
    1XTA    CL3 7878  27.296  -2.560   5.041
    1XTA    CL4 7879  27.405  -2.449   5.024
    1XTA    CO3 7880  27.540  -2.506   5.014
    1XTA    OA3 7881  27.582  -2.561   5.134
    1XTA    CO4 7882  27.690  -2.643   5.107
    1XTA    CT1 7883  27.691  -2.765   5.201
    1XTA    CL5 7884  27.802  -2.851   5.138
    1XTA    CL6 7885  27.760  -2.998   5.137
    1XTA    OA4 7886  26.602  -2.995   4.051
    1XTA    CO5 7887  26.663  -2.882   3.976
    1XTA    CL7 7888  26.716  -2.905   3.838
    1XTA    CL8 7889  26.817  -2.798   3.778
    1XTA    CL9 7890  26.951  -2.781   3.857
    1XTA   CL10 7891  27.057  -2.700   3.788
    1XTA    CO6 7892  27.062  -2.553   3.820
    1XTA    OA5 7893  26.938  -2.491   3.820
    1XTA    CO7 7894  26.949  -2.357   3.777
    1XTA    CT2 7895  26.807  -2.326   3.706
    1XTA   CL11 7896  26.807  -2.172   3.667
    1XTA   CL12 7897  26.899  -2.146   3.541
    1XTA    HL1 7898  27.158  -3.681   4.079
    1XTA    HL2 7899  27.263  -3.737   4.233
    1XTA    HL3 7900  27.189  -3.850   4.111
    1XTA    HL4 7901  27.237  -2.839   4.761
    1XTA    HL5 7902  27.084  -2.774   4.720
    1XTA    HL6 7903  27.194  -2.808   5.010
    1XTA    HL7 7904  27.061  -2.708   4.964
    1XTA    HL8 7905  27.228  -2.556   4.838
    1XTA    HL9 7906  27.338  -2.669   4.855
    1XTA   HL10 7907  27.207  -2.507   5.075
    1XTA   HL11 7908  27.315  -2.631   5.123
    1XTA   HL12 7909  27.403  -2.382   5.111
    1XTA   HL13 7910  27.386  -2.369   4.947
    1XTA   HL14 7911  27.541  -2.585   4.935
    1XTA   HL15 7912  27.613  -2.433   4.973
    1XTA   HL16 7913  27.701  -2.676   5.004
    1XTA   HL17 7914  27.783  -2.575   5.125
    1XTA   HL18 7915  27.897  -2.831   5.191
    1XTA   HL19 7916  27.829  -2.827   5.038
    1XTA   HL20 7917  27.835  -3.062   5.091
    1XTA   HL21 7918  27.673  -3.006   5.065
    1XTA   HL22 7919  27.721  -3.038   5.224
    1XTA   HL23 7920  26.739  -2.837   4.045
    1XTA   HL24 7921  26.593  -2.799   3.970
    1XTA   HL25 7922  26.778  -2.996   3.854
    1XTA   HL26 7923  26.641  -2.935   3.775
    1XTA   HL27 7924  26.836  -2.806   3.668
    1XTA   HL28 7925  26.765  -2.704   3.787
    1XTA   HL29 7926  26.938  -2.728   3.956
    1XTA   HL30 7927  27.008  -2.879   3.881
    1XTA   HL31 7928  27.163  -2.741   3.806
    1XTA   HL32 7929  27.043  -2.706   3.681
    1XTA   HL33 7930  27.106  -2.536   3.922
    1XTA   HL34 7931  27.138  -2.512   3.760
    1XTA   HL35 7932  27.036  -2.345   3.710
    1XTA   HL36 7933  26.961  -2.284   3.863
    1XTA   HL37 7934  26.834  -2.114   3.759
    1XTA   HL38 7935  26.711  -2.133   3.644
    1XTA   HL39 7936  26.875  -2.214   3.456
    1XTA   HL40 7937  27.002  -2.171   3.568
    1XTA   HL41 7938  26.900  -2.045   3.499
    1XTA    CO8 7939  27.551  -2.824   5.232
    1XTA    CO9 7940  27.747  -2.713   5.339
    1XTA    OA6 7941  27.542  -2.889   5.320
    1XTA   HL42 7942  27.522  -2.873   5.140
    1XTA   HL43 7943  27.487  -2.742   5.256
    1XTA   HL44 7944  26.601  -2.343   3.765
    1XTA   HL45 7945  26.706  -2.460   3.853
    1XTA   CO10 7946  26.693  -2.356   3.811
    1XTA   CO11 7947  26.790  -2.422   3.587
    1XTA    OA7 7948  26.690  -2.278   3.896
    1XTA   HL46 7949  26.882  -2.411   3.480
    1XTA   HL47 7950  26.786  -2.525   3.623
    1XTA   HL48 7951  27.648  -2.628   5.403
    1XTA   HL49 7952  27.747  -2.801   5.401
    1XTA     NT 7953  26.138  -0.794   4.083
    1XTA    CN1 7954  26.149  -0.714   3.970
    1XTA     C1 7955  26.051  -0.624   3.942
    1XTA     C2 7956  26.063  -0.534   3.837
    1XTA     C3 7957  26.181  -0.535   3.757
    1XTA     C4 7958  26.288  -0.619   3.791
    1XTA     C5 7959  26.269  -0.709   3.898
    1XTA    CN2 7960  26.181  -0.738   4.203
    1XTA     C6 7961  26.316  -0.740   4.235
    1XTA     C7 7962  26.357  -0.710   4.364
    1XTA     C8 7963  26.268  -0.656   4.453
    1XTA     C9 7964  26.133  -0.648   4.419
    1XTA    C10 7965  26.086  -0.682   4.291
    1XTA    CN3 7966  26.071  -0.909   4.082
    1XTA    C11 7967  25.934  -0.917   4.068
    1XTA    C12 7968  25.865  -1.035   4.094
    1XTA    C13 7969  25.939  -1.152   4.121
    1XTA    C14 7970  26.077  -1.154   4.130
    1XTA    C15 7971  26.141  -1.030   4.113
    1XTA     H1 7972  25.963  -0.640   4.002
    1XTA     H2 7973  25.983  -0.462   3.815
    1XTA     H3 7974  26.375  -0.609   3.735
    1XTA     H4 7975  26.344  -0.785   3.932
    1XTA     H5 7976  26.394  -0.782   4.171
    1XTA     H6 7977  26.461  -0.722   4.389
    1XTA     H7 7978  26.063  -0.609   4.487
    1XTA     H8 7979  25.984  -0.690   4.259
    1XTA     H9 7980  25.887  -0.825   4.038
    1XTA    H10 7981  25.761  -1.031   4.071
    1XTA    H11 7982  26.130  -1.234   4.170
    1XTA    H12 7983  26.240  -1.017   4.140
    1XTA    OA1 7984  26.185  -0.445   3.656
    1XTA    CO1 7985  26.296  -0.357   3.659
    1XTA    OA2 7986  26.295  -0.632   4.585
    1XTA    CO2 7987  26.433  -0.593   4.607
    1XTA    CL1 7988  26.511  -0.710   4.675
    1XTA    CL2 7989  26.665  -0.668   4.679
    1XTA    CL3 7990  26.753  -0.763   4.752
    1XTA    CL4 7991  26.756  -0.903   4.685
    1XTA    CO3 7992  26.852  -0.982   4.767
    1XTA    OA3 7993  26.888  -1.102   4.694
    1XTA    CO4 7994  26.995  -1.171   4.753
    1XTA    CT1 7995  27.023  -1.302   4.674
    1XTA    CL5 7996  27.161  -1.350   4.717
    1XTA    CL6 7997  27.278  -1.272   4.650
    1XTA    OA4 7998  25.863  -1.262   4.117
    1XTA    CO5 7999  25.916  -1.395   4.105
    1XTA    CL7 8000  25.793  -1.487   4.134
    1XTA    CL8 8001  25.820  -1.638   4.145
    1XTA    CL9 8002  25.724  -1.718   4.229
    1XTA   CL10 8003  25.753  -1.871   4.223
    1XTA    CO6 8004  25.655  -1.957   4.306
    1XTA    OA5 8005  25.522  -1.913   4.301
    1XTA    CO7 8006  25.447  -1.945   4.415
    1XTA    CT2 8007  25.321  -1.867   4.414
    1XTA   CL11 8008  25.232  -1.895   4.539
    1XTA   CL12 8009  25.116  -1.794   4.564
    1XTA    HL1 8010  26.296  -0.306   3.754
    1XTA    HL2 8011  26.387  -0.414   3.641
    1XTA    HL3 8012  26.294  -0.278   3.582
    1XTA    HL4 8013  26.492  -0.563   4.516
    1XTA    HL5 8014  26.439  -0.520   4.680
    1XTA    HL6 8015  26.498  -0.803   4.626
    1XTA    HL7 8016  26.485  -0.727   4.785
    1XTA    HL8 8017  26.663  -0.581   4.734
    1XTA    HL9 8018  26.706  -0.645   4.582
    1XTA   HL10 8019  26.856  -0.734   4.766
    1XTA   HL11 8020  26.718  -0.771   4.860
    1XTA   HL12 8021  26.786  -0.887   4.580
    1XTA   HL13 8022  26.657  -0.954   4.692
    1XTA   HL14 8023  26.945  -0.922   4.775
    1XTA   HL15 8024  26.805  -0.999   4.864
    1XTA   HL16 8025  27.077  -1.107   4.738
    1XTA   HL17 8026  26.973  -1.191   4.858
    1XTA   HL18 8027  27.175  -1.459   4.688
    1XTA   HL19 8028  27.166  -1.360   4.818
    1XTA   HL20 8029  27.280  -1.288   4.542
    1XTA   HL21 8030  27.372  -1.302   4.688
    1XTA   HL22 8031  27.273  -1.165   4.651
    1XTA   HL23 8032  25.976  -1.414   4.197
    1XTA   HL24 8033  25.978  -1.415   4.021
    1XTA   HL25 8034  25.732  -1.454   4.228
    1XTA   HL26 8035  25.734  -1.474   4.045
    1XTA   HL27 8036  25.816  -1.677   4.041
    1XTA   HL28 8037  25.923  -1.644   4.187
    1XTA   HL29 8038  25.723  -1.675   4.326
    1XTA   HL30 8039  25.618  -1.702   4.205
    1XTA   HL31 8040  25.741  -1.915   4.125
    1XTA   HL32 8041  25.855  -1.885   4.253
    1XTA   HL33 8042  25.658  -2.062   4.276
    1XTA   HL34 8043  25.692  -1.973   4.404
    1XTA   HL35 8044  25.505  -1.923   4.502
    1XTA   HL36 8045  25.434  -2.052   4.413
    1XTA   HL37 8046  25.296  -1.894   4.622
    1XTA   HL38 8047  25.196  -1.996   4.542
    1XTA   HL39 8048  25.061  -1.832   4.650
    1XTA   HL40 8049  25.042  -1.783   4.485
    1XTA   HL41 8050  25.155  -1.705   4.598
    1XTA    CO8 8051  27.006  -1.270   4.524
    1XTA    CO9 8052  26.919  -1.406   4.711
    1XTA    OA6 8053  27.031  -1.379   4.435
    1XTA   HL42 8054  27.073  -1.185   4.504
    1XTA   HL43 8055  26.919  -1.214   4.489
    1XTA   HL44 8056  25.147  -1.852   4.296
    1XTA   HL45 8057  25.294  -1.875   4.205
    1XTA   CO10 8058  25.239  -1.905   4.291
    1XTA   CO11 8059  25.350  -1.713   4.408
    1XTA    OA7 8060  25.209  -2.045   4.293
    1XTA   HL46 8061  25.403  -1.691   4.313
    1XTA   HL47 8062  25.266  -1.651   4.426
    1XTA   HL48 8063  26.823  -1.363   4.680
    1XTA   HL49 8064  26.929  -1.498   4.651
    1XTA     NT 8065  26.134  -1.290   5.956
    1XTA    CN1 8066  26.219  -1.392   5.976
    1XTA     C1 8067  26.263  -1.414   6.109
    1XTA     C2 8068  26.375  -1.482   6.145
    1XTA     C3 8069  26.442  -1.564   6.051
    1XTA     C4 8070  26.393  -1.562   5.916
    1XTA     C5 8071  26.287  -1.470   5.880
    1XTA    CN2 8072  26.173  -1.164   5.979
    1XTA     C6 8073  26.154  -1.113   6.109
    1XTA     C7 8074  26.189  -0.979   6.143
    1XTA     C8 8075  26.248  -0.900   6.049
    1XTA     C9 8076  26.255  -0.947   5.918
    1XTA    C10 8077  26.214  -1.076   5.881
    1XTA    CN3 8078  26.019  -1.310   5.902
    1XTA    C11 8079  26.004  -1.325   5.763
    1XTA    C12 8080  25.881  -1.339   5.696
    1XTA    C13 8081  25.762  -1.337   5.766
    1XTA    C14 8082  25.774  -1.319   5.905
    1XTA    C15 8083  25.900  -1.308   5.972
    1XTA     H1 8084  26.205  -1.369   6.182
    1XTA     H2 8085  26.404  -1.474   6.249
    1XTA     H3 8086  26.436  -1.614   5.832
    1XTA     H4 8087  26.264  -1.463   5.774
    1XTA     H5 8088  26.118  -1.174   6.189
    1XTA     H6 8089  26.171  -0.956   6.246
    1XTA     H7 8090  26.295  -0.884   5.833
    1XTA     H8 8091  26.222  -1.088   5.776
    1XTA     H9 8092  26.092  -1.327   5.702
    1XTA    H10 8093  25.883  -1.343   5.589
    1XTA    H11 8094  25.688  -1.305   5.967
    1XTA    H12 8095  25.915  -1.303   6.085
    1XTA    OA1 8096  26.540  -1.643   6.101
    1XTA    CO1 8097  26.609  -1.731   6.009
    1XTA    OA2 8098  26.308  -0.776   6.071
    1XTA    CO2 8099  26.264  -0.707   6.183
    1XTA    CL1 8100  26.268  -0.552   6.148
    1XTA    CL2 8101  26.242  -0.474   6.281
    1XTA    CL3 8102  26.097  -0.439   6.293
    1XTA    CL4 8103  26.070  -0.361   6.426
    1XTA    CO3 8104  25.924  -0.317   6.429
    1XTA    OA3 8105  25.891  -0.249   6.551
    1XTA    CO4 8106  25.853  -0.332   6.658
    1XTA    CT1 8107  25.842  -0.254   6.794
    1XTA    CL5 8108  25.721  -0.319   6.863
    1XTA    CL6 8109  25.692  -0.267   7.009
    1XTA    OA4 8110  25.636  -1.356   5.711
    1XTA    CO5 8111  25.601  -1.292   5.587
    1XTA    CL7 8112  25.584  -1.141   5.597
    1XTA    CL8 8113  25.558  -1.074   5.460
    1XTA    CL9 8114  25.682  -1.082   5.383
    1XTA   CL10 8115  25.679  -0.997   5.251
    1XTA    CO6 8116  25.782  -1.022   5.148
    1XTA    OA5 8117  25.770  -1.155   5.095
    1XTA    CO7 8118  25.879  -1.199   5.007
    1XTA    CT2 8119  25.857  -1.344   4.944
    1XTA   CL11 8120  25.824  -1.429   5.079
    1XTA   CL12 8121  25.912  -1.404   5.194
    1XTA    HL1 8122  26.547  -1.809   5.970
    1XTA    HL2 8123  26.649  -1.670   5.928
    1XTA    HL3 8124  26.692  -1.785   6.059
    1XTA    HL4 8125  26.169  -0.740   6.226
    1XTA    HL5 8126  26.333  -0.728   6.260
    1XTA    HL6 8127  26.204  -0.518   6.066
    1XTA    HL7 8128  26.371  -0.534   6.107
    1XTA    HL8 8129  26.307  -0.392   6.295
    1XTA    HL9 8130  26.273  -0.532   6.362
    1XTA   HL10 8131  26.072  -0.368   6.225
    1XTA   HL11 8132  26.037  -0.527   6.276
    1XTA   HL12 8133  26.134  -0.273   6.435
    1XTA   HL13 8134  26.095  -0.425   6.508
    1XTA   HL14 8135  25.901  -0.253   6.345
    1XTA   HL15 8136  25.871  -0.415   6.427
    1XTA   HL16 8137  25.758  -0.386   6.641
    1XTA   HL17 8138  25.928  -0.407   6.670
    1XTA   HL18 8139  25.746  -0.425   6.860
    1XTA   HL19 8140  25.630  -0.300   6.798
    1XTA   HL20 8141  25.590  -0.294   7.044
    1XTA   HL21 8142  25.699  -0.157   7.014
    1XTA   HL22 8143  25.755  -0.303   7.088
    1XTA   HL23 8144  25.504  -1.311   5.547
    1XTA   HL24 8145  25.674  -1.303   5.511
    1XTA   HL25 8146  25.507  -1.125   5.665
    1XTA   HL26 8147  25.684  -1.105   5.634
    1XTA   HL27 8148  25.476  -1.122   5.410
    1XTA   HL28 8149  25.538  -0.966   5.467
    1XTA   HL29 8150  25.765  -1.036   5.440
    1XTA   HL30 8151  25.716  -1.189   5.360
    1XTA   HL31 8152  25.582  -1.029   5.205
    1XTA   HL32 8153  25.668  -0.887   5.278
    1XTA   HL33 8154  25.763  -0.961   5.057
    1XTA   HL34 8155  25.887  -0.994   5.169
    1XTA   HL35 8156  25.963  -1.197   5.074
    1XTA   HL36 8157  25.886  -1.118   4.939
    1XTA   HL37 8158  25.829  -1.535   5.050
    1XTA   HL38 8159  25.717  -1.401   5.106
    1XTA   HL39 8160  26.015  -1.418   5.162
    1XTA   HL40 8161  25.891  -1.487   5.257
    1XTA   HL41 8162  25.899  -1.312   5.250
    1XTA    CO8 8163  25.823  -0.104   6.761
    1XTA    CO9 8164  25.974  -0.262   6.875
    1XTA    OA6 8165  25.977  -0.380   6.949
    1XTA   HL42 8166  25.886  -0.068   6.690
    1XTA   HL43 8167  25.853  -0.056   6.852
    1XTA   HL44 8168  25.980  -1.473   4.820
    1XTA   HL45 8169  26.079  -1.389   4.932
    1XTA   CO10 8170  25.987  -1.375   4.873
    1XTA   CO11 8171  25.741  -1.340   4.843
    1XTA    OA7 8172  25.729  -1.476   4.797
    1XTA   HL46 8173  25.645  -1.301   4.886
    1XTA   HL47 8174  25.760  -1.270   4.765
    1XTA   HL48 8175  26.002  -0.180   6.933
    1XTA   HL49 8176  26.050  -0.265   6.800
    1XTA     NT 8177  31.051  -0.915   2.282
    1XTA    CN1 8178  31.015  -0.926   2.148
    1XTA     C1 8179  30.924  -0.838   2.087
    1XTA     C2 8180  30.887  -0.857   1.956
    1XTA     C3 8181  30.944  -0.961   1.888
    1XTA     C4 8182  31.034  -1.049   1.949
    1XTA     C5 8183  31.084  -1.026   2.077
    1XTA    CN2 8184  31.001  -1.002   2.364
    1XTA     C6 8185  31.087  -1.065   2.452
    1XTA     C7 8186  31.038  -1.151   2.548
    1XTA     C8 8187  30.902  -1.178   2.563
    1XTA     C9 8188  30.820  -1.132   2.460
    1XTA    C10 8189  30.863  -1.031   2.369
    1XTA    CN3 8190  31.123  -0.810   2.320
    1XTA    C11 8191  31.265  -0.802   2.289
    1XTA    C12 8192  31.351  -0.697   2.325
    1XTA    C13 8193  31.292  -0.595   2.401
    1XTA    C14 8194  31.154  -0.595   2.423
    1XTA    C15 8195  31.067  -0.701   2.391
    1XTA     H1 8196  30.878  -0.762   2.148
    1XTA     H2 8197  30.816  -0.791   1.910
    1XTA     H3 8198  31.074  -1.131   1.891
    1XTA     H4 8199  31.161  -1.086   2.118
    1XTA     H5 8200  31.191  -1.051   2.454
    1XTA     H6 8201  31.111  -1.195   2.612
    1XTA     H7 8202  30.720  -1.172   2.463
    1XTA     H8 8203  30.803  -0.974   2.298
    1XTA     H9 8204  31.306  -0.886   2.241
    1XTA    H10 8205  31.457  -0.710   2.297
    1XTA    H11 8206  31.129  -0.503   2.479
    1XTA    H12 8207  30.961  -0.693   2.415
    1XTA    OA1 8208  30.925  -0.982   1.748
    1XTA    CO1 8209  30.847  -0.885   1.674
    1XTA    OA2 8210  30.852  -1.271   2.658
    1XTA    CO2 8211  30.860  -1.230   2.795
    1XTA    CL1 8212  30.732  -1.147   2.845
    1XTA    CL2 8213  30.755  -1.081   2.982
    1XTA    CL3 8214  30.630  -1.002   3.019
    1XTA    CL4 8215  30.626  -0.864   2.947
    1XTA    CO3 8216  30.495  -0.791   2.959
    1XTA    OA3 8217  30.409  -0.864   2.882
    1XTA    CO4 8218  30.274  -0.839   2.904
    1XTA    CT1 8219  30.195  -0.902   2.791
    1XTA    CL5 8220  30.045  -0.891   2.818
    1XTA    CL6 8221  29.985  -0.970   2.930
    1XTA    OA4 8222  31.361  -0.489   2.450
    1XTA    CO5 8223  31.498  -0.479   2.434
    1XTA    CL7 8224  31.563  -0.351   2.497
    1XTA    CL8 8225  31.712  -0.349   2.458
    1XTA    CL9 8226  31.731  -0.283   2.319
    1XTA   CL10 8227  31.873  -0.293   2.269
    1XTA    CO6 8228  31.909  -0.433   2.217
    1XTA    OA5 8229  32.031  -0.422   2.135
    1XTA    CO7 8230  32.008  -0.377   1.996
    1XTA    CT2 8231  32.137  -0.355   1.916
    1XTA   CL11 8232  32.247  -0.271   1.980
    1XTA   CL12 8233  32.203  -0.138   2.028
    1XTA    HL1 8234  30.847  -0.908   1.571
    1XTA    HL2 8235  30.752  -0.891   1.727
    1XTA    HL3 8236  30.887  -0.785   1.681
    1XTA    HL4 8237  30.865  -1.316   2.859
    1XTA    HL5 8238  30.954  -1.178   2.813
    1XTA    HL6 8239  30.640  -1.199   2.851
    1XTA    HL7 8240  30.727  -1.070   2.765
    1XTA    HL8 8241  30.839  -1.011   2.995
    1XTA    HL9 8242  30.788  -1.166   3.044
    1XTA   HL10 8243  30.539  -1.057   3.001
    1XTA   HL11 8244  30.622  -0.979   3.119
    1XTA   HL12 8245  30.651  -0.877   2.846
    1XTA   HL13 8246  30.699  -0.790   2.986
    1XTA   HL14 8247  30.453  -0.762   3.054
    1XTA   HL15 8248  30.493  -0.690   2.910
    1XTA   HL16 8249  30.243  -0.879   3.002
    1XTA   HL17 8250  30.245  -0.733   2.897
    1XTA   HL18 8251  29.990  -0.921   2.733
    1XTA   HL19 8252  30.006  -0.787   2.833
    1XTA   HL20 8253  30.021  -0.934   3.025
    1XTA   HL21 8254  30.006  -1.078   2.923
    1XTA   HL22 8255  29.878  -0.950   2.932
    1XTA   HL23 8256  31.511  -0.468   2.329
    1XTA   HL24 8257  31.552  -0.567   2.462
    1XTA   HL25 8258  31.505  -0.261   2.462
    1XTA   HL26 8259  31.560  -0.346   2.602
    1XTA   HL27 8260  31.774  -0.300   2.532
    1XTA   HL28 8261  31.737  -0.448   2.459
    1XTA   HL29 8262  31.660  -0.309   2.247
    1XTA   HL30 8263  31.718  -0.178   2.330
    1XTA   HL31 8264  31.892  -0.224   2.192
    1XTA   HL32 8265  31.940  -0.254   2.349
    1XTA   HL33 8266  31.926  -0.495   2.299
    1XTA   HL34 8267  31.825  -0.476   2.166
    1XTA   HL35 8268  31.947  -0.289   2.013
    1XTA   HL36 8269  31.946  -0.449   1.948
    1XTA   HL37 8270  32.321  -0.249   1.903
    1XTA   HL38 8271  32.290  -0.320   2.073
    1XTA   HL39 8272  32.276  -0.078   2.087
    1XTA   HL40 8273  32.117  -0.162   2.090
    1XTA   HL41 8274  32.158  -0.076   1.946
    1XTA    CO8 8275  30.232  -1.051   2.783
    1XTA    CO9 8276  30.230  -0.830   2.654
    1XTA    OA6 8277  30.184  -1.109   2.705
    1XTA   HL42 8278  30.204  -1.082   2.882
    1XTA   HL43 8279  30.340  -1.053   2.777
    1XTA   HL44 8280  32.003  -0.354   1.709
    1XTA   HL45 8281  32.037  -0.182   1.812
    1XTA   CO10 8282  32.099  -0.273   1.783
    1XTA   CO11 8283  32.193  -0.486   1.876
    1XTA    OA7 8284  32.134  -0.542   1.801
    1XTA   HL46 8285  32.295  -0.493   1.849
    1XTA   HL47 8286  32.194  -0.541   1.968
    1XTA   HL48 8287  30.142  -0.875   2.553
    1XTA   HL49 8288  30.193  -0.735   2.674
    1XTA     NT 8289  25.268  -0.902   5.882
    1XTA    CN1 8290  25.173  -0.855   5.970
    1XTA     C1 8291  25.175  -0.901   6.101
    1XTA     C2 8292  25.088  -0.856   6.200
    1XTA     C3 8293  24.995  -0.754   6.166
    1XTA     C4 8294  24.998  -0.698   6.030
    1XTA     C5 8295  25.085  -0.755   5.933
    1XTA    CN2 8296  25.230  -0.961   5.768
    1XTA     C6 8297  25.194  -1.098   5.749
    1XTA     C7 8298  25.175  -1.155   5.624
    1XTA     C8 8299  25.175  -1.072   5.509
    1XTA     C9 8300  25.205  -0.939   5.525
    1XTA    C10 8301  25.234  -0.883   5.652
    1XTA    CN3 8302  25.398  -0.907   5.927
    1XTA    C11 8303  25.463  -0.790   5.972
    1XTA    C12 8304  25.601  -0.780   5.999
    1XTA    C13 8305  25.677  -0.896   5.963
    1XTA    C14 8306  25.613  -1.018   5.923
    1XTA    C15 8307  25.474  -1.022   5.904
    1XTA     H1 8308  25.254  -0.969   6.133
    1XTA     H2 8309  25.086  -0.907   6.295
    1XTA     H3 8310  24.915  -0.635   5.999
    1XTA     H4 8311  25.089  -0.718   5.832
    1XTA     H5 8312  25.187  -1.166   5.827
    1XTA     H6 8313  25.147  -1.257   5.611
    1XTA     H7 8314  25.210  -0.875   5.440
    1XTA     H8 8315  25.259  -0.779   5.657
    1XTA     H9 8316  25.402  -0.707   5.976
    1XTA    H10 8317  25.654  -0.705   6.056
    1XTA    H11 8318  25.682  -1.103   5.908
    1XTA    H12 8319  25.414  -1.105   5.863
    1XTA    OA1 8320  24.906  -0.690   6.252
    1XTA    CO1 8321  24.901  -0.749   6.381
    1XTA    OA2 8322  25.129  -1.114   5.392
    1XTA    CO2 8323  25.218  -1.106   5.280
    1XTA    CL1 8324  25.132  -1.102   5.151
    1XTA    CL2 8325  25.218  -1.055   5.036
    1XTA    CL3 8326  25.221  -0.902   5.024
    1XTA    CL4 8327  25.314  -0.842   4.917
    1XTA    CO3 8328  25.469  -0.857   4.955
    1XTA    OA3 8329  25.492  -0.783   5.069
    1XTA    CO4 8330  25.517  -0.639   5.043
    1XTA    CT1 8331  25.441  -0.544   5.138
    1XTA    CL5 8332  25.290  -0.537   5.100
    1XTA    CL6 8333  25.253  -0.453   4.980
    1XTA    OA4 8334  25.808  -0.880   5.995
    1XTA    CO5 8335  25.900  -0.929   5.909
    1XTA    CL7 8336  25.871  -0.898   5.750
    1XTA    CL8 8337  25.940  -0.767   5.713
    1XTA    CL9 8338  25.965  -0.766   5.561
    1XTA   CL10 8339  26.068  -0.864   5.499
    1XTA    CO6 8340  26.081  -0.850   5.350
    1XTA    OA5 8341  26.172  -0.937   5.289
    1XTA    CO7 8342  26.201  -0.909   5.153
    1XTA    CT2 8343  26.305  -1.008   5.090
    1XTA   CL11 8344  26.447  -0.958   5.118
    1XTA   CL12 8345  26.505  -1.006   5.247
    1XTA    HL1 8346  24.884  -0.858   6.366
    1XTA    HL2 8347  24.994  -0.724   6.432
    1XTA    HL3 8348  24.807  -0.707   6.431
    1XTA    HL4 8349  25.290  -1.018   5.293
    1XTA    HL5 8350  25.283  -1.192   5.258
    1XTA    HL6 8351  25.046  -1.042   5.159
    1XTA    HL7 8352  25.101  -1.207   5.136
    1XTA    HL8 8353  25.182  -1.087   4.931
    1XTA    HL9 8354  25.319  -1.099   5.053
    1XTA   HL10 8355  25.120  -0.879   4.997
    1XTA   HL11 8356  25.229  -0.858   5.125
    1XTA   HL12 8357  25.290  -0.733   4.900
    1XTA   HL13 8358  25.295  -0.882   4.817
    1XTA   HL14 8359  25.499  -0.963   4.975
    1XTA   HL15 8360  25.532  -0.815   4.869
    1XTA   HL16 8361  25.621  -0.618   5.046
    1XTA   HL17 8362  25.489  -0.618   4.943
    1XTA   HL18 8363  25.233  -0.503   5.190
    1XTA   HL19 8364  25.255  -0.633   5.086
    1XTA   HL20 8365  25.255  -0.479   4.879
    1XTA   HL21 8366  25.286  -0.351   4.997
    1XTA   HL22 8367  25.144  -0.437   4.989
    1XTA   HL23 8368  25.909  -1.037   5.931
    1XTA   HL24 8369  25.994  -0.888   5.942
    1XTA   HL25 8370  25.912  -0.982   5.692
    1XTA   HL26 8371  25.766  -0.900   5.728
    1XTA   HL27 8372  25.895  -0.677   5.748
    1XTA   HL28 8373  26.038  -0.774   5.753
    1XTA   HL29 8374  25.868  -0.785   5.513
    1XTA   HL30 8375  25.987  -0.662   5.533
    1XTA   HL31 8376  26.171  -0.837   5.541
    1XTA   HL32 8377  26.049  -0.969   5.529
    1XTA   HL33 8378  25.978  -0.843   5.306
    1XTA   HL34 8379  26.119  -0.748   5.345
    1XTA   HL35 8380  26.240  -0.810   5.140
    1XTA   HL36 8381  26.103  -0.913   5.098
    1XTA   HL37 8382  26.474  -0.856   5.112
    1XTA   HL38 8383  26.507  -1.007   5.038
    1XTA   HL39 8384  26.510  -1.117   5.255
    1XTA   HL40 8385  26.457  -0.953   5.328
    1XTA   HL41 8386  26.612  -0.977   5.249
    1XTA    CO8 8387  25.511  -0.412   5.152
    1XTA    CO9 8388  25.440  -0.598   5.283
    1XTA    OA6 8389  25.402  -0.537   5.365
    1XTA   HL42 8390  25.506  -0.365   5.055
    1XTA   HL43 8391  25.433  -0.315   5.221
    1XTA   HL44 8392  26.298  -0.878   4.910
    1XTA   HL45 8393  26.367  -1.041   4.876
    1XTA   CO10 8394  26.292  -0.987   4.938
    1XTA   CO11 8395  26.290  -1.159   5.132
    1XTA    OA7 8396  26.165  -1.039   4.906
    1XTA   HL46 8397  26.192  -1.196   5.103
    1XTA   HL47 8398  26.286  -1.168   5.242
    1XTA   HL48 8399  25.547  -0.630   5.302
    1XTA   HL49 8400  25.390  -0.691   5.281
    1XTA     NT 8401  25.965   0.347   5.804
    1XTA    CN1 8402  25.990   0.386   5.928
    1XTA     C1 8403  25.902   0.461   6.009
    1XTA     C2 8404  25.939   0.488   6.145
    1XTA     C3 8405  26.060   0.444   6.197
    1XTA     C4 8406  26.150   0.378   6.115
    1XTA     C5 8407  26.114   0.356   5.977
    1XTA    CN2 8408  25.850   0.283   5.779
    1XTA     C6 8409  25.853   0.149   5.740
    1XTA     C7 8410  25.742   0.081   5.689
    1XTA     C8 8411  25.624   0.154   5.667
    1XTA     C9 8412  25.609   0.289   5.703
    1XTA    C10 8413  25.729   0.353   5.761
    1XTA    CN3 8414  26.053   0.361   5.707
    1XTA    C11 8415  26.057   0.475   5.622
    1XTA    C12 8416  26.129   0.477   5.502
    1XTA    C13 8417  26.211   0.371   5.466
    1XTA    C14 8418  26.200   0.256   5.549
    1XTA    C15 8419  26.131   0.249   5.671
    1XTA     H1 8420  25.796   0.488   5.984
    1XTA     H2 8421  25.863   0.528   6.206
    1XTA     H3 8422  26.249   0.354   6.148
    1XTA     H4 8423  26.198   0.316   5.913
    1XTA     H5 8424  25.947   0.103   5.746
    1XTA     H6 8425  25.757  -0.022   5.655
    1XTA     H7 8426  25.523   0.340   5.668
    1XTA     H8 8427  25.728   0.455   5.786
    1XTA     H9 8428  25.990   0.553   5.651
    1XTA    H10 8429  26.110   0.565   5.446
    1XTA    H11 8430  26.260   0.172   5.526
    1XTA    H12 8431  26.125   0.161   5.730
    1XTA    OA1 8432  26.076   0.461   6.333
    1XTA    CO1 8433  26.202   0.426   6.392
    1XTA    OA2 8434  25.535   0.092   5.588
    1XTA    CO2 8435  25.483   0.173   5.481
    1XTA    CL1 8436  25.442   0.085   5.363
    1XTA    CL2 8437  25.357   0.149   5.262
    1XTA    CL3 8438  25.354   0.080   5.124
    1XTA    CL4 8439  25.269   0.152   5.017
    1XTA    CO3 8440  25.309   0.292   4.963
    1XTA    OA3 8441  25.414   0.265   4.869
    1XTA    CO4 8442  25.427   0.375   4.783
    1XTA    CT1 8443  25.538   0.343   4.683
    1XTA    CL5 8444  25.563   0.455   4.582
    1XTA    CL6 8445  25.461   0.464   4.463
    1XTA    OA4 8446  26.276   0.385   5.349
    1XTA    CO5 8447  26.335   0.277   5.291
    1XTA    CL7 8448  26.390   0.335   5.160
    1XTA    CL8 8449  26.461   0.227   5.076
    1XTA    CL9 8450  26.394   0.155   4.961
    1XTA   CL10 8451  26.327   0.252   4.867
    1XTA    CO6 8452  26.257   0.179   4.759
    1XTA    OA5 8453  26.161   0.252   4.683
    1XTA    CO7 8454  26.104   0.175   4.582
    1XTA    CT2 8455  25.960   0.225   4.549
    1XTA   CL11 8456  25.883   0.117   4.465
    1XTA   CL12 8457  25.963   0.061   4.343
    1XTA    HL1 8458  26.211   0.472   6.489
    1XTA    HL2 8459  26.210   0.318   6.409
    1XTA    HL3 8460  26.292   0.455   6.336
    1XTA    HL4 8461  25.406   0.232   5.521
    1XTA    HL5 8462  25.559   0.245   5.441
    1XTA    HL6 8463  25.376  -0.006   5.385
    1XTA    HL7 8464  25.531   0.044   5.324
    1XTA    HL8 8465  25.403   0.246   5.239
    1XTA    HL9 8466  25.257   0.165   5.300
    1XTA   HL10 8467  25.461   0.076   5.096
    1XTA   HL11 8468  25.324  -0.027   5.126
    1XTA   HL12 8469  25.173   0.173   5.056
    1XTA   HL13 8470  25.243   0.091   4.932
    1XTA   HL14 8471  25.225   0.340   4.920
    1XTA   HL15 8472  25.329   0.351   5.044
    1XTA   HL16 8473  25.336   0.392   4.730
    1XTA   HL17 8474  25.449   0.460   4.841
    1XTA   HL18 8475  25.666   0.449   4.540
    1XTA   HL19 8476  25.554   0.551   4.635
    1XTA   HL20 8477  25.488   0.553   4.401
    1XTA   HL21 8478  25.360   0.475   4.503
    1XTA   HL22 8479  25.471   0.387   4.386
    1XTA   HL23 8480  26.269   0.195   5.256
    1XTA   HL24 8481  26.407   0.237   5.365
    1XTA   HL25 8482  26.321   0.390   5.098
    1XTA   HL26 8483  26.469   0.401   5.187
    1XTA   HL27 8484  26.550   0.279   5.028
    1XTA   HL28 8485  26.502   0.158   5.148
    1XTA   HL29 8486  26.459   0.104   4.901
    1XTA   HL30 8487  26.332   0.083   5.006
    1XTA   HL31 8488  26.257   0.311   4.924
    1XTA   HL32 8489  26.402   0.324   4.828
    1XTA   HL33 8490  26.325   0.134   4.692
    1XTA   HL34 8491  26.195   0.108   4.807
    1XTA   HL35 8492  26.089   0.075   4.616
    1XTA   HL36 8493  26.155   0.174   4.486
    1XTA   HL37 8494  25.785   0.137   4.433
    1XTA   HL38 8495  25.868   0.031   4.537
    1XTA   HL39 8496  25.902  -0.008   4.281
    1XTA   HL40 8497  26.061   0.013   4.366
    1XTA   HL41 8498  25.976   0.145   4.282
    1XTA    CO8 8499  25.507   0.204   4.616
    1XTA    CO9 8500  25.678   0.329   4.750
    1XTA    OA6 8501  25.519   0.102   4.713
    1XTA   HL42 8502  25.586   0.191   4.538
    1XTA   HL43 8503  25.416   0.206   4.551
    1XTA   HL44 8504  26.024   0.442   4.569
    1XTA   HL45 8505  25.867   0.392   4.448
    1XTA   CO10 8506  25.962   0.356   4.474
    1XTA   CO11 8507  25.882   0.249   4.683
    1XTA    OA7 8508  25.783   0.282   4.661
    1XTA   HL46 8509  25.887   0.157   4.739
    1XTA   HL47 8510  25.935   0.320   4.744
    1XTA   HL48 8511  25.704   0.420   4.799
    1XTA   HL49 8512  25.668   0.257   4.822
    1XTA     NT 8513  24.268   5.736   6.181
    1XTA    CN1 8514  24.225   5.780   6.303
    1XTA     C1 8515  24.154   5.904   6.319
    1XTA     C2 8516  24.134   5.952   6.445
    1XTA     C3 8517  24.189   5.889   6.560
    1XTA     C4 8518  24.240   5.757   6.545
    1XTA     C5 8519  24.258   5.702   6.416
    1XTA    CN2 8520  24.397   5.757   6.143
    1XTA     C6 8521  24.492   5.653   6.155
    1XTA     C7 8522  24.625   5.676   6.112
    1XTA     C8 8523  24.660   5.806   6.068
    1XTA     C9 8524  24.563   5.907   6.042
    1XTA    C10 8525  24.433   5.876   6.076
    1XTA    CN3 8526  24.187   5.673   6.094
    1XTA    C11 8527  24.094   5.749   6.015
    1XTA    C12 8528  24.004   5.682   5.930
    1XTA    C13 8529  24.029   5.543   5.899
    1XTA    C14 8530  24.111   5.471   5.981
    1XTA    C15 8531  24.192   5.530   6.075
    1XTA     H1 8532  24.121   5.963   6.237
    1XTA     H2 8533  24.089   6.051   6.458
    1XTA     H3 8534  24.286   5.700   6.623
    1XTA     H4 8535  24.302   5.609   6.403
    1XTA     H5 8536  24.471   5.554   6.193
    1XTA     H6 8537  24.696   5.604   6.140
    1XTA     H7 8538  24.602   5.998   5.993
    1XTA     H8 8539  24.349   5.944   6.066
    1XTA     H9 8540  24.082   5.857   6.024
    1XTA    H10 8541  23.926   5.744   5.881
    1XTA    H11 8542  24.111   5.363   5.978
    1XTA    H12 8543  24.259   5.480   6.135
    1XTA    OA1 8544  24.175   5.946   6.683
    1XTA    CO1 8545  24.252   5.896   6.797
    1XTA    OA2 8546  24.794   5.825   6.037
    1XTA    CO2 8547  24.853   5.957   6.041
    1XTA    CL1 8548  24.995   5.925   6.053
    1XTA    CL2 8549  25.018   5.861   6.194
    1XTA    CL3 8550  25.172   5.836   6.211
    1XTA    CL4 8551  25.203   5.726   6.107
    1XTA    CO3 8552  25.309   5.643   6.164
    1XTA    OA3 8553  25.336   5.541   6.076
    1XTA    CO4 8554  25.404   5.577   5.950
    1XTA    CT1 8555  25.454   5.456   5.876
    1XTA    CL5 8556  25.518   5.517   5.751
    1XTA    CL6 8557  25.553   5.426   5.628
    1XTA    OA4 8558  23.956   5.476   5.800
    1XTA    CO5 8559  23.857   5.553   5.722
    1XTA    CL7 8560  23.790   5.468   5.613
    1XTA    CL8 8561  23.889   5.422   5.505
    1XTA    CL9 8562  23.900   5.510   5.382
    1XTA   CL10 8563  24.052   5.523   5.338
    1XTA    CO6 8564  24.084   5.667   5.312
    1XTA    OA5 8565  24.222   5.669   5.282
    1XTA    CO7 8566  24.283   5.796   5.274
    1XTA    CT2 8567  24.422   5.794   5.203
    1XTA   CL11 8568  24.476   5.938   5.189
    1XTA   CL12 8569  24.601   5.955   5.105
    1XTA    HL1 8570  24.232   5.938   6.896
    1XTA    HL2 8571  24.232   5.791   6.806
    1XTA    HL3 8572  24.355   5.905   6.753
    1XTA    HL4 8573  24.842   6.000   5.942
    1XTA    HL5 8574  24.808   6.029   6.106
    1XTA    HL6 8575  25.049   6.021   6.058
    1XTA    HL7 8576  25.031   5.867   5.972
    1XTA    HL8 8577  24.952   5.782   6.219
    1XTA    HL9 8578  24.981   5.937   6.261
    1XTA   HL10 8579  25.224   5.923   6.171
    1XTA   HL11 8580  25.194   5.817   6.316
    1XTA   HL12 8581  25.249   5.782   6.019
    1XTA   HL13 8582  25.110   5.670   6.077
    1XTA   HL14 8583  25.394   5.706   6.191
    1XTA   HL15 8584  25.268   5.592   6.253
    1XTA   HL16 8585  25.341   5.645   5.879
    1XTA   HL17 8586  25.485   5.634   5.977
    1XTA   HL18 8587  25.610   5.564   5.777
    1XTA   HL19 8588  25.456   5.604   5.713
    1XTA   HL20 8589  25.470   5.351   5.610
    1XTA   HL21 8590  25.645   5.363   5.642
    1XTA   HL22 8591  25.579   5.480   5.536
    1XTA   HL23 8592  23.899   5.645   5.680
    1XTA   HL24 8593  23.776   5.572   5.789
    1XTA   HL25 8594  23.764   5.383   5.678
    1XTA   HL26 8595  23.708   5.521   5.572
    1XTA   HL27 8596  23.980   5.398   5.561
    1XTA   HL28 8597  23.834   5.332   5.474
    1XTA   HL29 8598  23.837   5.485   5.303
    1XTA   HL30 8599  23.868   5.606   5.421
    1XTA   HL31 8600  24.116   5.478   5.412
    1XTA   HL32 8601  24.072   5.470   5.244
    1XTA   HL33 8602  24.020   5.692   5.225
    1XTA   HL34 8603  24.054   5.730   5.399
    1XTA   HL35 8604  24.293   5.838   5.375
    1XTA   HL36 8605  24.216   5.863   5.223
    1XTA   HL37 8606  24.502   5.979   5.288
    1XTA   HL38 8607  24.404   5.998   5.138
    1XTA   HL39 8608  24.583   5.925   4.998
    1XTA   HL40 8609  24.688   5.890   5.138
    1XTA   HL41 8610  24.633   6.059   5.114
    1XTA    CO8 8611  25.344   5.354   5.839
    1XTA    CO9 8612  25.558   5.386   5.969
    1XTA    OA6 8613  25.530   5.338   6.069
    1XTA   HL42 8614  25.376   5.263   5.789
    1XTA   HL43 8615  25.291   5.278   5.944
    1XTA   HL44 8616  24.515   5.694   5.028
    1XTA   HL45 8617  24.337   5.596   5.078
    1XTA   CO10 8618  24.412   5.716   5.065
    1XTA   CO11 8619  24.529   5.717   5.287
    1XTA    OA7 8620  24.543   5.770   5.390
    1XTA   HL46 8621  24.493   5.617   5.294
    1XTA   HL47 8622  24.620   5.709   5.228
    1XTA   HL48 8623  25.632   5.461   5.978
    1XTA   HL49 8624  25.595   5.306   5.907
    1XTA     NT 8625  26.678  -2.035   1.769
    1XTA    CN1 8626  26.549  -1.996   1.748
    1XTA     C1 8627  26.452  -2.050   1.839
    1XTA     C2 8628  26.319  -2.026   1.827
    1XTA     C3 8629  26.274  -1.957   1.710
    1XTA     C4 8630  26.366  -1.898   1.622
    1XTA     C5 8631  26.504  -1.921   1.639
    1XTA    CN2 8632  26.737  -2.151   1.720
    1XTA     C6 8633  26.684  -2.271   1.769
    1XTA     C7 8634  26.740  -2.390   1.725
    1XTA     C8 8635  26.845  -2.390   1.636
    1XTA     C9 8636  26.897  -2.270   1.590
    1XTA    C10 8637  26.851  -2.150   1.642
    1XTA    CN3 8638  26.751  -1.940   1.831
    1XTA    C11 8639  26.828  -1.847   1.762
    1XTA    C12 8640  26.922  -1.772   1.840
    1XTA    C13 8641  26.915  -1.766   1.981
    1XTA    C14 8642  26.817  -1.843   2.046
    1XTA    C15 8643  26.753  -1.942   1.972
    1XTA     H1 8644  26.477  -2.096   1.936
    1XTA     H2 8645  26.251  -2.068   1.902
    1XTA     H3 8646  26.337  -1.847   1.535
    1XTA     H4 8647  26.571  -1.876   1.561
    1XTA     H5 8648  26.597  -2.267   1.830
    1XTA     H6 8649  26.708  -2.486   1.757
    1XTA     H7 8650  26.986  -2.272   1.529
    1XTA     H8 8651  26.890  -2.056   1.612
    1XTA     H9 8652  26.815  -1.825   1.652
    1XTA    H10 8653  26.988  -1.711   1.794
    1XTA    H11 8654  26.799  -1.855   2.152
    1XTA    H12 8655  26.709  -2.021   2.022
    1XTA    OA1 8656  26.138  -1.933   1.688
    1XTA    CO1 8657  26.046  -1.956   1.795
    1XTA    OA2 8658  26.883  -2.506   1.581
    1XTA    CO2 8659  27.002  -2.511   1.502
    1XTA    CL1 8660  27.035  -2.656   1.466
    1XTA    CL2 8661  27.060  -2.745   1.585
    1XTA    CL3 8662  27.191  -2.727   1.656
    1XTA    CL4 8663  27.313  -2.729   1.567
    1XTA    CO3 8664  27.442  -2.692   1.639
    1XTA    OA3 8665  27.494  -2.805   1.717
    1XTA    CO4 8666  27.545  -2.920   1.651
    1XTA    CT1 8667  27.602  -3.039   1.733
    1XTA    CL5 8668  27.494  -3.087   1.838
    1XTA    CL6 8669  27.523  -3.202   1.938
    1XTA    OA4 8670  26.992  -1.670   2.049
    1XTA    CO5 8671  26.969  -1.663   2.189
    1XTA    CL7 8672  27.051  -1.546   2.239
    1XTA    CL8 8673  27.007  -1.412   2.176
    1XTA    CL9 8674  27.077  -1.301   2.254
    1XTA   CL10 8675  27.226  -1.287   2.213
    1XTA    CO6 8676  27.315  -1.249   2.328
    1XTA    OA5 8677  27.295  -1.343   2.434
    1XTA    CO7 8678  27.376  -1.463   2.432
    1XTA    CT2 8679  27.347  -1.562   2.544
    1XTA   CL11 8680  27.194  -1.592   2.550
    1XTA   CL12 8681  27.145  -1.644   2.682
    1XTA    HL1 8682  26.070  -1.884   1.873
    1XTA    HL2 8683  25.949  -1.923   1.756
    1XTA    HL3 8684  26.039  -2.062   1.822
    1XTA    HL4 8685  26.985  -2.464   1.409
    1XTA    HL5 8686  27.092  -2.467   1.546
    1XTA    HL6 8687  27.113  -2.662   1.399
    1XTA    HL7 8688  26.959  -2.707   1.403
    1XTA    HL8 8689  27.060  -2.843   1.549
    1XTA    HL9 8690  26.984  -2.733   1.658
    1XTA   HL10 8691  27.179  -2.628   1.706
    1XTA   HL11 8692  27.200  -2.802   1.732
    1XTA   HL12 8693  27.305  -2.650   1.489
    1XTA   HL13 8694  27.325  -2.828   1.520
    1XTA   HL14 8695  27.521  -2.658   1.567
    1XTA   HL15 8696  27.421  -2.598   1.697
    1XTA   HL16 8697  27.472  -2.959   1.595
    1XTA   HL17 8698  27.615  -2.887   1.576
    1XTA   HL18 8699  27.403  -3.116   1.781
    1XTA   HL19 8700  27.448  -3.008   1.902
    1XTA   HL20 8701  27.556  -3.153   2.032
    1XTA   HL21 8702  27.607  -3.264   1.898
    1XTA   HL22 8703  27.442  -3.261   1.957
    1XTA   HL23 8704  27.010  -1.752   2.232
    1XTA   HL24 8705  26.864  -1.649   2.216
    1XTA   HL25 8706  27.040  -1.528   2.347
    1XTA   HL26 8707  27.153  -1.573   2.199
    1XTA   HL27 8708  27.025  -1.408   2.068
    1XTA   HL28 8709  26.903  -1.374   2.198
    1XTA   HL29 8710  27.023  -1.205   2.241
    1XTA   HL30 8711  27.076  -1.320   2.366
    1XTA   HL31 8712  27.261  -1.375   2.161
    1XTA   HL32 8713  27.221  -1.203   2.141
    1XTA   HL33 8714  27.416  -1.242   2.289
    1XTA   HL34 8715  27.289  -1.148   2.352
    1XTA   HL35 8716  27.480  -1.435   2.431
    1XTA   HL36 8717  27.363  -1.520   2.342
    1XTA   HL37 8718  27.171  -1.661   2.467
    1XTA   HL38 8719  27.134  -1.502   2.530
    1XTA   HL39 8720  27.045  -1.673   2.688
    1XTA   HL40 8721  27.153  -1.571   2.764
    1XTA   HL41 8722  27.202  -1.735   2.702
    1XTA    CO8 8723  27.731  -3.008   1.809
    1XTA    CO9 8724  27.635  -3.151   1.639
    1XTA    OA6 8725  27.517  -3.194   1.572
    1XTA   HL42 8726  27.763  -3.094   1.858
    1XTA   HL43 8727  27.806  -2.984   1.735
    1XTA   HL44 8728  27.321  -1.417   2.694
    1XTA   HL45 8729  27.402  -1.570   2.762
    1XTA   CO10 8730  27.393  -1.499   2.678
    1XTA   CO11 8731  27.423  -1.695   2.531
    1XTA    OA7 8732  27.524  -1.444   2.659
    1XTA   HL46 8733  27.530  -1.679   2.522
    1XTA   HL47 8734  27.427  -1.735   2.630
    1XTA   HL48 8735  27.675  -3.231   1.705
    1XTA   HL49 8736  27.715  -3.136   1.563
    1XTA     NT 8737  26.859  -0.924   3.599
    1XTA    CN1 8738  26.761  -0.859   3.528
    1XTA     C1 8739  26.736  -0.886   3.395
    1XTA     C2 8740  26.629  -0.833   3.317
    1XTA     C3 8741  26.547  -0.738   3.380
    1XTA     C4 8742  26.565  -0.715   3.519
    1XTA     C5 8743  26.668  -0.772   3.587
    1XTA    CN2 8744  26.951  -0.853   3.668
    1XTA     C6 8745  26.979  -0.875   3.804
    1XTA     C7 8746  27.073  -0.809   3.877
    1XTA     C8 8747  27.160  -0.725   3.807
    1XTA     C9 8748  27.138  -0.706   3.672
    1XTA    C10 8749  27.038  -0.767   3.603
    1XTA    CN3 8750  26.837  -1.055   3.629
    1XTA    C11 8751  26.722  -1.091   3.703
    1XTA    C12 8752  26.711  -1.224   3.745
    1XTA    C13 8753  26.800  -1.324   3.695
    1XTA    C14 8754  26.901  -1.293   3.605
    1XTA    C15 8755  26.926  -1.154   3.577
    1XTA     H1 8756  26.793  -0.957   3.340
    1XTA     H2 8757  26.620  -0.864   3.214
    1XTA     H3 8758  26.489  -0.658   3.583
    1XTA     H4 8759  26.673  -0.751   3.693
    1XTA     H5 8760  26.921  -0.950   3.851
    1XTA     H6 8761  27.088  -0.816   3.986
    1XTA     H7 8762  27.195  -0.634   3.617
    1XTA     H8 8763  27.025  -0.754   3.496
    1XTA     H9 8764  26.658  -1.020   3.744
    1XTA    H10 8765  26.633  -1.256   3.808
    1XTA    H11 8766  26.964  -1.369   3.569
    1XTA    H12 8767  27.011  -1.130   3.512
    1XTA    OA1 8768  26.444  -0.697   3.304
    1XTA    CO1 8769  26.357  -0.606   3.360
    1XTA    OA2 8770  27.255  -0.648   3.866
    1XTA    CO2 8771  27.302  -0.700   3.993
    1XTA    CL1 8772  27.434  -0.645   4.032
    1XTA    CL2 8773  27.445  -0.491   4.059
    1XTA    CL3 8774  27.535  -0.454   4.184
    1XTA    CL4 8775  27.459  -0.484   4.320
    1XTA    CO3 8776  27.508  -0.397   4.439
    1XTA    OA3 8777  27.637  -0.431   4.474
    1XTA    CO4 8778  27.695  -0.358   4.579
    1XTA    CT1 8779  27.826  -0.410   4.644
    1XTA    CL5 8780  27.826  -0.566   4.667
    1XTA    CL6 8781  27.697  -0.617   4.724
    1XTA    OA4 8782  26.784  -1.455   3.740
    1XTA    CO5 8783  26.755  -1.546   3.635
    1XTA    CL7 8784  26.717  -1.685   3.701
    1XTA    CL8 8785  26.830  -1.739   3.801
    1XTA    CL9 8786  26.794  -1.852   3.895
    1XTA   CL10 8787  26.905  -1.903   3.988
    1XTA    CO6 8788  26.849  -1.965   4.110
    1XTA    OA5 8789  26.760  -2.072   4.073
    1XTA    CO7 8790  26.707  -2.142   4.182
    1XTA    CT2 8791  26.586  -2.233   4.127
    1XTA   CL11 8792  26.471  -2.149   4.080
    1XTA   CL12 8793  26.342  -2.210   4.021
    1XTA    HL1 8794  26.292  -0.643   3.446
    1XTA    HL2 8795  26.420  -0.528   3.383
    1XTA    HL3 8796  26.286  -0.566   3.288
    1XTA    HL4 8797  27.227  -0.677   4.076
    1XTA    HL5 8798  27.305  -0.806   4.003
    1XTA    HL6 8799  27.509  -0.677   3.960
    1XTA    HL7 8800  27.463  -0.694   4.119
    1XTA    HL8 8801  27.341  -0.460   4.084
    1XTA    HL9 8802  27.473  -0.430   3.970
    1XTA   HL10 8803  27.629  -0.505   4.169
    1XTA   HL11 8804  27.556  -0.352   4.171
    1XTA   HL12 8805  27.464  -0.590   4.354
    1XTA   HL13 8806  27.346  -0.469   4.314
    1XTA   HL14 8807  27.492  -0.290   4.436
    1XTA   HL15 8808  27.451  -0.431   4.520
    1XTA   HL16 8809  27.704  -0.247   4.554
    1XTA   HL17 8810  27.612  -0.380   4.649
    1XTA   HL18 8811  27.908  -0.599   4.719
    1XTA   HL19 8812  27.821  -0.606   4.566
    1XTA   HL20 8813  27.662  -0.555   4.807
    1XTA   HL21 8814  27.724  -0.718   4.766
    1XTA   HL22 8815  27.621  -0.622   4.640
    1XTA   HL23 8816  26.840  -1.565   3.571
    1XTA   HL24 8817  26.671  -1.520   3.571
    1XTA   HL25 8818  26.633  -1.688   3.773
    1XTA   HL26 8819  26.705  -1.764   3.622
    1XTA   HL27 8820  26.925  -1.760   3.749
    1XTA   HL28 8821  26.858  -1.657   3.867
    1XTA   HL29 8822  26.712  -1.830   3.965
    1XTA   HL30 8823  26.754  -1.945   3.849
    1XTA   HL31 8824  26.966  -1.985   3.939
    1XTA   HL32 8825  26.971  -1.817   4.020
    1XTA   HL33 8826  26.944  -1.995   4.161
    1XTA   HL34 8827  26.803  -1.904   4.184
    1XTA   HL35 8828  26.683  -2.070   4.257
    1XTA   HL36 8829  26.784  -2.195   4.231
    1XTA   HL37 8830  26.529  -2.095   3.997
    1XTA   HL38 8831  26.452  -2.062   4.139
    1XTA   HL39 8832  26.285  -2.147   3.951
    1XTA   HL40 8833  26.270  -2.202   4.106
    1XTA   HL41 8834  26.354  -2.312   3.987
    1XTA    CO8 8835  27.844  -0.346   4.785
    1XTA    CO9 8836  27.945  -0.386   4.548
    1XTA    OA6 8837  27.942  -0.287   4.502
    1XTA   HL42 8838  27.773  -0.393   4.851
    1XTA   HL43 8839  27.815  -0.211   4.776
    1XTA   HL44 8840  26.620  -2.361   4.294
    1XTA   HL45 8841  26.492  -2.243   4.312
    1XTA   CO10 8842  26.533  -2.315   4.246
    1XTA   CO11 8843  26.631  -2.332   4.017
    1XTA    OA7 8844  26.473  -2.396   4.218
    1XTA   HL46 8845  26.530  -2.420   3.970
    1XTA   HL47 8846  26.707  -2.389   4.065
    1XTA   HL48 8847  27.952  -0.470   4.473
    1XTA   HL49 8848  28.034  -0.396   4.609
    1XTA     NT 8849  23.005   1.010   4.866
    1XTA    CN1 8850  22.932   0.900   4.866
    1XTA     C1 8851  22.836   0.889   4.760
    1XTA     C2 8852  22.739   0.787   4.767
    1XTA     C3 8853  22.735   0.701   4.872
    1XTA     C4 8854  22.838   0.701   4.970
    1XTA     C5 8855  22.937   0.802   4.967
    1XTA    CN2 8856  23.142   0.998   4.844
    1XTA     C6 8857  23.192   1.020   4.713
    1XTA     C7 8858  23.327   1.017   4.683
    1XTA     C8 8859  23.423   0.997   4.782
    1XTA     C9 8860  23.374   0.959   4.911
    1XTA    C10 8861  23.236   0.972   4.944
    1XTA    CN3 8862  22.942   1.121   4.902
    1XTA    C11 8863  22.977   1.240   4.836
    1XTA    C12 8864  22.913   1.359   4.872
    1XTA    C13 8865  22.822   1.366   4.983
    1XTA    C14 8866  22.786   1.247   5.048
    1XTA    C15 8867  22.849   1.126   5.006
    1XTA     H1 8868  22.835   0.953   4.673
    1XTA     H2 8869  22.663   0.786   4.696
    1XTA     H3 8870  22.830   0.632   5.054
    1XTA     H4 8871  23.010   0.837   5.048
    1XTA     H5 8872  23.117   1.028   4.639
    1XTA     H6 8873  23.354   1.034   4.577
    1XTA     H7 8874  23.445   0.934   4.990
    1XTA     H8 8875  23.198   0.953   5.037
    1XTA     H9 8876  23.045   1.246   4.748
    1XTA    H10 8877  22.944   1.446   4.816
    1XTA    H11 8878  22.711   1.238   5.130
    1XTA    H12 8879  22.826   1.041   5.066
    1XTA    OA1 8880  22.648   0.596   4.882
    1XTA    CO1 8881  22.518   0.611   4.818
    1XTA    OA2 8882  23.554   0.994   4.739
    1XTA    CO2 8883  23.653   0.961   4.830
    1XTA    CL1 8884  23.669   1.079   4.937
    1XTA    CL2 8885  23.760   1.039   5.053
    1XTA    CL3 8886  23.748   1.143   5.167
    1XTA    CL4 8887  23.776   1.296   5.133
    1XTA    CO3 8888  23.770   1.398   5.246
    1XTA    OA3 8889  23.833   1.518   5.202
    1XTA    CO4 8890  23.756   1.596   5.116
    1XTA    CT1 8891  23.844   1.720   5.076
    1XTA    CL5 8892  23.907   1.774   5.204
    1XTA    CL6 8893  24.002   1.892   5.188
    1XTA    OA4 8894  22.765   1.480   5.027
    1XTA    CO5 8895  22.809   1.602   4.965
    1XTA    CL7 8896  22.744   1.727   5.032
    1XTA    CL8 8897  22.604   1.753   4.997
    1XTA    CL9 8898  22.592   1.767   4.850
    1XTA   CL10 8899  22.650   1.894   4.785
    1XTA    CO6 8900  22.643   1.872   4.638
    1XTA    OA5 8901  22.699   1.984   4.563
    1XTA    CO7 8902  22.720   1.929   4.439
    1XTA    CT2 8903  22.811   2.024   4.356
    1XTA   CL11 8904  22.867   1.934   4.239
    1XTA   CL12 8905  22.929   2.011   4.128
    1XTA    HL1 8906  22.443   0.538   4.849
    1XTA    HL2 8907  22.476   0.716   4.840
    1XTA    HL3 8908  22.533   0.594   4.710
    1XTA    HL4 8909  23.634   0.871   4.887
    1XTA    HL5 8910  23.747   0.947   4.777
    1XTA    HL6 8911  23.573   1.111   4.969
    1XTA    HL7 8912  23.716   1.169   4.893
    1XTA    HL8 8913  23.864   1.061   5.027
    1XTA    HL9 8914  23.751   0.942   5.102
    1XTA   HL10 8915  23.643   1.134   5.192
    1XTA   HL11 8916  23.805   1.120   5.260
    1XTA   HL12 8917  23.695   1.329   5.068
    1XTA   HL13 8918  23.871   1.304   5.082
    1XTA   HL14 8919  23.666   1.423   5.269
    1XTA   HL15 8920  23.827   1.375   5.336
    1XTA   HL16 8921  23.727   1.553   5.018
    1XTA   HL17 8922  23.662   1.625   5.167
    1XTA   HL18 8923  23.956   1.695   5.260
    1XTA   HL19 8924  23.834   1.805   5.272
    1XTA   HL20 8925  23.946   1.975   5.136
    1XTA   HL21 8926  24.088   1.875   5.133
    1XTA   HL22 8927  24.029   1.918   5.286
    1XTA   HL23 8928  22.787   1.594   4.863
    1XTA   HL24 8929  22.924   1.610   4.960
    1XTA   HL25 8930  22.764   1.720   5.140
    1XTA   HL26 8931  22.795   1.817   5.009
    1XTA   HL27 8932  22.540   1.674   5.034
    1XTA   HL28 8933  22.576   1.853   5.036
    1XTA   HL29 8934  22.620   1.677   4.793
    1XTA   HL30 8935  22.485   1.778   4.828
    1XTA   HL31 8936  22.595   1.982   4.823
    1XTA   HL32 8937  22.756   1.918   4.813
    1XTA   HL33 8938  22.700   1.786   4.619
    1XTA   HL34 8939  22.543   1.852   4.602
    1XTA   HL35 8940  22.626   1.908   4.390
    1XTA   HL36 8941  22.761   1.826   4.441
    1XTA   HL37 8942  22.799   1.864   4.200
    1XTA   HL38 8943  22.944   1.874   4.284
    1XTA   HL39 8944  22.985   1.950   4.052
    1XTA   HL40 8945  22.991   2.092   4.175
    1XTA   HL41 8946  22.856   2.057   4.061
    1XTA    CO8 8947  23.756   1.819   4.999
    1XTA    CO9 8948  23.950   1.669   4.981
    1XTA    OA6 8949  23.703   1.762   4.878
    1XTA   HL42 8950  23.808   1.913   4.986
    1XTA   HL43 8951  23.675   1.869   5.057
    1XTA   HL44 8952  22.885   2.138   4.532
    1XTA   HL45 8953  22.989   2.147   4.388
    1XTA   CO10 8954  22.927   2.078   4.449
    1XTA   CO11 8955  22.733   2.148   4.299
    1XTA    OA7 8956  22.675   2.234   4.399
    1XTA   HL46 8957  22.791   2.210   4.237
    1XTA   HL47 8958  22.651   2.108   4.243
    1XTA   HL48 8959  24.046   1.658   5.031
    1XTA   HL49 8960  23.966   1.747   4.901
    1XTA     NT 8961  25.700   1.307  -0.759
    1XTA    CN1 8962  25.660   1.343  -0.884
    1XTA     C1 8963  25.535   1.413  -0.900
    1XTA     C2 8964  25.495   1.442  -1.031
    1XTA     C3 8965  25.575   1.431  -1.145
    1XTA     C4 8966  25.703   1.365  -1.127
    1XTA     C5 8967  25.742   1.324  -1.001
    1XTA    CN2 8968  25.748   1.182  -0.734
    1XTA     C6 8969  25.883   1.159  -0.700
    1XTA     C7 8970  25.932   1.033  -0.681
    1XTA     C8 8971  25.842   0.927  -0.676
    1XTA     C9 8972  25.705   0.941  -0.715
    1XTA    C10 8973  25.664   1.067  -0.756
    1XTA    CN3 8974  25.730   1.404  -0.666
    1XTA    C11 8975  25.826   1.492  -0.689
    1XTA    C12 8976  25.866   1.586  -0.592
    1XTA    C13 8977  25.787   1.598  -0.471
    1XTA    C14 8978  25.682   1.503  -0.453
    1XTA    C15 8979  25.658   1.404  -0.546
    1XTA     H1 8980  25.462   1.418  -0.827
    1XTA     H2 8981  25.395   1.488  -1.042
    1XTA     H3 8982  25.766   1.353  -1.210
    1XTA     H4 8983  25.843   1.281  -0.986
    1XTA     H5 8984  25.955   1.237  -0.686
    1XTA     H6 8985  26.035   1.022  -0.645
    1XTA     H7 8986  25.631   0.863  -0.727
    1XTA     H8 8987  25.559   1.086  -0.790
    1XTA     H9 8988  25.886   1.499  -0.777
    1XTA    H10 8989  25.950   1.647  -0.623
    1XTA    H11 8990  25.627   1.512  -0.363
    1XTA    H12 8991  25.579   1.333  -0.539
    1XTA    OA1 8992  25.521   1.472  -1.259
    1XTA    CO1 8993  25.581   1.423  -1.375
    1XTA    OA2 8994  25.904   0.811  -0.634
    1XTA    CO2 8995  25.815   0.701  -0.615
    1XTA    CL1 8996  25.899   0.598  -0.526
    1XTA    CL2 8997  25.799   0.504  -0.452
    1XTA    CL3 8998  25.723   0.572  -0.334
    1XTA    CL4 8999  25.823   0.650  -0.242
    1XTA    CO3 9000  25.742   0.693  -0.122
    1XTA    OA3 9001  25.836   0.738  -0.026
    1XTA    CO4 9002  25.774   0.802   0.090
    1XTA    CT1 9003  25.867   0.812   0.215
    1XTA    CL5 9004  25.999   0.896   0.189
    1XTA    CL6 9005  26.088   0.827   0.078
    1XTA    OA4 9006  25.816   1.690  -0.377
    1XTA    CO5 9007  25.872   1.811  -0.434
    1XTA    CL7 9008  25.874   1.932  -0.334
    1XTA    CL8 9009  25.735   1.968  -0.286
    1XTA    CL9 9010  25.648   2.032  -0.391
    1XTA   CL10 9011  25.532   2.102  -0.329
    1XTA    CO6 9012  25.424   2.148  -0.431
    1XTA    OA5 9013  25.348   2.038  -0.468
    1XTA    CO7 9014  25.299   2.067  -0.602
    1XTA    CT2 9015  25.184   1.977  -0.638
    1XTA   CL11 9016  25.075   1.997  -0.533
    1XTA   CL12 9017  24.936   1.914  -0.560
    1XTA    HL1 9018  25.530   1.461  -1.458
    1XTA    HL2 9019  25.686   1.469  -1.376
    1XTA    HL3 9020  25.576   1.315  -1.388
    1XTA    HL4 9021  25.722   0.746  -0.572
    1XTA    HL5 9022  25.773   0.659  -0.704
    1XTA    HL6 9023  25.970   0.662  -0.459
    1XTA    HL7 9024  25.962   0.547  -0.604
    1XTA    HL8 9025  25.865   0.430  -0.397
    1XTA    HL9 9026  25.729   0.464  -0.526
    1XTA   HL10 9027  25.663   0.646  -0.376
    1XTA   HL11 9028  25.666   0.494  -0.280
    1XTA   HL12 9029  25.878   0.730  -0.296
    1XTA   HL13 9030  25.898   0.574  -0.204
    1XTA   HL14 9031  25.663   0.762  -0.130
    1XTA   HL15 9032  25.688   0.608  -0.079
    1XTA   HL16 9033  25.755   0.911   0.062
    1XTA   HL17 9034  25.686   0.751   0.118
    1XTA   HL18 9035  26.057   0.924   0.277
    1XTA   HL19 9036  25.964   0.995   0.148
    1XTA   HL20 9037  26.087   0.718   0.077
    1XTA   HL21 9038  26.194   0.852   0.091
    1XTA   HL22 9039  26.057   0.853  -0.024
    1XTA   HL23 9040  25.826   1.843  -0.525
    1XTA   HL24 9041  25.971   1.785  -0.459
    1XTA   HL25 9042  25.953   1.916  -0.262
    1XTA   HL26 9043  25.916   2.023  -0.374
    1XTA   HL27 9044  25.680   1.891  -0.237
    1XTA   HL28 9045  25.753   2.045  -0.210
    1XTA   HL29 9046  25.720   2.096  -0.440
    1XTA   HL30 9047  25.621   1.957  -0.464
    1XTA   HL31 9048  25.500   2.038  -0.245
    1XTA   HL32 9049  25.563   2.196  -0.279
    1XTA   HL33 9050  25.357   2.204  -0.378
    1XTA   HL34 9051  25.460   2.204  -0.518
    1XTA   HL35 9052  25.379   2.060  -0.670
    1XTA   HL36 9053  25.270   2.172  -0.609
    1XTA   HL37 9054  25.038   2.100  -0.527
    1XTA   HL38 9055  25.110   1.984  -0.433
    1XTA   HL39 9056  24.964   1.812  -0.540
    1XTA   HL40 9057  24.904   1.924  -0.661
    1XTA   HL41 9058  24.862   1.940  -0.490
    1XTA    CO8 9059  25.905   0.680   0.287
    1XTA    CO9 9060  25.789   0.897   0.314
    1XTA    OA6 9061  25.797   0.602   0.330
    1XTA   HL42 9062  25.965   0.704   0.376
    1XTA   HL43 9063  25.961   0.618   0.221
    1XTA   HL44 9064  25.305   1.815  -0.725
    1XTA   HL45 9065  25.267   1.802  -0.550
    1XTA   CO10 9066  25.228   1.832  -0.649
    1XTA   CO11 9067  25.136   2.012  -0.777
    1XTA    OA7 9068  25.128   1.748  -0.706
    1XTA   HL46 9069  25.098   2.108  -0.766
    1XTA   HL47 9070  25.050   1.946  -0.812
    1XTA   HL48 9071  25.845   0.881   0.410
    1XTA   HL49 9072  25.812   1.005   0.293
    1XTA     NT 9073  24.040  -1.309  -0.770
    1XTA    CN1 9074  23.917  -1.258  -0.789
    1XTA     C1 9075  23.888  -1.186  -0.906
    1XTA     C2 9076  23.753  -1.154  -0.944
    1XTA     C3 9077  23.646  -1.188  -0.857
    1XTA     C4 9078  23.680  -1.259  -0.737
    1XTA     C5 9079  23.813  -1.287  -0.707
    1XTA    CN2 9080  24.093  -1.398  -0.859
    1XTA     C6 9081  24.021  -1.518  -0.898
    1XTA     C7 9082  24.072  -1.615  -0.989
    1XTA     C8 9083  24.199  -1.585  -1.042
    1XTA     C9 9084  24.277  -1.471  -0.991
    1XTA    C10 9085  24.222  -1.383  -0.901
    1XTA    CN3 9086  24.098  -1.282  -0.653
    1XTA    C11 9087  24.173  -1.169  -0.650
    1XTA    C12 9088  24.248  -1.134  -0.537
    1XTA    C13 9089  24.248  -1.220  -0.420
    1XTA    C14 9090  24.174  -1.345  -0.423
    1XTA    C15 9091  24.095  -1.366  -0.537
    1XTA     H1 9092  23.968  -1.170  -0.979
    1XTA     H2 9093  23.728  -1.110  -1.043
    1XTA     H3 9094  23.603  -1.276  -0.665
    1XTA     H4 9095  23.830  -1.339  -0.622
    1XTA     H5 9096  23.916  -1.524  -0.869
    1XTA     H6 9097  24.015  -1.700  -1.024
    1XTA     H7 9098  24.371  -1.451  -1.032
    1XTA     H8 9099  24.274  -1.295  -0.863
    1XTA     H9 9100  24.175  -1.099  -0.736
    1XTA    H10 9101  24.312  -1.045  -0.537
    1XTA    H11 9102  24.178  -1.421  -0.339
    1XTA    H12 9103  24.043  -1.455  -0.533
    1XTA    OA1 9104  23.513  -1.159  -0.884
    1XTA    CO1 9105  23.431  -1.116  -0.774
    1XTA    OA2 9106  24.256  -1.661  -1.135
    1XTA    CO2 9107  24.378  -1.720  -1.084
    1XTA    CL1 9108  24.431  -1.806  -1.197
    1XTA    CL2 9109  24.531  -1.912  -1.150
    1XTA    CL3 9110  24.599  -1.995  -1.265
    1XTA    CL4 9111  24.673  -1.905  -1.358
    1XTA    CO3 9112  24.784  -1.818  -1.287
    1XTA    OA3 9113  24.745  -1.680  -1.269
    1XTA    CO4 9114  24.844  -1.607  -1.197
    1XTA    CT1 9115  24.823  -1.458  -1.203
    1XTA    CL5 9116  24.849  -1.400  -1.342
    1XTA    CL6 9117  24.798  -1.485  -1.460
    1XTA    OA4 9118  24.324  -1.185  -0.309
    1XTA    CO5 9119  24.420  -1.285  -0.274
    1XTA    CL7 9120  24.531  -1.221  -0.187
    1XTA    CL8 9121  24.586  -1.093  -0.257
    1XTA    CL9 9122  24.644  -1.126  -0.396
    1XTA   CL10 9123  24.745  -1.016  -0.431
    1XTA    CO6 9124  24.797  -1.048  -0.577
    1XTA    OA5 9125  24.862  -1.170  -0.563
    1XTA    CO7 9126  25.005  -1.184  -0.533
    1XTA    CT2 9127  25.066  -1.324  -0.523
    1XTA   CL11 9128  24.979  -1.402  -0.429
    1XTA   CL12 9129  24.963  -1.346  -0.279
    1XTA    HL1 9130  23.424  -1.194  -0.695
    1XTA    HL2 9131  23.481  -1.036  -0.721
    1XTA    HL3 9132  23.339  -1.069  -0.807
    1XTA    HL4 9133  24.453  -1.650  -1.054
    1XTA    HL5 9134  24.359  -1.784  -0.996
    1XTA    HL6 9135  24.476  -1.739  -1.274
    1XTA    HL7 9136  24.353  -1.858  -1.256
    1XTA    HL8 9137  24.481  -1.983  -1.088
    1XTA    HL9 9138  24.595  -1.857  -1.089
    1XTA   HL10 9139  24.670  -2.070  -1.228
    1XTA   HL11 9140  24.529  -2.052  -1.316
    1XTA   HL12 9141  24.612  -1.849  -1.419
    1XTA   HL13 9142  24.741  -1.967  -1.418
    1XTA   HL14 9143  24.814  -1.866  -1.195
    1XTA   HL15 9144  24.872  -1.827  -1.356
    1XTA   HL16 9145  24.847  -1.646  -1.100
    1XTA   HL17 9146  24.943  -1.634  -1.237
    1XTA   HL18 9147  24.956  -1.403  -1.361
    1XTA   HL19 9148  24.816  -1.293  -1.347
    1XTA   HL20 9149  24.820  -1.440  -1.559
    1XTA   HL21 9150  24.690  -1.470  -1.458
    1XTA   HL22 9151  24.801  -1.593  -1.466
    1XTA   HL23 9152  24.465  -1.313  -0.369
    1XTA   HL24 9153  24.369  -1.372  -0.235
    1XTA   HL25 9154  24.480  -1.197  -0.095
    1XTA   HL26 9155  24.609  -1.295  -0.166
    1XTA   HL27 9156  24.526  -1.003  -0.265
    1XTA   HL28 9157  24.659  -1.051  -0.181
    1XTA   HL29 9158  24.685  -1.222  -0.405
    1XTA   HL30 9159  24.565  -1.132  -0.477
    1XTA   HL31 9160  24.695  -0.913  -0.443
    1XTA   HL32 9161  24.827  -0.996  -0.359
    1XTA   HL33 9162  24.708  -1.062  -0.646
    1XTA   HL34 9163  24.870  -0.990  -0.632
    1XTA   HL35 9164  25.017  -1.128  -0.444
    1XTA   HL36 9165  25.056  -1.126  -0.608
    1XTA   HL37 9166  25.022  -1.505  -0.414
    1XTA   HL38 9167  24.879  -1.422  -0.470
    1XTA   HL39 9168  25.049  -1.323  -0.216
    1XTA   HL40 9169  24.887  -1.405  -0.227
    1XTA   HL41 9170  24.901  -1.252  -0.285
    1XTA    CO8 9171  24.901  -1.385  -1.094
    1XTA    CO9 9172  24.674  -1.432  -1.171
    1XTA    OA6 9173  25.013  -1.400  -1.106
    1XTA   HL42 9174  24.877  -1.412  -0.993
    1XTA   HL43 9175  24.875  -1.280  -1.100
    1XTA   HL44 9176  25.254  -1.409  -0.497
    1XTA   HL45 9177  25.267  -1.254  -0.571
    1XTA   CO10 9178  25.215  -1.309  -0.490
    1XTA   CO11 9179  25.065  -1.385  -0.659
    1XTA    OA7 9180  25.238  -1.264  -0.393
    1XTA   HL46 9181  24.931  -1.400  -0.695
    1XTA   HL47 9182  25.096  -1.494  -0.649
    1XTA   HL48 9183  24.644  -1.493  -1.048
    1XTA   HL49 9184  24.607  -1.483  -1.239
    1XTA     NT 9185  23.923  -1.092   3.944
    1XTA    CN1 9186  23.923  -1.202   3.863
    1XTA     C1 9187  23.885  -1.332   3.916
    1XTA     C2 9188  23.897  -1.450   3.842
    1XTA     C3 9189  23.954  -1.446   3.715
    1XTA     C4 9190  24.007  -1.326   3.661
    1XTA     C5 9191  23.992  -1.213   3.736
    1XTA    CN2 9192  23.860  -1.087   4.064
    1XTA     C6 9193  23.933  -1.095   4.182
    1XTA     C7 9194  23.869  -1.078   4.307
    1XTA     C8 9195  23.728  -1.055   4.312
    1XTA     C9 9196  23.659  -1.057   4.191
    1XTA    C10 9197  23.724  -1.074   4.069
    1XTA    CN3 9198  23.967  -0.973   3.898
    1XTA    C11 9199  24.094  -0.930   3.935
    1XTA    C12 9200  24.140  -0.810   3.880
    1XTA    C13 9201  24.059  -0.730   3.805
    1XTA    C14 9202  23.930  -0.777   3.769
    1XTA    C15 9203  23.884  -0.898   3.816
    1XTA     H1 9204  23.847  -1.337   4.017
    1XTA     H2 9205  23.871  -1.544   3.884
    1XTA     H3 9206  24.045  -1.333   3.557
    1XTA     H4 9207  24.035  -1.132   3.691
    1XTA     H5 9208  24.044  -1.101   4.174
    1XTA     H6 9209  23.934  -1.085   4.397
    1XTA     H7 9210  23.556  -1.017   4.184
    1XTA     H8 9211  23.650  -1.073   3.986
    1XTA     H9 9212  24.169  -0.981   3.993
    1XTA    H10 9213  24.237  -0.772   3.901
    1XTA    H11 9214  23.874  -0.721   3.697
    1XTA    H12 9215  23.796  -0.943   3.774
    1XTA    OA1 9216  23.977  -1.562   3.651
    1XTA    CO1 9217  23.887  -1.669   3.675
    1XTA    OA2 9218  23.660  -1.034   4.429
    1XTA    CO2 9219  23.736  -1.035   4.552
    1XTA    CL1 9220  23.634  -1.011   4.667
    1XTA    CL2 9221  23.680  -1.051   4.804
    1XTA    CL3 9222  23.814  -0.981   4.847
    1XTA    CL4 9223  23.864  -1.013   4.986
    1XTA    CO3 9224  23.987  -0.947   5.034
    1XTA    OA3 9225  24.090  -1.017   4.969
    1XTA    CO4 9226  24.212  -0.969   5.005
    1XTA    CT1 9227  24.330  -1.057   4.948
    1XTA    CL5 9228  24.316  -1.199   4.995
    1XTA    CL6 9229  24.431  -1.304   5.001
    1XTA    OA4 9230  24.110  -0.619   3.754
    1XTA    CO5 9231  24.029  -0.508   3.719
    1XTA    CL7 9232  24.117  -0.383   3.704
    1XTA    CL8 9233  24.042  -0.259   3.674
    1XTA    CL9 9234  24.136  -0.149   3.623
    1XTA   CL10 9235  24.234  -0.092   3.727
    1XTA    CO6 9236  24.313   0.024   3.666
    1XTA    OA5 9237  24.408  -0.037   3.577
    1XTA    CO7 9238  24.537  -0.052   3.627
    1XTA    CT2 9239  24.625  -0.141   3.536
    1XTA   CL11 9240  24.586  -0.298   3.516
    1XTA   CL12 9241  24.692  -0.398   3.459
    1XTA    HL1 9242  23.783  -1.643   3.660
    1XTA    HL2 9243  23.901  -1.741   3.597
    1XTA    HL3 9244  23.909  -1.721   3.766
    1XTA    HL4 9245  23.798  -1.124   4.555
    1XTA    HL5 9246  23.813  -0.957   4.554
    1XTA    HL6 9247  23.551  -1.072   4.634
    1XTA    HL7 9248  23.597  -0.907   4.676
    1XTA    HL8 9249  23.691  -1.162   4.815
    1XTA    HL9 9250  23.599  -1.025   4.871
    1XTA   HL10 9251  23.886  -0.980   4.773
    1XTA   HL11 9252  23.779  -0.875   4.848
    1XTA   HL12 9253  23.882  -1.118   4.994
    1XTA   HL13 9254  23.772  -1.003   5.052
    1XTA   HL14 9255  23.988  -0.835   5.000
    1XTA   HL15 9256  23.993  -0.950   5.144
    1XTA   HL16 9257  24.229  -0.862   4.980
    1XTA   HL17 9258  24.224  -0.976   5.112
    1XTA   HL18 9259  24.232  -1.241   4.937
    1XTA   HL19 9260  24.281  -1.193   5.097
    1XTA   HL20 9261  24.500  -1.272   5.080
    1XTA   HL21 9262  24.486  -1.308   4.908
    1XTA   HL22 9263  24.390  -1.401   5.027
    1XTA   HL23 9264  23.942  -0.508   3.782
    1XTA   HL24 9265  23.993  -0.518   3.611
    1XTA   HL25 9266  24.177  -0.365   3.794
    1XTA   HL26 9267  24.197  -0.403   3.627
    1XTA   HL27 9268  23.972  -0.282   3.594
    1XTA   HL28 9269  23.995  -0.234   3.769
    1XTA   HL29 9270  24.199  -0.183   3.539
    1XTA   HL30 9271  24.090  -0.067   3.567
    1XTA   HL31 9272  24.188  -0.072   3.821
    1XTA   HL32 9273  24.301  -0.173   3.750
    1XTA   HL33 9274  24.247   0.093   3.608
    1XTA   HL34 9275  24.367   0.075   3.740
    1XTA   HL35 9276  24.533  -0.081   3.727
    1XTA   HL36 9277  24.582   0.041   3.630
    1XTA   HL37 9278  24.506  -0.294   3.439
    1XTA   HL38 9279  24.531  -0.344   3.597
    1XTA   HL39 9280  24.728  -0.364   3.358
    1XTA   HL40 9281  24.644  -0.496   3.447
    1XTA   HL41 9282  24.773  -0.428   3.524
    1XTA    CO8 9283  24.456  -0.986   4.998
    1XTA    CO9 9284  24.338  -1.057   4.796
    1XTA    OA6 9285  24.475  -1.019   5.099
    1XTA   HL42 9286  24.446  -0.881   4.978
    1XTA   HL43 9287  24.542  -1.032   4.947
    1XTA   HL44 9288  24.784  -0.025   3.641
    1XTA   HL45 9289  24.761  -0.196   3.684
    1XTA   CO10 9290  24.767  -0.126   3.601
    1XTA   CO11 9291  24.618  -0.074   3.394
    1XTA    OA7 9292  24.864  -0.166   3.511
    1XTA   HL46 9293  24.670  -0.141   3.320
    1XTA   HL47 9294  24.681   0.006   3.404
    1XTA   HL48 9295  24.445  -1.133   4.745
    1XTA   HL49 9296  24.254  -1.112   4.750
    1XTA     NT 9297  25.397  -1.028   1.530
    1XTA    CN1 9298  25.301  -1.029   1.430
    1XTA     C1 9299  25.161  -1.030   1.459
    1XTA     C2 9300  25.067  -1.034   1.355
    1XTA     C3 9301  25.110  -1.031   1.219
    1XTA     C4 9302  25.247  -1.023   1.194
    1XTA     C5 9303  25.343  -1.023   1.296
    1XTA    CN2 9304  25.434  -1.141   1.581
    1XTA     C6 9305  25.355  -1.206   1.679
    1XTA     C7 9306  25.396  -1.325   1.745
    1XTA     C8 9307  25.516  -1.381   1.721
    1XTA     C9 9308  25.606  -1.308   1.633
    1XTA    C10 9309  25.563  -1.196   1.557
    1XTA    CN3 9310  25.455  -0.911   1.574
    1XTA    C11 9311  25.498  -0.808   1.482
    1XTA    C12 9312  25.545  -0.685   1.530
    1XTA    C13 9313  25.559  -0.660   1.666
    1XTA    C14 9314  25.513  -0.754   1.765
    1XTA    C15 9315  25.463  -0.885   1.718
    1XTA     H1 9316  25.129  -1.038   1.558
    1XTA     H2 9317  24.961  -1.032   1.375
    1XTA     H3 9318  25.269  -1.025   1.088
    1XTA     H4 9319  25.449  -1.034   1.276
    1XTA     H5 9320  25.250  -1.180   1.701
    1XTA     H6 9321  25.326  -1.359   1.810
    1XTA     H7 9322  25.704  -1.354   1.628
    1XTA     H8 9323  25.630  -1.153   1.478
    1XTA     H9 9324  25.488  -0.836   1.376
    1XTA    H10 9325  25.583  -0.614   1.457
    1XTA    H11 9326  25.536  -0.730   1.869
    1XTA    H12 9327  25.424  -0.959   1.787
    1XTA    OA1 9328  25.009  -1.013   1.133
    1XTA    CO1 9329  25.036  -0.997   0.990
    1XTA    OA2 9330  25.557  -1.488   1.795
    1XTA    CO2 9331  25.676  -1.559   1.758
    1XTA    CL1 9332  25.678  -1.680   1.846
    1XTA    CL2 9333  25.582  -1.789   1.798
    1XTA    CL3 9334  25.619  -1.860   1.663
    1XTA    CL4 9335  25.512  -1.953   1.608
    1XTA    CO3 9336  25.428  -1.901   1.491
    1XTA    OA3 9337  25.512  -1.902   1.372
    1XTA    CO4 9338  25.453  -1.832   1.270
    1XTA    CT1 9339  25.500  -1.894   1.137
    1XTA    CL5 9340  25.636  -1.830   1.102
    1XTA    CL6 9341  25.704  -1.912   0.990
    1XTA    OA4 9342  25.603  -0.541   1.719
    1XTA    CO5 9343  25.715  -0.485   1.653
    1XTA    CL7 9344  25.753  -0.369   1.744
    1XTA    CL8 9345  25.897  -0.346   1.777
    1XTA    CL9 9346  25.959  -0.420   1.892
    1XTA   CL10 9347  25.951  -0.572   1.872
    1XTA    CO6 9348  26.052  -0.649   1.957
    1XTA    OA5 9349  26.089  -0.779   1.902
    1XTA    CO7 9350  26.194  -0.763   1.806
    1XTA    CT2 9351  26.234  -0.899   1.737
    1XTA   CL11 9352  26.114  -0.956   1.662
    1XTA   CL12 9353  26.136  -1.092   1.587
    1XTA    HL1 9354  25.110  -1.072   0.965
    1XTA    HL2 9355  24.938  -1.010   0.937
    1XTA    HL3 9356  25.078  -0.900   0.963
    1XTA    HL4 9357  25.685  -1.581   1.660
    1XTA    HL5 9358  25.762  -1.495   1.787
    1XTA    HL6 9359  25.661  -1.672   1.956
    1XTA    HL7 9360  25.778  -1.728   1.828
    1XTA    HL8 9361  25.489  -1.750   1.792
    1XTA    HL9 9362  25.585  -1.869   1.880
    1XTA   HL10 9363  25.649  -1.790   1.587
    1XTA   HL11 9364  25.705  -1.921   1.684
    1XTA   HL12 9365  25.432  -1.983   1.682
    1XTA   HL13 9366  25.554  -2.049   1.577
    1XTA   HL14 9367  25.345  -1.977   1.468
    1XTA   HL15 9368  25.386  -1.801   1.499
    1XTA   HL16 9369  25.349  -1.842   1.286
    1XTA   HL17 9370  25.462  -1.723   1.270
    1XTA   HL18 9371  25.698  -1.825   1.197
    1XTA   HL19 9372  25.614  -1.731   1.064
    1XTA   HL20 9373  25.723  -2.010   1.026
    1XTA   HL21 9374  25.796  -1.872   0.951
    1XTA   HL22 9375  25.640  -1.922   0.901
    1XTA   HL23 9376  25.691  -0.447   1.557
    1XTA   HL24 9377  25.801  -0.550   1.639
    1XTA   HL25 9378  25.699  -0.277   1.705
    1XTA   HL26 9379  25.708  -0.385   1.841
    1XTA   HL27 9380  25.963  -0.364   1.690
    1XTA   HL28 9381  25.913  -0.239   1.805
    1XTA   HL29 9382  26.066  -0.400   1.895
    1XTA   HL30 9383  25.920  -0.394   1.989
    1XTA   HL31 9384  25.851  -0.615   1.879
    1XTA   HL32 9385  25.977  -0.584   1.766
    1XTA   HL33 9386  26.137  -0.590   1.969
    1XTA   HL34 9387  26.023  -0.671   2.063
    1XTA   HL35 9388  26.275  -0.713   1.862
    1XTA   HL36 9389  26.144  -0.700   1.732
    1XTA   HL37 9390  26.085  -0.888   1.585
    1XTA   HL38 9391  26.029  -0.957   1.740
    1XTA   HL39 9392  26.154  -1.067   1.480
    1XTA   HL40 9393  26.038  -1.149   1.585
    1XTA   HL41 9394  26.211  -1.142   1.629
    1XTA    CO8 9395  25.392  -1.860   1.026
    1XTA    CO9 9396  25.500  -2.045   1.144
    1XTA    OA6 9397  25.371  -2.096   1.190
    1XTA   HL42 9398  25.425  -1.904   0.931
    1XTA   HL43 9399  25.303  -1.910   1.046
    1XTA   HL44 9400  26.322  -1.098   1.793
    1XTA   HL45 9401  26.230  -1.016   1.927
    1XTA   CO10 9402  26.294  -1.004   1.836
    1XTA   CO11 9403  26.355  -0.870   1.635
    1XTA    OA7 9404  26.408  -0.996   1.579
    1XTA   HL46 9405  26.318  -0.813   1.546
    1XTA   HL47 9406  26.433  -0.815   1.680
    1XTA   HL48 9407  25.578  -2.078   1.214
    1XTA   HL49 9408  25.516  -2.090   1.044
    1XTA     NT 9409  31.593   0.965   1.621
    1XTA    CN1 9410  31.578   0.843   1.562
    1XTA     C1 9411  31.682   0.753   1.581
    1XTA     C2 9412  31.688   0.634   1.513
    1XTA     C3 9413  31.584   0.603   1.423
    1XTA     C4 9414  31.478   0.686   1.403
    1XTA     C5 9415  31.468   0.813   1.476
    1XTA    CN2 9416  31.502   1.018   1.702
    1XTA     C6 9417  31.451   1.149   1.679
    1XTA     C7 9418  31.362   1.215   1.769
    1XTA     C8 9419  31.338   1.152   1.893
    1XTA     C9 9420  31.370   1.016   1.906
    1XTA    C10 9421  31.454   0.949   1.816
    1XTA    CN3 9422  31.691   1.049   1.582
    1XTA    C11 9423  31.778   1.111   1.675
    1XTA    C12 9424  31.865   1.208   1.628
    1XTA    C13 9425  31.880   1.236   1.495
    1XTA    C14 9426  31.818   1.154   1.402
    1XTA    C15 9427  31.717   1.069   1.444
    1XTA     H1 9428  31.761   0.777   1.656
    1XTA     H2 9429  31.782   0.569   1.524
    1XTA     H3 9430  31.406   0.645   1.340
    1XTA     H4 9431  31.391   0.875   1.451
    1XTA     H5 9432  31.473   1.198   1.591
    1XTA     H6 9433  31.331   1.321   1.750
    1XTA     H7 9434  31.334   0.968   1.993
    1XTA     H8 9435  31.492   0.851   1.830
    1XTA     H9 9436  31.766   1.080   1.783
    1XTA    H10 9437  31.929   1.265   1.697
    1XTA    H11 9438  31.837   1.161   1.296
    1XTA    H12 9439  31.660   1.014   1.370
    1XTA    OA1 9440  31.586   0.495   1.343
    1XTA    CO1 9441  31.706   0.417   1.345
    1XTA    OA2 9442  31.267   1.216   1.980
    1XTA    CO2 9443  31.319   1.223   2.114
    1XTA    CL1 9444  31.381   1.365   2.135
    1XTA    CL2 9445  31.518   1.391   2.058
    1XTA    CL3 9446  31.536   1.547   2.055
    1XTA    CL4 9447  31.689   1.576   2.027
    1XTA    CO3 9448  31.716   1.730   2.027
    1XTA    OA3 9449  31.853   1.753   2.005
    1XTA    CO4 9450  31.890   1.886   2.003
    1XTA    CT1 9451  32.044   1.917   2.004
    1XTA    CL5 9452  32.118   1.884   2.137
    1XTA    CL6 9453  32.109   1.975   2.268
    1XTA    OA4 9454  31.965   1.337   1.456
    1XTA    CO5 9455  31.986   1.453   1.544
    1XTA    CL7 9456  31.848   1.519   1.572
    1XTA    CL8 9457  31.850   1.656   1.625
    1XTA    CL9 9458  31.713   1.710   1.656
    1XTA   CL10 9459  31.635   1.737   1.525
    1XTA    CO6 9460  31.487   1.731   1.558
    1XTA    OA5 9461  31.455   1.828   1.658
    1XTA    CO7 9462  31.448   1.959   1.606
    1XTA    CT2 9463  31.321   2.037   1.666
    1XTA   CL11 9464  31.356   2.104   1.801
    1XTA   CL12 9465  31.443   2.023   1.890
    1XTA    HL1 9466  31.695   0.325   1.292
    1XTA    HL2 9467  31.783   0.480   1.302
    1XTA    HL3 9468  31.749   0.394   1.437
    1XTA    HL4 9469  31.233   1.214   2.180
    1XTA    HL5 9470  31.393   1.148   2.149
    1XTA    HL6 9471  31.414   1.361   2.238
    1XTA    HL7 9472  31.315   1.457   2.111
    1XTA    HL8 9473  31.520   1.349   1.954
    1XTA    HL9 9474  31.606   1.344   2.107
    1XTA   HL10 9475  31.471   1.607   1.981
    1XTA   HL11 9476  31.509   1.591   2.152
    1XTA   HL12 9477  31.710   1.531   1.931
    1XTA   HL13 9478  31.751   1.536   2.100
    1XTA   HL14 9479  31.667   1.775   1.942
    1XTA   HL15 9480  31.676   1.778   2.118
    1XTA   HL16 9481  31.847   1.940   1.916
    1XTA   HL17 9482  31.842   1.938   2.092
    1XTA   HL18 9483  32.219   1.854   2.118
    1XTA   HL19 9484  32.071   1.789   2.174
    1XTA   HL20 9485  32.125   2.077   2.253
    1XTA   HL21 9486  32.172   1.955   2.356
    1XTA   HL22 9487  32.007   1.963   2.294
    1XTA   HL23 9488  32.062   1.527   1.498
    1XTA   HL24 9489  32.033   1.418   1.635
    1XTA   HL25 9490  31.809   1.515   1.472
    1XTA   HL26 9491  31.777   1.457   1.627
    1XTA   HL27 9492  31.914   1.661   1.711
    1XTA   HL28 9493  31.891   1.735   1.562
    1XTA   HL29 9494  31.665   1.636   1.719
    1XTA   HL30 9495  31.720   1.800   1.721
    1XTA   HL31 9496  31.666   1.830   1.482
    1XTA   HL32 9497  31.656   1.660   1.453
    1XTA   HL33 9498  31.429   1.745   1.470
    1XTA   HL34 9499  31.458   1.633   1.599
    1XTA   HL35 9500  31.438   1.960   1.495
    1XTA   HL36 9501  31.531   2.018   1.650
    1XTA   HL37 9502  31.254   2.136   1.842
    1XTA   HL38 9503  31.403   2.202   1.791
    1XTA   HL39 9504  31.412   1.921   1.902
    1XTA   HL40 9505  31.448   2.068   1.982
    1XTA   HL41 9506  31.545   2.037   1.859
    1XTA    CO8 9507  32.065   2.071   1.972
    1XTA    CO9 9508  32.109   1.847   1.887
    1XTA    OA6 9509  32.006   2.095   1.884
    1XTA   HL42 9510  32.175   2.099   1.962
    1XTA   HL43 9511  32.030   2.132   2.052
    1XTA   HL44 9512  31.116   1.998   1.727
    1XTA   HL45 9513  31.237   1.843   1.776
    1XTA   CO10 9514  31.198   1.946   1.685
    1XTA   CO11 9515  31.267   2.141   1.567
    1XTA    OA7 9516  31.202   2.216   1.620
    1XTA   HL46 9517  31.360   2.177   1.536
    1XTA   HL47 9518  31.217   2.089   1.483
    1XTA   HL48 9519  32.103   1.706   1.900
    1XTA   HL49 9520  32.047   1.867   1.795
    1XTA     NT 9521  27.123   1.280   4.144
    1XTA    CN1 9522  27.019   1.314   4.072
    1XTA     C1 9523  26.891   1.338   4.128
    1XTA     C2 9524  26.785   1.388   4.052
    1XTA     C3 9525  26.796   1.412   3.915
    1XTA     C4 9526  26.928   1.380   3.861
    1XTA     C5 9527  27.038   1.336   3.936
    1XTA    CN2 9528  27.164   1.153   4.153
    1XTA     C6 9529  27.102   1.061   4.239
    1XTA     C7 9530  27.151   0.931   4.244
    1XTA     C8 9531  27.261   0.886   4.165
    1XTA     C9 9532  27.320   0.984   4.080
    1XTA    C10 9533  27.269   1.112   4.067
    1XTA    CN3 9534  27.173   1.368   4.237
    1XTA    C11 9535  27.108   1.384   4.359
    1XTA    C12 9536  27.132   1.491   4.450
    1XTA    C13 9537  27.227   1.586   4.419
    1XTA    C14 9538  27.298   1.568   4.293
    1XTA    C15 9539  27.271   1.462   4.200
    1XTA     H1 9540  26.864   1.329   4.233
    1XTA     H2 9541  26.689   1.409   4.100
    1XTA     H3 9542  26.952   1.401   3.762
    1XTA     H4 9543  27.135   1.319   3.887
    1XTA     H5 9544  27.022   1.088   4.304
    1XTA     H6 9545  27.105   0.865   4.315
    1XTA     H7 9546  27.411   0.953   4.023
    1XTA     H8 9547  27.315   1.194   4.006
    1XTA     H9 9548  27.033   1.311   4.381
    1XTA    H10 9549  27.088   1.496   4.547
    1XTA    H11 9550  27.377   1.641   4.269
    1XTA    H12 9551  27.322   1.443   4.108
    1XTA    OA1 9552  26.698   1.480   3.841
    1XTA    CO1 9553  26.680   1.417   3.710
    1XTA    OA2 9554  27.317   0.760   4.180
    1XTA    CO2 9555  27.251   0.674   4.278
    1XTA    CL1 9556  27.317   0.537   4.275
    1XTA    CL2 9557  27.270   0.449   4.390
    1XTA    CL3 9558  27.124   0.410   4.395
    1XTA    CL4 9559  27.086   0.306   4.289
    1XTA    CO3 9560  26.931   0.286   4.295
    1XTA    OA3 9561  26.856   0.381   4.221
    1XTA    CO4 9562  26.766   0.460   4.306
    1XTA    CT1 9563  26.712   0.593   4.246
    1XTA    CL5 9564  26.830   0.663   4.185
    1XTA    CL6 9565  26.890   0.598   4.054
    1XTA    OA4 9566  27.237   1.701   4.492
    1XTA    CO5 9567  27.126   1.758   4.558
    1XTA    CL7 9568  27.154   1.906   4.577
    1XTA    CL8 9569  27.151   2.002   4.454
    1XTA    CL9 9570  27.140   2.146   4.479
    1XTA   CL10 9571  27.126   2.225   4.352
    1XTA    CO6 9572  27.252   2.243   4.271
    1XTA    OA5 9573  27.337   2.296   4.365
    1XTA    CO7 9574  27.454   2.359   4.313
    1XTA    CT2 9575  27.558   2.368   4.424
    1XTA   CL11 9576  27.612   2.224   4.453
    1XTA   CL12 9577  27.520   2.133   4.529
    1XTA    HL1 9578  26.599   1.467   3.651
    1XTA    HL2 9579  26.777   1.418   3.663
    1XTA    HL3 9580  26.645   1.312   3.718
    1XTA    HL4 9581  27.265   0.719   4.384
    1XTA    HL5 9582  27.140   0.656   4.259
    1XTA    HL6 9583  27.425   0.550   4.271
    1XTA    HL7 9584  27.291   0.492   4.177
    1XTA    HL8 9585  27.308   0.502   4.471
    1XTA    HL9 9586  27.316   0.351   4.395
    1XTA   HL10 9587  27.092   0.385   4.499
    1XTA   HL11 9588  27.062   0.495   4.363
    1XTA   HL12 9589  27.146   0.217   4.307
    1XTA   HL13 9590  27.114   0.336   4.185
    1XTA   HL14 9591  26.904   0.181   4.274
    1XTA   HL15 9592  26.899   0.295   4.405
    1XTA   HL16 9593  26.691   0.403   4.363
    1XTA   HL17 9594  26.834   0.502   4.384
    1XTA   HL18 9595  26.917   0.679   4.252
    1XTA   HL19 9596  26.803   0.767   4.168
    1XTA   HL20 9597  27.001   0.581   4.061
    1XTA   HL21 9598  26.873   0.655   3.958
    1XTA   HL22 9599  26.863   0.494   4.039
    1XTA   HL23 9600  27.113   1.708   4.654
    1XTA   HL24 9601  27.033   1.745   4.494
    1XTA   HL25 9602  27.077   1.937   4.645
    1XTA   HL26 9603  27.245   1.934   4.632
    1XTA   HL27 9604  27.239   1.986   4.399
    1XTA   HL28 9605  27.066   1.979   4.395
    1XTA   HL29 9606  27.044   2.164   4.533
    1XTA   HL30 9607  27.224   2.183   4.538
    1XTA   HL31 9608  27.045   2.183   4.285
    1XTA   HL32 9609  27.092   2.322   4.372
    1XTA   HL33 9610  27.298   2.150   4.233
    1XTA   HL34 9611  27.235   2.309   4.186
    1XTA   HL35 9612  27.428   2.462   4.271
    1XTA   HL36 9613  27.499   2.299   4.242
    1XTA   HL37 9614  27.705   2.231   4.509
    1XTA   HL38 9615  27.632   2.179   4.365
    1XTA   HL39 9616  27.564   2.036   4.534
    1XTA   HL40 9617  27.417   2.124   4.493
    1XTA   HL41 9618  27.505   2.174   4.635
    1XTA    CO8 9619  26.626   0.664   4.351
    1XTA    CO9 9620  26.612   0.556   4.135
    1XTA    OA6 9621  26.548   0.669   4.078
    1XTA   HL42 9622  26.520   0.639   4.340
    1XTA   HL43 9623  26.661   0.630   4.446
    1XTA   HL44 9624  27.448   2.391   4.617
    1XTA   HL45 9625  27.615   2.436   4.618
    1XTA   CO10 9626  27.520   2.443   4.556
    1XTA   CO11 9627  27.677   2.443   4.370
    1XTA    OA7 9628  27.470   2.543   4.534
    1XTA   HL46 9629  27.706   2.391   4.244
    1XTA   HL47 9630  27.654   2.556   4.364
    1XTA   HL48 9631  26.534   0.494   4.164
    1XTA   HL49 9632  26.658   0.502   4.060
    1XTA     NT 9633  25.252  -0.271   4.245
    1XTA    CN1 9634  25.267  -0.375   4.332
    1XTA     C1 9635  25.212  -0.501   4.308
    1XTA     C2 9636  25.248  -0.600   4.395
    1XTA     C3 9637  25.347  -0.587   4.498
    1XTA     C4 9638  25.408  -0.466   4.515
    1XTA     C5 9639  25.370  -0.365   4.431
    1XTA    CN2 9640  25.139  -0.197   4.250
    1XTA     C6 9641  25.137  -0.102   4.349
    1XTA     C7 9642  25.036  -0.005   4.358
    1XTA     C8 9643  24.923  -0.028   4.281
    1XTA     C9 9644  24.918  -0.125   4.179
    1XTA    C10 9645  25.023  -0.217   4.166
    1XTA    CN3 9646  25.355  -0.225   4.168
    1XTA    C11 9647  25.389  -0.302   4.055
    1XTA    C12 9648  25.496  -0.260   3.975
    1XTA    C13 9649  25.587  -0.160   4.023
    1XTA    C14 9650  25.552  -0.089   4.141
    1XTA    C15 9651  25.433  -0.121   4.209
    1XTA     H1 9652  25.135  -0.522   4.230
    1XTA     H2 9653  25.189  -0.690   4.392
    1XTA     H3 9654  25.479  -0.451   4.594
    1XTA     H4 9655  25.427  -0.280   4.446
    1XTA     H5 9656  25.220  -0.097   4.422
    1XTA     H6 9657  25.037   0.073   4.430
    1XTA     H7 9658  24.832  -0.135   4.119
    1XTA     H8 9659  25.027  -0.301   4.094
    1XTA     H9 9660  25.328  -0.390   4.028
    1XTA    H10 9661  25.518  -0.319   3.886
    1XTA    H11 9662  25.604  -0.001   4.183
    1XTA    H12 9663  25.402  -0.071   4.297
    1XTA    OA1 9664  25.387  -0.691   4.578
    1XTA    CO1 9665  25.307  -0.808   4.572
    1XTA    OA2 9666  24.817   0.058   4.315
    1XTA    CO2 9667  24.686   0.029   4.263
    1XTA    CL1 9668  24.578   0.120   4.318
    1XTA    CL2 9669  24.599   0.265   4.284
    1XTA    CL3 9670  24.513   0.369   4.369
    1XTA    CL4 9671  24.539   0.516   4.323
    1XTA    CO3 9672  24.513   0.619   4.430
    1XTA    OA3 9673  24.536   0.743   4.372
    1XTA    CO4 9674  24.526   0.852   4.467
    1XTA    CT1 9675  24.564   0.974   4.401
    1XTA    CL5 9676  24.541   1.098   4.487
    1XTA    CL6 9677  24.392   1.123   4.536
    1XTA    OA4 9678  25.710  -0.132   3.955
    1XTA    CO5 9679  25.800  -0.042   4.013
    1XTA    CL7 9680  25.935  -0.058   3.946
    1XTA    CL8 9681  25.934  -0.037   3.796
    1XTA    CL9 9682  26.072  -0.044   3.735
    1XTA   CL10 9683  26.059  -0.032   3.587
    1XTA    CO6 9684  26.046   0.112   3.543
    1XTA    OA5 9685  26.165   0.180   3.570
    1XTA    CO7 9686  26.172   0.319   3.536
    1XTA    CT2 9687  26.232   0.383   3.662
    1XTA   CL11 9688  26.363   0.311   3.704
    1XTA   CL12 9689  26.448   0.253   3.588
    1XTA    HL1 9690  25.360  -0.897   4.624
    1XTA    HL2 9691  25.203  -0.794   4.612
    1XTA    HL3 9692  25.296  -0.843   4.467
    1XTA    HL4 9693  24.686   0.035   4.152
    1XTA    HL5 9694  24.657  -0.070   4.286
    1XTA    HL6 9695  24.588   0.101   4.424
    1XTA    HL7 9696  24.480   0.087   4.278
    1XTA    HL8 9697  24.606   0.283   4.176
    1XTA    HL9 9698  24.701   0.284   4.315
    1XTA   HL10 9699  24.411   0.342   4.346
    1XTA   HL11 9700  24.520   0.357   4.475
    1XTA   HL12 9701  24.479   0.534   4.236
    1XTA   HL13 9702  24.642   0.521   4.288
    1XTA   HL14 9703  24.410   0.621   4.473
    1XTA   HL15 9704  24.580   0.591   4.511
    1XTA   HL16 9705  24.418   0.848   4.501
    1XTA   HL17 9706  24.601   0.834   4.546
    1XTA   HL18 9707  24.595   1.189   4.448
    1XTA   HL19 9708  24.595   1.078   4.575
    1XTA   HL20 9709  24.369   1.218   4.583
    1XTA   HL21 9710  24.377   1.034   4.599
    1XTA   HL22 9711  24.325   1.117   4.452
    1XTA   HL23 9712  25.809  -0.062   4.120
    1XTA   HL24 9713  25.766   0.055   4.010
    1XTA   HL25 9714  26.002   0.021   3.982
    1XTA   HL26 9715  25.983  -0.156   3.984
    1XTA   HL27 9716  25.860  -0.112   3.755
    1XTA   HL28 9717  25.879   0.054   3.769
    1XTA   HL29 9718  26.134   0.027   3.787
    1XTA   HL30 9719  26.119  -0.143   3.742
    1XTA   HL31 9720  26.147  -0.074   3.536
    1XTA   HL32 9721  25.976  -0.087   3.546
    1XTA   HL33 9722  26.039   0.115   3.438
    1XTA   HL34 9723  25.964   0.166   3.593
    1XTA   HL35 9724  26.074   0.358   3.529
    1XTA   HL36 9725  26.231   0.339   3.443
    1XTA   HL37 9726  26.340   0.230   3.777
    1XTA   HL38 9727  26.400   0.390   3.767
    1XTA   HL39 9728  26.531   0.191   3.615
    1XTA   HL40 9729  26.486   0.338   3.537
    1XTA   HL41 9730  26.395   0.201   3.516
    1XTA    CO8 9731  24.515   0.982   4.252
    1XTA    CO9 9732  24.718   0.956   4.391
    1XTA    OA6 9733  24.402   0.963   4.250
    1XTA   HL42 9734  24.571   0.908   4.196
    1XTA   HL43 9735  24.531   1.080   4.208
    1XTA   HL44 9736  26.052   0.439   3.752
    1XTA   HL45 9737  26.092   0.286   3.760
    1XTA   CO10 9738  26.139   0.380   3.776
    1XTA   CO11 9739  26.252   0.534   3.640
    1XTA    OA7 9740  26.194   0.402   3.905
    1XTA   HL46 9741  26.161   0.584   3.610
    1XTA   HL47 9742  26.323   0.552   3.564
    1XTA   HL48 9743  24.752   0.833   4.335
    1XTA   HL49 9744  24.748   1.025   4.319
    1XTA     NT 9745  27.990   2.266   6.441
    1XTA    CN1 9746  27.971   2.253   6.575
    1XTA     C1 9747  27.895   2.339   6.656
    1XTA     C2 9748  27.883   2.321   6.790
    1XTA     C3 9749  27.919   2.201   6.848
    1XTA     C4 9750  27.979   2.099   6.773
    1XTA     C5 9751  28.005   2.129   6.632
    1XTA    CN2 9752  27.892   2.334   6.376
    1XTA     C6 9753  27.916   2.472   6.358
    1XTA     C7 9754  27.808   2.548   6.313
    1XTA     C8 9755  27.678   2.499   6.297
    1XTA     C9 9756  27.657   2.368   6.326
    1XTA    C10 9757  27.761   2.281   6.357
    1XTA    CN3 9758  28.112   2.244   6.392
    1XTA    C11 9759  28.135   2.165   6.279
    1XTA    C12 9760  28.262   2.148   6.228
    1XTA    C13 9761  28.371   2.206   6.290
    1XTA    C14 9762  28.353   2.284   6.404
    1XTA    C15 9763  28.223   2.302   6.453
    1XTA     H1 9764  27.842   2.422   6.609
    1XTA     H2 9765  27.846   2.413   6.844
    1XTA     H3 9766  28.013   2.006   6.811
    1XTA     H4 9767  28.066   2.057   6.578
    1XTA     H5 9768  28.014   2.515   6.379
    1XTA     H6 9769  27.827   2.650   6.279
    1XTA     H7 9770  27.555   2.330   6.336
    1XTA     H8 9771  27.737   2.176   6.387
    1XTA     H9 9772  28.045   2.114   6.234
    1XTA    H10 9773  28.275   2.090   6.145
    1XTA    H11 9774  28.441   2.318   6.459
    1XTA    H12 9775  28.205   2.356   6.544
    1XTA    OA1 9776  27.909   2.187   6.983
    1XTA    CO1 9777  27.833   2.272   7.057
    1XTA    OA2 9778  27.567   2.573   6.281
    1XTA    CO2 9779  27.585   2.692   6.211
    1XTA    CL1 9780  27.448   2.766   6.197
    1XTA    CL2 9781  27.412   2.853   6.316
    1XTA    CL3 9782  27.278   2.928   6.285
    1XTA    CL4 9783  27.253   3.048   6.380
    1XTA    CO3 9784  27.123   3.111   6.342
    1XTA    OA3 9785  27.009   3.032   6.393
    1XTA    CO4 9786  26.972   3.063   6.525
    1XTA    CT1 9787  26.815   3.057   6.544
    1XTA    CL5 9788  26.745   3.135   6.430
    1XTA    CL6 9789  26.791   3.281   6.411
    1XTA    OA4 9790  28.500   2.188   6.234
    1XTA    CO5 9791  28.607   2.262   6.278
    1XTA    CL7 9792  28.598   2.411   6.247
    1XTA    CL8 9793  28.727   2.488   6.287
    1XTA    CL9 9794  28.710   2.645   6.253
    1XTA   CL10 9795  28.622   2.715   6.356
    1XTA    CO6 9796  28.574   2.846   6.303
    1XTA    OA5 9797  28.474   2.815   6.205
    1XTA    CO7 9798  28.396   2.935   6.174
    1XTA    CT2 9799  28.326   2.922   6.039
    1XTA   CL11 9800  28.222   2.805   6.040
    1XTA   CL12 9801  28.264   2.661   6.047
    1XTA    HL1 9802  27.735   2.277   7.005
    1XTA    HL2 9803  27.802   2.236   7.157
    1XTA    HL3 9804  27.875   2.367   7.066
    1XTA    HL4 9805  27.647   2.758   6.268
    1XTA    HL5 9806  27.627   2.688   6.108
    1XTA    HL6 9807  27.364   2.699   6.170
    1XTA    HL7 9808  27.458   2.837   6.112
    1XTA    HL8 9809  27.493   2.926   6.329
    1XTA    HL9 9810  27.399   2.810   6.416
    1XTA   HL10 9811  27.288   2.961   6.181
    1XTA   HL11 9812  27.193   2.867   6.283
    1XTA   HL12 9813  27.343   3.118   6.386
    1XTA   HL13 9814  27.241   3.026   6.485
    1XTA   HL14 9815  27.112   3.218   6.366
    1XTA   HL15 9816  27.125   3.124   6.236
    1XTA   HL16 9817  27.022   3.007   6.603
    1XTA   HL17 9818  27.003   3.160   6.561
    1XTA   HL18 9819  26.633   3.132   6.439
    1XTA   HL19 9820  26.761   3.072   6.339
    1XTA   HL20 9821  26.747   3.320   6.320
    1XTA   HL21 9822  26.900   3.290   6.389
    1XTA   HL22 9823  26.756   3.350   6.482
    1XTA   HL23 9824  28.700   2.221   6.236
    1XTA   HL24 9825  28.610   2.247   6.391
    1XTA   HL25 9826  28.575   2.430   6.139
    1XTA   HL26 9827  28.506   2.446   6.303
    1XTA   HL27 9828  28.742   2.476   6.390
    1XTA   HL28 9829  28.813   2.440   6.237
    1XTA   HL29 9830  28.809   2.686   6.246
    1XTA   HL30 9831  28.671   2.654   6.149
    1XTA   HL31 9832  28.532   2.663   6.386
    1XTA   HL32 9833  28.675   2.726   6.451
    1XTA   HL33 9834  28.536   2.898   6.388
    1XTA   HL34 9835  28.660   2.896   6.265
    1XTA   HL35 9836  28.463   3.023   6.164
    1XTA   HL36 9837  28.326   2.962   6.257
    1XTA   HL37 9838  28.156   2.826   5.957
    1XTA   HL38 9839  28.146   2.805   6.119
    1XTA   HL39 9840  28.334   2.626   5.969
    1XTA   HL40 9841  28.179   2.592   6.033
    1XTA   HL41 9842  28.311   2.640   6.144
    1XTA    CO8 9843  26.792   3.110   6.689
    1XTA    CO9 9844  26.763   2.903   6.545
    1XTA    OA6 9845  26.831   2.846   6.657
    1XTA   HL42 9846  26.835   3.058   6.770
    1XTA   HL43 9847  26.836   3.214   6.692
    1XTA   HL44 9848  28.517   2.983   5.944
    1XTA   HL45 9849  28.479   2.800   5.952
    1XTA   CO10 9850  28.442   2.903   5.940
    1XTA   CO11 9851  28.264   3.064   6.023
    1XTA    OA7 9852  28.387   2.921   5.812
    1XTA   HL46 9853  28.336   3.145   6.060
    1XTA   HL47 9854  28.246   3.091   5.917
    1XTA   HL48 9855  26.782   2.836   6.466
    1XTA   HL49 9856  26.662   2.899   6.565
    1XTA     NT 9857  25.963   3.883  -0.444
    1XTA    CN1 9858  25.973   4.017  -0.475
    1XTA     C1 9859  25.922   4.069  -0.596
    1XTA     C2 9860  25.965   4.201  -0.625
    1XTA     C3 9861  26.046   4.275  -0.541
    1XTA     C4 9862  26.091   4.221  -0.420
    1XTA     C5 9863  26.051   4.094  -0.385
    1XTA    CN2 9864  25.881   3.838  -0.344
    1XTA     C6 9865  25.745   3.830  -0.358
    1XTA     C7 9866  25.672   3.781  -0.250
    1XTA     C8 9867  25.733   3.753  -0.125
    1XTA     C9 9868  25.874   3.763  -0.116
    1XTA    C10 9869  25.943   3.801  -0.226
    1XTA    CN3 9870  26.048   3.791  -0.508
    1XTA    C11 9871  26.000   3.719  -0.620
    1XTA    C12 9872  26.085   3.632  -0.693
    1XTA    C13 9873  26.222   3.606  -0.655
    1XTA    C14 9874  26.275   3.689  -0.551
    1XTA    C15 9875  26.185   3.782  -0.483
    1XTA     H1 9876  25.867   4.009  -0.673
    1XTA     H2 9877  25.928   4.244  -0.711
    1XTA     H3 9878  26.145   4.285  -0.348
    1XTA     H4 9879  26.086   4.049  -0.293
    1XTA     H5 9880  25.694   3.844  -0.452
    1XTA     H6 9881  25.566   3.755  -0.265
    1XTA     H7 9882  25.934   3.742  -0.025
    1XTA     H8 9883  26.045   3.807  -0.229
    1XTA     H9 9884  25.895   3.736  -0.647
    1XTA    H10 9885  26.048   3.569  -0.776
    1XTA    H11 9886  26.380   3.685  -0.517
    1XTA    H12 9887  26.230   3.826  -0.398
    1XTA    OA1 9888  26.080   4.403  -0.576
    1XTA    CO1 9889  25.980   4.474  -0.648
    1XTA    OA2 9890  25.647   3.691  -0.031
    1XTA    CO2 9891  25.715   3.608   0.060
    1XTA    CL1 9892  25.620   3.532   0.165
    1XTA    CL2 9893  25.698   3.426   0.250
    1XTA    CL3 9894  25.735   3.450   0.393
    1XTA    CL4 9895  25.797   3.333   0.472
    1XTA    CO3 9896  25.691   3.241   0.523
    1XTA    OA3 9897  25.759   3.152   0.613
    1XTA    CO4 9898  25.818   3.041   0.548
    1XTA    CT1 9899  25.780   2.908   0.608
    1XTA    CL5 9900  25.631   2.894   0.600
    1XTA    CL6 9901  25.567   2.754   0.621
    1XTA    OA4 9902  26.291   3.508  -0.714
    1XTA    CO5 9903  26.417   3.481  -0.658
    1XTA    CL7 9904  26.484   3.376  -0.750
    1XTA    CL8 9905  26.545   3.439  -0.875
    1XTA    CL9 9906  26.617   3.331  -0.963
    1XTA   CL10 9907  26.748   3.275  -0.907
    1XTA    CO6 9908  26.859   3.383  -0.897
    1XTA    OA5 9909  26.970   3.302  -0.850
    1XTA    CO7 9910  27.085   3.383  -0.840
    1XTA    CT2 9911  27.170   3.328  -0.718
    1XTA   CL11 9912  27.210   3.178  -0.738
    1XTA   CL12 9913  27.267   3.137  -0.875
    1XTA    HL1 9914  25.870   4.450  -0.629
    1XTA    HL2 9915  25.989   4.582  -0.623
    1XTA    HL3 9916  26.000   4.473  -0.756
    1XTA    HL4 9917  25.780   3.541   0.012
    1XTA    HL5 9918  25.776   3.677   0.116
    1XTA    HL6 9919  25.523   3.492   0.118
    1XTA    HL7 9920  25.594   3.620   0.231
    1XTA    HL8 9921  25.795   3.400   0.197
    1XTA    HL9 9922  25.638   3.334   0.226
    1XTA   HL10 9923  25.805   3.530   0.397
    1XTA   HL11 9924  25.648   3.494   0.447
    1XTA   HL12 9925  25.848   3.361   0.565
    1XTA   HL13 9926  25.872   3.284   0.406
    1XTA   HL14 9927  25.608   3.291   0.581
    1XTA   HL15 9928  25.639   3.189   0.439
    1XTA   HL16 9929  25.790   3.033   0.442
    1XTA   HL17 9930  25.929   3.055   0.551
    1XTA   HL18 9931  25.600   2.935   0.502
    1XTA   HL19 9932  25.588   2.956   0.683
    1XTA   HL20 9933  25.576   2.689   0.538
    1XTA   HL21 9934  25.459   2.764   0.634
    1XTA   HL22 9935  25.623   2.710   0.707
    1XTA   HL23 9936  26.415   3.444  -0.557
    1XTA   HL24 9937  26.483   3.569  -0.674
    1XTA   HL25 9938  26.563   3.318  -0.699
    1XTA   HL26 9939  26.399   3.315  -0.775
    1XTA   HL27 9940  26.466   3.498  -0.924
    1XTA   HL28 9941  26.617   3.526  -0.854
    1XTA   HL29 9942  26.543   3.250  -0.973
    1XTA   HL30 9943  26.640   3.370  -1.065
    1XTA   HL31 9944  26.745   3.217  -0.815
    1XTA   HL32 9945  26.771   3.196  -0.977
    1XTA   HL33 9946  26.871   3.420  -0.999
    1XTA   HL34 9947  26.838   3.473  -0.840
    1XTA   HL35 9948  27.065   3.481  -0.819
    1XTA   HL36 9949  27.134   3.370  -0.935
    1XTA   HL37 9950  27.125   3.112  -0.741
    1XTA   HL38 9951  27.272   3.139  -0.662
    1XTA   HL39 9952  27.327   3.047  -0.860
    1XTA   HL40 9953  27.329   3.211  -0.925
    1XTA   HL41 9954  27.190   3.116  -0.952
    1XTA    CO8 9955  25.828   2.901   0.758
    1XTA    CO9 9956  25.846   2.792   0.529
    1XTA    OA6 9957  25.935   2.879   0.757
    1XTA   HL42 9958  25.768   2.820   0.801
    1XTA   HL43 9959  25.812   2.990   0.819
    1XTA   HL44 9960  26.967   3.256  -0.605
    1XTA   HL45 9961  27.036   3.435  -0.590
    1XTA   CO10 9962  27.080   3.337  -0.596
    1XTA   CO11 9963  27.286   3.422  -0.688
    1XTA    OA7 9964  27.247   3.525  -0.670
    1XTA   HL46 9965  27.342   3.383  -0.606
    1XTA   HL47 9966  27.362   3.435  -0.768
    1XTA   HL48 9967  25.982   2.812   0.533
    1XTA   HL49 9968  25.820   2.702   0.588
    1XTA     NT 9969  28.680   0.275   4.848
    1XTA    CN1 9970  28.641   0.153   4.800
    1XTA     C1 9971  28.720   0.041   4.822
    1XTA     C2 9972  28.672  -0.078   4.770
    1XTA     C3 9973  28.538  -0.096   4.711
    1XTA     C4 9974  28.465   0.018   4.694
    1XTA     C5 9975  28.512   0.140   4.740
    1XTA    CN2 9976  28.812   0.312   4.850
    1XTA     C6 9977  28.891   0.326   4.732
    1XTA     C7 9978  29.026   0.365   4.745
    1XTA     C8 9979  29.083   0.392   4.871
    1XTA     C9 9980  29.006   0.375   4.984
    1XTA    C10 9981  28.874   0.332   4.976
    1XTA    CN3 9982  28.589   0.359   4.905
    1XTA    C11 9983  28.546   0.334   5.031
    1XTA    C12 9984  28.459   0.426   5.091
    1XTA    C13 9985  28.423   0.548   5.033
    1XTA    C14 9986  28.474   0.571   4.906
    1XTA    C15 9987  28.561   0.481   4.845
    1XTA     H1 9988  28.813   0.051   4.872
    1XTA     H2 9989  28.742  -0.160   4.788
    1XTA     H3 9990  28.372   0.012   4.642
    1XTA     H4 9991  28.449   0.226   4.712
    1XTA     H5 9992  28.851   0.306   4.628
    1XTA     H6 9993  29.081   0.380   4.650
    1XTA     H7 9994  29.054   0.414   5.075
    1XTA     H8 9995  28.817   0.312   5.071
    1XTA     H9 9996  28.591   0.253   5.082
    1XTA    H10 9997  28.417   0.415   5.191
    1XTA    H11 9998  28.437   0.667   4.873
    1XTA    H12 9999  28.601   0.492   4.741
    1XTA    OA110000  28.499  -0.218   4.660
    1XTA    CO110001  28.603  -0.307   4.613
    1XTA    OA210002  29.206   0.445   4.893
    1XTA    CO210003  29.305   0.429   4.797
    1XTA    CL110004  29.346   0.278   4.768
    1XTA    CL210005  29.368   0.191   4.897
    1XTA    CL310006  29.487   0.232   4.981
    1XTA    CL410007  29.520   0.122   5.083
    1XTA    CO310008  29.604   0.181   5.201
    1XTA    OA310009  29.539   0.300   5.251
    1XTA    CO410010  29.616   0.369   5.339
    1XTA    CT110011  29.551   0.504   5.368
    1XTA    CL510012  29.656   0.601   5.441
    1XTA    CL610013  29.700   0.546   5.585
    1XTA    OA410014  28.321   0.624   5.091
    1XTA    CO510015  28.318   0.766   5.069
    1XTA    CL710016  28.229   0.826   5.175
    1XTA    CL810017  28.085   0.809   5.133
    1XTA    CL910018  27.987   0.843   5.248
    1XTA   CL1010019  27.997   0.983   5.298
    1XTA    CO610020  27.900   1.008   5.414
    1XTA    OA510021  27.918   0.916   5.520
    1XTA    CO710022  28.030   0.941   5.604
    1XTA    CT210023  28.047   0.827   5.707
    1XTA   CL1110024  28.165   0.849   5.797
    1XTA   CL1210025  28.300   0.870   5.738
    1XTA    HL110026  28.575  -0.394   4.555
    1XTA    HL210027  28.674  -0.259   4.551
    1XTA    HL310028  28.648  -0.345   4.704
    1XTA    HL410029  29.264   0.462   4.701
    1XTA    HL510030  29.393   0.487   4.821
    1XTA    HL610031  29.430   0.262   4.701
    1XTA    HL710032  29.263   0.233   4.724
    1XTA    HL810033  29.376   0.083   4.869
    1XTA    HL910034  29.278   0.184   4.958
    1XTA   HL1010035  29.569   0.247   4.908
    1XTA   HL1110036  29.462   0.323   5.029
    1XTA   HL1210037  29.567   0.036   5.030
    1XTA   HL1310038  29.430   0.083   5.133
    1XTA   HL1410039  29.607   0.102   5.275
    1XTA   HL1510040  29.707   0.204   5.183
    1XTA   HL1610041  29.624   0.297   5.422
    1XTA   HL1710042  29.712   0.391   5.294
    1XTA   HL1810043  29.599   0.690   5.461
    1XTA   HL1910044  29.742   0.617   5.382
    1XTA   HL2010045  29.770   0.458   5.570
    1XTA   HL2110046  29.605   0.533   5.647
    1XTA   HL2210047  29.748   0.631   5.638
    1XTA   HL2310048  28.274   0.783   4.969
    1XTA   HL2410049  28.417   0.809   5.065
    1XTA   HL2510050  28.255   0.769   5.262
    1XTA   HL2610051  28.248   0.936   5.192
    1XTA   HL2710052  28.064   0.877   5.051
    1XTA   HL2810053  28.066   0.710   5.097
    1XTA   HL2910054  27.882   0.822   5.227
    1XTA   HL3010055  28.021   0.781   5.331
    1XTA   HL3110056  28.097   1.009   5.341
    1XTA   HL3210057  27.970   1.059   5.222
    1XTA   HL3310058  27.897   1.108   5.437
    1XTA   HL3410059  27.799   0.979   5.384
    1XTA   HL3510060  28.006   1.040   5.651
    1XTA   HL3610061  28.122   0.959   5.553
    1XTA   HL3710062  28.178   0.763   5.863
    1XTA   HL3810063  28.124   0.936   5.852
    1XTA   HL3910064  28.388   0.871   5.805
    1XTA   HL4010065  28.303   0.962   5.686
    1XTA   HL4110066  28.317   0.796   5.656
    1XTA    CO810067  29.419   0.490   5.448
    1XTA    CO910068  29.505   0.571   5.237
    1XTA    OA610069  29.363   0.607   5.496
    1XTA   HL4210070  29.435   0.418   5.528
    1XTA   HL4310071  29.329   0.449   5.391
    1XTA   HL4410072  28.154   0.717   5.556
    1XTA   HL4510073  28.118   0.620   5.699
    1XTA   CO1010074  28.070   0.696   5.625
    1XTA   CO1110075  27.919   0.803   5.791
    1XTA    OA710076  27.978   0.652   5.571
    1XTA   HL4610077  27.921   0.687   5.871
    1XTA   HL4710078  27.836   0.793   5.721
    1XTA   HL4810079  29.452   0.501   5.170
    1XTA   HL4910080  29.432   0.654   5.275
    1XTA     NT10081  27.976   1.338   2.228
    1XTA    CN110082  27.960   1.226   2.156
    1XTA     C110083  27.913   1.103   2.215
    1XTA     C210084  27.937   0.978   2.150
    1XTA     C310085  28.010   0.968   2.032
    1XTA     C410086  28.056   1.094   1.974
    1XTA     C510087  28.021   1.222   2.029
    1XTA    CN210088  27.898   1.444   2.181
    1XTA     C610089  27.776   1.461   2.242
    1XTA     C710090  27.696   1.575   2.211
    1XTA     C810091  27.746   1.669   2.122
    1XTA     C910092  27.866   1.648   2.056
    1XTA    C1010093  27.947   1.540   2.094
    1XTA    CN310094  28.087   1.349   2.301
    1XTA    C1110095  28.094   1.281   2.427
    1XTA    C1210096  28.208   1.292   2.509
    1XTA    C1310097  28.308   1.380   2.475
    1XTA    C1410098  28.299   1.449   2.352
    1XTA    C1510099  28.194   1.427   2.261
    1XTA     H110100  27.876   1.101   2.321
    1XTA     H210101  27.892   0.886   2.191
    1XTA     H310102  28.119   1.097   1.881
    1XTA     H410103  28.067   1.313   1.992
    1XTA     H510104  27.744   1.389   2.317
    1XTA     H610105  27.594   1.602   2.254
    1XTA     H710106  27.917   1.712   1.986
    1XTA     H810107  28.042   1.535   2.042
    1XTA     H910108  28.009   1.223   2.473
    1XTA    H1010109  28.202   1.251   2.619
    1XTA    H1110110  28.373   1.527   2.332
    1XTA    H1210111  28.188   1.482   2.171
    1XTA    OA110112  28.040   0.849   1.968
    1XTA    CO110113  28.030   0.725   2.048
    1XTA    OA210114  27.683   1.786   2.097
    1XTA    CO210115  27.585   1.827   2.187
    1XTA    CL110116  27.534   1.966   2.141
    1XTA    CL210117  27.451   2.035   2.249
    1XTA    CL310118  27.312   1.966   2.271
    1XTA    CL410119  27.218   2.029   2.376
    1XTA    CO310120  27.099   1.935   2.403
    1XTA    OA310121  27.135   1.800   2.445
    1XTA    CO410122  27.038   1.706   2.399
    1XTA    CT110123  27.063   1.554   2.432
    1XTA    CL510124  27.205   1.500   2.391
    1XTA    CL610125  27.248   1.530   2.246
    1XTA    OA410126  28.415   1.407   2.564
    1XTA    CO510127  28.513   1.492   2.519
    1XTA    CL710128  28.487   1.647   2.529
    1XTA    CL810129  28.583   1.720   2.435
    1XTA    CL910130  28.546   1.867   2.439
    1XTA   CL1010131  28.425   1.909   2.350
    1XTA    CO610132  28.402   2.064   2.358
    1XTA    OA510133  28.298   2.098   2.267
    1XTA    CO710134  28.173   2.096   2.325
    1XTA    CT210135  28.069   2.079   2.211
    1XTA   CL1110136  28.076   1.944   2.135
    1XTA   CL1210137  28.076   1.822   2.219
    1XTA    HL110138  28.101   0.653   1.998
    1XTA    HL210139  28.067   0.734   2.151
    1XTA    HL310140  27.932   0.686   2.065
    1XTA    HL410141  27.494   1.771   2.175
    1XTA    HL510142  27.627   1.818   2.288
    1XTA    HL610143  27.477   1.940   2.051
    1XTA    HL710144  27.619   2.024   2.104
    1XTA    HL810145  27.426   2.133   2.213
    1XTA    HL910146  27.518   2.047   2.331
    1XTA   HL1010147  27.258   1.980   2.173
    1XTA   HL1110148  27.328   1.857   2.288
    1XTA   HL1210149  27.179   2.125   2.332
    1XTA   HL1310150  27.272   2.051   2.470
    1XTA   HL1410151  27.038   1.983   2.476
    1XTA   HL1510152  27.037   1.939   2.320
    1XTA   HL1610153  26.944   1.736   2.444
    1XTA   HL1710154  27.024   1.714   2.289
    1XTA   HL1810155  27.199   1.392   2.398
    1XTA   HL1910156  27.277   1.527   2.476
    1XTA   HL2010157  27.160   1.558   2.192
    1XTA   HL2110158  27.302   1.456   2.183
    1XTA   HL2210159  27.306   1.631   2.254
    1XTA   HL2310160  28.552   1.461   2.426
    1XTA   HL2410161  28.608   1.463   2.579
    1XTA   HL2510162  28.383   1.670   2.495
    1XTA   HL2610163  28.492   1.687   2.631
    1XTA   HL2710164  28.680   1.699   2.457
    1XTA   HL2810165  28.569   1.678   2.334
    1XTA   HL2910166  28.527   1.895   2.538
    1XTA   HL3010167  28.634   1.921   2.405
    1XTA   HL3110168  28.442   1.886   2.254
    1XTA   HL3210169  28.338   1.851   2.388
    1XTA   HL3310170  28.380   2.098   2.455
    1XTA   HL3410171  28.491   2.114   2.312
    1XTA   HL3510172  28.169   2.177   2.393
    1XTA   HL3610173  28.165   2.005   2.385
    1XTA   HL3710174  28.167   1.946   2.070
    1XTA   HL3810175  27.993   1.944   2.067
    1XTA   HL3910176  27.974   1.811   2.257
    1XTA   HL4010177  28.131   1.821   2.315
    1XTA   HL4110178  28.099   1.727   2.169
    1XTA    CO810179  26.954   1.473   2.364
    1XTA    CO910180  27.059   1.535   2.586
    1XTA    OA610181  26.826   1.500   2.402
    1XTA   HL4210182  26.967   1.367   2.393
    1XTA   HL4310183  26.973   1.473   2.252
    1XTA   HL4410184  28.078   2.289   2.171
    1XTA   HL4510185  28.170   2.188   2.047
    1XTA   CO1010186  28.077   2.197   2.105
    1XTA   CO1110187  27.933   2.092   2.281
    1XTA    OA710188  27.932   2.211   2.355
    1XTA   HL4610189  27.853   2.083   2.213
    1XTA   HL4710190  27.922   2.004   2.342
    1XTA   HL4810191  27.137   1.603   2.637
    1XTA   HL4910192  26.960   1.578   2.608
    1XTA     NT10193  26.057   1.568   0.760
    1XTA    CN110194  26.070   1.446   0.697
    1XTA     C110195  26.029   1.436   0.561
    1XTA     C210196  26.030   1.313   0.490
    1XTA     C310197  26.062   1.194   0.560
    1XTA     C410198  26.103   1.207   0.693
    1XTA     C510199  26.102   1.330   0.760
    1XTA    CN210200  25.935   1.625   0.777
    1XTA     C610201  25.857   1.596   0.891
    1XTA     C710202  25.737   1.667   0.915
    1XTA     C810203  25.689   1.761   0.819
    1XTA     C910204  25.765   1.789   0.706
    1XTA    C1010205  25.887   1.716   0.681
    1XTA    CN310206  26.171   1.637   0.788
    1XTA    C1110207  26.242   1.715   0.694
    1XTA    C1210208  26.351   1.793   0.733
    1XTA    C1310209  26.386   1.809   0.865
    1XTA    C1410210  26.318   1.733   0.961
    1XTA    C1510211  26.210   1.649   0.924
    1XTA     H110212  25.995   1.520   0.499
    1XTA     H210213  26.008   1.309   0.391
    1XTA     H310214  26.127   1.126   0.760
    1XTA     H410215  26.129   1.344   0.865
    1XTA     H510216  25.901   1.520   0.954
    1XTA     H610217  25.682   1.636   1.008
    1XTA     H710218  25.741   1.862   0.630
    1XTA     H810219  25.952   1.754   0.602
    1XTA     H910220  26.208   1.717   0.593
    1XTA    H1010221  26.388   1.865   0.658
    1XTA    H1110222  26.354   1.761   1.060
    1XTA    H1210223  26.146   1.612   1.000
    1XTA    OA110224  26.062   1.076   0.489
    1XTA    CO110225  26.104   0.972   0.570
    1XTA    OA210226  25.565   1.829   0.840
    1XTA    CO210227  25.513   1.829   0.969
    1XTA    CL110228  25.387   1.910   0.989
    1XTA    CL210229  25.264   1.839   0.930
    1XTA    CL310230  25.220   1.709   1.004
    1XTA    CL410231  25.111   1.639   0.928
    1XTA    CO310232  25.111   1.491   0.943
    1XTA    OA310233  25.111   1.448   1.081
    1XTA    CO410234  24.996   1.489   1.150
    1XTA    CT110235  25.012   1.467   1.305
    1XTA    CL510236  24.879   1.504   1.382
    1XTA    CL610237  24.763   1.406   1.346
    1XTA    OA410238  26.489   1.897   0.908
    1XTA    CO510239  26.534   1.991   0.817
    1XTA    CL710240  26.632   2.082   0.895
    1XTA    CL810241  26.766   2.011   0.908
    1XTA    CL910242  26.871   2.056   0.806
    1XTA   CL1010243  26.992   1.969   0.794
    1XTA    CO610244  26.960   1.835   0.737
    1XTA    OA510245  27.083   1.761   0.742
    1XTA    CO710246  27.068   1.626   0.782
    1XTA    CT210247  27.195   1.541   0.765
    1XTA   CL1110248  27.196   1.419   0.862
    1XTA   CL1210249  27.090   1.312   0.833
    1XTA    HL110250  26.122   0.882   0.514
    1XTA    HL210251  26.195   0.992   0.626
    1XTA    HL310252  26.039   0.948   0.654
    1XTA    HL410253  25.499   1.726   1.007
    1XTA    HL510254  25.583   1.864   1.033
    1XTA    HL610255  25.387   2.003   0.938
    1XTA    HL710256  25.377   1.942   1.097
    1XTA    HL810257  25.294   1.821   0.826
    1XTA    HL910258  25.182   1.906   0.918
    1XTA   HL1010259  25.290   1.627   1.025
    1XTA   HL1110260  25.175   1.732   1.101
    1XTA   HL1210261  25.127   1.658   0.819
    1XTA   HL1310262  25.020   1.686   0.956
    1XTA   HL1410263  25.036   1.442   0.885
    1XTA   HL1510264  25.202   1.457   0.896
    1XTA   HL1610265  24.970   1.590   1.136
    1XTA   HL1710266  24.913   1.430   1.120
    1XTA   HL1810267  24.836   1.600   1.361
    1XTA   HL1910268  24.890   1.497   1.490
    1XTA   HL2010269  24.798   1.302   1.326
    1XTA   HL2110270  24.721   1.446   1.256
    1XTA   HL2210271  24.695   1.387   1.432
    1XTA   HL2310272  26.449   2.059   0.795
    1XTA   HL2410273  26.581   1.954   0.721
    1XTA   HL2510274  26.657   2.173   0.844
    1XTA   HL2610275  26.589   2.122   0.989
    1XTA   HL2710276  26.814   2.008   1.008
    1XTA   HL2810277  26.741   1.915   0.872
    1XTA   HL2910278  26.822   2.068   0.710
    1XTA   HL3010279  26.902   2.154   0.834
    1XTA   HL3110280  27.061   2.024   0.737
    1XTA   HL3210281  27.028   1.947   0.893
    1XTA   HL3310282  26.891   1.800   0.805
    1XTA   HL3410283  26.914   1.833   0.642
    1XTA   HL3510284  26.987   1.588   0.718
    1XTA   HL3610285  27.045   1.626   0.886
    1XTA   HL3710286  27.178   1.458   0.962
    1XTA   HL3810287  27.285   1.362   0.862
    1XTA   HL3910288  27.100   1.222   0.899
    1XTA   HL4010289  27.074   1.270   0.734
    1XTA   HL4110290  26.994   1.355   0.870
    1XTA    CO810291  25.125   1.561   1.355
    1XTA    CO910292  25.048   1.319   1.342
    1XTA    OA610293  25.089   1.667   1.354
    1XTA   HL4210294  25.203   1.547   1.285
    1XTA   HL4310295  25.155   1.535   1.452
    1XTA   HL4410296  27.316   1.721   0.727
    1XTA   HL4510297  27.302   1.682   0.889
    1XTA   CO1010298  27.315   1.633   0.795
    1XTA   CO1110299  27.217   1.489   0.615
    1XTA    OA710300  27.439   1.565   0.814
    1XTA   HL4610301  27.257   1.571   0.549
    1XTA   HL4710302  27.295   1.411   0.605
    1XTA   HL4810303  25.186   1.308   1.327
    1XTA   HL4910304  24.995   1.246   1.281
    1XTA     NT10305  30.424   2.757   3.644
    1XTA    CN110306  30.438   2.887   3.641
    1XTA     C110307  30.363   2.963   3.557
    1XTA     C210308  30.386   3.104   3.552
    1XTA     C310309  30.494   3.159   3.621
    1XTA     C410310  30.565   3.081   3.717
    1XTA     C510311  30.542   2.944   3.717
    1XTA    CN210312  30.522   2.670   3.608
    1XTA     C610313  30.597   2.678   3.483
    1XTA     C710314  30.707   2.591   3.457
    1XTA     C810315  30.744   2.488   3.542
    1XTA     C910316  30.670   2.477   3.664
    1XTA    C1010317  30.557   2.561   3.694
    1XTA    CN310318  30.308   2.700   3.680
    1XTA    C1110319  30.244   2.748   3.794
    1XTA    C1210320  30.120   2.708   3.823
    1XTA    C1310321  30.049   2.622   3.743
    1XTA    C1410322  30.104   2.583   3.620
    1XTA    C1510323  30.240   2.610   3.592
    1XTA     H110324  30.283   2.917   3.495
    1XTA     H210325  30.327   3.160   3.477
    1XTA     H310326  30.639   3.126   3.778
    1XTA     H410327  30.594   2.886   3.789
    1XTA     H510328  30.561   2.761   3.419
    1XTA     H610329  30.767   2.608   3.369
    1XTA     H710330  30.710   2.406   3.740
    1XTA     H810331  30.510   2.557   3.785
    1XTA     H910332  30.291   2.813   3.863
    1XTA    H1010333  30.075   2.746   3.916
    1XTA    H1110334  30.038   2.525   3.551
    1XTA    H1210335  30.285   2.563   3.501
    1XTA    OA110336  30.518   3.296   3.621
    1XTA    CO110337  30.512   3.360   3.494
    1XTA    OA210338  30.857   2.416   3.507
    1XTA    CO210339  30.907   2.336   3.612
    1XTA    CL110340  31.033   2.261   3.566
    1XTA    CL210341  31.159   2.345   3.522
    1XTA    CL310342  31.268   2.328   3.636
    1XTA    CL410343  31.386   2.417   3.592
    1XTA    CO310344  31.505   2.416   3.693
    1XTA    OA310345  31.550   2.293   3.727
    1XTA    CO410346  31.632   2.213   3.642
    1XTA    CT110347  31.697   2.092   3.717
    1XTA    CL510348  31.796   2.154   3.826
    1XTA    CL610349  31.924   2.212   3.759
    1XTA    OA410350  29.929   2.575   3.791
    1XTA    CO510351  29.825   2.572   3.698
    1XTA    CL710352  29.796   2.437   3.642
    1XTA    CL810353  29.702   2.445   3.520
    1XTA    CL910354  29.650   2.308   3.480
    1XTA   CL1010355  29.541   2.322   3.375
    1XTA    CO610356  29.493   2.181   3.340
    1XTA    OA510357  29.602   2.134   3.259
    1XTA    CO710358  29.585   1.988   3.231
    1XTA    CT210359  29.707   1.935   3.159
    1XTA   CL1110360  29.666   1.792   3.127
    1XTA   CL1210361  29.740   1.713   3.019
    1XTA    HL110362  30.407   3.396   3.479
    1XTA    HL210363  30.581   3.441   3.495
    1XTA    HL310364  30.561   3.306   3.414
    1XTA    HL410365  30.935   2.389   3.709
    1XTA    HL510366  30.830   2.273   3.630
    1XTA    HL610367  31.011   2.203   3.477
    1XTA    HL710368  31.064   2.185   3.641
    1XTA    HL810369  31.141   2.449   3.514
    1XTA    HL910370  31.191   2.316   3.425
    1XTA   HL1010371  31.232   2.369   3.737
    1XTA   HL1110372  31.287   2.220   3.651
    1XTA   HL1210373  31.349   2.516   3.575
    1XTA   HL1310374  31.418   2.386   3.499
    1XTA   HL1410375  31.591   2.478   3.659
    1XTA   HL1510376  31.479   2.474   3.785
    1XTA   HL1610377  31.576   2.162   3.560
    1XTA   HL1710378  31.702   2.282   3.596
    1XTA   HL1810379  31.821   2.085   3.904
    1XTA   HL1910380  31.733   2.235   3.869
    1XTA   HL2010381  31.980   2.134   3.693
    1XTA   HL2110382  31.989   2.252   3.837
    1XTA   HL2210383  31.902   2.302   3.692
    1XTA   HL2310384  29.850   2.648   3.623
    1XTA   HL2410385  29.729   2.603   3.749
    1XTA   HL2510386  29.886   2.390   3.604
    1XTA   HL2610387  29.766   2.363   3.713
    1XTA   HL2710388  29.616   2.511   3.532
    1XTA   HL2810389  29.763   2.484   3.436
    1XTA   HL2910390  29.728   2.225   3.453
    1XTA   HL3010391  29.599   2.265   3.570
    1XTA   HL3110392  29.455   2.385   3.401
    1XTA   HL3210393  29.562   2.377   3.282
    1XTA   HL3310394  29.477   2.123   3.440
    1XTA   HL3410395  29.402   2.189   3.281
    1XTA   HL3510396  29.499   1.993   3.161
    1XTA   HL3610397  29.565   1.936   3.325
    1XTA   HL3710398  29.563   1.798   3.103
    1XTA   HL3810399  29.665   1.738   3.224
    1XTA   HL3910400  29.703   1.610   3.017
    1XTA   HL4010401  29.852   1.702   3.018
    1XTA   HL4110402  29.720   1.752   2.922
    1XTA    CO810403  31.769   2.005   3.611
    1XTA    CO910404  31.594   1.998   3.782
    1XTA    OA610405  31.835   2.072   3.508
    1XTA   HL4210406  31.692   1.941   3.568
    1XTA   HL4310407  31.848   1.946   3.653
    1XTA   HL4410408  29.895   1.854   3.230
    1XTA   HL4510409  29.877   2.034   3.262
    1XTA   CO1010410  29.826   1.932   3.258
    1XTA   CO1110411  29.747   2.019   3.037
    1XTA    OA710412  29.789   1.879   3.389
    1XTA   HL4610413  29.734   2.120   3.073
    1XTA   HL4710414  29.668   2.006   2.955
    1XTA   HL4810415  31.642   1.902   3.782
    1XTA   HL4910416  31.589   2.002   3.891
    1XTA     NT10417  32.712   0.585   7.670
    1XTA    CN110418  32.763   0.462   7.658
    1XTA     C110419  32.673   0.352   7.667
    1XTA     C210420  32.725   0.224   7.646
    1XTA     C310421  32.860   0.197   7.610
    1XTA     C410422  32.948   0.306   7.616
    1XTA     C510423  32.896   0.439   7.632
    1XTA    CN210424  32.719   0.669   7.561
    1XTA     C610425  32.819   0.763   7.550
    1XTA     C710426  32.825   0.842   7.439
    1XTA     C810427  32.729   0.834   7.333
    1XTA     C910428  32.623   0.743   7.353
    1XTA    C1010429  32.616   0.666   7.469
    1XTA    CN310430  32.686   0.631   7.797
    1XTA    C1110431  32.800   0.638   7.886
    1XTA    C1210432  32.777   0.674   8.022
    1XTA    C1310433  32.651   0.697   8.067
    1XTA    C1410434  32.544   0.711   7.980
    1XTA    C1510435  32.559   0.674   7.841
    1XTA     H110436  32.571   0.361   7.693
    1XTA     H210437  32.650   0.141   7.636
    1XTA     H310438  33.053   0.292   7.611
    1XTA     H410439  32.963   0.521   7.641
    1XTA     H510440  32.887   0.776   7.627
    1XTA     H610441  32.901   0.917   7.438
    1XTA     H710442  32.547   0.743   7.275
    1XTA     H810443  32.536   0.595   7.497
    1XTA     H910444  32.902   0.612   7.856
    1XTA    H1010445  32.858   0.695   8.094
    1XTA    H1110446  32.448   0.753   8.021
    1XTA    H1210447  32.477   0.686   7.774
    1XTA    OA110448  32.898   0.065   7.588
    1XTA    CO110449  33.038   0.046   7.561
    1XTA    OA210450  32.739   0.909   7.209
    1XTA    CO210451  32.762   1.043   7.226
    1XTA    CL110452  32.647   1.128   7.271
    1XTA    CL210453  32.629   1.132   7.424
    1XTA    CL310454  32.494   1.201   7.471
    1XTA    CL410455  32.494   1.226   7.624
    1XTA    CO310456  32.520   1.106   7.721
    1XTA    OA310457  32.521   1.161   7.851
    1XTA    CO410458  32.579   1.071   7.952
    1XTA    CT110459  32.624   1.140   8.083
    1XTA    CL510460  32.528   1.245   8.136
    1XTA    CL610461  32.394   1.177   8.167
    1XTA    OA410462  32.642   0.719   8.198
    1XTA    CO510463  32.540   0.644   8.264
    1XTA    CL710464  32.560   0.667   8.416
    1XTA    CL810465  32.703   0.623   8.445
    1XTA    CL910466  32.732   0.661   8.587
    1XTA   CL1010467  32.873   0.640   8.626
    1XTA    CO610468  32.983   0.698   8.536
    1XTA    OA510469  32.975   0.838   8.562
    1XTA    CO710470  33.029   0.914   8.454
    1XTA    CT210471  32.932   1.034   8.429
    1XTA   CL1110472  32.908   1.124   8.560
    1XTA   CL1210473  33.042   1.176   8.613
    1XTA    HL110474  33.055  -0.054   7.536
    1XTA    HL210475  33.068   0.116   7.487
    1XTA    HL310476  33.112   0.060   7.641
    1XTA    HL410477  32.851   1.046   7.284
    1XTA    HL510478  32.793   1.086   7.131
    1XTA    HL610479  32.551   1.093   7.220
    1XTA    HL710480  32.655   1.228   7.231
    1XTA    HL810481  32.713   1.193   7.470
    1XTA    HL910482  32.631   1.036   7.471
    1XTA   HL1010483  32.484   1.297   7.430
    1XTA   HL1110484  32.408   1.151   7.430
    1XTA   HL1210485  32.399   1.272   7.651
    1XTA   HL1310486  32.572   1.300   7.650
    1XTA   HL1410487  32.447   1.035   7.721
    1XTA   HL1510488  32.622   1.072   7.703
    1XTA   HL1610489  32.501   0.992   7.975
    1XTA   HL1710490  32.670   1.034   7.898
    1XTA   HL1810491  32.496   1.324   8.066
    1XTA   HL1910492  32.569   1.292   8.226
    1XTA   HL2010493  32.398   1.096   8.240
    1XTA   HL2110494  32.358   1.136   8.075
    1XTA   HL2210495  32.316   1.243   8.210
    1XTA   HL2310496  32.561   0.539   8.250
    1XTA   HL2410497  32.448   0.681   8.220
    1XTA   HL2510498  32.543   0.772   8.423
    1XTA   HL2610499  32.486   0.607   8.476
    1XTA   HL2710500  32.703   0.513   8.444
    1XTA   HL2810501  32.779   0.649   8.370
    1XTA   HL2910502  32.705   0.772   8.594
    1XTA   HL3010503  32.668   0.611   8.661
    1XTA   HL3110504  32.878   0.695   8.716
    1XTA   HL3210505  32.885   0.532   8.636
    1XTA   HL3310506  33.082   0.681   8.567
    1XTA   HL3410507  32.976   0.672   8.425
    1XTA   HL3510508  33.034   0.866   8.356
    1XTA   HL3610509  33.133   0.936   8.468
    1XTA   HL3710510  32.869   1.058   8.634
    1XTA   HL3810511  32.839   1.206   8.549
    1XTA   HL3910512  33.094   1.238   8.536
    1XTA   HL4010513  33.113   1.095   8.655
    1XTA   HL4110514  33.032   1.254   8.690
    1XTA    CO810515  32.750   1.229   8.068
    1XTA    CO910516  32.664   1.030   8.186
    1XTA    OA610517  32.738   1.073   8.297
    1XTA   HL4210518  32.797   1.259   8.165
    1XTA   HL4310519  32.827   1.167   8.024
    1XTA   HL4410520  32.723   0.949   8.472
    1XTA   HL4510521  32.791   0.851   8.319
    1XTA   CO1010522  32.791   0.975   8.389
    1XTA   CO1110523  32.983   1.109   8.313
    1XTA    OA710524  33.092   1.131   8.319
    1XTA   HL4610525  32.967   1.062   8.212
    1XTA   HL4710526  32.929   1.205   8.322
    1XTA   HL4810527  32.719   0.953   8.135
    1XTA   HL4910528  32.571   0.977   8.218
    1XTA     NT10529  28.813   2.260   3.651
    1XTA    CN110530  28.905   2.157   3.649
    1XTA     C110531  28.881   2.046   3.731
    1XTA     C210532  28.971   1.940   3.747
    1XTA     C310533  29.083   1.934   3.660
    1XTA     C410534  29.116   2.047   3.577
    1XTA     C510535  29.029   2.160   3.581
    1XTA    CN210536  28.854   2.384   3.663
    1XTA     C610537  28.936   2.426   3.772
    1XTA     C710538  28.983   2.558   3.773
    1XTA     C810539  28.939   2.650   3.675
    1XTA     C910540  28.842   2.610   3.577
    1XTA    C1010541  28.802   2.471   3.567
    1XTA    CN310542  28.684   2.224   3.667
    1XTA    C1110543  28.614   2.173   3.556
    1XTA    C1210544  28.480   2.148   3.563
    1XTA    C1310545  28.410   2.174   3.684
    1XTA    C1410546  28.478   2.219   3.802
    1XTA    C1510547  28.617   2.250   3.788
    1XTA     H110548  28.794   2.051   3.793
    1XTA     H210549  28.949   1.853   3.808
    1XTA     H310550  29.213   2.047   3.527
    1XTA     H410551  29.042   2.245   3.522
    1XTA     H510552  28.987   2.361   3.839
    1XTA     H610553  29.063   2.576   3.838
    1XTA     H710554  28.812   2.681   3.503
    1XTA     H810555  28.729   2.435   3.502
    1XTA     H910556  28.669   2.153   3.462
    1XTA    H1010557  28.436   2.106   3.479
    1XTA    H1110558  28.431   2.231   3.897
    1XTA    H1210559  28.678   2.277   3.872
    1XTA    OA110560  29.162   1.829   3.639
    1XTA    CO110561  29.106   1.703   3.673
    1XTA    OA210562  28.977   2.780   3.669
    1XTA    CO210563  29.113   2.808   3.702
    1XTA    CL110564  29.126   2.956   3.746
    1XTA    CL210565  29.272   2.998   3.775
    1XTA    CL310566  29.366   3.053   3.658
    1XTA    CL410567  29.298   3.154   3.563
    1XTA    CO310568  29.235   3.085   3.446
    1XTA    OA310569  29.123   3.161   3.399
    1XTA    CO410570  29.066   3.111   3.280
    1XTA    CT110571  28.924   3.166   3.277
    1XTA    CL510572  28.854   3.126   3.413
    1XTA    CL610573  28.842   2.979   3.439
    1XTA    OA410574  28.281   2.139   3.690
    1XTA    CO510575  28.215   2.118   3.821
    1XTA    CL710576  28.150   1.978   3.818
    1XTA    CL810577  28.042   1.956   3.925
    1XTA    CL910578  28.000   1.809   3.941
    1XTA   CL1010579  27.874   1.771   3.855
    1XTA    CO610580  27.908   1.761   3.703
    1XTA    OA510581  27.888   1.883   3.637
    1XTA    CO710582  27.938   1.879   3.504
    1XTA    CT210583  27.928   2.006   3.418
    1XTA   CL1110584  27.773   2.038   3.411
    1XTA   CL1210585  27.733   2.168   3.327
    1XTA    HL110586  29.162   1.611   3.649
    1XTA    HL210587  29.097   1.697   3.780
    1XTA    HL310588  29.007   1.698   3.632
    1XTA    HL410589  29.144   2.744   3.780
    1XTA    HL510590  29.167   2.787   3.613
    1XTA    HL610591  29.068   2.962   3.837
    1XTA    HL710592  29.072   3.016   3.669
    1XTA    HL810593  29.332   2.920   3.827
    1XTA    HL910594  29.261   3.080   3.844
    1XTA   HL1010595  29.460   3.094   3.699
    1XTA   HL1110596  29.400   2.968   3.597
    1XTA   HL1210597  29.366   3.227   3.534
    1XTA   HL1310598  29.218   3.205   3.624
    1XTA   HL1410599  29.306   3.073   3.367
    1XTA   HL1510600  29.194   2.982   3.468
    1XTA   HL1610601  29.117   3.131   3.193
    1XTA   HL1710602  29.072   3.002   3.286
    1XTA   HL1810603  28.757   3.167   3.424
    1XTA   HL1910604  28.906   3.160   3.504
    1XTA   HL2010605  28.941   2.947   3.463
    1XTA   HL2110606  28.796   2.919   3.360
    1XTA   HL2210607  28.784   2.965   3.528
    1XTA   HL2310608  28.145   2.197   3.844
    1XTA   HL2410609  28.273   2.117   3.915
    1XTA   HL2510610  28.105   1.958   3.723
    1XTA   HL2610611  28.224   1.894   3.830
    1XTA   HL2710612  28.095   1.975   4.018
    1XTA   HL2810613  27.957   2.022   3.914
    1XTA   HL2910614  28.082   1.748   3.939
    1XTA   HL3010615  27.968   1.803   4.050
    1XTA   HL3110616  27.836   1.677   3.893
    1XTA   HL3210617  27.806   1.850   3.885
    1XTA   HL3310618  28.013   1.735   3.699
    1XTA   HL3410619  27.856   1.674   3.667
    1XTA   HL3510620  27.889   1.793   3.454
    1XTA   HL3610621  28.044   1.857   3.515
    1XTA   HL3710622  27.724   2.051   3.507
    1XTA   HL3810623  27.731   1.948   3.370
    1XTA   HL3910624  27.774   2.262   3.371
    1XTA   HL4010625  27.632   2.191   3.308
    1XTA   HL4110626  27.790   2.162   3.228
    1XTA    CO810627  28.859   3.115   3.147
    1XTA    CO910628  28.899   3.321   3.265
    1XTA    OA610629  28.929   3.124   3.063
    1XTA   HL4210630  28.759   3.154   3.129
    1XTA   HL4310631  28.829   3.009   3.156
    1XTA   HL4410632  28.003   2.077   3.218
    1XTA   HL4510633  28.085   1.936   3.291
    1XTA   CO1010634  27.986   1.983   3.274
    1XTA   CO1110635  27.999   2.120   3.489
    1XTA    OA710636  27.915   1.890   3.195
    1XTA   HL4610637  28.105   2.087   3.515
    1XTA   HL4710638  27.953   2.148   3.584
    1XTA   HL4810639  28.970   3.374   3.155
    1XTA   HL4910640  28.792   3.348   3.251
    1XTA     NT10641  27.582   3.239   7.095
    1XTA    CN110642  27.525   3.360   7.112
    1XTA     C110643  27.479   3.395   7.236
    1XTA     C210644  27.404   3.512   7.256
    1XTA     C310645  27.395   3.610   7.151
    1XTA     C410646  27.448   3.577   7.024
    1XTA     C510647  27.505   3.454   7.002
    1XTA    CN210648  27.525   3.130   7.152
    1XTA     C610649  27.587   3.047   7.240
    1XTA     C710650  27.533   2.932   7.297
    1XTA     C810651  27.407   2.887   7.245
    1XTA     C910652  27.331   2.980   7.167
    1XTA    C1010653  27.391   3.094   7.121
    1XTA    CN310654  27.697   3.223   7.030
    1XTA    C1110655  27.714   3.105   6.956
    1XTA    C1210656  27.829   3.090   6.875
    1XTA    C1310657  27.939   3.180   6.887
    1XTA    C1410658  27.928   3.291   6.972
    1XTA    C1510659  27.806   3.318   7.038
    1XTA     H110660  27.481   3.325   7.323
    1XTA     H210661  27.360   3.531   7.349
    1XTA     H310662  27.445   3.654   6.941
    1XTA     H410663  27.539   3.419   6.905
    1XTA     H510664  27.691   3.069   7.265
    1XTA     H610665  27.593   2.867   7.363
    1XTA     H710666  27.230   2.958   7.133
    1XTA     H810667  27.333   3.159   7.063
    1XTA     H910668  27.638   3.023   6.951
    1XTA    H1010669  27.829   2.996   6.817
    1XTA    H1110670  28.017   3.356   6.964
    1XTA    H1210671  27.788   3.411   7.093
    1XTA    OA110672  27.344   3.737   7.173
    1XTA    CO110673  27.338   3.780   7.308
    1XTA    OA210674  27.347   2.781   7.302
    1XTA    CO210675  27.253   2.715   7.215
    1XTA    CL110676  27.217   2.577   7.273
    1XTA    CL210677  27.134   2.499   7.180
    1XTA    CL310678  27.084   2.371   7.235
    1XTA    CL410679  26.993   2.307   7.133
    1XTA    CO310680  26.853   2.368   7.129
    1XTA    OA310681  26.793   2.299   7.020
    1XTA    CO410682  26.652   2.322   6.997
    1XTA    CT110683  26.610   2.229   6.886
    1XTA    CL510684  26.627   2.082   6.923
    1XTA    CL610685  26.583   2.023   7.055
    1XTA    OA410686  28.049   3.171   6.808
    1XTA    CO510687  28.045   3.073   6.707
    1XTA    CL710688  28.176   3.084   6.640
    1XTA    CL810689  28.200   2.977   6.533
    1XTA    CL910690  28.242   2.832   6.567
    1XTA   CL1010691  28.124   2.740   6.597
    1XTA    CO610692  28.152   2.591   6.595
    1XTA    OA510693  28.263   2.555   6.679
    1XTA    CO710694  28.230   2.535   6.814
    1XTA    CT210695  28.314   2.435   6.888
    1XTA   CL1110696  28.450   2.498   6.905
    1XTA   CL1210697  28.529   2.523   6.773
    1XTA    HL110698  27.272   3.710   7.363
    1XTA    HL210699  27.426   3.787   7.359
    1XTA    HL310700  27.283   3.875   7.314
    1XTA    HL410701  27.165   2.781   7.211
    1XTA    HL510702  27.294   2.700   7.116
    1XTA    HL610703  27.178   2.581   7.368
    1XTA    HL710704  27.310   2.522   7.293
    1XTA    HL810705  27.185   2.487   7.081
    1XTA    HL910706  27.039   2.547   7.157
    1XTA   HL1010707  27.171   2.305   7.261
    1XTA   HL1110708  27.024   2.383   7.323
    1XTA   HL1210709  26.980   2.200   7.151
    1XTA   HL1310710  27.031   2.312   7.033
    1XTA   HL1410711  26.794   2.343   7.218
    1XTA   HL1510712  26.867   2.475   7.104
    1XTA   HL1610713  26.603   2.296   7.092
    1XTA   HL1710714  26.619   2.429   6.972
    1XTA   HL1810715  26.736   2.074   6.918
    1XTA   HL1910716  26.592   2.020   6.843
    1XTA   HL2010717  26.486   2.062   7.085
    1XTA   HL2110718  26.656   2.062   7.126
    1XTA   HL2210719  26.581   1.913   7.052
    1XTA   HL2310720  27.968   3.100   6.640
    1XTA   HL2410721  28.036   2.969   6.740
    1XTA   HL2510722  28.166   3.181   6.588
    1XTA   HL2610723  28.253   3.081   6.721
    1XTA   HL2710724  28.119   2.979   6.463
    1XTA   HL2810725  28.276   3.026   6.470
    1XTA   HL2910726  28.291   2.790   6.483
    1XTA   HL3010727  28.311   2.822   6.654
    1XTA   HL3110728  28.087   2.767   6.699
    1XTA   HL3210729  28.040   2.756   6.528
    1XTA   HL3310730  28.062   2.534   6.608
    1XTA   HL3410731  28.177   2.561   6.495
    1XTA   HL3510732  28.119   2.515   6.823
    1XTA   HL3610733  28.241   2.631   6.862
    1XTA   HL3710734  28.515   2.435   6.958
    1XTA   HL3810735  28.449   2.589   6.970
    1XTA   HL3910736  28.514   2.440   6.704
    1XTA   HL4010737  28.635   2.538   6.802
    1XTA   HL4110738  28.502   2.615   6.723
    1XTA    CO810739  26.695   2.253   6.759
    1XTA    CO910740  26.463   2.251   6.845
    1XTA    OA610741  26.435   2.249   6.703
    1XTA   HL4210742  26.802   2.251   6.784
    1XTA   HL4310743  26.681   2.178   6.689
    1XTA   HL4410744  28.201   2.259   6.823
    1XTA   HL4510745  28.332   2.302   6.715
    1XTA   CO1010746  28.301   2.301   6.822
    1XTA   CO1110747  28.238   2.428   7.028
    1XTA    OA710748  28.365   2.231   6.880
    1XTA   HL4610749  28.265   2.297   7.082
    1XTA   HL4710750  28.126   2.436   7.022
    1XTA   HL4810751  26.438   2.351   6.884
    1XTA   HL4910752  26.407   2.171   6.892
    1XTA     NT10753  26.572  -0.414   0.634
    1XTA    CN110754  26.666  -0.322   0.675
    1XTA     C110755  26.727  -0.335   0.798
    1XTA     C210756  26.827  -0.240   0.837
    1XTA     C310757  26.867  -0.141   0.740
    1XTA     C410758  26.807  -0.130   0.614
    1XTA     C510759  26.712  -0.228   0.580
    1XTA    CN210760  26.448  -0.409   0.675
    1XTA     C610761  26.357  -0.367   0.580
    1XTA     C710762  26.219  -0.339   0.616
    1XTA     C810763  26.173  -0.374   0.749
    1XTA     C910764  26.270  -0.418   0.839
    1XTA    C1010765  26.407  -0.440   0.801
    1XTA    CN310766  26.621  -0.524   0.568
    1XTA    C1110767  26.630  -0.524   0.431
    1XTA    C1210768  26.707  -0.629   0.366
    1XTA    C1310769  26.757  -0.740   0.445
    1XTA    C1410770  26.735  -0.741   0.584
    1XTA    C1510771  26.672  -0.630   0.647
    1XTA     H110772  26.689  -0.417   0.868
    1XTA     H210773  26.865  -0.240   0.941
    1XTA     H310774  26.822  -0.059   0.536
    1XTA     H410775  26.674  -0.235   0.482
    1XTA     H510776  26.389  -0.344   0.486
    1XTA     H610777  26.164  -0.290   0.536
    1XTA     H710778  26.240  -0.449   0.938
    1XTA     H810779  26.481  -0.486   0.876
    1XTA     H910780  26.596  -0.440   0.369
    1XTA    H1010781  26.719  -0.629   0.259
    1XTA    H1110782  26.772  -0.816   0.651
    1XTA    H1210783  26.671  -0.629   0.754
    1XTA    OA110784  26.968  -0.056   0.788
    1XTA    CO110785  26.985   0.055   0.702
    1XTA    OA210786  26.040  -0.346   0.795
    1XTA    CO210787  25.952  -0.290   0.692
    1XTA    CL110788  25.827  -0.254   0.767
    1XTA    CL210789  25.701  -0.261   0.671
    1XTA    CL310790  25.726  -0.194   0.532
    1XTA    CL410791  25.717  -0.045   0.525
    1XTA    CO310792  25.785   0.017   0.403
    1XTA    OA310793  25.731   0.151   0.391
    1XTA    CO410794  25.788   0.208   0.273
    1XTA    CT110795  25.763   0.362   0.236
    1XTA    CL510796  25.609   0.393   0.252
    1XTA    CL610797  25.534   0.289   0.173
    1XTA    OA410798  26.813  -0.843   0.370
    1XTA    CO510799  26.863  -0.951   0.441
    1XTA    CL710800  26.946  -1.038   0.351
    1XTA    CL810801  27.050  -1.117   0.422
    1XTA    CL910802  27.157  -1.171   0.331
    1XTA   CL1010803  27.286  -1.198   0.414
    1XTA    CO610804  27.367  -1.315   0.358
    1XTA    OA510805  27.413  -1.277   0.230
    1XTA    CO710806  27.491  -1.378   0.177
    1XTA    CT210807  27.549  -1.318   0.047
    1XTA   CL1110808  27.601  -1.173   0.062
    1XTA   CL1210809  27.719  -1.158   0.157
    1XTA    HL110810  27.067   0.120   0.748
    1XTA    HL210811  27.031   0.027   0.603
    1XTA    HL310812  26.890   0.116   0.691
    1XTA    HL410813  25.987  -0.197   0.638
    1XTA    HL510814  25.942  -0.370   0.611
    1XTA    HL610815  25.837  -0.151   0.793
    1XTA    HL710816  25.815  -0.310   0.863
    1XTA    HL810817  25.606  -0.208   0.710
    1XTA    HL910818  25.675  -0.365   0.656
    1XTA   HL1010819  25.825  -0.224   0.497
    1XTA   HL1110820  25.651  -0.242   0.468
    1XTA   HL1210821  25.755   0.001   0.616
    1XTA   HL1310822  25.607  -0.035   0.517
    1XTA   HL1410823  25.893   0.006   0.422
    1XTA   HL1510824  25.770  -0.035   0.308
    1XTA   HL1610825  25.894   0.197   0.285
    1XTA   HL1710826  25.765   0.149   0.184
    1XTA   HL1810827  25.588   0.494   0.227
    1XTA   HL1910828  25.583   0.379   0.365
    1XTA   HL2010829  25.552   0.182   0.194
    1XTA   HL2110830  25.561   0.296   0.062
    1XTA   HL2210831  25.423   0.302   0.178
    1XTA   HL2310832  26.777  -1.009   0.486
    1XTA   HL2410833  26.927  -0.926   0.520
    1XTA   HL2510834  26.879  -1.102   0.296
    1XTA   HL2610835  26.993  -0.970   0.272
    1XTA   HL2710836  27.094  -1.052   0.499
    1XTA   HL2810837  26.996  -1.201   0.480
    1XTA   HL2910838  27.112  -1.256   0.283
    1XTA   HL3010839  27.189  -1.097   0.259
    1XTA   HL3110840  27.344  -1.107   0.431
    1XTA   HL3210841  27.263  -1.222   0.516
    1XTA   HL3310842  27.443  -1.346   0.426
    1XTA   HL3410843  27.298  -1.401   0.344
    1XTA   HL3510844  27.425  -1.457   0.135
    1XTA   HL3610845  27.562  -1.423   0.247
    1XTA   HL3710846  27.520  -1.127   0.115
    1XTA   HL3810847  27.616  -1.112  -0.024
    1XTA   HL3910848  27.686  -1.165   0.264
    1XTA   HL4010849  27.754  -1.059   0.150
    1XTA   HL4110850  27.810  -1.224   0.131
    1XTA    CO810851  25.819   0.386   0.095
    1XTA    CO910852  25.836   0.460   0.334
    1XTA    OA610853  25.960   0.346   0.077
    1XTA   HL4210854  25.803   0.493   0.073
    1XTA   HL4310855  25.770   0.321   0.019
    1XTA   HL4410856  27.432  -1.416  -0.103
    1XTA   HL4510857  27.488  -1.258  -0.145
    1XTA   CO1010858  27.441  -1.313  -0.065
    1XTA   CO1110859  27.672  -1.404   0.005
    1XTA    OA710860  27.634  -1.522  -0.056
    1XTA   HL4610861  27.738  -1.346  -0.068
    1XTA   HL4710862  27.729  -1.429   0.088
    1XTA   HL4810863  25.829   0.424   0.437
    1XTA   HL4910864  25.945   0.452   0.324
    1XTA     NT10865  28.593   0.871   2.466
    1XTA    CN110866  28.705   0.874   2.540
    1XTA     C110867  28.738   0.975   2.625
    1XTA     C210868  28.857   0.971   2.697
    1XTA     C310869  28.955   0.876   2.676
    1XTA     C410870  28.927   0.778   2.579
    1XTA     C510871  28.794   0.772   2.517
    1XTA    CN210872  28.495   0.793   2.516
    1XTA     C610873  28.435   0.827   2.636
    1XTA     C710874  28.345   0.749   2.706
    1XTA     C810875  28.302   0.621   2.648
    1XTA     C910876  28.369   0.578   2.529
    1XTA    C1010877  28.463   0.665   2.467
    1XTA    CN310878  28.565   0.949   2.362
    1XTA    C1110879  28.594   0.897   2.233
    1XTA    C1210880  28.569   0.990   2.126
    1XTA    C1310881  28.501   1.114   2.138
    1XTA    C1410882  28.462   1.152   2.274
    1XTA    C1510883  28.505   1.072   2.382
    1XTA     H110884  28.663   1.053   2.648
    1XTA     H210885  28.889   1.049   2.774
    1XTA     H310886  28.998   0.705   2.564
    1XTA     H410887  28.767   0.692   2.442
    1XTA     H510888  28.457   0.931   2.674
    1XTA     H610889  28.290   0.799   2.787
    1XTA     H710890  28.341   0.486   2.480
    1XTA     H810891  28.514   0.636   2.372
    1XTA     H910892  28.639   0.804   2.214
    1XTA    H1010893  28.592   0.942   2.034
    1XTA    H1110894  28.402   1.242   2.288
    1XTA    H1210895  28.465   1.096   2.481
    1XTA    OA110896  29.072   0.865   2.746
    1XTA    CO110897  29.091   0.948   2.860
    1XTA    OA210898  28.195   0.554   2.705
    1XTA    CO210899  28.122   0.460   2.623
    1XTA    CL110900  27.997   0.428   2.698
    1XTA    CL210901  27.873   0.395   2.613
    1XTA    CL310902  27.766   0.320   2.696
    1XTA    CL410903  27.633   0.308   2.620
    1XTA    CO310904  27.648   0.230   2.491
    1XTA    OA310905  27.529   0.244   2.411
    1XTA    CO410906  27.541   0.180   2.287
    1XTA    CT110907  27.446   0.230   2.182
    1XTA    CL510908  27.429   0.383   2.188
    1XTA    CL610909  27.564   0.457   2.193
    1XTA    OA410910  28.463   1.197   2.034
    1XTA    CO510911  28.511   1.153   1.909
    1XTA    CL710912  28.458   1.241   1.798
    1XTA    CL810913  28.518   1.383   1.805
    1XTA    CL910914  28.469   1.477   1.695
    1XTA   CL1010915  28.322   1.521   1.716
    1XTA    CO610916  28.274   1.585   1.589
    1XTA    OA510917  28.358   1.698   1.563
    1XTA    CO710918  28.378   1.704   1.417
    1XTA    CT210919  28.463   1.827   1.374
    1XTA   CL1110920  28.583   1.853   1.469
    1XTA   CL1210921  28.676   1.733   1.494
    1XTA    HL110922  29.153   0.895   2.937
    1XTA    HL210923  29.128   1.045   2.828
    1XTA    HL310924  29.001   0.959   2.921
    1XTA    HL410925  28.103   0.505   2.528
    1XTA    HL510926  28.170   0.367   2.587
    1XTA    HL610927  27.968   0.515   2.760
    1XTA    HL710928  28.020   0.345   2.763
    1XTA    HL810929  27.905   0.329   2.532
    1XTA    HL910930  27.842   0.489   2.564
    1XTA   HL1010931  27.798   0.219   2.711
    1XTA   HL1110932  27.741   0.367   2.790
    1XTA   HL1210933  27.587   0.404   2.609
    1XTA   HL1310934  27.571   0.248   2.691
    1XTA   HL1410935  27.734   0.264   2.431
    1XTA   HL1510936  27.655   0.124   2.500
    1XTA   HL1610937  27.636   0.184   2.234
    1XTA   HL1710938  27.542   0.072   2.296
    1XTA   HL1810939  27.364   0.411   2.273
    1XTA   HL1910940  27.385   0.422   2.100
    1XTA   HL2010941  27.603   0.464   2.296
    1XTA   HL2110942  27.553   0.555   2.149
    1XTA   HL2210943  27.639   0.398   2.135
    1XTA   HL2310944  28.470   1.056   1.889
    1XTA   HL2410945  28.620   1.141   1.906
    1XTA   HL2510946  28.510   1.193   1.719
    1XTA   HL2610947  28.354   1.240   1.780
    1XTA   HL2710948  28.503   1.436   1.904
    1XTA   HL2810949  28.625   1.369   1.799
    1XTA   HL2910950  28.532   1.562   1.708
    1XTA   HL3010951  28.481   1.425   1.605
    1XTA   HL3110952  28.257   1.438   1.754
    1XTA   HL3210953  28.330   1.599   1.789
    1XTA   HL3310954  28.272   1.507   1.519
    1XTA   HL3410955  28.166   1.628   1.586
    1XTA   HL3510956  28.279   1.727   1.381
    1XTA   HL3610957  28.424   1.611   1.392
    1XTA   HL3710958  28.540   1.875   1.572
    1XTA   HL3810959  28.643   1.946   1.445
    1XTA   HL3910960  28.764   1.756   1.539
    1XTA   HL4010961  28.697   1.683   1.398
    1XTA   HL4110962  28.633   1.662   1.563
    1XTA    CO810963  27.317   0.163   2.210
    1XTA    CO910964  27.499   0.178   2.040
    1XTA    OA610965  27.235   0.180   2.096
    1XTA   HL4210966  27.274   0.199   2.307
    1XTA   HL4310967  27.329   0.058   2.240
    1XTA   HL4410968  28.280   1.937   1.316
    1XTA   HL4510969  28.314   1.953   1.479
    1XTA   CO1010970  28.364   1.946   1.383
    1XTA   CO1110971  28.524   1.825   1.227
    1XTA    OA710972  28.414   2.043   1.364
    1XTA   HL4610973  28.581   1.949   1.197
    1XTA   HL4710974  28.612   1.757   1.229
    1XTA   HL4810975  27.423   0.174   1.967
    1XTA   HL4910976  27.572   0.251   2.000
    1XTA     NT10977  24.355   1.673   2.434
    1XTA    CN110978  24.301   1.776   2.362
    1XTA     C110979  24.194   1.851   2.416
    1XTA     C210980  24.133   1.957   2.343
    1XTA     C310981  24.172   1.970   2.210
    1XTA     C410982  24.267   1.884   2.153
    1XTA     C510983  24.335   1.786   2.229
    1XTA    CN210984  24.314   1.549   2.404
    1XTA     C610985  24.190   1.501   2.460
    1XTA     C710986  24.137   1.378   2.416
    1XTA     C810987  24.208   1.292   2.326
    1XTA     C910988  24.334   1.332   2.280
    1XTA    C1010989  24.384   1.459   2.314
    1XTA    CN310990  24.466   1.695   2.506
    1XTA    C1110991  24.587   1.741   2.447
    1XTA    C1210992  24.699   1.771   2.538
    1XTA    C1310993  24.692   1.752   2.675
    1XTA    C1410994  24.572   1.703   2.727
    1XTA    C1510995  24.461   1.679   2.646
    1XTA     H110996  24.159   1.836   2.510
    1XTA     H210997  24.059   2.024   2.388
    1XTA     H310998  24.302   1.886   2.049
    1XTA     H410999  24.418   1.727   2.193
    1XTA     H511000  24.143   1.561   2.536
    1XTA     H611001  24.043   1.341   2.453
    1XTA     H711002  24.401   1.260   2.228
    1XTA     H811003  24.483   1.486   2.283
    1XTA     H911004  24.600   1.742   2.339
    1XTA    H1011005  24.792   1.811   2.487
    1XTA    H1111006  24.557   1.696   2.832
    1XTA    H1211007  24.366   1.658   2.689
    1XTA    OA111008  24.107   2.067   2.142
    1XTA    CO111009  24.141   2.079   2.004
    1XTA    OA211010  24.155   1.163   2.304
    1XTA    CO211011  24.228   1.076   2.205
    1XTA    CL111012  24.147   0.961   2.173
    1XTA    CL211013  24.222   0.868   2.077
    1XTA    CL311014  24.158   0.731   2.031
    1XTA    CL411015  24.226   0.648   1.922
    1XTA    CO311016  24.363   0.607   1.967
    1XTA    OA311017  24.441   0.533   1.874
    1XTA    CO411018  24.467   0.589   1.747
    1XTA    CT111019  24.577   0.510   1.672
    1XTA    CL511020  24.518   0.370   1.654
    1XTA    CL611021  24.596   0.266   1.564
    1XTA    OA411022  24.806   1.780   2.743
    1XTA    CO511023  24.809   1.740   2.876
    1XTA    CL711024  24.823   1.586   2.897
    1XTA    CL811025  24.887   1.540   3.030
    1XTA    CL911026  24.847   1.390   3.065
    1XTA   CL1011027  24.896   1.300   2.952
    1XTA    CO611028  24.870   1.148   2.967
    1XTA    OA511029  24.911   1.082   2.851
    1XTA    CO711030  25.051   1.055   2.845
    1XTA    CT211031  25.090   0.992   2.710
    1XTA   CL1111032  25.021   0.858   2.688
    1XTA   CL1211033  25.063   0.740   2.784
    1XTA    HL111034  24.090   2.155   1.947
    1XTA    HL211035  24.245   2.111   1.988
    1XTA    HL311036  24.107   1.991   1.952
    1XTA    HL411037  24.252   1.135   2.112
    1XTA    HL511038  24.323   1.059   2.253
    1XTA    HL611039  24.049   0.993   2.130
    1XTA    HL711040  24.111   0.911   2.272
    1XTA    HL811041  24.326   0.865   2.100
    1XTA    HL911042  24.237   0.909   1.980
    1XTA   HL1011043  24.148   0.672   2.122
    1XTA   HL1111044  24.060   0.736   1.993
    1XTA   HL1211045  24.226   0.688   1.822
    1XTA   HL1311046  24.168   0.559   1.916
    1XTA   HL1411047  24.429   0.687   2.001
    1XTA   HL1511048  24.348   0.530   2.047
    1XTA   HL1611049  24.366   0.592   1.688
    1XTA   HL1711050  24.496   0.689   1.748
    1XTA   HL1811051  24.420   0.377   1.612
    1XTA   HL1911052  24.511   0.319   1.752
    1XTA   HL2011053  24.699   0.290   1.534
    1XTA   HL2111054  24.540   0.242   1.472
    1XTA   HL2211055  24.619   0.171   1.613
    1XTA   HL2311056  24.732   1.785   2.938
    1XTA   HL2411057  24.904   1.771   2.908
    1XTA   HL2511058  24.724   1.541   2.892
    1XTA   HL2611059  24.880   1.540   2.811
    1XTA   HL2711060  24.997   1.544   3.040
    1XTA   HL2811061  24.847   1.601   3.112
    1XTA   HL2911062  24.893   1.358   3.157
    1XTA   HL3011063  24.735   1.370   3.082
    1XTA   HL3111064  24.834   1.332   2.861
    1XTA   HL3211065  25.007   1.328   2.934
    1XTA   HL3311066  24.918   1.111   3.057
    1XTA   HL3411067  24.773   1.113   2.987
    1XTA   HL3511068  25.092   1.002   2.929
    1XTA   HL3611069  25.109   1.143   2.868
    1XTA   HL3711070  25.022   0.824   2.587
    1XTA   HL3811071  24.912   0.870   2.706
    1XTA   HL3911072  25.173   0.710   2.789
    1XTA   HL4011073  25.009   0.650   2.752
    1XTA   HL4111074  25.024   0.749   2.884
    1XTA    CO811075  24.713   0.516   1.742
    1XTA    CO911076  24.586   0.564   1.527
    1XTA    OA611077  24.612   0.672   1.519
    1XTA   HL4211078  24.692   0.519   1.852
    1XTA   HL4311079  24.771   0.635   1.721
    1XTA   HL4411080  25.261   0.901   2.760
    1XTA   HL4511081  25.254   0.923   2.588
    1XTA   CO1011082  25.243   0.978   2.690
    1XTA   CO1111083  25.053   1.090   2.600
    1XTA    OA711084  25.303   1.066   2.704
    1XTA   HL4611085  25.139   1.073   2.488
    1XTA   HL4711086  25.096   1.184   2.627
    1XTA   HL4811087  24.496   0.547   1.476
    1XTA   HL4911088  24.667   0.504   1.485
    1XTA     NT11089  25.734   0.966   0.961
    1XTA    CN111090  25.710   1.052   0.859
    1XTA     C111091  25.791   1.163   0.836
    1XTA     C211092  25.762   1.252   0.729
    1XTA     C311093  25.649   1.229   0.646
    1XTA     C411094  25.577   1.112   0.665
    1XTA     C511095  25.603   1.027   0.773
    1XTA    CN211096  25.831   0.868   0.947
    1XTA     C611097  25.805   0.763   0.857
    1XTA     C711098  25.902   0.658   0.848
    1XTA     C811099  26.027   0.666   0.918
    1XTA     C911100  26.049   0.770   1.001
    1XTA    C1011101  25.951   0.875   1.020
    1XTA    CN311102  25.677   0.983   1.085
    1XTA    C1111103  25.578   0.888   1.130
    1XTA    C1211104  25.514   0.916   1.250
    1XTA    C1311105  25.556   1.022   1.341
    1XTA    C1411106  25.663   1.109   1.298
    1XTA    C1511107  25.717   1.090   1.164
    1XTA     H111108  25.876   1.178   0.899
    1XTA     H211109  25.817   1.348   0.726
    1XTA     H311110  25.484   1.108   0.607
    1XTA     H411111  25.546   0.939   0.790
    1XTA     H511112  25.710   0.759   0.801
    1XTA     H611113  25.875   0.580   0.776
    1XTA     H711114  26.145   0.766   1.057
    1XTA     H811115  25.983   0.957   1.090
    1XTA     H911116  25.540   0.806   1.060
    1XTA    H1011117  25.426   0.855   1.279
    1XTA    H1111118  25.699   1.185   1.362
    1XTA    H1211119  25.787   1.163   1.119
    1XTA    OA111120  25.601   1.317   0.550
    1XTA    CO111121  25.672   1.433   0.545
    1XTA    OA211122  26.127   0.571   0.920
    1XTA    CO211123  26.149   0.507   0.793
    1XTA    CL111124  26.186   0.604   0.674
    1XTA    CL211125  26.326   0.570   0.612
    1XTA    CL311126  26.335   0.608   0.465
    1XTA    CL411127  26.241   0.526   0.375
    1XTA    CO311128  26.283   0.524   0.237
    1XTA    OA311129  26.191   0.458   0.147
    1XTA    CO411130  26.239   0.468   0.012
    1XTA    CT111131  26.147   0.383  -0.077
    1XTA    CL511132  26.184   0.235  -0.050
    1XTA    CL611133  26.098   0.128  -0.113
    1XTA    OA411134  25.483   1.041   1.457
    1XTA    CO511135  25.546   1.108   1.566
    1XTA    CL711136  25.479   1.242   1.595
    1XTA    CL811137  25.443   1.326   1.473
    1XTA    CL911138  25.553   1.429   1.449
    1XTA   CL1011139  25.525   1.503   1.322
    1XTA    CO611140  25.630   1.614   1.299
    1XTA    OA511141  25.588   1.716   1.379
    1XTA    CO711142  25.635   1.849   1.344
    1XTA    CT211143  25.633   1.949   1.472
    1XTA   CL1111144  25.651   2.091   1.424
    1XTA   CL1211145  25.793   2.129   1.378
    1XTA    HL111146  25.775   1.417   0.514
    1XTA    HL211147  25.630   1.479   0.456
    1XTA    HL311148  25.665   1.489   0.633
    1XTA    HL411149  26.214   0.424   0.812
    1XTA    HL511150  26.058   0.463   0.770
    1XTA    HL611151  26.179   0.708   0.700
    1XTA    HL711152  26.110   0.602   0.592
    1XTA    HL811153  26.351   0.461   0.615
    1XTA    HL911154  26.398   0.616   0.675
    1XTA   HL1011155  26.323   0.715   0.452
    1XTA   HL1111156  26.433   0.588   0.432
    1XTA   HL1211157  26.145   0.568   0.376
    1XTA   HL1311158  26.229   0.429   0.426
    1XTA   HL1411159  26.298   0.625   0.200
    1XTA   HL1511160  26.384   0.486   0.231
    1XTA   HL1611161  26.242   0.574  -0.013
    1XTA   HL1711162  26.340   0.446   0.000
    1XTA   HL1811163  26.188   0.217   0.060
    1XTA   HL1911164  26.283   0.208  -0.089
    1XTA   HL2011165  25.988   0.127  -0.096
    1XTA   HL2111166  26.137   0.021  -0.117
    1XTA   HL2211167  26.094   0.159  -0.216
    1XTA   HL2311168  25.660   1.124   1.558
    1XTA   HL2411169  25.533   1.039   1.644
    1XTA   HL2511170  25.386   1.218   1.642
    1XTA   HL2611171  25.539   1.301   1.668
    1XTA   HL2711172  25.410   1.281   1.380
    1XTA   HL2811173  25.358   1.387   1.497
    1XTA   HL2911174  25.571   1.512   1.526
    1XTA   HL3011175  25.644   1.381   1.432
    1XTA   HL3111176  25.531   1.432   1.239
    1XTA   HL3211177  25.426   1.539   1.325
    1XTA   HL3311178  25.729   1.568   1.331
    1XTA   HL3411179  25.641   1.633   1.195
    1XTA   HL3511180  25.571   1.889   1.262
    1XTA   HL3611181  25.734   1.849   1.305
    1XTA   HL3711182  25.627   2.164   1.506
    1XTA   HL3811183  25.595   2.117   1.334
    1XTA   HL3911184  25.799   2.231   1.352
    1XTA   HL4011185  25.820   2.063   1.292
    1XTA   HL4111186  25.861   2.098   1.462
    1XTA    CO811187  26.175   0.427  -0.227
    1XTA    CO911188  26.002   0.411  -0.039
    1XTA    OA611189  26.168   0.537  -0.246
    1XTA   HL4211190  26.110   0.380  -0.285
    1XTA   HL4311191  26.274   0.385  -0.240
    1XTA   HL4411192  25.737   1.971   1.651
    1XTA   HL4511193  25.689   1.807   1.609
    1XTA   CO1011194  25.726   1.899   1.572
    1XTA   CO1111195  25.488   1.952   1.546
    1XTA    OA711196  25.849   1.863   1.517
    1XTA   HL4611197  25.496   2.018   1.635
    1XTA   HL4711198  25.475   1.851   1.593
    1XTA   HL4811199  25.981   0.551  -0.019
    1XTA   HL4911200  25.944   0.372  -0.125
    1XTA     NT11201  28.261   4.085   4.556
    1XTA    CN111202  28.166   4.175   4.547
    1XTA     C111203  28.036   4.130   4.530
    1XTA     C211204  27.926   4.218   4.512
    1XTA     C311205  27.951   4.358   4.508
    1XTA     C411206  28.087   4.401   4.507
    1XTA     C511207  28.188   4.307   4.534
    1XTA    CN211208  28.277   3.988   4.649
    1XTA     C611209  28.277   4.004   4.793
    1XTA     C711210  28.272   3.889   4.872
    1XTA     C811211  28.271   3.760   4.818
    1XTA     C911212  28.264   3.746   4.682
    1XTA    C1011213  28.261   3.863   4.600
    1XTA    CN311214  28.367   4.091   4.471
    1XTA    C1111215  28.341   4.054   4.340
    1XTA    C1211216  28.443   4.051   4.245
    1XTA    C1311217  28.571   4.079   4.280
    1XTA    C1411218  28.604   4.112   4.405
    1XTA    C1511219  28.503   4.123   4.506
    1XTA     H111220  28.026   4.020   4.527
    1XTA     H211221  27.825   4.170   4.499
    1XTA     H311222  28.131   4.499   4.505
    1XTA     H411223  28.296   4.331   4.537
    1XTA     H511224  28.291   4.101   4.829
    1XTA     H611225  28.278   3.905   4.982
    1XTA     H711226  28.254   3.647   4.634
    1XTA     H811227  28.253   3.858   4.493
    1XTA     H911228  28.242   4.016   4.322
    1XTA    H1011229  28.419   4.033   4.144
    1XTA    H1111230  28.706   4.131   4.436
    1XTA    H1211231  28.534   4.150   4.607
    1XTA    OA111232  27.841   4.439   4.501
    1XTA    CO111233  27.879   4.574   4.477
    1XTA    OA211234  28.284   3.644   4.893
    1XTA    CO211235  28.282   3.667   5.034
    1XTA    CL111236  28.250   3.526   5.092
    1XTA    CL211237  28.218   3.527   5.237
    1XTA    CL311238  28.182   3.392   5.308
    1XTA    CL411239  28.298   3.285   5.316
    1XTA    CO311240  28.266   3.148   5.372
    1XTA    OA311241  28.378   3.095   5.435
    1XTA    CO411242  28.347   2.983   5.527
    1XTA    CT111243  28.475   2.930   5.586
    1XTA    CL511244  28.559   3.055   5.635
    1XTA    CL611245  28.702   3.025   5.694
    1XTA    OA411246  28.676   4.051   4.191
    1XTA    CO511247  28.689   4.152   4.099
    1XTA    CL711248  28.825   4.124   4.039
    1XTA    CL811249  28.944   4.138   4.139
    1XTA    CL911250  28.960   4.280   4.210
    1XTA   CL1011251  29.043   4.274   4.341
    1XTA    CO611252  29.096   4.410   4.377
    1XTA    OA511253  29.193   4.393   4.476
    1XTA    CO711254  29.143   4.352   4.601
    1XTA    CT211255  29.267   4.337   4.694
    1XTA   CL1111256  29.227   4.300   4.839
    1XTA   CL1211257  29.144   4.174   4.873
    1XTA    HL111258  27.946   4.605   4.560
    1XTA    HL211259  27.928   4.590   4.373
    1XTA    HL311260  27.783   4.619   4.468
    1XTA    HL411261  28.373   3.715   5.079
    1XTA    HL511262  28.192   3.730   5.070
    1XTA    HL611263  28.329   3.456   5.071
    1XTA    HL711264  28.156   3.484   5.048
    1XTA    HL811265  28.131   3.598   5.250
    1XTA    HL911266  28.305   3.564   5.294
    1XTA   HL1011267  28.135   3.421   5.402
    1XTA   HL1111268  28.106   3.338   5.246
    1XTA   HL1211269  28.380   3.331   5.374
    1XTA   HL1311270  28.343   3.275   5.220
    1XTA   HL1411271  28.178   3.162   5.440
    1XTA   HL1511272  28.234   3.073   5.291
    1XTA   HL1611273  28.276   3.019   5.599
    1XTA   HL1711274  28.296   2.911   5.463
    1XTA   HL1811275  28.495   3.116   5.703
    1XTA   HL1911276  28.569   3.128   5.548
    1XTA   HL2011277  28.709   2.956   5.783
    1XTA   HL2111278  28.748   3.121   5.733
    1XTA   HL2211279  28.773   2.992   5.617
    1XTA   HL2311280  28.685   4.247   4.150
    1XTA   HL2411281  28.611   4.147   4.019
    1XTA   HL2511282  28.824   4.018   4.004
    1XTA   HL2611283  28.841   4.184   3.959
    1XTA   HL2711284  28.926   4.067   4.221
    1XTA   HL2811285  29.035   4.091   4.098
    1XTA   HL2911286  29.015   4.337   4.128
    1XTA   HL3011287  28.870   4.330   4.223
    1XTA   HL3111288  28.970   4.235   4.411
    1XTA   HL3211289  29.132   4.205   4.328
    1XTA   HL3311290  29.125   4.460   4.283
    1XTA   HL3411291  29.020   4.474   4.412
    1XTA   HL3511292  29.101   4.254   4.601
    1XTA   HL3611293  29.070   4.427   4.641
    1XTA   HL3711294  29.169   4.380   4.886
    1XTA   HL3811295  29.309   4.314   4.905
    1XTA   HL3911296  29.049   4.180   4.818
    1XTA   HL4011297  29.136   4.180   4.977
    1XTA   HL4111298  29.193   4.081   4.847
    1XTA    CO811299  28.555   2.845   5.482
    1XTA    CO911300  28.452   2.842   5.712
    1XTA    OA611301  28.496   2.756   5.462
    1XTA   HL4211302  28.659   2.821   5.515
    1XTA   HL4311303  28.551   2.896   5.386
    1XTA   HL4411304  29.452   4.463   4.753
    1XTA   HL4511305  29.398   4.470   4.591
    1XTA   CO1011306  29.357   4.465   4.694
    1XTA   CO1111307  29.369   4.232   4.639
    1XTA    OA711308  29.295   4.585   4.737
    1XTA   HL4611309  29.388   4.251   4.529
    1XTA   HL4711310  29.339   4.128   4.643
    1XTA   HL4811311  28.377   2.724   5.676
    1XTA   HL4911312  28.552   2.804   5.745
    1XTA     NT11313  27.158   1.093   2.233
    1XTA    CN111314  27.049   1.157   2.191
    1XTA     C111315  26.927   1.124   2.263
    1XTA     C211316  26.805   1.175   2.207
    1XTA     C311317  26.800   1.260   2.096
    1XTA     C411318  26.921   1.284   2.024
    1XTA     C511319  27.043   1.234   2.074
    1XTA    CN211320  27.229   1.131   2.344
    1XTA     C611321  27.358   1.183   2.326
    1XTA     C711322  27.443   1.215   2.433
    1XTA     C811323  27.387   1.222   2.563
    1XTA     C911324  27.261   1.158   2.586
    1XTA    C1011325  27.185   1.113   2.477
    1XTA    CN311326  27.185   0.982   2.173
    1XTA    C1111327  27.130   0.868   2.222
    1XTA    C1211328  27.162   0.753   2.150
    1XTA    C1311329  27.257   0.745   2.043
    1XTA    C1411330  27.320   0.864   2.006
    1XTA    C1511331  27.285   0.985   2.069
    1XTA     H111332  26.919   1.054   2.339
    1XTA     H211333  26.714   1.148   2.258
    1XTA     H311334  26.924   1.343   1.929
    1XTA     H411335  27.133   1.239   2.018
    1XTA     H511336  27.408   1.194   2.232
    1XTA     H611337  27.540   1.256   2.407
    1XTA     H711338  27.220   1.144   2.686
    1XTA     H811339  27.102   1.051   2.510
    1XTA     H911340  27.066   0.864   2.314
    1XTA    H1011341  27.117   0.662   2.186
    1XTA    H1111342  27.396   0.854   1.928
    1XTA    H1211343  27.332   1.076   2.033
    1XTA    OA111344  26.687   1.305   2.035
    1XTA    CO111345  26.561   1.252   2.083
    1XTA    OA211346  27.453   1.286   2.662
    1XTA    CO211347  27.559   1.205   2.715
    1XTA    CL111348  27.685   1.288   2.723
    1XTA    CL211349  27.720   1.353   2.587
    1XTA    CL311350  27.844   1.442   2.585
    1XTA    CL411351  27.815   1.572   2.666
    1XTA    CO311352  27.944   1.617   2.743
    1XTA    OA311353  27.941   1.751   2.782
    1XTA    CO411354  27.828   1.769   2.868
    1XTA    CT111355  27.830   1.905   2.947
    1XTA    CL511356  27.859   2.024   2.850
    1XTA    CL611357  27.869   2.168   2.903
    1XTA    OA411358  27.284   0.620   1.985
    1XTA    CO511359  27.394   0.625   1.890
    1XTA    CL711360  27.442   0.484   1.843
    1XTA    CL811361  27.538   0.480   1.733
    1XTA    CL911362  27.584   0.340   1.690
    1XTA   CL1011363  27.699   0.350   1.591
    1XTA    CO611364  27.743   0.216   1.545
    1XTA    OA511365  27.834   0.218   1.446
    1XTA    CO711366  27.864   0.087   1.395
    1XTA    CT211367  27.958  -0.002   1.474
    1XTA   CL1111368  27.882  -0.076   1.588
    1XTA   CL1211369  27.946  -0.196   1.655
    1XTA    HL111370  26.550   1.284   2.185
    1XTA    HL211371  26.472   1.292   2.024
    1XTA    HL311372  26.576   1.151   2.056
    1XTA    HL411373  27.523   1.173   2.815
    1XTA    HL511374  27.574   1.121   2.652
    1XTA    HL611375  27.762   1.213   2.756
    1XTA    HL711376  27.668   1.362   2.800
    1XTA    HL811377  27.630   1.400   2.552
    1XTA    HL911378  27.741   1.280   2.511
    1XTA   HL1011379  27.933   1.394   2.631
    1XTA   HL1111380  27.870   1.475   2.485
    1XTA   HL1211381  27.724   1.553   2.720
    1XTA   HL1311382  27.786   1.657   2.601
    1XTA   HL1411383  27.955   1.552   2.828
    1XTA   HL1511384  28.026   1.613   2.668
    1XTA   HL1611385  27.747   1.780   2.798
    1XTA   HL1711386  27.797   1.687   2.936
    1XTA   HL1811387  27.802   2.040   2.752
    1XTA   HL1911388  27.952   1.998   2.814
    1XTA   HL2011389  27.876   2.238   2.825
    1XTA   HL2111390  27.956   2.177   2.964
    1XTA   HL2211391  27.792   2.187   2.969
    1XTA   HL2311392  27.481   0.681   1.927
    1XTA   HL2411393  27.359   0.674   1.797
    1XTA   HL2511394  27.487   0.440   1.922
    1XTA   HL2611395  27.366   0.423   1.813
    1XTA   HL2711396  27.486   0.511   1.646
    1XTA   HL2811397  27.630   0.538   1.739
    1XTA   HL2911398  27.602   0.283   1.775
    1XTA   HL3011399  27.492   0.291   1.644
    1XTA   HL3111400  27.665   0.395   1.496
    1XTA   HL3211401  27.775   0.404   1.631
    1XTA   HL3311402  27.793   0.186   1.639
    1XTA   HL3411403  27.649   0.154   1.524
    1XTA   HL3511404  27.913   0.111   1.304
    1XTA   HL3611405  27.771   0.041   1.360
    1XTA   HL3711406  27.782  -0.098   1.553
    1XTA   HL3811407  27.864   0.002   1.664
    1XTA   HL3911408  27.878  -0.250   1.727
    1XTA   HL4011409  28.038  -0.168   1.709
    1XTA   HL4111410  27.961  -0.276   1.584
    1XTA    CO811411  27.946   1.884   3.056
    1XTA    CO911412  27.693   1.928   3.015
    1XTA    OA611413  27.617   1.929   2.934
    1XTA   HL4211414  28.036   1.944   3.032
    1XTA   HL4311415  27.987   1.747   3.017
    1XTA   HL4411416  28.117   0.125   1.443
    1XTA   HL4511417  28.044   0.172   1.581
    1XTA   CO1011418  28.072   0.083   1.533
    1XTA   CO1111419  28.039  -0.105   1.388
    1XTA    OA711420  28.164   0.010   1.612
    1XTA   HL4611421  28.114  -0.169   1.439
    1XTA   HL4711422  28.100  -0.055   1.310
    1XTA   HL4811423  27.696   2.021   3.076
    1XTA   HL4911424  27.676   1.843   3.081
    1XTA     NT11425  25.442   3.909   6.856
    1XTA    CN111426  25.418   3.958   6.735
    1XTA     C111427  25.392   3.865   6.625
    1XTA     C211428  25.372   3.911   6.495
    1XTA     C311429  25.383   4.049   6.477
    1XTA     C411430  25.410   4.141   6.575
    1XTA     C511431  25.428   4.095   6.708
    1XTA    CN211432  25.567   3.902   6.903
    1XTA     C611433  25.681   3.867   6.821
    1XTA     C711434  25.807   3.863   6.880
    1XTA     C811435  25.816   3.879   7.020
    1XTA     C911436  25.710   3.925   7.100
    1XTA    C1011437  25.586   3.938   7.038
    1XTA    CN311438  25.355   3.826   6.913
    1XTA    C1111439  25.254   3.879   6.991
    1XTA    C1211440  25.163   3.787   7.048
    1XTA    C1311441  25.172   3.647   7.035
    1XTA    C1411442  25.281   3.595   6.960
    1XTA    C1511443  25.369   3.688   6.899
    1XTA     H111444  25.378   3.760   6.653
    1XTA     H211445  25.346   3.843   6.414
    1XTA     H311446  25.425   4.247   6.542
    1XTA     H411447  25.456   4.167   6.783
    1XTA     H511448  25.668   3.835   6.717
    1XTA     H611449  25.898   3.841   6.820
    1XTA     H711450  25.723   3.934   7.203
    1XTA     H811451  25.496   3.966   7.093
    1XTA     H911452  25.242   3.986   6.992
    1XTA    H1011453  25.082   3.832   7.111
    1XTA    H1111454  25.297   3.489   6.938
    1XTA    H1211455  25.451   3.658   6.842
    1XTA    OA111456  25.370   4.106   6.355
    1XTA    CO111457  25.460   4.061   6.252
    1XTA    OA211458  25.936   3.844   7.081
    1XTA    CO211459  25.943   3.836   7.227
    1XTA    CL111460  26.076   3.766   7.267
    1XTA    CL211461  26.080   3.633   7.212
    1XTA    CL311462  26.207   3.562   7.244
    1XTA    CL411463  26.209   3.429   7.173
    1XTA    CO311464  26.344   3.351   7.180
    1XTA    OA311465  26.344   3.257   7.071
    1XTA    CO411466  26.472   3.227   7.030
    1XTA    CT111467  26.484   3.155   6.895
    1XTA    CL511468  26.460   3.002   6.911
    1XTA    CL611469  26.319   2.967   6.960
    1XTA    OA411470  25.069   3.574   7.079
    1XTA    CO511471  25.108   3.455   7.149
    1XTA    CL711472  24.988   3.382   7.210
    1XTA    CL811473  24.910   3.463   7.313
    1XTA    CL911474  24.783   3.385   7.351
    1XTA   CL1011475  24.822   3.276   7.454
    1XTA    CO611476  24.688   3.237   7.513
    1XTA    OA511477  24.598   3.196   7.407
    1XTA    CO711478  24.468   3.216   7.444
    1XTA    CT211479  24.377   3.169   7.327
    1XTA   CL1111480  24.408   3.019   7.304
    1XTA   CL1211481  24.331   2.950   7.190
    1XTA    HL111482  25.488   3.957   6.247
    1XTA    HL211483  25.412   4.085   6.155
    1XTA    HL311484  25.555   4.121   6.253
    1XTA    HL411485  25.939   3.934   7.277
    1XTA    HL511486  25.853   3.775   7.256
    1XTA    HL611487  26.098   3.756   7.371
    1XTA    HL711488  26.152   3.824   7.213
    1XTA    HL811489  26.058   3.643   7.106
    1XTA    HL911490  25.996   3.570   7.250
    1XTA   HL1011491  26.288   3.628   7.205
    1XTA   HL1111492  26.227   3.553   7.357
    1XTA   HL1211493  26.201   3.453   7.070
    1XTA   HL1311494  26.130   3.361   7.198
    1XTA   HL1411495  26.426   3.424   7.180
    1XTA   HL1511496  26.343   3.288   7.269
    1XTA   HL1611497  26.533   3.319   7.037
    1XTA   HL1711498  26.510   3.165   7.108
    1XTA   HL1811499  26.527   2.962   6.981
    1XTA   HL1911500  26.472   2.942   6.815
    1XTA   HL2011501  26.280   3.025   7.049
    1XTA   HL2111502  26.321   2.859   6.996
    1XTA   HL2211503  26.239   2.965   6.884
    1XTA   HL2311504  25.179   3.481   7.231
    1XTA   HL2411505  25.167   3.393   7.076
    1XTA   HL2511506  24.921   3.360   7.125
    1XTA   HL2611507  25.014   3.282   7.253
    1XTA   HL2711508  24.977   3.500   7.397
    1XTA   HL2811509  24.866   3.551   7.264
    1XTA   HL2911510  24.722   3.456   7.399
    1XTA   HL3011511  24.733   3.331   7.268
    1XTA   HL3111512  24.858   3.193   7.389
    1XTA   HL3211513  24.891   3.305   7.533
    1XTA   HL3311514  24.702   3.159   7.584
    1XTA   HL3411515  24.635   3.317   7.572
    1XTA   HL3511516  24.451   3.321   7.469
    1XTA   HL3611517  24.445   3.158   7.535
    1XTA   HL3711518  24.388   2.960   7.396
    1XTA   HL3811519  24.519   3.015   7.280
    1XTA   HL3911520  24.224   2.975   7.184
    1XTA   HL4011521  24.352   2.847   7.189
    1XTA   HL4111522  24.371   2.977   7.092
    1XTA    CO811523  26.627   3.163   6.847
    1XTA    CO911524  26.390   3.214   6.782
    1XTA    OA611525  26.650   3.114   6.716
    1XTA   HL4211526  26.696   3.125   6.922
    1XTA   HL4311527  26.665   3.263   6.833
    1XTA   HL4411528  24.385   3.195   7.106
    1XTA   HL4511529  24.552   3.266   7.190
    1XTA   CO1011530  24.414   3.254   7.200
    1XTA   CO1111531  24.226   3.186   7.346
    1XTA    OA711532  24.179   3.118   7.421
    1XTA   HL4611533  24.206   3.290   7.370
    1XTA   HL4711534  24.175   3.169   7.252
    1XTA   HL4811535  26.404   3.157   6.687
    1XTA   HL4911536  26.283   3.199   6.810
    1XTA     NT11537  25.998   2.356   3.863
    1XTA    CN111538  26.029   2.340   3.729
    1XTA     C111539  26.156   2.395   3.695
    1XTA     C211540  26.199   2.389   3.562
    1XTA     C311541  26.121   2.330   3.461
    1XTA     C411542  26.003   2.274   3.495
    1XTA     C511543  25.951   2.283   3.628
    1XTA    CN211544  26.079   2.302   3.960
    1XTA     C611545  26.098   2.164   3.973
    1XTA     C711546  26.174   2.108   4.081
    1XTA     C811547  26.240   2.196   4.165
    1XTA     C911548  26.229   2.334   4.152
    1XTA    C1011549  26.143   2.383   4.051
    1XTA    CN311550  25.885   2.420   3.911
    1XTA    C1111551  25.889   2.563   3.949
    1XTA    C1211552  25.772   2.620   4.008
    1XTA    C1311553  25.649   2.550   4.014
    1XTA    C1411554  25.647   2.416   3.967
    1XTA    C1511555  25.761   2.346   3.923
    1XTA     H111556  26.221   2.438   3.771
    1XTA     H211557  26.294   2.436   3.549
    1XTA     H311558  25.950   2.235   3.407
    1XTA     H411559  25.856   2.236   3.639
    1XTA     H511560  26.055   2.099   3.907
    1XTA     H611561  26.193   2.007   4.098
    1XTA     H711562  26.258   2.401   4.230
    1XTA     H811563  26.133   2.489   4.046
    1XTA     H911564  25.984   2.616   3.943
    1XTA    H1011565  25.765   2.726   4.027
    1XTA    H1111566  25.557   2.361   3.962
    1XTA    H1211567  25.745   2.244   3.882
    1XTA    OA111568  26.163   2.327   3.325
    1XTA    CO111569  26.252   2.428   3.277
    1XTA    OA211570  26.313   2.141   4.269
    1XTA    CO211571  26.410   2.211   4.342
    1XTA    CL111572  26.353   2.274   4.467
    1XTA    CL211573  26.332   2.191   4.600
    1XTA    CL311574  26.225   2.077   4.574
    1XTA    CL411575  26.202   1.997   4.700
    1XTA    CO311576  26.087   1.904   4.674
    1XTA    OA311577  26.121   1.782   4.613
    1XTA    CO411578  26.006   1.699   4.619
    1XTA    CT111579  26.008   1.576   4.527
    1XTA    CL511580  25.876   1.496   4.530
    1XTA    CL611581  25.851   1.419   4.659
    1XTA    OA411582  25.526   2.601   4.060
    1XTA    CO511583  25.539   2.713   4.141
    1XTA    CL711584  25.516   2.851   4.062
    1XTA    CL811585  25.522   2.974   4.151
    1XTA    CL911586  25.660   3.030   4.165
    1XTA   CL1011587  25.760   2.959   4.261
    1XTA    CO611588  25.893   3.035   4.285
    1XTA    OA511589  26.001   2.966   4.357
    1XTA    CO711590  26.048   2.855   4.277
    1XTA    CT211591  26.171   2.806   4.358
    1XTA   CL1111592  26.231   2.681   4.281
    1XTA   CL1211593  26.368   2.625   4.325
    1XTA    HL111594  26.272   2.409   3.177
    1XTA    HL211595  26.205   2.527   3.287
    1XTA    HL311596  26.347   2.429   3.330
    1XTA    HL411597  26.494   2.139   4.357
    1XTA    HL511598  26.443   2.290   4.272
    1XTA    HL611599  26.253   2.320   4.444
    1XTA    HL711600  26.407   2.366   4.481
    1XTA    HL811601  26.297   2.257   4.684
    1XTA    HL911602  26.423   2.151   4.628
    1XTA   HL1011603  26.139   2.131   4.548
    1XTA   HL1111604  26.246   2.000   4.498
    1XTA   HL1211605  26.199   2.074   4.781
    1XTA   HL1311606  26.291   1.938   4.719
    1XTA   HL1411607  26.034   1.899   4.772
    1XTA   HL1511608  26.013   1.957   4.618
    1XTA   HL1611609  25.981   1.663   4.722
    1XTA   HL1711610  25.923   1.762   4.596
    1XTA   HL1811611  25.875   1.418   4.452
    1XTA   HL1911612  25.798   1.571   4.512
    1XTA   HL2011613  25.775   1.336   4.638
    1XTA   HL2111614  25.818   1.489   4.732
    1XTA   HL2211615  25.937   1.363   4.690
    1XTA   HL2311616  25.627   2.721   4.204
    1XTA   HL2411617  25.450   2.707   4.204
    1XTA   HL2511618  25.581   2.864   3.973
    1XTA   HL2611619  25.416   2.839   4.019
    1XTA   HL2711620  25.463   3.056   4.104
    1XTA   HL2811621  25.483   2.961   4.250
    1XTA   HL2911622  25.707   3.036   4.069
    1XTA   HL3011623  25.646   3.132   4.205
    1XTA   HL3111624  25.735   2.956   4.364
    1XTA   HL3211625  25.770   2.862   4.221
    1XTA   HL3311626  25.939   3.076   4.197
    1XTA   HL3411627  25.870   3.117   4.346
    1XTA   HL3511628  26.076   2.878   4.174
    1XTA   HL3611629  25.960   2.786   4.265
    1XTA   HL3711630  26.221   2.700   4.178
    1XTA   HL3811631  26.162   2.603   4.297
    1XTA   HL3911632  26.448   2.685   4.311
    1XTA   HL4011633  26.411   2.535   4.273
    1XTA   HL4111634  26.369   2.607   4.428
    1XTA    CO811635  26.133   1.477   4.550
    1XTA    CO911636  26.035   1.629   4.382
    1XTA    OA611637  26.131   1.387   4.478
    1XTA   HL4211638  26.133   1.456   4.658
    1XTA   HL4311639  26.218   1.533   4.522
    1XTA   HL4411640  26.233   2.729   4.553
    1XTA   HL4511641  26.125   2.863   4.560
    1XTA   CO1011642  26.143   2.767   4.506
    1XTA   CO1111643  26.290   2.917   4.365
    1XTA    OA711644  26.058   2.692   4.512
    1XTA   HL4611645  26.308   2.971   4.233
    1XTA   HL4711646  26.388   2.875   4.382
    1XTA   HL4811647  26.134   1.736   4.384
    1XTA   HL4911648  26.054   1.538   4.317
    1XTA     NT11649  29.625   4.895   3.501
    1XTA    CN111650  29.629   4.923   3.636
    1XTA     C111651  29.510   4.935   3.709
    1XTA     C211652  29.510   4.961   3.844
    1XTA     C311653  29.629   4.969   3.913
    1XTA     C411654  29.753   4.942   3.843
    1XTA     C511655  29.750   4.916   3.704
    1XTA    CN211656  29.605   4.997   3.420
    1XTA     C611657  29.716   5.064   3.360
    1XTA     C711658  29.689   5.173   3.280
    1XTA     C811659  29.560   5.213   3.248
    1XTA     C911660  29.445   5.144   3.307
    1XTA    C1011661  29.470   5.036   3.393
    1XTA    CN311662  29.595   4.767   3.459
    1XTA    C1111663  29.472   4.703   3.496
    1XTA    C1211664  29.441   4.575   3.450
    1XTA    C1311665  29.534   4.501   3.372
    1XTA    C1411666  29.655   4.566   3.344
    1XTA    C1511667  29.689   4.694   3.386
    1XTA     H111668  29.415   4.930   3.657
    1XTA     H211669  29.413   4.970   3.888
    1XTA     H311670  29.847   4.948   3.887
    1XTA     H411671  29.850   4.898   3.650
    1XTA     H511672  29.820   5.030   3.373
    1XTA     H611673  29.757   5.231   3.228
    1XTA     H711674  29.342   5.181   3.289
    1XTA     H811675  29.392   4.992   3.450
    1XTA     H911676  29.386   4.757   3.532
    1XTA    H1011677  29.341   4.536   3.477
    1XTA    H1111678  29.721   4.501   3.289
    1XTA    H1211679  29.787   4.737   3.358
    1XTA    OA111680  29.638   5.014   4.042
    1XTA    CO111681  29.766   5.058   4.083
    1XTA    OA211682  29.545   5.309   3.157
    1XTA    CO211683  29.437   5.297   3.067
    1XTA    CL111684  29.459   5.380   2.936
    1XTA    CL211685  29.474   5.530   2.954
    1XTA    CL311686  29.516   5.601   2.814
    1XTA    CL411687  29.444   5.544   2.691
    1XTA    CO311688  29.297   5.562   2.699
    1XTA    OA311689  29.228   5.493   2.595
    1XTA    CO411690  29.230   5.350   2.612
    1XTA    CT111691  29.224   5.274   2.478
    1XTA    CL511692  29.334   5.339   2.379
    1XTA    CL611693  29.344   5.282   2.235
    1XTA    OA411694  29.517   4.375   3.317
    1XTA    CO511695  29.382   4.340   3.295
    1XTA    CL711696  29.399   4.203   3.237
    1XTA    CL811697  29.255   4.140   3.226
    1XTA    CL911698  29.262   3.985   3.208
    1XTA   CL1011699  29.311   3.913   3.331
    1XTA    CO611700  29.281   3.764   3.311
    1XTA    OA511701  29.139   3.750   3.337
    1XTA    CO711702  29.087   3.621   3.322
    1XTA    CT211703  28.936   3.618   3.361
    1XTA   CL1111704  28.892   3.727   3.452
    1XTA   CL1211705  28.958   3.713   3.596
    1XTA    HL111706  29.817   5.119   4.009
    1XTA    HL211707  29.744   5.126   4.173
    1XTA    HL311708  29.821   4.966   4.118
    1XTA    HL411709  29.422   5.191   3.036
    1XTA    HL511710  29.346   5.328   3.132
    1XTA    HL611711  29.366   5.369   2.884
    1XTA    HL711712  29.539   5.337   2.878
    1XTA    HL811713  29.538   5.560   3.038
    1XTA    HL911714  29.379   5.576   2.982
    1XTA   HL1011715  29.491   5.709   2.841
    1XTA   HL1111716  29.627   5.585   2.796
    1XTA   HL1211717  29.472   5.444   2.688
    1XTA   HL1311718  29.480   5.584   2.598
    1XTA   HL1411719  29.246   5.530   2.789
    1XTA   HL1511720  29.273   5.663   2.697
    1XTA   HL1611721  29.320   5.322   2.669
    1XTA   HL1711722  29.142   5.322   2.663
    1XTA   HL1811723  29.436   5.321   2.423
    1XTA   HL1911724  29.315   5.446   2.371
    1XTA   HL2011725  29.252   5.297   2.173
    1XTA   HL2111726  29.363   5.175   2.233
    1XTA   HL2211727  29.425   5.331   2.187
    1XTA   HL2311728  29.337   4.408   3.218
    1XTA   HL2411729  29.313   4.353   3.385
    1XTA   HL2511730  29.448   4.201   3.138
    1XTA   HL2611731  29.466   4.144   3.303
    1XTA   HL2711732  29.189   4.168   3.309
    1XTA   HL2811733  29.203   4.169   3.141
    1XTA   HL2911734  29.168   3.944   3.170
    1XTA   HL3011735  29.334   3.963   3.124
    1XTA   HL3111736  29.416   3.915   3.337
    1XTA   HL3211737  29.270   3.938   3.425
    1XTA   HL3311738  29.310   3.729   3.207
    1XTA   HL3411739  29.340   3.703   3.381
    1XTA   HL3511740  29.140   3.545   3.384
    1XTA   HL3611741  29.101   3.594   3.219
    1XTA   HL3711742  28.788   3.727   3.468
    1XTA   HL3811743  28.930   3.820   3.415
    1XTA   HL3911744  29.066   3.698   3.577
    1XTA   HL4011745  28.914   3.621   3.644
    1XTA   HL4111746  28.945   3.801   3.658
    1XTA    CO811747  29.081   5.285   2.406
    1XTA    CO911748  29.259   5.125   2.502
    1XTA    OA611749  29.182   5.077   2.569
    1XTA   HL4211750  29.067   5.397   2.404
    1XTA   HL4311751  28.973   5.244   2.497
    1XTA   HL4411752  28.927   3.469   3.525
    1XTA   HL4511753  28.785   3.467   3.441
    1XTA   CO1011754  28.895   3.478   3.423
    1XTA   CO1111755  28.857   3.642   3.234
    1XTA    OA711756  28.940   3.386   3.386
    1XTA   HL4611757  28.723   3.625   3.266
    1XTA   HL4711758  28.880   3.563   3.163
    1XTA   HL4811759  29.361   5.109   2.537
    1XTA   HL4911760  29.266   5.070   2.411
    1XTA     NT11761  26.024   1.393  -0.106
    1XTA    CN111762  25.973   1.483  -0.020
    1XTA     C111763  25.966   1.444   0.121
    1XTA     C211764  25.911   1.526   0.217
    1XTA     C311765  25.851   1.649   0.175
    1XTA     C411766  25.859   1.684   0.044
    1XTA     C511767  25.917   1.603  -0.054
    1XTA    CN211768  26.151   1.405  -0.150
    1XTA     C611769  26.170   1.437  -0.285
    1XTA     C711770  26.303   1.440  -0.341
    1XTA     C811771  26.413   1.422  -0.260
    1XTA     C911772  26.388   1.382  -0.122
    1XTA    C1011773  26.261   1.372  -0.068
    1XTA    CN311774  25.937   1.293  -0.145
    1XTA    C1111775  25.967   1.159  -0.114
    1XTA    C1211776  25.870   1.059  -0.131
    1XTA    C1311777  25.744   1.088  -0.186
    1XTA    C1411778  25.715   1.224  -0.223
    1XTA    C1511779  25.812   1.324  -0.201
    1XTA     H111780  26.000   1.341   0.147
    1XTA     H211781  25.894   1.491   0.315
    1XTA     H311782  25.824   1.783   0.016
    1XTA     H411783  25.916   1.636  -0.153
    1XTA     H511784  26.090   1.447  -0.354
    1XTA     H611785  26.318   1.462  -0.447
    1XTA     H711786  26.477   1.366  -0.065
    1XTA     H811787  26.257   1.355   0.041
    1XTA     H911788  26.064   1.134  -0.086
    1XTA    H1011789  25.895   0.966  -0.093
    1XTA    H1111790  25.620   1.244  -0.282
    1XTA    H1211791  25.784   1.425  -0.227
    1XTA    OA111792  25.785   1.731   0.270
    1XTA    CO111793  25.735   1.856   0.221
    1XTA    OA211794  26.545   1.427  -0.302
    1XTA    CO211795  26.570   1.381  -0.434
    1XTA    CL111796  26.720   1.369  -0.446
    1XTA    CL211797  26.761   1.261  -0.543
    1XTA    CL311798  26.916   1.260  -0.559
    1XTA    CL411799  26.970   1.162  -0.662
    1XTA    CO311800  26.938   1.017  -0.667
    1XTA    OA311801  26.803   0.996  -0.704
    1XTA    CO411802  26.752   0.865  -0.676
    1XTA    CT111803  26.604   0.861  -0.716
    1XTA    CL511804  26.531   0.966  -0.639
    1XTA    CL611805  26.377   0.976  -0.672
    1XTA    OA411806  25.653   0.990  -0.202
    1XTA    CO511807  25.659   0.943  -0.338
    1XTA    CL711808  25.517   0.889  -0.353
    1XTA    CL811809  25.395   0.997  -0.360
    1XTA    CL911810  25.411   1.090  -0.483
    1XTA   CL1011811  25.294   1.185  -0.495
    1XTA    CO611812  25.271   1.224  -0.638
    1XTA    OA511813  25.188   1.340  -0.638
    1XTA    CO711814  25.127   1.374  -0.758
    1XTA    CT211815  25.061   1.510  -0.752
    1XTA   CL1111816  24.997   1.561  -0.881
    1XTA   CL1211817  24.889   1.458  -0.929
    1XTA    HL111818  25.804   1.941   0.207
    1XTA    HL211819  25.673   1.844   0.137
    1XTA    HL311820  25.663   1.891   0.295
    1XTA    HL411821  26.523   1.285  -0.458
    1XTA    HL511822  26.534   1.446  -0.512
    1XTA    HL611823  26.752   1.337  -0.342
    1XTA    HL711824  26.763   1.470  -0.468
    1XTA    HL811825  26.724   1.280  -0.636
    1XTA    HL911826  26.722   1.156  -0.519
    1XTA   HL1011827  26.944   1.359  -0.598
    1XTA   HL1111828  26.975   1.258  -0.467
    1XTA   HL1211829  27.083   1.169  -0.666
    1XTA   HL1311830  26.946   1.213  -0.751
    1XTA   HL1411831  26.995   0.967  -0.740
    1XTA   HL1511832  26.952   0.968  -0.565
    1XTA   HL1611833  26.807   0.780  -0.730
    1XTA   HL1711834  26.750   0.840  -0.572
    1XTA   HL1811835  26.574   1.063  -0.662
    1XTA   HL1911836  26.540   0.966  -0.528
    1XTA   HL2011837  26.363   1.018  -0.780
    1XTA   HL2111838  26.332   1.042  -0.604
    1XTA   HL2211839  26.320   0.885  -0.655
    1XTA   HL2311840  25.744   0.876  -0.358
    1XTA   HL2411841  25.686   1.024  -0.412
    1XTA   HL2511842  25.513   0.829  -0.441
    1XTA   HL2611843  25.501   0.830  -0.266
    1XTA   HL2711844  25.308   0.937  -0.382
    1XTA   HL2811845  25.384   1.053  -0.265
    1XTA   HL2911846  25.514   1.141  -0.489
    1XTA   HL3011847  25.400   1.034  -0.577
    1XTA   HL3111848  25.200   1.144  -0.451
    1XTA   HL3211849  25.307   1.276  -0.436
    1XTA   HL3311850  25.370   1.244  -0.687
    1XTA   HL3411851  25.231   1.148  -0.696
    1XTA   HL3511852  25.064   1.293  -0.785
    1XTA   HL3611853  25.208   1.373  -0.838
    1XTA   HL3711854  25.076   1.566  -0.954
    1XTA   HL3811855  24.948   1.659  -0.878
    1XTA   HL3911856  24.802   1.455  -0.864
    1XTA   HL4011857  24.929   1.355  -0.942
    1XTA   HL4111858  24.855   1.469  -1.030
    1XTA    CO811859  26.537   0.723  -0.688
    1XTA    CO911860  26.612   0.881  -0.865
    1XTA    OA611861  26.682   0.771  -0.922
    1XTA   HL4211862  26.460   0.724  -0.762
    1XTA   HL4311863  26.618   0.654  -0.704
    1XTA   HL4411864  25.261   1.604  -0.791
    1XTA   HL4511865  25.221   1.591  -0.619
    1XTA   CO1011866  25.173   1.610  -0.716
    1XTA   CO1111867  24.965   1.511  -0.619
    1XTA    OA711868  24.835   1.447  -0.628
    1XTA   HL4611869  25.022   1.479  -0.534
    1XTA   HL4711870  24.948   1.617  -0.593
    1XTA   HL4811871  26.655   0.976  -0.890
    1XTA   HL4911872  26.512   0.878  -0.910
    1XTA     NT11873  28.831   2.083   5.491
    1XTA    CN111874  28.704   2.080   5.448
    1XTA     C111875  28.672   2.025   5.323
    1XTA     C211876  28.544   2.031   5.263
    1XTA     C311877  28.437   2.078   5.347
    1XTA     C411878  28.463   2.127   5.472
    1XTA     C511879  28.592   2.124   5.525
    1XTA    CN211880  28.855   2.054   5.625
    1XTA     C611881  28.833   1.926   5.678
    1XTA     C711882  28.838   1.901   5.814
    1XTA     C811883  28.891   2.003   5.899
    1XTA     C911884  28.922   2.127   5.846
    1XTA    C1011885  28.905   2.154   5.709
    1XTA    CN311886  28.928   2.142   5.419
    1XTA    C1111887  29.025   2.070   5.347
    1XTA    C1211888  29.117   2.143   5.267
    1XTA    C1311889  29.106   2.282   5.253
    1XTA    C1411890  29.009   2.351   5.322
    1XTA    C1511891  28.918   2.281   5.404
    1XTA     H111892  28.754   1.990   5.271
    1XTA     H211893  28.544   2.010   5.154
    1XTA     H311894  28.385   2.180   5.523
    1XTA     H411895  28.607   2.178   5.618
    1XTA     H511896  28.797   1.842   5.619
    1XTA     H611897  28.800   1.808   5.852
    1XTA     H711898  28.956   2.209   5.909
    1XTA     H811899  28.919   2.256   5.677
    1XTA     H911900  29.036   1.958   5.366
    1XTA    H1011901  29.197   2.091   5.221
    1XTA    H1111902  29.007   2.458   5.312
    1XTA    H1211903  28.841   2.342   5.454
    1XTA    OA111904  28.310   2.083   5.303
    1XTA    CO111905  28.276   2.018   5.187
    1XTA    OA211906  28.924   1.991   6.027
    1XTA    CO211907  28.861   1.883   6.092
    1XTA    CL111908  28.917   1.876   6.236
    1XTA    CL211909  29.069   1.876   6.244
    1XTA    CL311910  29.118   1.889   6.393
    1XTA    CL411911  29.248   1.807   6.415
    1XTA    CO311912  29.267   1.792   6.566
    1XTA    OA311913  29.374   1.870   6.613
    1XTA    CO411914  29.344   2.012   6.621
    1XTA    CT111915  29.482   2.084   6.641
    1XTA    CL511916  29.535   2.054   6.782
    1XTA    CL611917  29.622   1.929   6.799
    1XTA    OA411918  29.191   2.349   5.164
    1XTA    CO511919  29.330   2.309   5.161
    1XTA    CL711920  29.396   2.380   5.040
    1XTA    CL811921  29.552   2.349   5.039
    1XTA    CL911922  29.623   2.432   4.938
    1XTA   CL1011923  29.596   2.382   4.792
    1XTA    CO611924  29.586   2.494   4.689
    1XTA    OA511925  29.506   2.603   4.725
    1XTA    CO711926  29.371   2.558   4.718
    1XTA    CT211927  29.288   2.684   4.691
    1XTA   CL1111928  29.302   2.744   4.546
    1XTA   CL1211929  29.316   2.642   4.435
    1XTA    HL111930  28.295   2.082   5.096
    1XTA    HL211931  28.328   1.922   5.187
    1XTA    HL311932  28.167   2.003   5.183
    1XTA    HL411933  28.755   1.891   6.094
    1XTA    HL511934  28.895   1.791   6.042
    1XTA    HL611935  28.888   1.783   6.275
    1XTA    HL711936  28.871   1.952   6.302
    1XTA    HL811937  29.110   1.971   6.208
    1XTA    HL911938  29.112   1.790   6.193
    1XTA   HL1011939  29.124   1.994   6.434
    1XTA   HL1111940  29.054   1.835   6.462
    1XTA   HL1211941  29.339   1.854   6.376
    1XTA   HL1311942  29.250   1.708   6.367
    1XTA   HL1411943  29.175   1.801   6.616
    1XTA   HL1511944  29.304   1.692   6.584
    1XTA   HL1611945  29.291   2.054   6.523
    1XTA   HL1711946  29.265   2.033   6.700
    1XTA   HL1811947  29.456   2.043   6.857
    1XTA   HL1911948  29.596   2.132   6.826
    1XTA   HL2011949  29.596   1.833   6.755
    1XTA   HL2111950  29.652   1.910   6.907
    1XTA   HL2211951  29.723   1.953   6.753
    1XTA   HL2311952  29.339   2.204   5.129
    1XTA   HL2411953  29.388   2.332   5.250
    1XTA   HL2511954  29.361   2.346   4.945
    1XTA   HL2611955  29.376   2.484   5.045
    1XTA   HL2711956  29.592   2.369   5.141
    1XTA   HL2811957  29.582   2.251   5.018
    1XTA   HL2911958  29.589   2.539   4.946
    1XTA   HL3011959  29.726   2.438   4.961
    1XTA   HL3111960  29.663   2.314   4.753
    1XTA   HL3211961  29.503   2.337   4.789
    1XTA   HL3311962  29.680   2.535   4.656
    1XTA   HL3411963  29.557   2.456   4.586
    1XTA   HL3511964  29.353   2.528   4.815
    1XTA   HL3611965  29.352   2.477   4.646
    1XTA   HL3711966  29.382   2.813   4.532
    1XTA   HL3811967  29.214   2.809   4.531
    1XTA   HL3911968  29.324   2.689   4.339
    1XTA   HL4011969  29.227   2.573   4.429
    1XTA   HL4111970  29.401   2.582   4.449
    1XTA    CO811971  29.464   2.237   6.635
    1XTA    CO911972  29.579   2.042   6.533
    1XTA    OA611973  29.518   2.095   6.410
    1XTA   HL4211974  29.557   2.287   6.638
    1XTA   HL4311975  29.437   2.270   6.537
    1XTA   HL4411976  29.346   2.743   4.887
    1XTA   HL4511977  29.319   2.884   4.771
    1XTA   CO1011978  29.289   2.786   4.805
    1XTA   CO1111979  29.142   2.657   4.730
    1XTA    OA711980  29.149   2.770   4.825
    1XTA   HL4611981  29.061   2.664   4.653
    1XTA   HL4711982  29.130   2.573   4.791
    1XTA   HL4811983  29.597   1.932   6.511
    1XTA   HL4911984  29.671   2.094   6.554
    1XTA     NT11985  28.867   3.434  -0.337
    1XTA    CN111986  28.784   3.461  -0.240
    1XTA     C111987  28.666   3.538  -0.269
    1XTA     C211988  28.576   3.559  -0.162
    1XTA     C311989  28.604   3.518  -0.034
    1XTA     C411990  28.726   3.451  -0.013
    1XTA     C511991  28.816   3.428  -0.115
    1XTA    CN211992  28.830   3.344  -0.436
    1XTA     C611993  28.811   3.385  -0.567
    1XTA     C711994  28.804   3.293  -0.673
    1XTA     C811995  28.805   3.155  -0.645
    1XTA     C911996  28.824   3.116  -0.512
    1XTA    C1011997  28.838   3.209  -0.406
    1XTA    CN311998  28.990   3.495  -0.340
    1XTA    C1111999  29.108   3.419  -0.330
    1XTA    C1212000  29.235   3.476  -0.342
    1XTA    C1312001  29.244   3.613  -0.362
    1XTA    C1412002  29.130   3.688  -0.396
    1XTA    C1512003  29.000   3.627  -0.387
    1XTA     H112004  28.652   3.568  -0.377
    1XTA     H212005  28.487   3.608  -0.182
    1XTA     H312006  28.749   3.421   0.090
    1XTA     H412007  28.914   3.380  -0.104
    1XTA     H512008  28.799   3.495  -0.584
    1XTA     H612009  28.806   3.330  -0.773
    1XTA     H712010  28.833   3.013  -0.489
    1XTA     H812011  28.854   3.186  -0.303
    1XTA     H912012  29.099   3.315  -0.317
    1XTA    H1012013  29.317   3.419  -0.313
    1XTA    H1112014  29.149   3.791  -0.417
    1XTA    H1212015  28.901   3.680  -0.389
    1XTA    OA112016  28.513   3.538   0.068
    1XTA    CO112017  28.460   3.417   0.132
    1XTA    OA212018  28.789   3.050  -0.731
    1XTA    CO212019  28.814   3.086  -0.861
    1XTA    CL112020  28.794   2.960  -0.954
    1XTA    CL212021  28.910   2.856  -0.972
    1XTA    CL312022  28.927   2.752  -0.863
    1XTA    CL412023  28.794   2.671  -0.846
    1XTA    CO312024  28.739   2.602  -0.975
    1XTA    OA312025  28.618   2.530  -0.941
    1XTA    CO412026  28.519   2.535  -1.038
    1XTA    CT112027  28.407   2.438  -1.001
    1XTA    CL512028  28.451   2.298  -1.068
    1XTA    CL612029  28.583   2.239  -1.007
    1XTA    OA412030  29.373   3.665  -0.345
    1XTA    CO512031  29.380   3.785  -0.268
    1XTA    CL712032  29.343   3.763  -0.114
    1XTA    CL812033  29.195   3.780  -0.072
    1XTA    CL912034  29.123   3.906  -0.122
    1XTA   CL1012035  28.976   3.875  -0.136
    1XTA    CO612036  28.919   3.968  -0.252
    1XTA    OA512037  28.782   3.941  -0.270
    1XTA    CO712038  28.703   4.045  -0.317
    1XTA    CT212039  28.548   4.024  -0.292
    1XTA   CL1112040  28.457   4.149  -0.327
    1XTA   CL1212041  28.452   4.194  -0.471
    1XTA    HL112042  28.451   3.333   0.071
    1XTA    HL212043  28.518   3.384   0.211
    1XTA    HL312044  28.368   3.452   0.170
    1XTA    HL412045  28.753   3.175  -0.888
    1XTA    HL512046  28.918   3.117  -0.867
    1XTA    HL612047  28.755   2.988  -1.061
    1XTA    HL712048  28.711   2.903  -0.912
    1XTA    HL812049  29.012   2.900  -0.982
    1XTA    HL912050  28.914   2.799  -1.061
    1XTA   HL1012051  29.013   2.692  -0.891
    1XTA   HL1112052  28.952   2.806  -0.773
    1XTA   HL1212053  28.720   2.731  -0.802
    1XTA   HL1312054  28.806   2.587  -0.783
    1XTA   HL1412055  28.716   2.674  -1.053
    1XTA   HL1512056  28.805   2.530  -1.014
    1XTA   HL1612057  28.491   2.638  -1.043
    1XTA   HL1712058  28.562   2.508  -1.134
    1XTA   HL1812059  28.455   2.302  -1.176
    1XTA   HL1912060  28.363   2.242  -1.061
    1XTA   HL2012061  28.598   2.149  -1.068
    1XTA   HL2112062  28.571   2.202  -0.908
    1XTA   HL2212063  28.666   2.312  -1.010
    1XTA   HL2312064  29.331   3.862  -0.329
    1XTA   HL2412065  29.480   3.828  -0.258
    1XTA   HL2512066  29.380   3.665  -0.074
    1XTA   HL2612067  29.390   3.840  -0.052
    1XTA   HL2712068  29.138   3.693  -0.113
    1XTA   HL2812069  29.204   3.777   0.043
    1XTA   HL2912070  29.133   3.984  -0.041
    1XTA   HL3012071  29.156   3.952  -0.217
    1XTA   HL3112072  28.948   3.773  -0.161
    1XTA   HL3212073  28.918   3.892  -0.046
    1XTA   HL3312074  28.925   4.074  -0.221
    1XTA   HL3412075  28.965   3.955  -0.351
    1XTA   HL3512076  28.727   4.064  -0.427
    1XTA   HL3612077  28.724   4.140  -0.264
    1XTA   HL3712078  28.493   4.227  -0.262
    1XTA   HL3812079  28.354   4.140  -0.297
    1XTA   HL3912080  28.427   4.300  -0.483
    1XTA   HL4012081  28.379   4.148  -0.539
    1XTA   HL4112082  28.550   4.176  -0.519
    1XTA    CO812083  28.279   2.496  -1.066
    1XTA    CO912084  28.381   2.424  -0.851
    1XTA    OA612085  28.295   2.529  -1.208
    1XTA   HL4212086  28.256   2.586  -1.022
    1XTA   HL4312087  28.194   2.426  -1.048
    1XTA   HL4412088  28.616   4.015  -0.095
    1XTA   HL4512089  28.535   3.863  -0.132
    1XTA   CO1012090  28.528   3.977  -0.143
    1XTA   CO1112091  28.510   3.909  -0.391
    1XTA    OA712092  28.384   3.855  -0.361
    1XTA   HL4612093  28.515   3.950  -0.498
    1XTA   HL4712094  28.578   3.819  -0.378
    1XTA   HL4812095  28.306   2.346  -0.842
    1XTA   HL4912096  28.467   2.385  -0.800
    1XTA     NT12097  29.036   1.522   4.147
    1XTA    CN112098  29.060   1.461   4.025
    1XTA     C112099  28.963   1.454   3.925
    1XTA     C212100  28.988   1.382   3.809
    1XTA     C312101  29.116   1.326   3.788
    1XTA     C412102  29.213   1.323   3.896
    1XTA     C512103  29.183   1.396   4.007
    1XTA    CN212104  29.038   1.443   4.252
    1XTA     C612105  29.146   1.469   4.342
    1XTA     C712106  29.167   1.385   4.457
    1XTA     C812107  29.100   1.259   4.467
    1XTA     C912108  28.995   1.236   4.374
    1XTA    C1012109  28.961   1.330   4.273
    1XTA    CN312110  28.963   1.635   4.140
    1XTA    C1112111  29.022   1.755   4.094
    1XTA    C1212112  28.941   1.867   4.072
    1XTA    C1312113  28.807   1.866   4.112
    1XTA    C1412114  28.757   1.748   4.168
    1XTA    C1512115  28.830   1.630   4.177
    1XTA     H112116  28.874   1.515   3.933
    1XTA     H212117  28.910   1.386   3.733
    1XTA     H312118  29.310   1.277   3.885
    1XTA     H412119  29.258   1.394   4.091
    1XTA     H512120  29.223   1.539   4.337
    1XTA     H612121  29.243   1.427   4.528
    1XTA     H712122  28.922   1.158   4.388
    1XTA     H812123  28.877   1.336   4.200
    1XTA     H912124  29.130   1.757   4.085
    1XTA    H1012125  28.973   1.961   4.039
    1XTA    H1112126  28.654   1.736   4.201
    1XTA    H1212127  28.780   1.536   4.214
    1XTA    OA112128  29.157   1.277   3.668
    1XTA    CO112129  29.087   1.322   3.562
    1XTA    OA212130  29.114   1.177   4.575
    1XTA    CO212131  29.192   1.220   4.686
    1XTA    CL112132  29.129   1.289   4.801
    1XTA    CL212133  29.080   1.436   4.786
    1XTA    CL312134  28.943   1.434   4.713
    1XTA    CL412135  28.883   1.574   4.692
    1XTA    CO312136  28.965   1.643   4.581
    1XTA    OA312137  28.948   1.786   4.587
    1XTA    CO412138  29.014   1.856   4.485
    1XTA    CT112139  28.963   2.005   4.480
    1XTA    CL512140  29.031   2.081   4.358
    1XTA    CL612141  28.993   2.222   4.327
    1XTA    OA412142  28.734   1.984   4.108
    1XTA    CO512143  28.597   1.964   4.065
    1XTA    CL712144  28.517   2.023   4.187
    1XTA    CL812145  28.366   1.995   4.177
    1XTA    CL912146  28.289   2.108   4.257
    1XTA   CL1012147  28.150   2.053   4.283
    1XTA    CO612148  28.105   2.040   4.430
    1XTA    OA512149  28.090   2.174   4.495
    1XTA    CO712150  27.997   2.260   4.428
    1XTA    CT212151  28.008   2.411   4.465
    1XTA   CL1112152  28.141   2.464   4.415
    1XTA   CL1212153  28.145   2.623   4.407
    1XTA    HL112154  28.994   1.263   3.549
    1XTA    HL212155  29.070   1.430   3.561
    1XTA    HL312156  29.139   1.301   3.461
    1XTA    HL412157  29.236   1.131   4.721
    1XTA    HL512158  29.280   1.278   4.649
    1XTA    HL612159  29.209   1.289   4.879
    1XTA    HL712160  29.057   1.218   4.837
    1XTA    HL812161  29.166   1.485   4.738
    1XTA    HL912162  29.069   1.480   4.879
    1XTA   HL1012163  28.947   1.390   4.617
    1XTA   HL1112164  28.869   1.377   4.777
    1XTA   HL1212165  28.880   1.635   4.786
    1XTA   HL1312166  28.780   1.574   4.666
    1XTA   HL1412167  29.074   1.633   4.583
    1XTA   HL1512168  28.933   1.599   4.487
    1XTA   HL1612169  29.119   1.852   4.498
    1XTA   HL1712170  28.992   1.813   4.386
    1XTA   HL1812171  29.041   2.024   4.264
    1XTA   HL1912172  29.138   2.089   4.379
    1XTA   HL2012173  29.055   2.258   4.239
    1XTA   HL2112174  29.009   2.303   4.405
    1XTA   HL2212175  28.889   2.232   4.291
    1XTA   HL2312176  28.568   1.866   4.029
    1XTA   HL2412177  28.584   2.034   3.985
    1XTA   HL2512178  28.540   1.976   4.286
    1XTA   HL2612179  28.536   2.129   4.215
    1XTA   HL2712180  28.349   2.004   4.074
    1XTA   HL2812181  28.350   1.892   4.212
    1XTA   HL2912182  28.325   2.126   4.358
    1XTA   HL3012183  28.304   2.202   4.210
    1XTA   HL3112184  28.085   2.121   4.224
    1XTA   HL3212185  28.142   1.956   4.228
    1XTA   HL3312186  28.012   1.980   4.445
    1XTA   HL3412187  28.182   1.985   4.480
    1XTA   HL3512188  27.902   2.227   4.463
    1XTA   HL3612189  27.992   2.258   4.322
    1XTA   HL3712190  28.175   2.412   4.321
    1XTA   HL3812191  28.223   2.432   4.486
    1XTA   HL3912192  28.097   2.650   4.309
    1XTA   HL4012193  28.245   2.657   4.414
    1XTA   HL4112194  28.092   2.654   4.491
    1XTA    CO812195  29.005   2.072   4.612
    1XTA    CO912196  28.802   2.001   4.463
    1XTA    OA612197  28.737   1.972   4.588
    1XTA   HL4212198  28.971   2.012   4.693
    1XTA   HL4312199  29.106   2.053   4.626
    1XTA   HL4412200  27.886   2.362   4.653
    1XTA   HL4512201  28.088   2.363   4.667
    1XTA   CO1012202  28.006   2.420   4.621
    1XTA   CO1112203  27.884   2.475   4.392
    1XTA    OA712204  27.796   2.430   4.440
    1XTA   HL4612205  27.885   2.588   4.396
    1XTA   HL4712206  27.890   2.453   4.288
    1XTA   HL4812207  28.772   1.928   4.386
    1XTA   HL4912208  28.769   2.096   4.438
    1XTA     NT12209  28.133   4.754   5.681
    1XTA    CN112210  28.029   4.801   5.747
    1XTA     C112211  27.975   4.737   5.861
    1XTA     C212212  27.862   4.794   5.921
    1XTA     C312213  27.805   4.913   5.877
    1XTA     C412214  27.858   4.972   5.763
    1XTA     C512215  27.968   4.918   5.698
    1XTA    CN212216  28.255   4.771   5.733
    1XTA     C612217  28.316   4.899   5.739
    1XTA     C712218  28.446   4.912   5.795
    1XTA     C812219  28.511   4.798   5.849
    1XTA     C912220  28.448   4.668   5.842
    1XTA    C1012221  28.322   4.658   5.786
    1XTA    CN312222  28.125   4.661   5.582
    1XTA    C1112223  28.047   4.551   5.599
    1XTA    C1212224  28.043   4.447   5.501
    1XTA    C1312225  28.122   4.457   5.390
    1XTA    C1412226  28.208   4.565   5.368
    1XTA    C1512227  28.204   4.669   5.464
    1XTA     H112228  28.028   4.658   5.900
    1XTA     H212229  27.827   4.749   6.011
    1XTA     H312230  27.820   5.068   5.726
    1XTA     H412231  28.011   4.956   5.604
    1XTA     H512232  28.263   4.980   5.693
    1XTA     H612233  28.489   5.004   5.790
    1XTA     H712234  28.490   4.576   5.885
    1XTA     H812235  28.269   4.558   5.777
    1XTA     H912236  27.989   4.542   5.693
    1XTA    H1012237  27.975   4.365   5.521
    1XTA    H1112238  28.273   4.577   5.285
    1XTA    H1212239  28.255   4.760   5.450
    1XTA    OA112240  27.697   4.972   5.937
    1XTA    CO112241  27.690   4.972   6.077
    1XTA    OA212242  28.623   4.814   5.921
    1XTA    CO212243  28.626   4.725   6.032
    1XTA    CL112244  28.728   4.782   6.131
    1XTA    CL212245  28.752   4.689   6.255
    1XTA    CL312246  28.654   4.722   6.369
    1XTA    CL412247  28.686   4.637   6.499
    1XTA    CO312248  28.595   4.704   6.610
    1XTA    OA312249  28.606   4.628   6.733
    1XTA    CO412250  28.532   4.509   6.737
    1XTA    CT112251  28.542   4.437   6.882
    1XTA    CL512252  28.517   4.551   6.989
    1XTA    CL612253  28.519   4.509   7.143
    1XTA    OA412254  28.120   4.348   5.301
    1XTA    CO512255  28.234   4.327   5.222
    1XTA    CL712256  28.223   4.191   5.147
    1XTA    CL812257  28.196   4.065   5.227
    1XTA    CL912258  28.324   3.996   5.264
    1XTA   CL1012259  28.291   3.861   5.336
    1XTA    CO612260  28.253   3.872   5.483
    1XTA    OA512261  28.132   3.943   5.510
    1XTA    CO712262  28.015   3.888   5.454
    1XTA    CT212263  27.900   3.971   5.507
    1XTA   CL1112264  27.762   3.886   5.502
    1XTA   CL1212265  27.718   3.835   5.367
    1XTA    HL112266  27.613   5.047   6.111
    1XTA    HL212267  27.664   4.870   6.102
    1XTA    HL312268  27.782   5.002   6.129
    1XTA    HL412269  28.531   4.714   6.098
    1XTA    HL512270  28.657   4.628   6.004
    1XTA    HL612271  28.703   4.875   6.171
    1XTA    HL712272  28.817   4.811   6.078
    1XTA    HL812273  28.854   4.721   6.291
    1XTA    HL912274  28.755   4.583   6.217
    1XTA   HL1012275  28.646   4.827   6.387
    1XTA   HL1112276  28.554   4.699   6.335
    1XTA   HL1212277  28.787   4.651   6.533
    1XTA   HL1312278  28.668   4.533   6.478
    1XTA   HL1412279  28.643   4.801   6.622
    1XTA   HL1512280  28.494   4.736   6.582
    1XTA   HL1612281  28.431   4.540   6.710
    1XTA   HL1712282  28.567   4.440   6.657
    1XTA   HL1812283  28.424   4.599   6.972
    1XTA   HL1912284  28.594   4.623   6.974
    1XTA   HL2012285  28.516   4.598   7.206
    1XTA   HL2112286  28.615   4.465   7.155
    1XTA   HL2212287  28.430   4.445   7.167
    1XTA   HL2312288  28.312   4.309   5.295
    1XTA   HL2412289  28.248   4.406   5.144
    1XTA   HL2512290  28.143   4.200   5.071
    1XTA   HL2612291  28.310   4.170   5.085
    1XTA   HL2712292  28.132   4.073   5.319
    1XTA   HL2812293  28.137   3.991   5.176
    1XTA   HL2912294  28.393   3.977   5.178
    1XTA   HL3012295  28.373   4.058   5.338
    1XTA   HL3112296  28.215   3.801   5.284
    1XTA   HL3212297  28.391   3.822   5.340
    1XTA   HL3312298  28.248   3.775   5.533
    1XTA   HL3412299  28.329   3.931   5.535
    1XTA   HL3512300  28.008   3.776   5.484
    1XTA   HL3612301  28.013   3.884   5.350
    1XTA   HL3712302  27.676   3.951   5.538
    1XTA   HL3812303  27.763   3.803   5.575
    1XTA   HL3912304  27.704   3.911   5.294
    1XTA   HL4012305  27.611   3.802   5.376
    1XTA   HL4112306  27.783   3.760   5.328
    1XTA    CO812307  28.677   4.362   6.910
    1XTA    CO912308  28.424   4.344   6.899
    1XTA    OA612309  28.332   4.386   6.871
    1XTA   HL4212310  28.751   4.439   6.920
    1XTA   HL4312311  28.687   4.301   7.033
    1XTA   HL4412312  27.951   4.172   5.434
    1XTA   HL4512313  27.881   4.066   5.322
    1XTA   CO1012314  27.874   4.100   5.427
    1XTA   CO1112315  27.917   3.999   5.662
    1XTA    OA712316  27.785   4.161   5.459
    1XTA   HL4612317  27.969   3.892   5.733
    1XTA   HL4712318  27.981   4.083   5.674
    1XTA   HL4812319  28.406   4.313   7.005
    1XTA   HL4912320  28.450   4.257   6.837
    1XTA     NT12321  26.252   4.751   6.526
    1XTA    CN112322  26.218   4.752   6.655
    1XTA     C112323  26.187   4.877   6.719
    1XTA     C212324  26.138   4.876   6.853
    1XTA     C312325  26.124   4.760   6.926
    1XTA     C412326  26.160   4.638   6.865
    1XTA     C512327  26.211   4.637   6.734
    1XTA    CN212328  26.379   4.741   6.495
    1XTA     C612329  26.477   4.842   6.513
    1XTA     C712330  26.612   4.828   6.474
    1XTA     C812331  26.658   4.702   6.422
    1XTA     C912332  26.566   4.598   6.413
    1XTA    C1012333  26.433   4.623   6.446
    1XTA    CN312334  26.164   4.816   6.443
    1XTA    C1112335  26.029   4.765   6.431
    1XTA    C1212336  25.949   4.800   6.321
    1XTA    C1312337  25.984   4.903   6.237
    1XTA    C1412338  26.112   4.964   6.250
    1XTA    C1512339  26.206   4.917   6.348
    1XTA     H112340  26.193   4.967   6.661
    1XTA     H212341  26.097   4.965   6.903
    1XTA     H312342  26.151   4.546   6.915
    1XTA     H412343  26.220   4.548   6.679
    1XTA     H512344  26.452   4.935   6.562
    1XTA     H612345  26.673   4.916   6.480
    1XTA     H712346  26.601   4.509   6.357
    1XTA     H812347  26.365   4.531   6.443
    1XTA     H912348  25.987   4.698   6.504
    1XTA    H1012349  25.849   4.758   6.328
    1XTA    H1112350  26.137   5.038   6.174
    1XTA    H1212351  26.314   4.954   6.344
    1XTA    OA112352  26.081   4.781   7.056
    1XTA    CO112353  26.085   4.664   7.130
    1XTA    OA212354  26.784   4.688   6.371
    1XTA    CO212355  26.845   4.803   6.311
    1XTA    CL112356  26.982   4.774   6.252
    1XTA    CL212357  27.074   4.884   6.189
    1XTA    CL312358  27.217   4.845   6.140
    1XTA    CL412359  27.316   4.828   6.258
    1XTA    CO312360  27.343   4.974   6.303
    1XTA    OA312361  27.449   4.962   6.392
    1XTA    CO412362  27.405   4.942   6.524
    1XTA    CT112363  27.507   4.961   6.638
    1XTA    CL512364  27.436   4.952   6.774
    1XTA    CL612365  27.384   4.814   6.824
    1XTA    OA412366  25.890   4.943   6.145
    1XTA    CO512367  25.942   4.968   6.011
    1XTA    CL712368  25.894   5.097   5.947
    1XTA    CL812369  25.959   5.227   5.999
    1XTA    CL912370  25.925   5.349   5.921
    1XTA   CL1012371  25.944   5.344   5.768
    1XTA    CO612372  26.096   5.329   5.733
    1XTA    OA512373  26.150   5.195   5.716
    1XTA    CO712374  26.083   5.127   5.609
    1XTA    CT212375  26.173   5.017   5.552
    1XTA   CL1112376  26.244   4.938   5.664
    1XTA   CL1212377  26.346   4.822   5.624
    1XTA    HL112378  26.026   4.588   7.085
    1XTA    HL212379  26.190   4.631   7.138
    1XTA    HL312380  26.026   4.685   7.220
    1XTA    HL412381  26.779   4.845   6.232
    1XTA    HL512382  26.856   4.889   6.383
    1XTA    HL612383  26.959   4.693   6.186
    1XTA    HL712384  27.043   4.718   6.326
    1XTA    HL812385  27.082   4.968   6.253
    1XTA    HL912386  27.013   4.919   6.108
    1XTA   HL1012387  27.215   4.747   6.084
    1XTA   HL1112388  27.257   4.911   6.064
    1XTA   HL1212389  27.404   4.782   6.207
    1XTA   HL1312390  27.293   4.758   6.338
    1XTA   HL1412391  27.365   5.048   6.226
    1XTA   HL1512392  27.254   5.006   6.357
    1XTA   HL1612393  27.314   5.003   6.547
    1XTA   HL1712394  27.374   4.837   6.533
    1XTA   HL1812395  27.360   5.032   6.793
    1XTA   HL1912396  27.504   4.979   6.863
    1XTA   HL2012397  27.472   4.758   6.860
    1XTA   HL2112398  27.357   4.754   6.740
    1XTA   HL2212399  27.293   4.820   6.890
    1XTA   HL2312400  25.894   4.892   5.952
    1XTA   HL2412401  26.048   4.966   5.996
    1XTA   HL2512402  25.911   5.099   5.842
    1XTA   HL2612403  25.786   5.102   5.964
    1XTA   HL2712404  25.929   5.242   6.103
    1XTA   HL2812405  26.061   5.206   5.997
    1XTA   HL2912406  25.820   5.384   5.926
    1XTA   HL3012407  25.985   5.435   5.956
    1XTA   HL3112408  25.877   5.279   5.706
    1XTA   HL3212409  25.911   5.439   5.726
    1XTA   HL3312410  26.106   5.388   5.646
    1XTA   HL3412411  26.155   5.388   5.808
    1XTA   HL3512412  26.048   5.190   5.524
    1XTA   HL3612413  25.993   5.089   5.653
    1XTA   HL3712414  26.172   4.910   5.741
    1XTA   HL3812415  26.307   5.006   5.723
    1XTA   HL3912416  26.439   4.871   5.588
    1XTA   HL4012417  26.316   4.765   5.537
    1XTA   HL4112418  26.372   4.763   5.712
    1XTA    CO812419  27.577   5.098   6.620
    1XTA    CO912420  27.622   4.852   6.646
    1XTA    OA612421  27.511   5.221   6.645
    1XTA   HL4212422  27.622   5.104   6.516
    1XTA   HL4312423  27.655   5.118   6.692
    1XTA   HL4412424  26.223   5.120   5.372
    1XTA   HL4512425  26.305   4.988   5.392
    1XTA   CO1012426  26.275   5.071   5.448
    1XTA   CO1112427  26.075   4.929   5.473
    1XTA    OA712428  26.001   4.839   5.553
    1XTA   HL4612429  26.001   4.985   5.420
    1XTA   HL4712430  26.123   4.882   5.394
    1XTA   HL4812431  27.690   4.852   6.558
    1XTA   HL4912432  27.570   4.756   6.640
    1XTA     NT12433  26.214   2.753   7.451
    1XTA    CN112434  26.280   2.728   7.565
    1XTA     C112435  26.245   2.622   7.646
    1XTA     C212436  26.316   2.588   7.767
    1XTA     C312437  26.425   2.669   7.803
    1XTA     C412438  26.460   2.776   7.716
    1XTA     C512439  26.388   2.805   7.599
    1XTA    CN212440  26.222   2.664   7.352
    1XTA     C612441  26.104   2.606   7.290
    1XTA     C712442  26.114   2.532   7.172
    1XTA     C812443  26.245   2.497   7.120
    1XTA     C912444  26.362   2.551   7.189
    1XTA    C1012445  26.348   2.635   7.300
    1XTA    CN312446  26.141   2.868   7.423
    1XTA    C1112447  26.013   2.884   7.483
    1XTA    C1212448  25.928   2.994   7.445
    1XTA    C1312449  25.972   3.084   7.349
    1XTA    C1412450  26.097   3.068   7.282
    1XTA    C1512451  26.182   2.959   7.324
    1XTA     H112452  26.164   2.557   7.621
    1XTA     H212453  26.284   2.509   7.832
    1XTA     H312454  26.546   2.831   7.752
    1XTA     H412455  26.424   2.892   7.544
    1XTA     H512456  26.005   2.634   7.329
    1XTA     H612457  26.027   2.496   7.123
    1XTA     H712458  26.462   2.524   7.159
    1XTA     H812459  26.434   2.683   7.347
    1XTA     H912460  25.981   2.814   7.553
    1XTA    H1012461  25.833   3.012   7.493
    1XTA    H1112462  26.131   3.139   7.214
    1XTA    H1212463  26.271   2.945   7.272
    1XTA    OA112464  26.484   2.653   7.923
    1XTA    CO112465  26.560   2.527   7.937
    1XTA    OA212466  26.274   2.418   7.009
    1XTA    CO212467  26.165   2.386   6.924
    1XTA    CL112468  26.123   2.511   6.845
    1XTA    CL212469  26.245   2.583   6.782
    1XTA    CL312470  26.189   2.703   6.691
    1XTA    CL412471  26.308   2.746   6.599
    1XTA    CO312472  26.266   2.847   6.493
    1XTA    OA312473  26.364   2.862   6.400
    1XTA    CO412474  26.338   2.978   6.322
    1XTA    CT112475  26.406   2.967   6.179
    1XTA    CL512476  26.315   2.869   6.101
    1XTA    CL612477  26.374   2.804   5.975
    1XTA    OA412478  25.890   3.188   7.320
    1XTA    CO512479  25.866   3.207   7.180
    1XTA    CL712480  25.772   3.326   7.156
    1XTA    CL812481  25.714   3.317   7.009
    1XTA    CL912482  25.775   3.417   6.924
    1XTA   CL1012483  25.713   3.391   6.789
    1XTA    CO612484  25.705   3.518   6.702
    1XTA    OA512485  25.827   3.578   6.655
    1XTA    CO712486  25.912   3.498   6.571
    1XTA    CT212487  26.040   3.577   6.527
    1XTA   CL1112488  26.003   3.691   6.431
    1XTA   CL1212489  26.111   3.746   6.353
    1XTA    HL112490  26.506   2.436   7.922
    1XTA    HL212491  26.645   2.519   7.867
    1XTA    HL312492  26.589   2.506   8.042
    1XTA    HL412493  26.206   2.317   6.846
    1XTA    HL512494  26.083   2.346   6.990
    1XTA    HL612495  26.076   2.570   6.916
    1XTA    HL712496  26.046   2.469   6.785
    1XTA    HL812497  26.299   2.507   6.726
    1XTA    HL912498  26.312   2.626   6.855
    1XTA   HL1012499  26.117   2.667   6.616
    1XTA   HL1112500  26.156   2.799   6.743
    1XTA   HL1212501  26.333   2.655   6.548
    1XTA   HL1312502  26.396   2.775   6.654
    1XTA   HL1412503  26.182   2.813   6.435
    1XTA   HL1512504  26.236   2.937   6.539
    1XTA   HL1612505  26.232   2.992   6.314
    1XTA   HL1712506  26.373   3.065   6.379
    1XTA   HL1812507  26.232   2.920   6.070
    1XTA   HL1912508  26.281   2.782   6.155
    1XTA   HL2012509  26.450   2.727   5.988
    1XTA   HL2112510  26.424   2.871   5.910
    1XTA   HL2212511  26.297   2.754   5.915
    1XTA   HL2312512  25.812   3.113   7.150
    1XTA   HL2412513  25.951   3.227   7.110
    1XTA   HL2512514  25.685   3.336   7.226
    1XTA   HL2612515  25.822   3.420   7.171
    1XTA   HL2712516  25.720   3.216   6.977
    1XTA   HL2812517  25.601   3.327   7.014
    1XTA   HL2912518  25.737   3.512   6.957
    1XTA   HL3012519  25.882   3.410   6.929
    1XTA   HL3112520  25.783   3.330   6.735
    1XTA   HL3212521  25.613   3.347   6.789
    1XTA   HL3312522  25.637   3.507   6.608
    1XTA   HL3412523  25.665   3.589   6.772
    1XTA   HL3512524  25.857   3.461   6.484
    1XTA   HL3612525  25.945   3.405   6.627
    1XTA   HL3712526  25.952   3.773   6.491
    1XTA   HL3812527  25.933   3.659   6.352
    1XTA   HL3912528  26.097   3.851   6.336
    1XTA   HL4012529  26.131   3.692   6.261
    1XTA   HL4112530  26.198   3.755   6.413
    1XTA    CO812531  26.555   2.917   6.194
    1XTA    CO912532  26.405   3.107   6.124
    1XTA    OA612533  26.303   3.142   6.114
    1XTA   HL4212534  26.594   2.939   6.290
    1XTA   HL4312535  26.579   2.776   6.207
    1XTA   HL4412536  26.169   3.369   6.532
    1XTA   HL4512537  26.224   3.532   6.433
    1XTA   CO1012538  26.133   3.475   6.452
    1XTA   CO1112539  26.103   3.617   6.657
    1XTA    OA712540  26.200   3.656   6.645
    1XTA   HL4612541  26.040   3.697   6.693
    1XTA   HL4712542  26.096   3.537   6.727
    1XTA   HL4812543  26.451   3.115   6.029
    1XTA   HL4912544  26.471   3.170   6.187
    1XTA     NT12545  25.744   3.142   1.939
    1XTA    CN112546  25.800   3.239   1.870
    1XTA     C112547  25.867   3.206   1.750
    1XTA     C212548  25.936   3.315   1.686
    1XTA     C312549  25.947   3.444   1.738
    1XTA     C412550  25.887   3.463   1.862
    1XTA     C512551  25.811   3.363   1.928
    1XTA    CN212552  25.789   3.016   1.923
    1XTA     C612553  25.738   2.942   1.812
    1XTA     C712554  25.808   2.822   1.775
    1XTA     C812555  25.913   2.769   1.852
    1XTA     C912556  25.962   2.843   1.962
    1XTA    C1012557  25.904   2.967   1.994
    1XTA    CN312558  25.640   3.164   2.015
    1XTA    C1112559  25.513   3.188   1.952
    1XTA    C1212560  25.408   3.211   2.037
    1XTA    C1312561  25.414   3.207   2.172
    1XTA    C1412562  25.529   3.164   2.239
    1XTA    C1512563  25.646   3.146   2.159
    1XTA     H112564  25.868   3.102   1.705
    1XTA     H212565  25.997   3.293   1.602
    1XTA     H312566  25.896   3.554   1.901
    1XTA     H412567  25.769   3.386   2.025
    1XTA     H512568  25.647   2.972   1.764
    1XTA     H612569  25.759   2.772   1.699
    1XTA     H712570  26.035   2.794   2.018
    1XTA     H812571  25.955   3.025   2.069
    1XTA     H912572  25.504   3.190   1.842
    1XTA    H1012573  25.306   3.224   2.008
    1XTA    H1112574  25.524   3.148   2.345
    1XTA    H1212575  25.736   3.107   2.208
    1XTA    OA112576  26.026   3.542   1.682
    1XTA    CO112577  26.029   3.551   1.536
    1XTA    OA212578  25.974   2.648   1.816
    1XTA    CO212579  25.985   2.610   1.685
    1XTA    CL112580  26.035   2.472   1.686
    1XTA    CL212581  26.058   2.424   1.544
    1XTA    CL312582  26.114   2.278   1.526
    1XTA    CL412583  26.246   2.257   1.602
    1XTA    CO312584  26.348   2.369   1.562
    1XTA    OA312585  26.472   2.341   1.624
    1XTA    CO412586  26.544   2.250   1.551
    1XTA    CT112587  26.644   2.178   1.649
    1XTA    CL512588  26.741   2.288   1.704
    1XTA    CL612589  26.819   2.377   1.605
    1XTA    OA412590  25.295   3.226   2.239
    1XTA    CO512591  25.280   3.178   2.372
    1XTA    CL712592  25.132   3.189   2.405
    1XTA    CL812593  25.050   3.055   2.401
    1XTA    CL912594  24.951   3.030   2.288
    1XTA   CL1012595  25.031   2.992   2.159
    1XTA    CO612596  25.086   2.851   2.163
    1XTA    OA512597  25.175   2.820   2.060
    1XTA    CO712598  25.220   2.690   2.067
    1XTA    CT212599  25.326   2.651   1.966
    1XTA   CL1112600  25.280   2.683   1.819
    1XTA   CL1212601  25.297   2.829   1.770
    1XTA    HL112602  26.060   3.646   1.509
    1XTA    HL212603  26.096   3.474   1.506
    1XTA    HL312604  25.932   3.535   1.490
    1XTA    HL412605  25.885   2.610   1.643
    1XTA    HL512606  26.044   2.678   1.621
    1XTA    HL612607  25.960   2.405   1.739
    1XTA    HL712608  26.127   2.475   1.739
    1XTA    HL812609  26.137   2.486   1.504
    1XTA    HL912610  25.968   2.446   1.492
    1XTA   HL1012611  26.038   2.205   1.564
    1XTA   HL1112612  26.128   2.264   1.420
    1XTA   HL1212613  26.298   2.163   1.573
    1XTA   HL1312614  26.238   2.241   1.711
    1XTA   HL1412615  26.357   2.364   1.454
    1XTA   HL1512616  26.319   2.472   1.585
    1XTA   HL1612617  26.486   2.173   1.499
    1XTA   HL1712618  26.596   2.304   1.479
    1XTA   HL1812619  26.831   2.241   1.747
    1XTA   HL1912620  26.694   2.347   1.784
    1XTA   HL2012621  26.753   2.470   1.592
    1XTA   HL2112622  26.836   2.338   1.504
    1XTA   HL2212623  26.909   2.419   1.640
    1XTA   HL2312624  25.326   3.240   2.445
    1XTA   HL2412625  25.313   3.076   2.376
    1XTA   HL2512626  25.115   3.236   2.502
    1XTA   HL2612627  25.091   3.260   2.330
    1XTA   HL2712628  25.123   2.973   2.407
    1XTA   HL2812629  24.999   3.038   2.497
    1XTA   HL2912630  24.868   2.966   2.314
    1XTA   HL3012631  24.903   3.129   2.278
    1XTA   HL3112632  24.973   3.005   2.066
    1XTA   HL3212633  25.106   3.066   2.147
    1XTA   HL3312634  25.140   2.826   2.255
    1XTA   HL3412635  25.013   2.774   2.160
    1XTA   HL3512636  25.138   2.628   2.055
    1XTA   HL3612637  25.249   2.658   2.168
    1XTA   HL3712638  25.170   2.656   1.810
    1XTA   HL3812639  25.333   2.629   1.740
    1XTA   HL3912640  25.225   2.846   1.691
    1XTA   HL4012641  25.397   2.836   1.724
    1XTA   HL4112642  25.300   2.924   1.836
    1XTA    CO812643  26.718   2.068   1.569
    1XTA    CO912644  26.585   2.106   1.772
    1XTA    OA612645  26.524   2.177   1.831
    1XTA   HL4212646  26.791   2.125   1.505
    1XTA   HL4312647  26.804   1.980   1.648
    1XTA   HL4412648  25.240   2.451   1.962
    1XTA   HL4512649  25.423   2.463   1.937
    1XTA   CO1012650  25.339   2.497   1.991
    1XTA   CO1112651  25.454   2.724   2.000
    1XTA    OA712652  25.358   2.462   2.098
    1XTA   HL4612653  25.536   2.724   1.887
    1XTA   HL4712654  25.430   2.835   2.008
    1XTA   HL4812655  26.660   2.049   1.834
    1XTA   HL4912656  26.520   2.037   1.710
    1XTA     NT12657  26.535   3.503   0.754
    1XTA    CN112658  26.417   3.521   0.686
    1XTA     C112659  26.298   3.472   0.746
    1XTA     C212660  26.174   3.496   0.679
    1XTA     C312661  26.164   3.577   0.567
    1XTA     C412662  26.280   3.644   0.517
    1XTA     C512663  26.407   3.612   0.576
    1XTA    CN212664  26.547   3.389   0.821
    1XTA     C612665  26.567   3.278   0.745
    1XTA     C712666  26.587   3.154   0.807
    1XTA     C812667  26.577   3.137   0.946
    1XTA     C912668  26.539   3.250   1.020
    1XTA    C1012669  26.529   3.380   0.960
    1XTA    CN312670  26.640   3.583   0.746
    1XTA    C1112671  26.728   3.561   0.633
    1XTA    C1212672  26.841   3.653   0.623
    1XTA    C1312673  26.855   3.765   0.708
    1XTA    C1412674  26.770   3.771   0.823
    1XTA    C1512675  26.660   3.681   0.841
    1XTA     H112676  26.296   3.439   0.840
    1XTA     H212677  26.092   3.465   0.733
    1XTA     H312678  26.281   3.719   0.441
    1XTA     H412679  26.503   3.656   0.546
    1XTA     H512680  26.581   3.284   0.634
    1XTA     H612681  26.614   3.059   0.759
    1XTA     H712682  26.535   3.244   1.127
    1XTA     H812683  26.508   3.466   1.022
    1XTA     H912684  26.717   3.479   0.560
    1XTA    H1012685  26.900   3.648   0.531
    1XTA    H1112686  26.788   3.839   0.897
    1XTA    H1212687  26.585   3.702   0.923
    1XTA    OA112688  26.042   3.596   0.505
    1XTA    CO112689  26.033   3.700   0.414
    1XTA    OA212690  26.598   3.015   1.003
    1XTA    CO212691  26.575   2.997   1.136
    1XTA    CL112692  26.613   2.852   1.168
    1XTA    CL212693  26.531   2.794   1.288
    1XTA    CL312694  26.519   2.645   1.294
    1XTA    CL412695  26.484   2.573   1.168
    1XTA    CO312696  26.590   2.485   1.106
    1XTA    OA312697  26.549   2.454   0.975
    1XTA    CO412698  26.579   2.547   0.874
    1XTA    CT112699  26.508   2.522   0.740
    1XTA    CL512700  26.565   2.390   0.683
    1XTA    CL612701  26.524   2.345   0.536
    1XTA    OA412702  26.941   3.869   0.685
    1XTA    CO512703  27.054   3.843   0.603
    1XTA    CL712704  27.145   3.963   0.613
    1XTA    CL812705  27.184   3.957   0.752
    1XTA    CL912706  27.256   4.081   0.798
    1XTA   CL1012707  27.316   4.075   0.934
    1XTA    CO612708  27.218   4.132   1.038
    1XTA    OA512709  27.126   4.037   1.083
    1XTA    CO712710  27.062   4.089   1.202
    1XTA    CT212711  26.945   3.998   1.249
    1XTA   CL1112712  26.852   3.970   1.126
    1XTA   CL1212713  26.816   4.101   1.053
    1XTA    HL112714  25.930   3.700   0.375
    1XTA    HL212715  26.054   3.784   0.468
    1XTA    HL312716  26.101   3.694   0.335
    1XTA    HL412717  26.632   3.071   1.195
    1XTA    HL512718  26.468   3.012   1.162
    1XTA    HL612719  26.718   2.856   1.207
    1XTA    HL712720  26.599   2.788   1.082
    1XTA    HL812721  26.429   2.826   1.284
    1XTA    HL912722  26.560   2.831   1.385
    1XTA   HL1012723  26.607   2.592   1.326
    1XTA   HL1112724  26.447   2.610   1.373
    1XTA   HL1212725  26.438   2.633   1.088
    1XTA   HL1312726  26.394   2.511   1.186
    1XTA   HL1412727  26.683   2.543   1.108
    1XTA   HL1512728  26.592   2.381   1.159
    1XTA   HL1612729  26.556   2.648   0.913
    1XTA   HL1712730  26.686   2.555   0.861
    1XTA   HL1812731  26.538   2.316   0.760
    1XTA   HL1912732  26.670   2.403   0.678
    1XTA   HL2012733  26.571   2.394   0.450
    1XTA   HL2112734  26.418   2.334   0.530
    1XTA   HL2212735  26.568   2.250   0.516
    1XTA   HL2312736  27.031   3.837   0.499
    1XTA   HL2412737  27.111   3.752   0.617
    1XTA   HL2512738  27.236   3.960   0.547
    1XTA   HL2612739  27.090   4.049   0.595
    1XTA   HL2712740  27.102   3.942   0.821
    1XTA   HL2812741  27.254   3.869   0.760
    1XTA   HL2912742  27.326   4.122   0.722
    1XTA   HL3012743  27.178   4.154   0.799
    1XTA   HL3112744  27.342   3.968   0.956
    1XTA   HL3212745  27.411   4.130   0.936
    1XTA   HL3312746  27.266   4.175   1.126
    1XTA   HL3412747  27.162   4.217   0.998
    1XTA   HL3512748  27.020   4.194   1.183
    1XTA   HL3612749  27.141   4.097   1.274
    1XTA   HL3712750  26.766   3.912   1.151
    1XTA   HL3812751  26.904   3.917   1.046
    1XTA   HL3912752  26.751   4.162   1.110
    1XTA   HL4012753  26.747   4.077   0.969
    1XTA   HL4112754  26.895   4.163   1.005
    1XTA    CO812755  26.528   2.638   0.643
    1XTA    CO912756  26.342   2.515   0.762
    1XTA    OA612757  26.637   2.638   0.611
    1XTA   HL4212758  26.498   2.729   0.693
    1XTA   HL4312759  26.471   2.630   0.556
    1XTA   HL4412760  26.783   3.995   1.380
    1XTA   HL4512761  26.935   4.036   1.487
    1XTA   CO1012762  26.870   4.058   1.364
    1XTA   CO1112763  27.003   3.869   1.294
    1XTA    OA712764  27.054   3.808   1.217
    1XTA   HL4612765  27.073   3.899   1.366
    1XTA   HL4712766  26.925   3.818   1.351
    1XTA   HL4812767  26.304   2.401   0.837
    1XTA   HL4912768  26.302   2.521   0.663
    1XTA     NT12769  28.603   5.437  -0.657
    1XTA    CN112770  28.517   5.368  -0.735
    1XTA     C112771  28.393   5.426  -0.777
    1XTA     C212772  28.298   5.348  -0.852
    1XTA     C312773  28.323   5.214  -0.882
    1XTA     C412774  28.446   5.158  -0.855
    1XTA     C512775  28.536   5.232  -0.773
    1XTA    CN212776  28.574   5.463  -0.527
    1XTA     C612777  28.610   5.365  -0.430
    1XTA     C712778  28.583   5.390  -0.292
    1XTA     C812779  28.528   5.519  -0.258
    1XTA     C912780  28.475   5.604  -0.350
    1XTA    C1012781  28.509   5.584  -0.483
    1XTA    CN312782  28.702   5.511  -0.715
    1XTA    C1112783  28.665   5.634  -0.778
    1XTA    C1212784  28.764   5.722  -0.824
    1XTA    C1312785  28.900   5.699  -0.794
    1XTA    C1412786  28.941   5.575  -0.739
    1XTA    C1512787  28.837   5.483  -0.696
    1XTA     H112788  28.379   5.522  -0.746
    1XTA     H212789  28.198   5.377  -0.875
    1XTA     H312790  28.469   5.059  -0.890
    1XTA     H412791  28.629   5.180  -0.744
    1XTA     H512792  28.666   5.278  -0.469
    1XTA     H612793  28.620   5.317  -0.225
    1XTA     H712794  28.416   5.691  -0.328
    1XTA     H812795  28.478   5.651  -0.563
    1XTA     H912796  28.560   5.658  -0.792
    1XTA    H1012797  28.743   5.814  -0.876
    1XTA    H1112798  29.049   5.552  -0.729
    1XTA    H1212799  28.864   5.390  -0.643
    1XTA    OA112800  28.226   5.151  -0.953
    1XTA    CO112801  28.120   5.082  -0.882
    1XTA    OA212802  28.518   5.569  -0.126
    1XTA    CO212803  28.588   5.493  -0.027
    1XTA    CL112804  28.573   5.558   0.112
    1XTA    CL212805  28.685   5.506   0.193
    1XTA    CL312806  28.685   5.515   0.350
    1XTA    CL412807  28.641   5.656   0.400
    1XTA    CO312808  28.729   5.771   0.352
    1XTA    OA312809  28.660   5.887   0.388
    1XTA    CO412810  28.590   5.940   0.281
    1XTA    CT112811  28.510   6.067   0.324
    1XTA    CL512812  28.600   6.145   0.423
    1XTA    CL612813  28.735   6.196   0.367
    1XTA    OA412814  29.006   5.789  -0.823
    1XTA    CO512815  28.978   5.927  -0.798
    1XTA    CL712816  28.929   5.941  -0.651
    1XTA    CL812817  28.851   6.067  -0.608
    1XTA    CL912818  28.764   6.034  -0.489
    1XTA   CL1012819  28.835   5.959  -0.373
    1XTA    CO612820  28.719   5.910  -0.273
    1XTA    OA512821  28.654   6.024  -0.224
    1XTA    CO712822  28.739   6.093  -0.133
    1XTA    CT212823  28.676   6.229  -0.100
    1XTA   CL1112824  28.644   6.300  -0.241
    1XTA   CL1212825  28.604   6.445  -0.245
    1XTA    HL112826  28.155   4.994  -0.834
    1XTA    HL212827  28.074   5.147  -0.803
    1XTA    HL312828  28.037   5.060  -0.952
    1XTA    HL412829  28.547   5.392  -0.020
    1XTA    HL512830  28.695   5.489  -0.067
    1XTA    HL612831  28.482   5.527   0.164
    1XTA    HL712832  28.576   5.669   0.108
    1XTA    HL812833  28.766   5.571   0.154
    1XTA    HL912834  28.698   5.400   0.172
    1XTA   HL1012835  28.603   5.461   0.398
    1XTA   HL1112836  28.784   5.480   0.387
    1XTA   HL1212837  28.641   5.650   0.513
    1XTA   HL1312838  28.531   5.657   0.388
    1XTA   HL1412839  28.819   5.767   0.411
    1XTA   HL1512840  28.750   5.766   0.246
    1XTA   HL1612841  28.650   5.972   0.202
    1XTA   HL1712842  28.522   5.865   0.239
    1XTA   HL1812843  28.616   6.086   0.519
    1XTA   HL1912844  28.545   6.227   0.457
    1XTA   HL2012845  28.799   6.119   0.327
    1XTA   HL2112846  28.780   6.248   0.457
    1XTA   HL2212847  28.715   6.261   0.284
    1XTA   HL2312848  28.898   5.957  -0.874
    1XTA   HL2412849  29.069   5.996  -0.808
    1XTA   HL2512850  28.857   5.864  -0.636
    1XTA   HL2612851  29.024   5.930  -0.598
    1XTA   HL2712852  28.928   6.145  -0.578
    1XTA   HL2812853  28.792   6.108  -0.690
    1XTA   HL2912854  28.740   6.125  -0.440
    1XTA   HL3012855  28.669   5.999  -0.513
    1XTA   HL3112856  28.881   5.869  -0.414
    1XTA   HL3212857  28.917   6.013  -0.329
    1XTA   HL3312858  28.653   5.859  -0.339
    1XTA   HL3412859  28.765   5.845  -0.193
    1XTA   HL3512860  28.844   6.104  -0.168
    1XTA   HL3612861  28.752   6.044  -0.032
    1XTA   HL3712862  28.572   6.234  -0.290
    1XTA   HL3812863  28.721   6.278  -0.315
    1XTA   HL3912864  28.521   6.456  -0.318
    1XTA   HL4012865  28.688   6.507  -0.272
    1XTA   HL4112866  28.566   6.482  -0.145
    1XTA    CO812867  28.379   6.033   0.402
    1XTA    CO912868  28.461   6.143   0.198
    1XTA    OA612869  28.573   6.182   0.122
    1XTA   HL4212870  28.404   5.998   0.500
    1XTA   HL4312871  28.323   6.125   0.423
    1XTA   HL4412872  28.827   6.259   0.050
    1XTA   HL4512873  28.875   6.311  -0.089
    1XTA   CO1012874  28.783   6.312  -0.032
    1XTA   CO1112875  28.554   6.219  -0.013
    1XTA    OA712876  28.737   6.441   0.017
    1XTA   HL4612877  28.487   6.148  -0.059
    1XTA   HL4712878  28.516   6.321  -0.017
    1XTA   HL4812879  28.396   6.225   0.237
    1XTA   HL4912880  28.408   6.070   0.145
    1XTA     NT12881  26.655   3.711   1.994
    1XTA    CN112882  26.724   3.811   2.054
    1XTA     C112883  26.645   3.919   2.104
    1XTA     C212884  26.717   4.032   2.157
    1XTA     C312885  26.860   4.032   2.151
    1XTA     C412886  26.936   3.920   2.097
    1XTA     C512887  26.863   3.805   2.061
    1XTA    CN212888  26.636   3.712   1.861
    1XTA     C612889  26.718   3.770   1.770
    1XTA     C712890  26.704   3.768   1.629
    1XTA     C812891  26.584   3.707   1.585
    1XTA     C912892  26.491   3.658   1.678
    1XTA    C1012893  26.513   3.662   1.815
    1XTA    CN312894  26.629   3.592   2.061
    1XTA    C1112895  26.704   3.478   2.031
    1XTA    C1212896  26.672   3.351   2.095
    1XTA    C1312897  26.567   3.336   2.187
    1XTA    C1412898  26.488   3.454   2.209
    1XTA    C1512899  26.520   3.576   2.145
    1XTA     H112900  26.539   3.919   2.099
    1XTA     H212901  26.657   4.111   2.205
    1XTA     H312902  27.042   3.921   2.088
    1XTA     H412903  26.912   3.721   2.022
    1XTA     H512904  26.809   3.817   1.798
    1XTA     H612905  26.783   3.804   1.568
    1XTA     H712906  26.390   3.617   1.653
    1XTA     H812907  26.457   3.611   1.887
    1XTA     H912908  26.791   3.485   1.973
    1XTA    H1012909  26.741   3.265   2.083
    1XTA    H1112910  26.404   3.458   2.274
    1XTA    H1212911  26.458   3.666   2.167
    1XTA    OA112912  26.922   4.144   2.211
    1XTA    CO112913  27.059   4.171   2.215
    1XTA    OA212914  26.551   3.705   1.451
    1XTA    CO212915  26.654   3.668   1.359
    1XTA    CL112916  26.666   3.515   1.372
    1XTA    CL212917  26.777   3.470   1.280
    1XTA    CL312918  26.790   3.312   1.286
    1XTA    CL412919  26.867   3.250   1.170
    1XTA    CO312920  27.017   3.291   1.189
    1XTA    OA312921  27.032   3.423   1.159
    1XTA    CO412922  27.170   3.463   1.151
    1XTA    CT112923  27.177   3.613   1.122
    1XTA    CL512924  27.089   3.651   1.002
    1XTA    CL612925  27.099   3.563   0.882
    1XTA    OA412926  26.541   3.217   2.246
    1XTA    CO512927  26.436   3.207   2.343
    1XTA    CL712928  26.470   3.284   2.476
    1XTA    CL812929  26.375   3.281   2.587
    1XTA    CL912930  26.377   3.411   2.675
    1XTA   CL1012931  26.276   3.393   2.786
    1XTA    CO612932  26.244   3.518   2.863
    1XTA    OA512933  26.158   3.502   2.974
    1XTA    CO712934  26.025   3.528   2.941
    1XTA    CT212935  25.929   3.461   3.044
    1XTA   CL1112936  25.942   3.307   3.036
    1XTA   CL1212937  25.884   3.241   2.916
    1XTA    HL112938  27.088   4.136   2.116
    1XTA    HL212939  27.088   4.276   2.226
    1XTA    HL312940  27.107   4.111   2.297
    1XTA    HL412941  26.622   3.696   1.260
    1XTA    HL512942  26.751   3.707   1.387
    1XTA    HL612943  26.567   3.483   1.347
    1XTA    HL712944  26.693   3.491   1.472
    1XTA    HL812945  26.874   3.489   1.322
    1XTA    HL912946  26.779   3.511   1.178
    1XTA   HL1012947  26.823   3.286   1.384
    1XTA   HL1112948  26.689   3.281   1.277
    1XTA   HL1212949  26.837   3.285   1.069
    1XTA   HL1312950  26.850   3.142   1.172
    1XTA   HL1412951  27.066   3.256   1.281
    1XTA   HL1512952  27.068   3.246   1.103
    1XTA   HL1612953  27.225   3.436   1.242
    1XTA   HL1712954  27.218   3.399   1.077
    1XTA   HL1812955  27.119   3.759   0.977
    1XTA   HL1912956  26.983   3.664   1.040
    1XTA   HL2012957  27.032   3.595   0.806
    1XTA   HL2112958  27.057   3.461   0.902
    1XTA   HL2212959  27.196   3.555   0.833
    1XTA   HL2312960  26.427   3.102   2.361
    1XTA   HL2412961  26.340   3.243   2.315
    1XTA   HL2512962  26.572   3.250   2.512
    1XTA   HL2612963  26.476   3.392   2.460
    1XTA   HL2712964  26.278   3.265   2.536
    1XTA   HL2812965  26.394   3.197   2.648
    1XTA   HL2912966  26.475   3.443   2.715
    1XTA   HL3012967  26.357   3.494   2.610
    1XTA   HL3112968  26.177   3.365   2.754
    1XTA   HL3212969  26.295   3.312   2.857
    1XTA   HL3312970  26.335   3.551   2.909
    1XTA   HL3412971  26.208   3.599   2.801
    1XTA   HL3512972  25.996   3.508   2.840
    1XTA   HL3612973  26.013   3.632   2.951
    1XTA   HL3712974  25.904   3.263   3.133
    1XTA   HL3812975  26.046   3.275   3.031
    1XTA   HL3912976  25.777   3.247   2.925
    1XTA   HL4012977  25.913   3.140   2.919
    1XTA   HL4112978  25.916   3.296   2.824
    1XTA    CO812979  27.321   3.645   1.098
    1XTA    CO912980  27.134   3.696   1.247
    1XTA    OA612981  27.364   3.608   1.011
    1XTA   HL4212982  27.378   3.605   1.186
    1XTA   HL4312983  27.332   3.755   1.097
    1XTA   HL4412984  25.768   3.486   2.900
    1XTA   HL4512985  25.716   3.440   3.061
    1XTA   CO1012986  25.782   3.507   3.008
    1XTA   CO1112987  25.964   3.515   3.185
    1XTA    OA712988  25.761   3.643   3.030
    1XTA   HL4612989  26.065   3.478   3.212
    1XTA   HL4712990  25.958   3.623   3.180
    1XTA   HL4812991  27.234   3.727   1.330
    1XTA   HL4912992  27.073   3.636   1.316
    1XTA     NT12993  24.345   2.972   2.081
    1XTA    CN112994  24.354   3.069   1.986
    1XTA     C112995  24.353   3.204   2.026
    1XTA     C212996  24.349   3.305   1.925
    1XTA     C312997  24.368   3.273   1.789
    1XTA     C412998  24.358   3.136   1.754
    1XTA     C512999  24.344   3.036   1.850
    1XTA    CN213000  24.442   2.881   2.094
    1XTA     C613001  24.426   2.757   2.030
    1XTA     C713002  24.530   2.669   2.010
    1XTA     C813003  24.660   2.698   2.061
    1XTA     C913004  24.683   2.810   2.134
    1XTA    C1013005  24.574   2.905   2.149
    1XTA    CN313006  24.253   2.965   2.179
    1XTA    C1113007  24.129   2.899   2.154
    1XTA    C1213008  24.027   2.894   2.245
    1XTA    C1313009  24.044   2.946   2.374
    1XTA    C1413010  24.164   3.021   2.394
    1XTA    C1513011  24.273   3.026   2.307
    1XTA     H113012  24.333   3.231   2.130
    1XTA     H213013  24.342   3.406   1.959
    1XTA     H313014  24.379   3.113   1.649
    1XTA     H413015  24.350   2.932   1.818
    1XTA     H513016  24.330   2.727   1.993
    1XTA     H613017  24.512   2.581   1.943
    1XTA     H713018  24.782   2.830   2.174
    1XTA     H813019  24.597   3.003   2.199
    1XTA     H913020  24.104   2.841   2.068
    1XTA    H1013021  23.935   2.849   2.217
    1XTA    H1113022  24.184   3.071   2.488
    1XTA    H1213023  24.363   3.075   2.341
    1XTA    OA113024  24.366   3.357   1.681
    1XTA    CO113025  24.379   3.493   1.718
    1XTA    OA213026  24.765   2.612   2.049
    1XTA    CO213027  24.760   2.522   1.936
    1XTA    CL113028  24.883   2.432   1.935
    1XTA    CL213029  24.879   2.329   1.818
    1XTA    CL313030  24.992   2.233   1.795
    1XTA    CL413031  24.980   2.120   1.902
    1XTA    CO313032  25.110   2.051   1.944
    1XTA    OA313033  25.206   2.139   2.003
    1XTA    CO413034  25.154   2.204   2.112
    1XTA    CT113035  25.265   2.248   2.206
    1XTA    CL513036  25.309   2.125   2.291
    1XTA    CL613037  25.364   2.008   2.209
    1XTA    OA413038  23.957   2.916   2.483
    1XTA    CO513039  23.974   2.987   2.603
    1XTA    CL713040  23.848   2.981   2.679
    1XTA    CL813041  23.830   2.845   2.751
    1XTA    CL913042  23.705   2.830   2.841
    1XTA   CL1013043  23.705   2.695   2.914
    1XTA    CO613044  23.692   2.568   2.826
    1XTA    OA513045  23.723   2.453   2.905
    1XTA    CO713046  23.870   2.425   2.894
    1XTA    CT213047  23.922   2.339   3.014
    1XTA   CL1113048  23.844   2.210   3.013
    1XTA   CL1213049  23.819   2.146   2.871
    1XTA    HL113050  24.313   3.526   1.792
    1XTA    HL213051  24.475   3.527   1.755
    1XTA    HL313052  24.354   3.556   1.630
    1XTA    HL413053  24.676   2.450   1.951
    1XTA    HL513054  24.751   2.571   1.842
    1XTA    HL613055  24.896   2.381   2.036
    1XTA    HL713056  24.976   2.486   1.915
    1XTA    HL813057  24.873   2.380   1.723
    1XTA    HL913058  24.783   2.280   1.821
    1XTA   HL1013059  25.006   2.186   1.699
    1XTA   HL1113060  25.079   2.294   1.805
    1XTA   HL1213061  24.912   2.040   1.890
    1XTA   HL1313062  24.949   2.157   1.993
    1XTA   HL1413063  25.091   1.966   2.015
    1XTA   HL1513064  25.151   2.001   1.861
    1XTA   HL1613065  25.095   2.287   2.079
    1XTA   HL1713066  25.081   2.140   2.176
    1XTA   HL1813067  25.219   2.072   2.332
    1XTA   HL1913068  25.386   2.143   2.363
    1XTA   HL2013069  25.296   1.979   2.135
    1XTA   HL2113070  25.395   1.914   2.259
    1XTA   HL2213071  25.461   2.032   2.164
    1XTA   HL2313072  23.991   3.092   2.587
    1XTA   HL2413073  24.064   2.962   2.657
    1XTA   HL2513074  23.833   3.066   2.740
    1XTA   HL2613075  23.772   2.996   2.600
    1XTA   HL2713076  23.827   2.772   2.668
    1XTA   HL2813077  23.921   2.815   2.800
    1XTA   HL2913078  23.709   2.915   2.908
    1XTA   HL3013079  23.618   2.839   2.781
    1XTA   HL3113080  23.799   2.688   2.971
    1XTA   HL3213081  23.624   2.699   2.991
    1XTA   HL3313082  23.605   2.561   2.762
    1XTA   HL3413083  23.756   2.572   2.741
    1XTA   HL3513084  23.926   2.513   2.886
    1XTA   HL3613085  23.885   2.368   2.801
    1XTA   HL3713086  23.748   2.222   3.061
    1XTA   HL3813087  23.914   2.149   3.079
    1XTA   HL3913088  23.759   2.216   2.815
    1XTA   HL4013089  23.772   2.050   2.893
    1XTA   HL4113090  23.910   2.132   2.818
    1XTA    CO813091  25.206   2.358   2.299
    1XTA    CO913092  25.379   2.319   2.122
    1XTA    OA613093  25.123   2.323   2.354
    1XTA   HL4213094  25.167   2.432   2.228
    1XTA   HL4313095  25.292   2.394   2.360
    1XTA   HL4413096  23.960   2.503   3.145
    1XTA   HL4513097  23.786   2.441   3.144
    1XTA   CO1013098  23.893   2.408   3.146
    1XTA   CO1113099  24.067   2.308   2.996
    1XTA    OA713100  23.898   2.354   3.242
    1XTA   HL4613101  24.144   2.414   3.044
    1XTA   HL4713102  24.088   2.223   3.063
    1XTA   HL4813103  25.402   2.254   2.002
    1XTA   HL4913104  25.467   2.307   2.191
    1XTA     NT13105  28.447   3.015   2.930
    1XTA    CN113106  28.477   3.147   2.934
    1XTA     C113107  28.593   3.190   2.860
    1XTA     C213108  28.629   3.320   2.880
    1XTA     C313109  28.557   3.411   2.957
    1XTA     C413110  28.444   3.360   3.033
    1XTA     C513111  28.403   3.225   3.024
    1XTA    CN213112  28.318   2.981   2.890
    1XTA     C613113  28.283   3.021   2.765
    1XTA     C713114  28.151   3.000   2.718
    1XTA     C813115  28.064   2.925   2.803
    1XTA     C913116  28.099   2.886   2.932
    1XTA    C1013117  28.231   2.914   2.968
    1XTA    CN313118  28.529   2.926   2.989
    1XTA    C1113119  28.538   2.929   3.130
    1XTA    C1213120  28.606   2.830   3.194
    1XTA    C1313121  28.678   2.732   3.127
    1XTA    C1413122  28.667   2.721   2.985
    1XTA    C1513123  28.592   2.825   2.914
    1XTA     H113124  28.646   3.126   2.785
    1XTA     H213125  28.720   3.357   2.841
    1XTA     H313126  28.395   3.424   3.105
    1XTA     H413127  28.320   3.190   3.084
    1XTA     H513128  28.366   3.071   2.708
    1XTA     H613129  28.123   3.015   2.613
    1XTA     H713130  28.038   2.824   2.997
    1XTA     H813131  28.255   2.881   3.065
    1XTA     H913132  28.488   3.014   3.179
    1XTA    H1013133  28.615   2.818   3.300
    1XTA    H1113134  28.701   2.640   2.929
    1XTA    H1213135  28.581   2.825   2.810
    1XTA    OA113136  28.602   3.536   2.982
    1XTA    CO113137  28.525   3.622   3.065
    1XTA    OA213138  27.932   2.900   2.765
    1XTA    CO213139  27.895   2.932   2.633
    1XTA    CL113140  27.870   3.083   2.613
    1XTA    CL213141  27.822   3.123   2.471
    1XTA    CL313142  27.848   3.271   2.439
    1XTA    CL413143  27.799   3.305   2.296
    1XTA    CO313144  27.786   3.457   2.293
    1XTA    OA313145  27.689   3.494   2.390
    1XTA    CO413146  27.721   3.622   2.451
    1XTA    CT113147  27.612   3.660   2.560
    1XTA    CL513148  27.616   3.806   2.598
    1XTA    CL613149  27.522   3.853   2.706
    1XTA    OA413150  28.750   2.647   3.205
    1XTA    CO513151  28.827   2.547   3.146
    1XTA    CL713152  28.835   2.408   3.209
    1XTA    CL813153  28.706   2.320   3.192
    1XTA    CL913154  28.573   2.380   3.238
    1XTA   CL1013155  28.491   2.438   3.121
    1XTA    CO613156  28.371   2.525   3.163
    1XTA    OA513157  28.264   2.443   3.204
    1XTA    CO713158  28.169   2.514   3.285
    1XTA    CT213159  28.049   2.425   3.302
    1XTA   CL1113160  28.007   2.374   3.160
    1XTA   CL1213161  27.936   2.484   3.079
    1XTA    HL113162  28.426   3.647   3.048
    1XTA    HL213163  28.536   3.590   3.166
    1XTA    HL313164  28.570   3.722   3.053
    1XTA    HL413165  27.966   2.906   2.553
    1XTA    HL513166  27.804   2.875   2.621
    1XTA    HL613167  27.948   3.154   2.642
    1XTA    HL713168  27.793   3.106   2.684
    1XTA    HL813169  27.719   3.113   2.461
    1XTA    HL913170  27.868   3.065   2.392
    1XTA   HL1013171  27.798   3.330   2.522
    1XTA   HL1113172  27.958   3.291   2.457
    1XTA   HL1213173  27.701   3.264   2.267
    1XTA   HL1313174  27.858   3.275   2.219
    1XTA   HL1413175  27.881   3.512   2.296
    1XTA   HL1513176  27.736   3.484   2.195
    1XTA   HL1613177  27.824   3.628   2.494
    1XTA   HL1713178  27.726   3.692   2.367
    1XTA   HL1813179  27.607   3.866   2.513
    1XTA   HL1913180  27.720   3.837   2.621
    1XTA   HL2013181  27.530   3.958   2.707
    1XTA   HL2113182  27.543   3.819   2.810
    1XTA   HL2213183  27.412   3.840   2.681
    1XTA   HL2313184  28.928   2.595   3.151
    1XTA   HL2413185  28.816   2.551   3.040
    1XTA   HL2513186  28.922   2.366   3.158
    1XTA   HL2613187  28.860   2.418   3.315
    1XTA   HL2713188  28.706   2.267   3.092
    1XTA   HL2813189  28.720   2.237   3.264
    1XTA   HL2913190  28.514   2.304   3.280
    1XTA   HL3013191  28.591   2.457   3.317
    1XTA   HL3113192  28.560   2.496   3.063
    1XTA   HL3213193  28.462   2.366   3.048
    1XTA   HL3313194  28.417   2.589   3.239
    1XTA   HL3413195  28.333   2.596   3.083
    1XTA   HL3513196  28.145   2.607   3.234
    1XTA   HL3613197  28.223   2.540   3.381
    1XTA   HL3713198  27.941   2.293   3.174
    1XTA   HL3813199  28.095   2.345   3.099
    1XTA   HL3913200  27.917   2.455   2.976
    1XTA   HL4013201  27.995   2.576   3.082
    1XTA   HL4113202  27.839   2.489   3.131
    1XTA    CO813203  27.640   3.575   2.683
    1XTA    CO913204  27.469   3.626   2.512
    1XTA    OA613205  27.443   3.689   2.419
    1XTA   HL4213206  27.546   3.571   2.738
    1XTA   HL4313207  27.665   3.440   2.661
    1XTA   HL4413208  27.945   2.504   3.525
    1XTA   HL4513209  27.855   2.448   3.372
    1XTA   CO1013210  27.945   2.507   3.387
    1XTA   CO1113211  28.093   2.307   3.391
    1XTA    OA713212  28.009   2.242   3.404
    1XTA   HL4613213  28.176   2.251   3.351
    1XTA   HL4713214  28.128   2.347   3.490
    1XTA   HL4813215  27.398   3.636   2.582
    1XTA   HL4913216  27.472   3.520   2.488
    1XTA     NT13217  28.549   6.333   5.093
    1XTA    CN113218  28.497   6.296   5.213
    1XTA     C113219  28.361   6.280   5.233
    1XTA     C213220  28.315   6.225   5.356
    1XTA     C313221  28.407   6.198   5.464
    1XTA     C413222  28.547   6.218   5.439
    1XTA     C513223  28.586   6.270   5.316
    1XTA    CN213224  28.596   6.462   5.083
    1XTA     C613225  28.735   6.482   5.068
    1XTA     C713226  28.791   6.613   5.037
    1XTA     C813227  28.701   6.724   5.042
    1XTA     C913228  28.562   6.701   5.065
    1XTA    C1013229  28.511   6.571   5.087
    1XTA    CN313230  28.560   6.242   4.990
    1XTA    C1113231  28.464   6.234   4.889
    1XTA    C1213232  28.495   6.151   4.778
    1XTA    C1313233  28.610   6.066   4.777
    1XTA    C1413234  28.695   6.065   4.894
    1XTA    C1513235  28.670   6.155   4.995
    1XTA     H113236  28.299   6.289   5.147
    1XTA     H213237  28.210   6.196   5.366
    1XTA     H313238  28.618   6.213   5.514
    1XTA     H413239  28.687   6.297   5.313
    1XTA     H513240  28.802   6.395   5.056
    1XTA     H613241  28.894   6.626   5.019
    1XTA     H713242  28.495   6.786   5.076
    1XTA     H813243  28.412   6.571   5.102
    1XTA     H913244  28.386   6.303   4.894
    1XTA    H1013245  28.446   6.156   4.686
    1XTA    H1113246  28.780   5.999   4.890
    1XTA    H1213247  28.747   6.164   5.071
    1XTA    OA113248  28.367   6.152   5.581
    1XTA    CO113249  28.240   6.205   5.626
    1XTA    OA213250  28.740   6.847   5.021
    1XTA    CO213251  28.878   6.880   5.018
    1XTA    CL113252  28.884   7.037   4.994
    1XTA    CL213253  28.851   7.077   4.846
    1XTA    CL313254  28.699   7.061   4.803
    1XTA    CL413255  28.665   7.131   4.666
    1XTA    CO313256  28.521   7.110   4.622
    1XTA    OA313257  28.421   7.156   4.713
    1XTA    CO413258  28.414   7.298   4.731
    1XTA    CT113259  28.272   7.348   4.750
    1XTA    CL513260  28.260   7.499   4.765
    1XTA    CL613261  28.324   7.555   4.894
    1XTA    OA413262  28.638   5.986   4.671
    1XTA    CO513263  28.666   5.850   4.703
    1XTA    CL713264  28.621   5.765   4.574
    1XTA    CL813265  28.476   5.739   4.559
    1XTA    CL913266  28.436   5.644   4.448
    1XTA   CL1013267  28.304   5.689   4.393
    1XTA    CO613268  28.236   5.577   4.317
    1XTA    OA513269  28.300   5.570   4.191
    1XTA    CO713270  28.235   5.477   4.107
    1XTA    CT213271  28.316   5.484   3.971
    1XTA   CL1113272  28.234   5.447   3.849
    1XTA   CL1213273  28.150   5.325   3.864
    1XTA    HL113274  28.211   6.205   5.732
    1XTA    HL213275  28.228   6.310   5.598
    1XTA    HL313276  28.157   6.156   5.576
    1XTA    HL413277  28.926   6.861   5.112
    1XTA    HL513278  28.938   6.833   4.939
    1XTA    HL613279  28.986   7.073   5.017
    1XTA    HL713280  28.813   7.090   5.059
    1XTA    HL813281  28.900   7.010   4.785
    1XTA    HL913282  28.885   7.184   4.838
    1XTA   HL1013283  28.679   6.959   4.785
    1XTA   HL1113284  28.632   7.088   4.883
    1XTA   HL1213285  28.734   7.100   4.586
    1XTA   HL1313286  28.681   7.233   4.672
    1XTA   HL1413287  28.507   7.161   4.531
    1XTA   HL1513288  28.500   7.009   4.596
    1XTA   HL1613289  28.473   7.315   4.821
    1XTA   HL1713290  28.471   7.351   4.649
    1XTA   HL1813291  28.149   7.523   4.756
    1XTA   HL1913292  28.298   7.557   4.675
    1XTA   HL2013293  28.298   7.510   4.989
    1XTA   HL2113294  28.315   7.669   4.903
    1XTA   HL2213295  28.429   7.523   4.889
    1XTA   HL2313296  28.610   5.825   4.793
    1XTA   HL2413297  28.773   5.832   4.715
    1XTA   HL2513298  28.643   5.833   4.496
    1XTA   HL2613299  28.694   5.679   4.571
    1XTA   HL2713300  28.434   5.704   4.657
    1XTA   HL2813301  28.422   5.833   4.538
    1XTA   HL2913302  28.506   5.656   4.361
    1XTA   HL3013303  28.435   5.533   4.473
    1XTA   HL3113304  28.236   5.716   4.472
    1XTA   HL3213305  28.310   5.779   4.333
    1XTA   HL3313306  28.227   5.494   4.382
    1XTA   HL3413307  28.135   5.602   4.294
    1XTA   HL3513308  28.128   5.500   4.090
    1XTA   HL3613309  28.237   5.378   4.153
    1XTA   HL3713310  28.302   5.434   3.769
    1XTA   HL3813311  28.170   5.530   3.817
    1XTA   HL3913312  28.081   5.334   3.943
    1XTA   HL4013313  28.218   5.243   3.880
    1XTA   HL4113314  28.093   5.303   3.776
    1XTA    CO813315  28.202   7.280   4.880
    1XTA    CO913316  28.189   7.313   4.623
    1XTA    OA613317  28.262   7.268   4.974
    1XTA   HL4213318  28.174   7.183   4.844
    1XTA   HL4313319  28.114   7.343   4.900
    1XTA   HL4413320  28.394   5.288   4.013
    1XTA   HL4513321  28.470   5.369   3.880
    1XTA   CO1013322  28.430   5.385   3.981
    1XTA   CO1113323  28.366   5.629   3.946
    1XTA    OA713324  28.544   5.416   4.074
    1XTA   HL4613325  28.423   5.624   3.858
    1XTA   HL4713326  28.426   5.672   4.027
    1XTA   HL4813327  28.273   7.354   4.511
    1XTA   HL4913328  28.177   7.201   4.629
    1XTA     NT13329  25.607   1.894   6.561
    1XTA    CN113330  25.551   1.824   6.463
    1XTA     C113331  25.415   1.793   6.471
    1XTA     C213332  25.350   1.724   6.371
    1XTA     C313333  25.422   1.697   6.251
    1XTA     C413334  25.564   1.716   6.245
    1XTA     C513335  25.627   1.778   6.353
    1XTA    CN213336  25.633   1.828   6.680
    1XTA     C613337  25.572   1.871   6.796
    1XTA     C713338  25.620   1.828   6.921
    1XTA     C813339  25.731   1.746   6.931
    1XTA     C913340  25.783   1.690   6.812
    1XTA    C1013341  25.749   1.743   6.689
    1XTA    CN313342  25.622   2.025   6.550
    1XTA    C1113343  25.749   2.082   6.534
    1XTA    C1213344  25.758   2.224   6.536
    1XTA    C1313345  25.650   2.305   6.563
    1XTA    C1413346  25.520   2.253   6.576
    1XTA    C1513347  25.509   2.112   6.566
    1XTA     H113348  25.352   1.818   6.554
    1XTA     H213349  25.242   1.713   6.362
    1XTA     H313350  25.617   1.697   6.160
    1XTA     H413351  25.733   1.802   6.362
    1XTA     H513352  25.500   1.953   6.792
    1XTA     H613353  25.572   1.868   7.012
    1XTA     H713354  25.860   1.620   6.834
    1XTA     H813355  25.800   1.707   6.602
    1XTA     H913356  25.836   2.027   6.513
    1XTA    H1013357  25.859   2.275   6.534
    1XTA    H1113358  25.435   2.311   6.605
    1XTA    H1213359  25.414   2.065   6.566
    1XTA    OA113360  25.365   1.639   6.138
    1XTA    CO113361  25.380   1.725   6.021
    1XTA    OA213362  25.780   1.697   7.048
    1XTA    CO213363  25.730   1.764   7.168
    1XTA    CL113364  25.799   1.698   7.284
    1XTA    CL213365  25.816   1.783   7.412
    1XTA    CL313366  25.684   1.817   7.479
    1XTA    CL413367  25.693   1.952   7.549
    1XTA    CO313368  25.636   2.061   7.467
    1XTA    OA313369  25.513   2.020   7.406
    1XTA    CO413370  25.470   2.106   7.299
    1XTA    CT113371  25.324   2.086   7.256
    1XTA    CL513372  25.302   1.953   7.178
    1XTA    CL613373  25.332   1.821   7.255
    1XTA    OA413374  25.663   2.447   6.561
    1XTA    CO513375  25.789   2.505   6.516
    1XTA    CL713376  25.754   2.653   6.490
    1XTA    CL813377  25.880   2.723   6.437
    1XTA    CL913378  25.855   2.843   6.350
    1XTA   CL1013379  25.973   2.936   6.317
    1XTA    CO613380  25.928   3.062   6.243
    1XTA    OA513381  26.050   3.118   6.206
    1XTA    CO713382  26.027   3.231   6.131
    1XTA    CT213383  26.148   3.322   6.120
    1XTA   CL1113384  26.092   3.454   6.047
    1XTA   CL1213385  26.044   3.444   5.909
    1XTA    HL113386  25.484   1.719   5.984
    1XTA    HL213387  25.305   1.711   5.948
    1XTA    HL313388  25.371   1.834   6.044
    1XTA    HL413389  25.742   1.872   7.167
    1XTA    HL513390  25.621   1.735   7.173
    1XTA    HL613391  25.897   1.663   7.270
    1XTA    HL713392  25.744   1.613   7.309
    1XTA    HL813393  25.861   1.878   7.388
    1XTA    HL913394  25.884   1.734   7.490
    1XTA   HL1013395  25.597   1.801   7.418
    1XTA   HL1113396  25.673   1.747   7.569
    1XTA   HL1213397  25.786   1.978   7.590
    1XTA   HL1313398  25.635   1.925   7.638
    1XTA   HL1413399  25.610   2.152   7.516
    1XTA   HL1513400  25.715   2.097   7.398
    1XTA   HL1613401  25.491   2.212   7.333
    1XTA   HL1713402  25.530   2.077   7.213
    1XTA   HL1813403  25.373   1.955   7.097
    1XTA   HL1913404  25.197   1.934   7.142
    1XTA   HL2013405  25.420   1.825   7.321
    1XTA   HL2113406  25.337   1.729   7.192
    1XTA   HL2213407  25.258   1.807   7.336
    1XTA   HL2313408  25.822   2.459   6.416
    1XTA   HL2413409  25.859   2.491   6.601
    1XTA   HL2513410  25.674   2.655   6.419
    1XTA   HL2613411  25.705   2.703   6.573
    1XTA   HL2713412  25.941   2.754   6.520
    1XTA   HL2813413  25.935   2.653   6.373
    1XTA   HL2913414  25.792   2.813   6.274
    1XTA   HL3013415  25.798   2.906   6.415
    1XTA   HL3113416  26.027   2.965   6.411
    1XTA   HL3213417  26.036   2.871   6.254
    1XTA   HL3313418  25.862   3.039   6.159
    1XTA   HL3413419  25.887   3.136   6.317
    1XTA   HL3513420  25.936   3.290   6.156
    1XTA   HL3613421  26.009   3.189   6.034
    1XTA   HL3713422  26.170   3.528   6.052
    1XTA   HL3813423  25.997   3.495   6.091
    1XTA   HL3913424  26.118   3.387   5.854
    1XTA   HL4013425  26.041   3.544   5.843
    1XTA   HL4113426  25.960   3.380   5.909
    1XTA    CO813427  25.296   2.206   7.164
    1XTA    CO913428  25.229   2.097   7.367
    1XTA    OA613429  25.235   2.008   7.445
    1XTA   HL4213430  25.379   2.222   7.093
    1XTA   HL4313431  25.186   2.168   7.077
    1XTA   HL4413432  26.262   3.251   5.941
    1XTA   HL4513433  26.365   3.330   6.056
    1XTA   CO1013434  26.278   3.269   6.052
    1XTA   CO1113435  26.188   3.360   6.264
    1XTA    OA713436  26.085   3.433   6.328
    1XTA   HL4613437  26.203   3.264   6.311
    1XTA   HL4713438  26.270   3.429   6.262
    1XTA   HL4813439  25.136   2.103   7.327
    1XTA   HL4913440  25.248   2.185   7.422
    1XTA     NT13441  27.492   4.195   1.451
    1XTA    CN113442  27.517   4.064   1.433
    1XTA     C113443  27.536   4.011   1.302
    1XTA     C213444  27.559   3.871   1.284
    1XTA     C313445  27.557   3.783   1.386
    1XTA     C413446  27.528   3.833   1.516
    1XTA     C513447  27.510   3.968   1.538
    1XTA    CN213448  27.578   4.249   1.542
    1XTA     C613449  27.710   4.274   1.501
    1XTA     C713450  27.797   4.348   1.587
    1XTA     C813451  27.755   4.383   1.713
    1XTA     C913452  27.619   4.356   1.750
    1XTA    C1013453  27.535   4.281   1.673
    1XTA    CN313454  27.421   4.278   1.370
    1XTA    C1113455  27.490   4.348   1.261
    1XTA    C1213456  27.408   4.425   1.178
    1XTA    C1313457  27.267   4.438   1.201
    1XTA    C1413458  27.208   4.382   1.316
    1XTA    C1513459  27.282   4.296   1.392
    1XTA     H113460  27.533   4.080   1.215
    1XTA     H213461  27.565   3.830   1.189
    1XTA     H313462  27.520   3.766   1.603
    1XTA     H413463  27.497   4.003   1.636
    1XTA     H513464  27.751   4.254   1.403
    1XTA     H613465  27.894   4.369   1.541
    1XTA     H713466  27.573   4.394   1.844
    1XTA     H813467  27.432   4.248   1.705
    1XTA     H913468  27.600   4.334   1.248
    1XTA    H1013469  27.449   4.480   1.089
    1XTA    H1113470  27.106   4.404   1.335
    1XTA    H1213471  27.240   4.243   1.478
    1XTA    OA113472  27.568   3.647   1.367
    1XTA    CO113473  27.553   3.565   1.480
    1XTA    OA213474  27.831   4.455   1.804
    1XTA    CO213475  27.973   4.476   1.770
    1XTA    CL113476  28.039   4.539   1.892
    1XTA    CL213477  27.991   4.670   1.947
    1XTA    CL313478  28.027   4.791   1.862
    1XTA    CL413479  27.904   4.871   1.806
    1XTA    CO313480  27.826   4.793   1.694
    1XTA    OA313481  27.701   4.857   1.674
    1XTA    CO413482  27.613   4.776   1.589
    1XTA    CT113483  27.497   4.874   1.555
    1XTA    CL513484  27.398   4.814   1.457
    1XTA    CL613485  27.464   4.755   1.329
    1XTA    OA413486  27.192   4.520   1.124
    1XTA    CO513487  27.239   4.555   0.994
    1XTA    CL713488  27.143   4.624   0.904
    1XTA    CL813489  27.026   4.538   0.855
    1XTA    CL913490  26.943   4.481   0.968
    1XTA   CL1013491  26.846   4.601   1.012
    1XTA    CO613492  26.716   4.562   1.091
    1XTA    OA513493  26.727   4.566   1.234
    1XTA    CO713494  26.807   4.462   1.271
    1XTA    CT213495  26.765   4.404   1.413
    1XTA   CL1113496  26.795   4.496   1.536
    1XTA   CL1213497  26.933   4.552   1.536
    1XTA    HL113498  27.576   3.464   1.444
    1XTA    HL213499  27.634   3.584   1.553
    1XTA    HL313500  27.448   3.575   1.516
    1XTA    HL413501  28.028   4.381   1.749
    1XTA    HL513502  27.980   4.537   1.684
    1XTA    HL613503  28.154   4.553   1.876
    1XTA    HL713504  28.030   4.463   1.970
    1XTA    HL813505  28.037   4.683   2.048
    1XTA    HL913506  27.889   4.663   1.963
    1XTA   HL1013507  28.105   4.857   1.909
    1XTA   HL1113508  28.086   4.767   1.770
    1XTA   HL1213509  27.938   4.960   1.751
    1XTA   HL1313510  27.834   4.905   1.878
    1XTA   HL1413511  27.878   4.782   1.602
    1XTA   HL1513512  27.797   4.688   1.729
    1XTA   HL1613513  27.670   4.744   1.497
    1XTA   HL1713514  27.580   4.677   1.640
    1XTA   HL1813515  27.324   4.889   1.435
    1XTA   HL1913516  27.339   4.734   1.494
    1XTA   HL2013517  27.535   4.671   1.355
    1XTA   HL2113518  27.519   4.839   1.286
    1XTA   HL2213519  27.399   4.713   1.256
    1XTA   HL2313520  27.281   4.464   0.955
    1XTA   HL2413521  27.321   4.625   1.015
    1XTA   HL2513522  27.119   4.719   0.958
    1XTA   HL2613523  27.193   4.654   0.813
    1XTA   HL2713524  26.964   4.585   0.782
    1XTA   HL2813525  27.074   4.465   0.804
    1XTA   HL2913526  26.886   4.398   0.928
    1XTA   HL3013527  27.000   4.441   1.056
    1XTA   HL3113528  26.903   4.667   1.074
    1XTA   HL3213529  26.815   4.646   0.922
    1XTA   HL3313530  26.647   4.633   1.062
    1XTA   HL3413531  26.669   4.467   1.052
    1XTA   HL3513532  26.910   4.491   1.268
    1XTA   HL3613533  26.806   4.380   1.198
    1XTA   HL3713534  26.773   4.440   1.627
    1XTA   HL3813535  26.728   4.578   1.539
    1XTA   HL3913536  26.946   4.604   1.630
    1XTA   HL4013537  26.952   4.637   1.468
    1XTA   HL4113538  27.010   4.473   1.529
    1XTA    CO813539  27.551   5.011   1.496
    1XTA    CO913540  27.409   4.894   1.678
    1XTA    OA613541  27.351   4.776   1.730
    1XTA   HL4213542  27.661   4.987   1.492
    1XTA   HL4313543  27.516   5.034   1.397
    1XTA   HL4413544  26.929   4.272   1.468
    1XTA   HL4513545  26.781   4.218   1.531
    1XTA   CO1013546  26.828   4.258   1.443
    1XTA   CO1113547  26.618   4.389   1.406
    1XTA    OA713548  26.823   4.193   1.355
    1XTA   HL4613549  26.564   4.345   1.289
    1XTA   HL4713550  26.577   4.491   1.410
    1XTA   HL4813551  27.320   4.949   1.660
    1XTA   HL4913552  27.462   4.946   1.754
    1XTA     NT13553  26.555   0.051   0.133
    1XTA    CN113554  26.568   0.184   0.177
    1XTA     C113555  26.575   0.229   0.309
    1XTA     C213556  26.605   0.368   0.337
    1XTA     C313557  26.627   0.460   0.234
    1XTA     C413558  26.617   0.411   0.102
    1XTA     C513559  26.579   0.276   0.074
    1XTA    CN213560  26.669  -0.029   0.131
    1XTA     C613561  26.694  -0.135   0.221
    1XTA     C713562  26.801  -0.223   0.195
    1XTA     C813563  26.890  -0.198   0.090
    1XTA     C913564  26.868  -0.090   0.005
    1XTA    C1013565  26.757  -0.003   0.023
    1XTA    CN313566  26.441  -0.014   0.119
    1XTA    C1113567  26.336   0.006   0.219
    1XTA    C1213568  26.209  -0.048   0.199
    1XTA    C1313569  26.186  -0.132   0.090
    1XTA    C1413570  26.289  -0.158  -0.001
    1XTA    C1513571  26.416  -0.097   0.014
    1XTA     H113572  26.561   0.159   0.391
    1XTA     H213573  26.603   0.417   0.435
    1XTA     H313574  26.621   0.486   0.022
    1XTA     H413575  26.570   0.246  -0.032
    1XTA     H513576  26.618  -0.165   0.294
    1XTA     H613577  26.808  -0.310   0.259
    1XTA     H713578  26.933  -0.077  -0.082
    1XTA     H813579  26.745   0.080  -0.046
    1XTA     H913580  26.361   0.065   0.312
    1XTA    H1013581  26.141  -0.032   0.278
    1XTA    H1113582  26.276  -0.223  -0.090
    1XTA    H1213583  26.495  -0.116  -0.065
    1XTA    OA113584  26.662   0.594   0.263
    1XTA    CO113585  26.739   0.668   0.169
    1XTA    OA213586  26.989  -0.286   0.051
    1XTA    CO213587  27.041  -0.369   0.154
    1XTA    CL113588  27.178  -0.439   0.112
    1XTA    CL213589  27.173  -0.484  -0.029
    1XTA    CL313590  27.048  -0.550  -0.079
    1XTA    CL413591  27.057  -0.586  -0.224
    1XTA    CO313592  26.927  -0.644  -0.271
    1XTA    OA313593  26.908  -0.770  -0.208
    1XTA    CO413594  26.808  -0.848  -0.268
    1XTA    CT113595  26.747  -0.947  -0.165
    1XTA    CL513596  26.626  -1.032  -0.234
    1XTA    CL613597  26.677  -1.125  -0.352
    1XTA    OA413598  26.062  -0.176   0.049
    1XTA    CO513599  25.956  -0.169   0.141
    1XTA    CL713600  25.948  -0.266   0.267
    1XTA    CL813601  25.996  -0.413   0.233
    1XTA    CL913602  26.149  -0.418   0.207
    1XTA   CL1013603  26.198  -0.561   0.236
    1XTA    CO613604  26.355  -0.566   0.218
    1XTA    OA513605  26.413  -0.696   0.242
    1XTA    CO713606  26.359  -0.803   0.159
    1XTA    CT213607  26.426  -0.937   0.185
    1XTA   CL1113608  26.430  -0.951   0.337
    1XTA   CL1213609  26.511  -1.067   0.396
    1XTA    HL113610  26.736   0.653   0.063
    1XTA    HL213611  26.711   0.773   0.174
    1XTA    HL313612  26.842   0.655   0.200
    1XTA    HL413613  27.064  -0.317   0.246
    1XTA    HL513614  26.977  -0.448   0.188
    1XTA    HL613615  27.202  -0.515   0.190
    1XTA    HL713616  27.264  -0.373   0.114
    1XTA    HL813617  27.267  -0.542  -0.045
    1XTA    HL913618  27.173  -0.394  -0.097
    1XTA   HL1013619  27.041  -0.644  -0.015
    1XTA   HL1113620  26.957  -0.491  -0.073
    1XTA   HL1213621  27.142  -0.654  -0.239
    1XTA   HL1313622  27.088  -0.496  -0.276
    1XTA   HL1413623  26.845  -0.583  -0.244
    1XTA   HL1513624  26.932  -0.652  -0.376
    1XTA   HL1613625  26.724  -0.791  -0.308
    1XTA   HL1713626  26.863  -0.896  -0.345
    1XTA   HL1813627  26.553  -0.967  -0.279
    1XTA   HL1913628  26.563  -1.096  -0.159
    1XTA   HL2013629  26.599  -1.180  -0.395
    1XTA   HL2113630  26.752  -1.196  -0.329
    1XTA   HL2213631  26.725  -1.065  -0.429
    1XTA   HL2313632  25.868  -0.188   0.081
    1XTA   HL2413633  25.959  -0.065   0.185
    1XTA   HL2513634  26.007  -0.244   0.356
    1XTA   HL2613635  25.841  -0.269   0.289
    1XTA   HL2713636  25.966  -0.479   0.317
    1XTA   HL2813637  25.947  -0.451   0.147
    1XTA   HL2913638  26.164  -0.393   0.100
    1XTA   HL3013639  26.199  -0.345   0.269
    1XTA   HL3113640  26.170  -0.593   0.336
    1XTA   HL3213641  26.151  -0.629   0.174
    1XTA   HL3313642  26.390  -0.533   0.120
    1XTA   HL3413643  26.394  -0.493   0.293
    1XTA   HL3513644  26.356  -0.768   0.054
    1XTA   HL3613645  26.255  -0.817   0.183
    1XTA   HL3713646  26.332  -0.965   0.374
    1XTA   HL3813647  26.473  -0.863   0.388
    1XTA   HL3913648  26.467  -1.163   0.367
    1XTA   HL4013649  26.528  -1.068   0.501
    1XTA   HL4113650  26.612  -1.059   0.361
    1XTA    CO813651  26.685  -0.870  -0.045
    1XTA    CO913652  26.854  -1.032  -0.095
    1XTA    OA613653  26.930  -1.078  -0.164
    1XTA   HL4213654  26.763  -0.844   0.025
    1XTA   HL4313655  26.649  -0.745  -0.086
    1XTA   HL4413656  26.603  -0.835   0.177
    1XTA   HL4513657  26.638  -1.004   0.166
    1XTA   CO1013658  26.571  -0.922   0.131
    1XTA   CO1113659  26.356  -1.056   0.126
    1XTA    OA713660  26.569  -0.917   0.023
    1XTA   HL4613661  26.456  -1.150   0.106
    1XTA   HL4713662  26.315  -1.031   0.033
    1XTA   HL4813663  26.812  -1.111  -0.036
    1XTA   HL4913664  26.915  -0.970  -0.028
    1XTA     NT13665  25.660   5.940   6.001
    1XTA    CN113666  25.677   5.948   6.133
    1XTA     C113667  25.717   6.070   6.197
    1XTA     C213668  25.737   6.075   6.337
    1XTA     C313669  25.705   5.970   6.424
    1XTA     C413670  25.670   5.850   6.363
    1XTA     C513671  25.649   5.837   6.222
    1XTA    CN213672  25.576   6.032   5.941
    1XTA     C613673  25.435   6.034   5.973
    1XTA     C713674  25.349   6.114   5.900
    1XTA     C813675  25.400   6.195   5.791
    1XTA     C913676  25.537   6.198   5.770
    1XTA    C1013677  25.626   6.120   5.845
    1XTA    CN313678  25.761   5.895   5.926
    1XTA    C1113679  25.730   5.812   5.815
    1XTA    C1213680  25.828   5.772   5.723
    1XTA    C1313681  25.954   5.833   5.727
    1XTA    C1413682  25.993   5.915   5.836
    1XTA    C1513683  25.899   5.947   5.935
    1XTA     H113684  25.732   6.161   6.135
    1XTA     H213685  25.791   6.158   6.374
    1XTA     H313686  25.659   5.756   6.419
    1XTA     H413687  25.621   5.741   6.184
    1XTA     H513688  25.390   5.963   6.051
    1XTA     H613689  25.246   6.106   5.926
    1XTA     H713690  25.584   6.256   5.689
    1XTA     H813691  25.731   6.119   5.836
    1XTA     H913692  25.623   5.796   5.795
    1XTA    H1013693  25.799   5.717   5.635
    1XTA    H1113694  26.088   5.961   5.835
    1XTA    H1213695  25.930   6.015   6.014
    1XTA    OA113696  25.731   5.970   6.560
    1XTA    CO113697  25.730   6.092   6.630
    1XTA    OA213698  25.308   6.265   5.713
    1XTA    CO213699  25.359   6.318   5.592
    1XTA    CL113700  25.237   6.362   5.512
    1XTA    CL213701  25.180   6.247   5.444
    1XTA    CL313702  25.070   6.282   5.343
    1XTA    CL413703  25.038   6.170   5.235
    1XTA    CO313704  24.901   6.166   5.176
    1XTA    OA313705  24.891   6.256   5.067
    1XTA    CO413706  24.856   6.388   5.090
    1XTA    CT113707  24.712   6.425   5.083
    1XTA    CL513708  24.656   6.388   4.944
    1XTA    CL613709  24.514   6.433   4.928
    1XTA    OA413710  26.036   5.815   5.620
    1XTA    CO513711  26.155   5.895   5.605
    1XTA    CL713712  26.232   5.867   5.482
    1XTA    CL813713  26.364   5.949   5.469
    1XTA    CL913714  26.482   5.864   5.490
    1XTA   CL1013715  26.499   5.803   5.627
    1XTA    CO613716  26.606   5.699   5.631
    1XTA    OA513717  26.594   5.586   5.544
    1XTA    CO713718  26.494   5.491   5.583
    1XTA    CT213719  26.515   5.352   5.518
    1XTA   CL1113720  26.547   5.364   5.360
    1XTA   CL1213721  26.440   5.431   5.274
    1XTA    HL113722  25.632   6.136   6.624
    1XTA    HL213723  25.766   6.087   6.731
    1XTA    HL313724  25.788   6.165   6.580
    1XTA    HL413725  25.420   6.406   5.608
    1XTA    HL513726  25.418   6.245   5.549
    1XTA    HL613727  25.261   6.440   5.436
    1XTA    HL713728  25.181   6.414   5.588
    1XTA    HL813729  25.143   6.174   5.513
    1XTA    HL913730  25.260   6.190   5.384
    1XTA   HL1013731  24.980   6.332   5.375
    1XTA   HL1113732  25.108   6.363   5.281
    1XTA   HL1213733  25.043   6.073   5.275
    1XTA   HL1313734  25.100   6.165   5.150
    1XTA   HL1413735  24.898   6.064   5.131
    1XTA   HL1513736  24.827   6.180   5.256
    1XTA   HL1613737  24.901   6.418   5.179
    1XTA   HL1713738  24.917   6.450   5.021
    1XTA   HL1813739  24.658   6.278   4.930
    1XTA   HL1913740  24.727   6.424   4.874
    1XTA   HL2013741  24.444   6.401   5.008
    1XTA   HL2113742  24.471   6.399   4.834
    1XTA   HL2213743  24.497   6.545   4.921
    1XTA   HL2313744  26.208   5.877   5.698
    1XTA   HL2413745  26.132   6.001   5.597
    1XTA   HL2513746  26.264   5.760   5.480
    1XTA   HL2613747  26.180   5.865   5.391
    1XTA   HL2713748  26.372   5.953   5.360
    1XTA   HL2813749  26.354   6.056   5.496
    1XTA   HL2913750  26.491   5.794   5.414
    1XTA   HL3013751  26.581   5.915   5.480
    1XTA   HL3113752  26.538   5.888   5.690
    1XTA   HL3213753  26.408   5.756   5.668
    1XTA   HL3313754  26.697   5.750   5.596
    1XTA   HL3413755  26.619   5.675   5.735
    1XTA   HL3513756  26.395   5.523   5.571
    1XTA   HL3613757  26.493   5.466   5.687
    1XTA   HL3713758  26.531   5.265   5.328
    1XTA   HL3813759  26.643   5.412   5.338
    1XTA   HL3913760  26.459   5.405   5.171
    1XTA   HL4013761  26.433   5.533   5.290
    1XTA   HL4113762  26.350   5.376   5.289
    1XTA    CO813763  24.707   6.578   5.118
    1XTA    CO913764  24.637   6.341   5.196
    1XTA    OA613765  24.663   6.373   5.331
    1XTA   HL4213766  24.712   6.638   5.027
    1XTA   HL4313767  24.601   6.585   5.135
    1XTA   HL4413768  26.351   5.262   5.641
    1XTA   HL4513769  26.295   5.319   5.480
    1XTA   CO1013770  26.380   5.272   5.532
    1XTA   CO1113771  26.620   5.274   5.587
    1XTA    OA713772  26.395   5.145   5.468
    1XTA   HL4613773  26.603   5.261   5.693
    1XTA   HL4713774  26.641   5.177   5.545
    1XTA   HL4813775  24.652   6.239   5.174
    1XTA   HL4913776  24.533   6.362   5.179
    1XTA     NT13777  26.199   4.219   5.173
    1XTA    CN113778  26.075   4.173   5.182
    1XTA     C113779  25.961   4.249   5.147
    1XTA     C213780  25.828   4.201   5.159
    1XTA     C313781  25.802   4.072   5.207
    1XTA     C413782  25.916   3.993   5.240
    1XTA     C513783  26.046   4.044   5.235
    1XTA    CN213784  26.268   4.194   5.062
    1XTA     C613785  26.403   4.139   5.067
    1XTA     C713786  26.477   4.112   4.954
    1XTA     C813787  26.413   4.144   4.832
    1XTA     C913788  26.288   4.204   4.830
    1XTA    C1013789  26.209   4.226   4.940
    1XTA    CN313790  26.254   4.292   5.277
    1XTA    C1113791  26.320   4.416   5.256
    1XTA    C1213792  26.390   4.482   5.359
    1XTA    C1313793  26.386   4.423   5.489
    1XTA    C1413794  26.314   4.311   5.508
    1XTA    C1513795  26.247   4.243   5.411
    1XTA     H113796  25.973   4.353   5.112
    1XTA     H213797  25.749   4.264   5.126
    1XTA     H313798  25.901   3.893   5.272
    1XTA     H413799  26.127   3.983   5.279
    1XTA     H513800  26.447   4.114   5.157
    1XTA     H613801  26.581   4.085   4.949
    1XTA     H713802  26.253   4.221   4.729
    1XTA     H813803  26.119   4.280   4.929
    1XTA     H913804  26.340   4.463   5.157
    1XTA    H1013805  26.445   4.566   5.329
    1XTA    H1113806  26.308   4.275   5.610
    1XTA    H1213807  26.193   4.158   5.442
    1XTA    OA113808  25.677   4.020   5.220
    1XTA    CO113809  25.567   4.118   5.230
    1XTA    OA213810  26.484   4.120   4.713
    1XTA    CO213811  26.452   3.998   4.650
    1XTA    CL113812  26.506   4.011   4.505
    1XTA    CL213813  26.475   3.886   4.420
    1XTA    CL313814  26.602   3.793   4.403
    1XTA    CL413815  26.656   3.743   4.536
    1XTA    CO313816  26.773   3.652   4.505
    1XTA    OA313817  26.791   3.554   4.603
    1XTA    CO413818  26.691   3.446   4.590
    1XTA    CT113819  26.738   3.325   4.668
    1XTA    CL513820  26.828   3.238   4.569
    1XTA    CL613821  26.937   3.309   4.491
    1XTA    OA413822  26.433   4.488   5.595
    1XTA    CO513823  26.554   4.562   5.590
    1XTA    CL713824  26.663   4.476   5.525
    1XTA    CL813825  26.805   4.535   5.539
    1XTA    CL913826  26.923   4.469   5.478
    1XTA   CL1013827  27.055   4.511   5.530
    1XTA    CO613828  27.169   4.416   5.527
    1XTA    OA513829  27.163   4.321   5.636
    1XTA    CO713830  27.202   4.378   5.757
    1XTA    CT213831  27.232   4.267   5.861
    1XTA   CL1113832  27.255   4.326   6.005
    1XTA   CL1213833  27.350   4.446   6.023
    1XTA    HL113834  25.478   4.083   5.277
    1XTA    HL213835  25.599   4.195   5.308
    1XTA    HL313836  25.544   4.169   5.134
    1XTA    HL413837  26.480   3.896   4.697
    1XTA    HL513838  26.344   3.989   4.647
    1XTA    HL613839  26.618   4.017   4.523
    1XTA    HL713840  26.463   4.097   4.458
    1XTA    HL813841  26.457   3.938   4.322
    1XTA    HL913842  26.385   3.837   4.452
    1XTA   HL1013843  26.583   3.707   4.345
    1XTA   HL1113844  26.680   3.850   4.360
    1XTA   HL1213845  26.572   3.690   4.578
    1XTA   HL1313846  26.680   3.828   4.598
    1XTA   HL1413847  26.773   3.609   4.407
    1XTA   HL1513848  26.869   3.708   4.506
    1XTA   HL1613849  26.595   3.486   4.625
    1XTA   HL1713850  26.672   3.415   4.482
    1XTA   HL1813851  26.765   3.185   4.501
    1XTA   HL1913852  26.880   3.150   4.619
    1XTA   HL2013853  26.994   3.376   4.560
    1XTA   HL2113854  26.892   3.379   4.431
    1XTA   HL2213855  27.012   3.247   4.441
    1XTA   HL2313856  26.586   4.585   5.689
    1XTA   HL2413857  26.545   4.658   5.534
    1XTA   HL2513858  26.672   4.377   5.569
    1XTA   HL2613859  26.651   4.465   5.420
    1XTA   HL2713860  26.808   4.638   5.499
    1XTA   HL2813861  26.829   4.535   5.649
    1XTA   HL2913862  26.914   4.362   5.511
    1XTA   HL3013863  26.927   4.479   5.367
    1XTA   HL3113864  27.090   4.587   5.459
    1XTA   HL3213865  27.042   4.571   5.626
    1XTA   HL3313866  27.159   4.368   5.428
    1XTA   HL3413867  27.264   4.471   5.529
    1XTA   HL3513868  27.138   4.456   5.791
    1XTA   HL3613869  27.300   4.426   5.739
    1XTA   HL3713870  27.273   4.253   6.082
    1XTA   HL3813871  27.159   4.373   6.033
    1XTA   HL3913872  27.312   4.540   5.992
    1XTA   HL4013873  27.448   4.435   5.962
    1XTA   HL4113874  27.381   4.464   6.128
    1XTA    CO813875  26.601   3.250   4.708
    1XTA    CO913876  26.806   3.347   4.804
    1XTA    OA613877  26.517   3.235   4.599
    1XTA   HL4213878  26.545   3.311   4.771
    1XTA   HL4313879  26.610   3.155   4.756
    1XTA   HL4413880  27.358   4.125   5.912
    1XTA   HL4513881  27.319   4.134   5.721
    1XTA   CO1013882  27.348   4.187   5.819
    1XTA   CO1113883  27.106   4.172   5.868
    1XTA    OA713884  27.440   4.245   5.807
    1XTA   HL4613885  27.019   4.189   5.764
    1XTA   HL4713886  27.043   4.208   5.952
    1XTA   HL4813887  26.845   3.248   4.830
    1XTA   HL4913888  26.895   3.398   4.777
    1XTA     NT13889  31.287   3.499   2.852
    1XTA    CN113890  31.194   3.536   2.941
    1XTA     C113891  31.097   3.442   2.979
    1XTA     C213892  30.998   3.466   3.077
    1XTA     C313893  31.004   3.586   3.153
    1XTA     C413894  31.121   3.670   3.129
    1XTA     C513895  31.213   3.649   3.019
    1XTA    CN213896  31.414   3.461   2.886
    1XTA     C613897  31.433   3.367   2.994
    1XTA     C713898  31.562   3.323   3.024
    1XTA     C813899  31.674   3.361   2.946
    1XTA     C913900  31.651   3.450   2.839
    1XTA    C1013901  31.524   3.501   2.808
    1XTA    CN313902  31.251   3.470   2.727
    1XTA    C1113903  31.208   3.568   2.635
    1XTA    C1213904  31.148   3.537   2.516
    1XTA    C1313905  31.133   3.403   2.483
    1XTA    C1413906  31.189   3.302   2.570
    1XTA    C1513907  31.250   3.337   2.689
    1XTA     H113908  31.112   3.344   2.938
    1XTA     H213909  30.906   3.405   3.095
    1XTA     H313910  31.147   3.754   3.192
    1XTA     H413911  31.308   3.707   2.997
    1XTA     H513912  31.341   3.334   3.047
    1XTA     H613913  31.572   3.257   3.105
    1XTA     H713914  31.735   3.486   2.793
    1XTA     H813915  31.514   3.568   2.724
    1XTA     H913916  31.219   3.677   2.656
    1XTA    H1013917  31.116   3.609   2.446
    1XTA    H1113918  31.177   3.196   2.532
    1XTA    H1213919  31.272   3.252   2.750
    1XTA    OA113920  30.913   3.620   3.256
    1XTA    CO113921  30.822   3.524   3.308
    1XTA    OA213922  31.800   3.344   2.990
    1XTA    CO213923  31.890   3.268   2.914
    1XTA    CL113924  32.009   3.236   2.994
    1XTA    CL213925  31.977   3.203   3.140
    1XTA    CL313926  32.099   3.127   3.194
    1XTA    CL413927  32.063   3.083   3.339
    1XTA    CO313928  32.169   2.995   3.392
    1XTA    OA313929  32.137   2.961   3.531
    1XTA    CO413930  32.242   2.877   3.587
    1XTA    CT113931  32.320   2.945   3.706
    1XTA    CL513932  32.212   2.943   3.819
    1XTA    CL613933  32.260   3.006   3.956
    1XTA    OA413934  31.074   3.366   2.368
    1XTA    CO513935  30.966   3.445   2.326
    1XTA    CL713936  30.850   3.348   2.293
    1XTA    CL813937  30.769   3.310   2.426
    1XTA    CL913938  30.657   3.214   2.396
    1XTA   CL1013939  30.554   3.218   2.506
    1XTA    CO613940  30.441   3.111   2.477
    1XTA    OA513941  30.370   3.117   2.602
    1XTA    CO713942  30.254   3.042   2.603
    1XTA    CT213943  30.175   3.076   2.725
    1XTA   CL1113944  30.251   3.031   2.850
    1XTA   CL1213945  30.308   2.892   2.864
    1XTA    HL113946  30.750   3.490   3.235
    1XTA    HL213947  30.877   3.434   3.345
    1XTA    HL313948  30.763   3.570   3.392
    1XTA    HL413949  31.849   3.171   2.889
    1XTA    HL513950  31.911   3.320   2.819
    1XTA    HL613951  32.087   3.309   3.003
    1XTA    HL713952  32.060   3.150   2.945
    1XTA    HL813953  31.891   3.129   3.144
    1XTA    HL913954  31.956   3.292   3.191
    1XTA   HL1013955  32.125   3.041   3.132
    1XTA   HL1113956  32.188   3.191   3.200
    1XTA   HL1213957  31.970   3.022   3.341
    1XTA   HL1313958  32.035   3.149   3.408
    1XTA   HL1413959  32.182   2.909   3.324
    1XTA   HL1513960  32.264   3.054   3.395
    1XTA   HL1613961  32.196   2.797   3.636
    1XTA   HL1713962  32.303   2.837   3.511
    1XTA   HL1813963  32.183   2.842   3.828
    1XTA   HL1913964  32.120   3.002   3.788
    1XTA   HL2013965  32.266   3.113   3.958
    1XTA   HL2113966  32.363   2.970   3.979
    1XTA   HL2213967  32.201   2.956   4.039
    1XTA   HL2313968  30.998   3.508   2.243
    1XTA   HL2413969  30.929   3.517   2.397
    1XTA   HL2513970  30.788   3.395   2.212
    1XTA   HL2613971  30.878   3.260   2.240
    1XTA   HL2713972  30.831   3.258   2.495
    1XTA   HL2813973  30.719   3.396   2.476
    1XTA   HL2913974  30.602   3.242   2.309
    1XTA   HL3013975  30.705   3.119   2.372
    1XTA   HL3113976  30.603   3.189   2.595
    1XTA   HL3213977  30.526   3.317   2.533
    1XTA   HL3313978  30.370   3.141   2.399
    1XTA   HL3413979  30.477   3.015   2.454
    1XTA   HL3513980  30.281   2.938   2.610
    1XTA   HL3613981  30.201   3.056   2.506
    1XTA   HL3713982  30.185   3.042   2.935
    1XTA   HL3813983  30.340   3.096   2.865
    1XTA   HL3913984  30.230   2.819   2.842
    1XTA   HL4013985  30.358   2.873   2.953
    1XTA   HL4113986  30.378   2.854   2.790
    1XTA    CO813987  32.351   3.087   3.669
    1XTA    CO913988  32.451   2.879   3.740
    1XTA    OA613989  32.463   3.089   3.582
    1XTA   HL4213990  32.384   3.146   3.754
    1XTA   HL4313991  32.257   3.126   3.634
    1XTA   HL4413992  29.991   3.045   2.809
    1XTA   HL4513993  30.061   2.896   2.735
    1XTA   CO1013994  30.039   2.998   2.723
    1XTA   CO1113995  30.150   3.231   2.735
    1XTA    OA713996  30.034   3.266   2.804
    1XTA   HL4613997  30.236   3.275   2.789
    1XTA   HL4713998  30.129   3.269   2.636
    1XTA   HL4813999  32.508   2.864   3.656
    1XTA   HL4914000  32.501   2.945   3.808
    1XTA     NT14001  28.538   4.521   3.660
    1XTA    CN114002  28.484   4.531   3.780
    1XTA     C114003  28.388   4.628   3.806
    1XTA     C214004  28.336   4.647   3.941
    1XTA     C314005  28.378   4.563   4.046
    1XTA     C414006  28.477   4.468   4.017
    1XTA     C514007  28.535   4.454   3.888
    1XTA    CN214008  28.472   4.465   3.560
    1XTA     C614009  28.475   4.320   3.543
    1XTA     C714010  28.404   4.264   3.434
    1XTA     C814011  28.331   4.343   3.340
    1XTA     C914012  28.335   4.484   3.356
    1XTA    C1014013  28.396   4.541   3.468
    1XTA    CN314014  28.642   4.604   3.626
    1XTA    C1114015  28.775   4.550   3.604
    1XTA    C1214016  28.888   4.633   3.592
    1XTA    C1314017  28.873   4.773   3.586
    1XTA    C1414018  28.746   4.823   3.600
    1XTA    C1514019  28.636   4.739   3.614
    1XTA     H114020  28.357   4.696   3.727
    1XTA     H214021  28.273   4.736   3.957
    1XTA     H314022  28.492   4.396   4.091
    1XTA     H414023  28.607   4.376   3.868
    1XTA     H514024  28.521   4.262   3.622
    1XTA     H614025  28.417   4.155   3.419
    1XTA     H714026  28.278   4.547   3.292
    1XTA     H814027  28.383   4.648   3.485
    1XTA     H914028  28.795   4.447   3.614
    1XTA    H1014029  28.986   4.585   3.605
    1XTA    H1114030  28.726   4.930   3.585
    1XTA    H1214031  28.538   4.783   3.641
    1XTA    OA114032  28.334   4.573   4.176
    1XTA    CO114033  28.232   4.671   4.198
    1XTA    OA214034  28.285   4.274   3.231
    1XTA    CO214035  28.245   4.343   3.125
    1XTA    CL114036  28.196   4.241   3.026
    1XTA    CL214037  28.307   4.137   3.008
    1XTA    CL314038  28.245   4.019   2.927
    1XTA    CL414039  28.314   3.891   2.949
    1XTA    CO314040  28.237   3.791   2.864
    1XTA    OA314041  28.117   3.772   2.942
    1XTA    CO414042  28.020   3.691   2.866
    1XTA    CT114043  27.897   3.675   2.951
    1XTA    CL514044  27.936   3.605   3.080
    1XTA    CL614045  27.989   3.695   3.186
    1XTA    OA414046  28.984   4.852   3.557
    1XTA    CO514047  28.973   4.990   3.559
    1XTA    CL714048  29.108   5.050   3.535
    1XTA    CL814049  29.102   5.206   3.520
    1XTA    CL914050  29.236   5.271   3.564
    1XTA   CL1014051  29.296   5.224   3.694
    1XTA    CO614052  29.205   5.225   3.813
    1XTA    OA514053  29.173   5.359   3.847
    1XTA    CO714054  29.079   5.373   3.953
    1XTA    CT214055  29.057   5.518   3.982
    1XTA   CL1114056  28.948   5.568   3.889
    1XTA   CL1214057  28.996   5.586   3.739
    1XTA    HL114058  28.146   4.641   4.141
    1XTA    HL214059  28.199   4.679   4.298
    1XTA    HL314060  28.257   4.773   4.171
    1XTA    HL414061  28.159   4.407   3.148
    1XTA    HL514062  28.330   4.406   3.097
    1XTA    HL614063  28.172   4.286   2.936
    1XTA    HL714064  28.101   4.198   3.066
    1XTA    HL814065  28.349   4.101   3.104
    1XTA    HL914066  28.391   4.187   2.970
    1XTA   HL1014067  28.153   3.996   2.967
    1XTA   HL1114068  28.229   4.052   2.824
    1XTA   HL1214069  28.317   3.865   3.051
    1XTA   HL1314070  28.411   3.902   2.910
    1XTA   HL1414071  28.211   3.824   2.769
    1XTA   HL1514072  28.281   3.697   2.847
    1XTA   HL1614073  27.991   3.731   2.766
    1XTA   HL1714074  28.064   3.591   2.852
    1XTA   HL1814075  28.017   3.529   3.065
    1XTA   HL1914076  27.845   3.560   3.123
    1XTA   HL2014077  27.997   3.642   3.282
    1XTA   HL2114078  27.911   3.771   3.220
    1XTA   HL2214079  28.084   3.743   3.164
    1XTA   HL2314080  28.931   5.025   3.651
    1XTA   HL2414081  28.914   5.017   3.476
    1XTA   HL2514082  29.155   5.009   3.624
    1XTA   HL2614083  29.142   5.002   3.445
    1XTA   HL2714084  29.080   5.248   3.425
    1XTA   HL2814085  29.012   5.241   3.578
    1XTA   HL2914086  29.314   5.259   3.491
    1XTA   HL3014087  29.218   5.373   3.569
    1XTA   HL3114088  29.326   5.122   3.669
    1XTA   HL3214089  29.383   5.285   3.715
    1XTA   HL3314090  29.113   5.165   3.790
    1XTA   HL3414091  29.262   5.174   3.892
    1XTA   HL3514092  29.132   5.323   4.041
    1XTA   HL3614093  28.987   5.322   3.929
    1XTA   HL3714094  28.914   5.669   3.926
    1XTA   HL3814095  28.873   5.494   3.882
    1XTA   HL3914096  29.069   5.661   3.728
    1XTA   HL4014097  28.914   5.628   3.681
    1XTA   HL4114098  29.045   5.496   3.697
    1XTA    CO814099  27.791   3.584   2.878
    1XTA    CO914100  27.833   3.819   2.961
    1XTA    OA614101  27.747   3.632   2.754
    1XTA   HL4214102  27.695   3.572   2.935
    1XTA   HL4314103  27.823   3.479   2.859
    1XTA   HL4414104  29.267   5.550   4.039
    1XTA   HL4514105  29.235   5.576   3.864
    1XTA   CO1014106  29.192   5.589   3.969
    1XTA   CO1114107  29.008   5.537   4.127
    1XTA    OA714108  29.171   5.725   4.006
    1XTA   HL4614109  28.979   5.643   4.144
    1XTA   HL4714110  29.077   5.510   4.208
    1XTA   HL4814111  27.815   3.856   2.854
    1XTA   HL4914112  27.912   3.890   2.997
    1XTA     NT14113  30.361   3.879   5.579
    1XTA    CN114114  30.225   3.870   5.583
    1XTA     C114115  30.160   3.766   5.509
    1XTA     C214116  30.021   3.758   5.505
    1XTA     C314117  29.944   3.837   5.593
    1XTA     C414118  30.007   3.946   5.656
    1XTA     C514119  30.145   3.969   5.645
    1XTA    CN214120  30.433   3.810   5.669
    1XTA     C614121  30.520   3.874   5.760
    1XTA     C714122  30.587   3.792   5.857
    1XTA     C814123  30.572   3.651   5.861
    1XTA     C914124  30.501   3.590   5.760
    1XTA    C1014125  30.434   3.673   5.663
    1XTA    CN314126  30.431   3.931   5.473
    1XTA    C1114127  30.506   3.854   5.382
    1XTA    C1214128  30.595   3.925   5.286
    1XTA    C1314129  30.591   4.061   5.267
    1XTA    C1414130  30.503   4.138   5.353
    1XTA    C1514131  30.438   4.071   5.464
    1XTA     H114132  30.208   3.703   5.436
    1XTA     H214133  29.977   3.688   5.446
    1XTA     H314134  29.944   4.015   5.705
    1XTA     H414135  30.181   4.054   5.697
    1XTA     H514136  30.526   3.979   5.761
    1XTA     H614137  30.637   3.852   5.934
    1XTA     H714138  30.485   3.481   5.750
    1XTA     H814139  30.374   3.618   5.590
    1XTA     H914140  30.508   3.754   5.407
    1XTA    H1014141  30.666   3.862   5.237
    1XTA    H1114142  30.478   4.238   5.341
    1XTA    H1214143  30.377   4.128   5.529
    1XTA    OA114144  29.805   3.826   5.595
    1XTA    CO114145  29.749   3.794   5.724
    1XTA    OA214146  30.616   3.592   5.973
    1XTA    CO214147  30.573   3.462   6.002
    1XTA    CL114148  30.618   3.437   6.140
    1XTA    CL214149  30.589   3.297   6.195
    1XTA    CL314150  30.705   3.193   6.181
    1XTA    CL414151  30.795   3.170   6.306
    1XTA    CO314152  30.862   3.303   6.347
    1XTA    OA314153  30.932   3.357   6.234
    1XTA    CO414154  30.963   3.498   6.255
    1XTA    CT114155  31.047   3.558   6.140
    1XTA    CL514156  31.183   3.483   6.110
    1XTA    CL614157  31.290   3.488   6.211
    1XTA    OA414158  30.670   4.128   5.171
    1XTA    CO514159  30.743   4.051   5.078
    1XTA    CL714160  30.809   4.138   4.965
    1XTA    CL814161  30.852   4.065   4.838
    1XTA    CL914162  30.868   4.169   4.725
    1XTA   CL1014163  30.737   4.216   4.669
    1XTA    CO614164  30.759   4.309   4.546
    1XTA    OA514165  30.721   4.436   4.595
    1XTA    CO714166  30.816   4.493   4.677
    1XTA    CT214167  30.762   4.625   4.743
    1XTA   CL1114168  30.662   4.590   4.851
    1XTA   CL1214169  30.714   4.508   4.969
    1XTA    HL114170  29.808   3.832   5.803
    1XTA    HL214171  29.645   3.829   5.729
    1XTA    HL314172  29.749   3.684   5.727
    1XTA    HL414173  30.458   3.458   5.994
    1XTA    HL514174  30.613   3.396   5.925
    1XTA    HL614175  30.562   3.515   6.204
    1XTA    HL714176  30.723   3.466   6.154
    1XTA    HL814177  30.498   3.253   6.148
    1XTA    HL914178  30.576   3.311   6.297
    1XTA   HL1014179  30.663   3.101   6.161
    1XTA   HL1114180  30.771   3.226   6.096
    1XTA   HL1214181  30.871   3.089   6.299
    1XTA   HL1314182  30.729   3.144   6.383
    1XTA   HL1414183  30.797   3.375   6.399
    1XTA   HL1514184  30.943   3.277   6.418
    1XTA   HL1614185  30.868   3.556   6.263
    1XTA   HL1714186  31.035   3.509   6.343
    1XTA   HL1814187  31.228   3.528   6.020
    1XTA   HL1914188  31.151   3.387   6.071
    1XTA   HL2014189  31.262   3.452   6.308
    1XTA   HL2114190  31.342   3.584   6.224
    1XTA   HL2214191  31.369   3.425   6.182
    1XTA   HL2314192  30.665   3.996   5.029
    1XTA   HL2414193  30.820   3.984   5.117
    1XTA   HL2514194  30.716   4.191   4.939
    1XTA   HL2614195  30.881   4.206   5.003
    1XTA   HL2714196  30.943   4.013   4.859
    1XTA   HL2814197  30.775   3.995   4.811
    1XTA   HL2914198  30.915   4.253   4.767
    1XTA   HL3014199  30.926   4.116   4.649
    1XTA   HL3114200  30.679   4.132   4.639
    1XTA   HL3214201  30.666   4.266   4.735
    1XTA   HL3314202  30.851   4.310   4.478
    1XTA   HL3414203  30.676   4.287   4.480
    1XTA   HL3514204  30.908   4.527   4.613
    1XTA   HL3614205  30.855   4.428   4.756
    1XTA   HL3714206  30.587   4.522   4.809
    1XTA   HL3814207  30.612   4.679   4.894
    1XTA   HL3914208  30.741   4.583   5.047
    1XTA   HL4014209  30.796   4.439   4.958
    1XTA   HL4114210  30.633   4.450   5.011
    1XTA    CO814211  31.070   3.705   6.165
    1XTA    CO914212  30.964   3.545   6.012
    1XTA    OA614213  31.033   3.588   5.896
    1XTA   HL4214214  30.974   3.762   6.160
    1XTA   HL4314215  31.138   3.735   6.082
    1XTA   HL4414216  30.778   4.729   4.556
    1XTA   HL4514217  30.619   4.668   4.583
    1XTA   CO1014218  30.706   4.715   4.635
    1XTA   CO1114219  30.878   4.707   4.817
    1XTA    OA714220  30.993   4.722   4.738
    1XTA   HL4614221  30.846   4.797   4.880
    1XTA   HL4714222  30.913   4.627   4.886
    1XTA   HL4814223  30.873   3.603   6.017
    1XTA   HL4914224  30.931   3.443   6.006
    1XTA     NT14225  26.863   8.126   6.019
    1XTA    CN114226  26.874   8.254   5.973
    1XTA     C114227  26.998   8.314   5.962
    1XTA     C214228  26.998   8.444   5.915
    1XTA     C314229  26.886   8.516   5.881
    1XTA     C414230  26.760   8.456   5.885
    1XTA     C514231  26.756   8.326   5.935
    1XTA    CN214232  26.806   8.023   5.949
    1XTA     C614233  26.879   7.956   5.848
    1XTA     C714234  26.818   7.843   5.792
    1XTA     C814235  26.687   7.796   5.820
    1XTA     C914236  26.617   7.864   5.918
    1XTA    C1014237  26.681   7.971   5.984
    1XTA    CN314238  26.921   8.097   6.129
    1XTA    C1114239  26.839   8.088   6.245
    1XTA    C1214240  26.897   8.048   6.370
    1XTA    C1314241  27.030   8.018   6.384
    1XTA    C1414242  27.112   8.031   6.273
    1XTA    C1514243  27.056   8.068   6.148
    1XTA     H114244  27.094   8.258   5.967
    1XTA     H214245  27.085   8.500   5.907
    1XTA     H314246  26.666   8.495   5.851
    1XTA     H414247  26.663   8.264   5.942
    1XTA     H514248  26.973   7.989   5.816
    1XTA     H614249  26.870   7.796   5.717
    1XTA     H714250  26.511   7.836   5.940
    1XTA     H814251  26.623   8.027   6.053
    1XTA     H914252  26.732   8.103   6.249
    1XTA    H1014253  26.840   8.040   6.465
    1XTA    H1114254  27.219   8.010   6.277
    1XTA    H1214255  27.130   8.072   6.069
    1XTA    OA114256  26.900   8.645   5.837
    1XTA    CO114257  26.787   8.731   5.818
    1XTA    OA214258  26.639   7.683   5.752
    1XTA    CO214259  26.497   7.655   5.759
    1XTA    CL114260  26.404   7.756   5.699
    1XTA    CL214261  26.266   7.753   5.765
    1XTA    CL314262  26.182   7.874   5.738
    1XTA    CL414263  26.049   7.885   5.812
    1XTA    CO314264  25.959   7.995   5.749
    1XTA    OA314265  25.844   8.033   5.821
    1XTA    CO414266  25.744   7.941   5.837
    1XTA    CT114267  25.620   8.000   5.917
    1XTA    CL514268  25.671   8.009   6.066
    1XTA    CL614269  25.729   7.883   6.135
    1XTA    OA414270  27.087   7.977   6.502
    1XTA    CO514271  27.002   7.926   6.604
    1XTA    CL714272  27.088   7.864   6.705
    1XTA    CL814273  27.018   7.777   6.813
    1XTA    CL914274  27.115   7.707   6.911
    1XTA   CL1014275  27.045   7.599   6.990
    1XTA    CO614276  27.143   7.529   7.073
    1XTA    OA514277  27.220   7.603   7.162
    1XTA    CO714278  27.305   7.524   7.249
    1XTA    CT214279  27.367   7.608   7.365
    1XTA   CL1114280  27.435   7.516   7.474
    1XTA   CL1214281  27.368   7.382   7.524
    1XTA    HL114282  26.707   8.683   5.760
    1XTA    HL214283  26.745   8.775   5.912
    1XTA    HL314284  26.808   8.819   5.769
    1XTA    HL414285  26.483   7.559   5.713
    1XTA    HL514286  26.475   7.651   5.868
    1XTA    HL614287  26.390   7.743   5.594
    1XTA    HL714288  26.444   7.860   5.710
    1XTA    HL814289  26.280   7.736   5.870
    1XTA    HL914290  26.214   7.664   5.747
    1XTA   HL1014291  26.251   7.952   5.773
    1XTA   HL1114292  26.161   7.877   5.637
    1XTA   HL1214293  26.065   7.898   5.916
    1XTA   HL1314294  25.993   7.796   5.813
    1XTA   HL1414295  26.037   8.076   5.752
    1XTA   HL1514296  25.935   7.991   5.640
    1XTA   HL1614297  25.714   7.895   5.738
    1XTA   HL1714298  25.791   7.861   5.894
    1XTA   HL1814299  25.595   8.054   6.128
    1XTA   HL1914300  25.755   8.078   6.063
    1XTA   HL2014301  25.652   7.801   6.136
    1XTA   HL2114302  25.748   7.901   6.239
    1XTA   HL2214303  25.819   7.843   6.104
    1XTA   HL2314304  26.940   7.856   6.551
    1XTA   HL2414305  26.932   8.005   6.642
    1XTA   HL2514306  27.169   7.812   6.650
    1XTA   HL2614307  27.141   7.954   6.752
    1XTA   HL2714308  26.943   7.833   6.880
    1XTA   HL2814309  26.967   7.696   6.760
    1XTA   HL2914310  27.193   7.669   6.843
    1XTA   HL3014311  27.174   7.769   6.975
    1XTA   HL3114312  26.977   7.659   7.053
    1XTA   HL3214313  26.981   7.525   6.940
    1XTA   HL3314314  27.085   7.454   7.133
    1XTA   HL3414315  27.204   7.463   7.018
    1XTA   HL3514316  27.380   7.476   7.190
    1XTA   HL3614317  27.247   7.445   7.288
    1XTA   HL3714318  27.456   7.581   7.555
    1XTA   HL3814319  27.533   7.483   7.436
    1XTA   HL3914320  27.366   7.313   7.436
    1XTA   HL4014321  27.264   7.396   7.549
    1XTA   HL4114322  27.427   7.342   7.608
    1XTA    CO814323  25.498   7.904   5.916
    1XTA    CO914324  25.581   8.136   5.858
    1XTA    OA614325  25.517   8.220   5.954
    1XTA   HL4214326  25.414   7.960   5.955
    1XTA   HL4314327  25.510   7.813   5.963
    1XTA   HL4414328  27.211   7.760   7.365
    1XTA   HL4514329  27.305   7.773   7.501
    1XTA   CO1014330  27.253   7.693   7.438
    1XTA   CO1114331  27.474   7.701   7.301
    1XTA    OA714332  27.531   7.787   7.395
    1XTA   HL4614333  27.548   7.646   7.247
    1XTA   HL4714334  27.417   7.750   7.219
    1XTA   HL4814335  25.530   8.126   5.768
    1XTA   HL4914336  25.670   8.184   5.831
    1XTA     NT14337  24.444   3.395  -1.676
    1XTA    CN114338  24.387   3.516  -1.674
    1XTA     C114339  24.252   3.535  -1.709
    1XTA     C214340  24.189   3.658  -1.701
    1XTA     C314341  24.257   3.763  -1.628
    1XTA     C414342  24.391   3.749  -1.593
    1XTA     C514343  24.456   3.631  -1.620
    1XTA    CN214344  24.577   3.381  -1.672
    1XTA     C614345  24.655   3.339  -1.782
    1XTA     C714346  24.795   3.325  -1.779
    1XTA     C814347  24.861   3.357  -1.653
    1XTA     C914348  24.781   3.389  -1.543
    1XTA    C1014349  24.640   3.395  -1.548
    1XTA    CN314350  24.375   3.281  -1.653
    1XTA    C1114351  24.335   3.242  -1.524
    1XTA    C1214352  24.280   3.112  -1.502
    1XTA    C1314353  24.266   3.023  -1.611
    1XTA    C1414354  24.294   3.071  -1.743
    1XTA    C1514355  24.342   3.201  -1.764
    1XTA     H114356  24.193   3.455  -1.749
    1XTA     H214357  24.088   3.669  -1.749
    1XTA     H314358  24.442   3.818  -1.535
    1XTA     H414359  24.554   3.623  -1.590
    1XTA     H514360  24.607   3.322  -1.874
    1XTA     H614361  24.852   3.298  -1.868
    1XTA     H714362  24.840   3.405  -1.453
    1XTA     H814363  24.584   3.415  -1.456
    1XTA     H914364  24.356   3.305  -1.441
    1XTA    H1014365  24.264   3.073  -1.403
    1XTA    H1114366  24.292   2.997  -1.823
    1XTA    H1214367  24.370   3.230  -1.860
    1XTA    OA114368  24.186   3.880  -1.608
    1XTA    CO114369  24.157   3.901  -1.469
    1XTA    OA214370  24.997   3.366  -1.652
    1XTA    CO214371  25.070   3.363  -1.531
    1XTA    CL114372  25.190   3.275  -1.552
    1XTA    CL214373  25.260   3.305  -1.684
    1XTA    CL314374  25.354   3.182  -1.715
    1XTA    CL414375  25.482   3.206  -1.798
    1XTA    CO314376  25.569   3.076  -1.795
    1XTA    OA314377  25.498   2.971  -1.861
    1XTA    CO414378  25.509   2.983  -2.002
    1XTA    CT114379  25.401   2.888  -2.062
    1XTA    CL514380  25.269   2.965  -2.059
    1XTA    CL614381  25.149   2.901  -2.125
    1XTA    OA414382  24.241   2.888  -1.606
    1XTA    CO514383  24.175   2.848  -1.486
    1XTA    CL714384  24.156   2.694  -1.481
    1XTA    CL814385  24.073   2.654  -1.367
    1XTA    CL914386  24.082   2.504  -1.343
    1XTA   CL1014387  23.966   2.440  -1.257
    1XTA    CO614388  23.940   2.513  -1.123
    1XTA    OA514389  24.053   2.519  -1.036
    1XTA    CO714390  24.032   2.610  -0.933
    1XTA    CT214391  24.157   2.623  -0.849
    1XTA   CL1114392  24.283   2.678  -0.931
    1XTA   CL1214393  24.422   2.640  -0.880
    1XTA    HL114394  24.239   3.936  -1.403
    1XTA    HL214395  24.089   3.974  -1.471
    1XTA    HL314396  24.121   3.805  -1.427
    1XTA    HL414397  25.088   3.469  -1.499
    1XTA    HL514398  25.021   3.300  -1.460
    1XTA    HL614399  25.145   3.175  -1.550
    1XTA    HL714400  25.251   3.288  -1.463
    1XTA    HL814401  25.316   3.399  -1.681
    1XTA    HL914402  25.188   3.311  -1.763
    1XTA   HL1014403  25.385   3.148  -1.620
    1XTA   HL1114404  25.308   3.092  -1.738
    1XTA   HL1214405  25.532   3.288  -1.741
    1XTA   HL1314406  25.472   3.255  -1.894
    1XTA   HL1414407  25.665   3.086  -1.846
    1XTA   HL1514408  25.595   3.037  -1.698
    1XTA   HL1614409  25.506   3.088  -2.034
    1XTA   HL1714410  25.603   2.944  -2.033
    1XTA   HL1814411  25.298   3.059  -2.099
    1XTA   HL1914412  25.233   2.985  -1.968
    1XTA   HL2014413  25.108   2.813  -2.067
    1XTA   HL2114414  25.172   2.866  -2.228
    1XTA   HL2214415  25.068   2.977  -2.136
    1XTA   HL2314416  24.079   2.894  -1.474
    1XTA   HL2414417  24.224   2.881  -1.398
    1XTA   HL2514418  24.099   2.677  -1.573
    1XTA   HL2614419  24.251   2.643  -1.482
    1XTA   HL2714420  24.093   2.709  -1.274
    1XTA   HL2814421  23.965   2.675  -1.393
    1XTA   HL2914422  24.072   2.464  -1.443
    1XTA   HL3014423  24.183   2.475  -1.308
    1XTA   HL3114424  23.878   2.421  -1.314
    1XTA   HL3214425  23.999   2.343  -1.240
    1XTA   HL3314426  23.905   2.617  -1.148
    1XTA   HL3414427  23.856   2.475  -1.064
    1XTA   HL3514428  23.961   2.584  -0.862
    1XTA   HL3614429  24.007   2.700  -0.990
    1XTA   HL3714430  24.283   2.784  -0.953
    1XTA   HL3814431  24.270   2.625  -1.031
    1XTA   HL3914432  24.488   2.716  -0.918
    1XTA   HL4014433  24.442   2.536  -0.893
    1XTA   HL4114434  24.431   2.667  -0.776
    1XTA    CO814435  25.403   2.749  -1.993
    1XTA    CO914436  25.439   2.860  -2.208
    1XTA    OA614437  25.350   2.664  -2.043
    1XTA   HL4214438  25.370   2.758  -1.892
    1XTA   HL4314439  25.508   2.717  -1.974
    1XTA   HL4414440  24.098   2.442  -0.754
    1XTA   HL4514441  24.230   2.421  -0.869
    1XTA   CO1014442  24.191   2.486  -0.792
    1XTA   CO1114443  24.124   2.716  -0.733
    1XTA    OA714444  24.294   2.503  -0.688
    1XTA   HL4614445  24.216   2.733  -0.677
    1XTA   HL4714446  24.047   2.673  -0.662
    1XTA   HL4814447  25.351   2.759  -2.267
    1XTA   HL4914448  25.528   2.793  -2.210
    1XTA     NT14449  31.254  -0.693  -0.687
    1XTA    CN114450  31.150  -0.725  -0.607
    1XTA     C114451  31.162  -0.701  -0.471
    1XTA     C214452  31.047  -0.718  -0.386
    1XTA     C314453  30.931  -0.777  -0.440
    1XTA     C414454  30.924  -0.803  -0.576
    1XTA     C514455  31.027  -0.776  -0.663
    1XTA    CN214456  31.289  -0.567  -0.693
    1XTA     C614457  31.421  -0.537  -0.682
    1XTA     C714458  31.453  -0.401  -0.679
    1XTA     C814459  31.356  -0.296  -0.670
    1XTA     C914460  31.221  -0.332  -0.674
    1XTA    C1014461  31.192  -0.466  -0.692
    1XTA    CN314462  31.306  -0.789  -0.773
    1XTA    C1114463  31.324  -0.758  -0.909
    1XTA    C1214464  31.377  -0.851  -0.994
    1XTA    C1314465  31.416  -0.977  -0.935
    1XTA    C1414466  31.403  -1.014  -0.793
    1XTA    C1514467  31.342  -0.914  -0.715
    1XTA     H114468  31.251  -0.662  -0.428
    1XTA     H214469  31.052  -0.687  -0.284
    1XTA     H314470  30.832  -0.839  -0.618
    1XTA     H414471  31.017  -0.801  -0.768
    1XTA     H514472  31.497  -0.607  -0.700
    1XTA     H614473  31.556  -0.378  -0.703
    1XTA     H714474  31.143  -0.264  -0.695
    1XTA     H814475  31.088  -0.488  -0.716
    1XTA     H914476  31.288  -0.666  -0.940
    1XTA    H1014477  31.377  -0.828  -1.100
    1XTA    H1114478  31.448  -1.102  -0.756
    1XTA    H1214479  31.332  -0.942  -0.613
    1XTA    OA114480  30.829  -0.800  -0.345
    1XTA    CO114481  30.718  -0.869  -0.390
    1XTA    OA214482  31.378  -0.161  -0.683
    1XTA    CO214483  31.514  -0.118  -0.687
    1XTA    CL114484  31.515   0.034  -0.679
    1XTA    CL214485  31.656   0.120  -0.684
    1XTA    CL314486  31.628   0.265  -0.622
    1XTA    CL414487  31.739   0.365  -0.682
    1XTA    CO314488  31.697   0.504  -0.676
    1XTA    OA314489  31.672   0.533  -0.540
    1XTA    CO414490  31.647   0.675  -0.527
    1XTA    CT114491  31.596   0.704  -0.379
    1XTA    CL514492  31.712   0.707  -0.273
    1XTA    CL614493  31.677   0.769  -0.134
    1XTA    OA414494  31.469  -1.070  -1.018
    1XTA    CO514495  31.385  -1.182  -1.041
    1XTA    CL714496  31.369  -1.187  -1.187
    1XTA    CL814497  31.272  -1.078  -1.247
    1XTA    CL914498  31.336  -0.980  -1.350
    1XTA   CL1014499  31.250  -0.871  -1.409
    1XTA    CO614500  31.325  -0.750  -1.457
    1XTA    OA514501  31.411  -0.688  -1.369
    1XTA    CO714502  31.496  -0.580  -1.421
    1XTA    CT214503  31.512  -0.456  -1.333
    1XTA   CL1114504  31.488  -0.323  -1.417
    1XTA   CL1214505  31.591  -0.288  -1.530
    1XTA    HL114506  30.743  -0.978  -0.394
    1XTA    HL214507  30.635  -0.871  -0.330
    1XTA    HL314508  30.694  -0.860  -0.494
    1XTA    HL414509  31.558  -0.168  -0.605
    1XTA    HL514510  31.562  -0.146  -0.776
    1XTA    HL614511  31.474   0.050  -0.570
    1XTA    HL714512  31.435   0.068  -0.747
    1XTA    HL814513  31.691   0.129  -0.785
    1XTA    HL914514  31.731   0.072  -0.622
    1XTA   HL1014515  31.532   0.287  -0.647
    1XTA   HL1114516  31.642   0.262  -0.516
    1XTA   HL1214517  31.754   0.357  -0.785
    1XTA   HL1314518  31.833   0.331  -0.634
    1XTA   HL1414519  31.756   0.586  -0.715
    1XTA   HL1514520  31.604   0.510  -0.733
    1XTA   HL1614521  31.733   0.735  -0.556
    1XTA   HL1714522  31.566   0.691  -0.596
    1XTA   HL1814523  31.794   0.745  -0.323
    1XTA   HL1914524  31.744   0.602  -0.254
    1XTA   HL2014525  31.657   0.879  -0.146
    1XTA   HL2114526  31.756   0.769  -0.057
    1XTA   HL2214527  31.582   0.728  -0.094
    1XTA   HL2314528  31.285  -1.173  -0.991
    1XTA   HL2414529  31.443  -1.264  -1.004
    1XTA   HL2514530  31.468  -1.180  -1.232
    1XTA   HL2614531  31.335  -1.287  -1.222
    1XTA   HL2714532  31.194  -1.130  -1.306
    1XTA   HL2814533  31.228  -1.014  -1.174
    1XTA   HL2914534  31.416  -0.937  -1.303
    1XTA   HL3014535  31.381  -1.032  -1.434
    1XTA   HL3114536  31.214  -0.919  -1.499
    1XTA   HL3214537  31.171  -0.841  -1.344
    1XTA   HL3314538  31.383  -0.786  -1.538
    1XTA   HL3414539  31.259  -0.680  -1.510
    1XTA   HL3514540  31.462  -0.535  -1.522
    1XTA   HL3614541  31.594  -0.624  -1.421
    1XTA   HL3714542  31.466  -0.245  -1.348
    1XTA   HL3814543  31.389  -0.338  -1.459
    1XTA   HL3914544  31.682  -0.264  -1.473
    1XTA   HL4014545  31.562  -0.202  -1.589
    1XTA   HL4114546  31.613  -0.381  -1.581
    1XTA    CO814547  31.500   0.588  -0.330
    1XTA    CO914548  31.504   0.831  -0.385
    1XTA    OA614549  31.588   0.921  -0.453
    1XTA   HL4214550  31.555   0.487  -0.310
    1XTA   HL4314551  31.439   0.615  -0.236
    1XTA   HL4414552  31.683  -0.518  -1.183
    1XTA   HL4514553  31.724  -0.478  -1.346
    1XTA   CO1014554  31.654  -0.451  -1.267
    1XTA   CO1114555  31.415  -0.449  -1.216
    1XTA    OA714556  31.684  -0.349  -1.240
    1XTA   HL4614557  31.442  -0.555  -1.129
    1XTA   HL4714558  31.440  -0.365  -1.144
    1XTA   HL4814559  31.481   0.877  -0.284
    1XTA   HL4914560  31.415   0.824  -0.452
    1XTA     NT14561  25.583   4.458  -1.167
    1XTA    CN114562  25.570   4.553  -1.068
    1XTA     C114563  25.682   4.625  -1.019
    1XTA     C214564  25.672   4.719  -0.917
    1XTA     C314565  25.547   4.755  -0.871
    1XTA     C414566  25.433   4.689  -0.918
    1XTA     C514567  25.441   4.590  -1.017
    1XTA    CN214568  25.705   4.412  -1.198
    1XTA     C614569  25.767   4.311  -1.135
    1XTA     C714570  25.893   4.259  -1.174
    1XTA     C814571  25.957   4.315  -1.288
    1XTA     C914572  25.892   4.419  -1.362
    1XTA    C1014573  25.769   4.464  -1.312
    1XTA    CN314574  25.475   4.419  -1.237
    1XTA    C1114575  25.428   4.475  -1.356
    1XTA    C1214576  25.328   4.412  -1.430
    1XTA    C1314577  25.257   4.303  -1.379
    1XTA    C1414578  25.306   4.239  -1.263
    1XTA    C1514579  25.421   4.294  -1.193
    1XTA     H114580  25.780   4.608  -1.064
    1XTA     H214581  25.762   4.759  -0.880
    1XTA     H314582  25.334   4.724  -0.896
    1XTA     H414583  25.354   4.544  -1.058
    1XTA     H514584  25.719   4.270  -1.048
    1XTA     H614585  25.945   4.181  -1.112
    1XTA     H714586  25.941   4.456  -1.452
    1XTA     H814587  25.715   4.549  -1.350
    1XTA     H914588  25.469   4.569  -1.401
    1XTA    H1014589  25.299   4.459  -1.519
    1XTA    H1114590  25.268   4.146  -1.227
    1XTA    H1214591  25.452   4.246  -1.099
    1XTA    OA114592  25.535   4.849  -0.775
    1XTA    CO114593  25.406   4.892  -0.735
    1XTA    OA214594  26.061   4.261  -1.353
    1XTA    CO214595  26.126   4.151  -1.284
    1XTA    CL114596  26.256   4.118  -1.369
    1XTA    CL214597  26.366   4.227  -1.351
    1XTA    CL314598  26.487   4.226  -1.448
    1XTA    CL414599  26.438   4.289  -1.573
    1XTA    CO314600  26.539   4.276  -1.693
    1XTA    OA314601  26.533   4.145  -1.750
    1XTA    CO414602  26.624   4.117  -1.853
    1XTA    CT114603  26.604   3.977  -1.918
    1XTA    CL514604  26.609   3.886  -1.794
    1XTA    CL614605  26.722   3.884  -1.695
    1XTA    OA414606  25.142   4.266  -1.442
    1XTA    CO514607  25.046   4.192  -1.374
    1XTA    CL714608  24.931   4.181  -1.480
    1XTA    CL814609  24.974   4.086  -1.591
    1XTA    CL914610  24.953   3.938  -1.562
    1XTA   CL1014611  24.975   3.853  -1.685
    1XTA    CO614612  24.957   3.706  -1.668
    1XTA    OA514613  24.971   3.648  -1.795
    1XTA    CO714614  25.108   3.623  -1.842
    1XTA    CT214615  25.099   3.590  -1.994
    1XTA   CL1114616  25.249   3.598  -2.046
    1XTA   CL1214617  25.356   3.518  -1.973
    1XTA    HL114618  25.348   4.821  -0.685
    1XTA    HL214619  25.419   4.988  -0.681
    1XTA    HL314620  25.353   4.922  -0.820
    1XTA    HL414621  26.158   4.168  -1.183
    1XTA    HL514622  26.064   4.065  -1.293
    1XTA    HL614623  26.227   4.099  -1.474
    1XTA    HL714624  26.297   4.025  -1.323
    1XTA    HL814625  26.399   4.230  -1.250
    1XTA    HL914626  26.316   4.320  -1.356
    1XTA   HL1014627  26.567   4.293  -1.409
    1XTA   HL1114628  26.516   4.127  -1.460
    1XTA   HL1214629  26.420   4.399  -1.570
    1XTA   HL1314630  26.347   4.239  -1.618
    1XTA   HL1414631  26.484   4.340  -1.765
    1XTA   HL1514632  26.645   4.316  -1.671
    1XTA   HL1614633  26.630   4.191  -1.932
    1XTA   HL1714634  26.723   4.124  -1.806
    1XTA   HL1814635  26.591   3.786  -1.835
    1XTA   HL1914636  26.517   3.913  -1.737
    1XTA   HL2014637  26.820   3.841  -1.740
    1XTA   HL2114638  26.705   3.810  -1.616
    1XTA   HL2214639  26.721   3.979  -1.641
    1XTA   HL2314640  25.008   4.244  -1.288
    1XTA   HL2414641  25.084   4.100  -1.333
    1XTA   HL2514642  24.845   4.141  -1.428
    1XTA   HL2614643  24.907   4.280  -1.518
    1XTA   HL2714644  24.928   4.112  -1.684
    1XTA   HL2814645  25.083   4.090  -1.601
    1XTA   HL2914646  25.022   3.906  -1.484
    1XTA   HL3014647  24.856   3.907  -1.521
    1XTA   HL3114648  24.905   3.884  -1.762
    1XTA   HL3214649  25.074   3.882  -1.714
    1XTA   HL3314650  25.023   3.655  -1.598
    1XTA   HL3414651  24.854   3.685  -1.636
    1XTA   HL3514652  25.149   3.539  -1.787
    1XTA   HL3614653  25.165   3.713  -1.824
    1XTA   HL3714654  25.286   3.699  -2.048
    1XTA   HL3814655  25.243   3.559  -2.149
    1XTA   HL3914656  25.381   3.575  -1.883
    1XTA   HL4014657  25.450   3.515  -2.030
    1XTA   HL4114658  25.318   3.420  -1.946
    1XTA    CO814659  26.715   3.949  -2.029
    1XTA    CO914660  26.470   3.976  -1.996
    1XTA    OA614661  26.814   3.972  -1.984
    1XTA   HL4214662  26.703   4.010  -2.118
    1XTA   HL4314663  26.722   3.840  -2.054
    1XTA   HL4414664  24.910   3.703  -2.028
    1XTA   HL4514665  25.005   3.682  -2.174
    1XTA   CO1014666  25.015   3.702  -2.067
    1XTA   CO1114667  25.036   3.450  -2.026
    1XTA    OA714668  25.040   3.419  -2.169
    1XTA   HL4614669  25.089   3.370  -1.967
    1XTA   HL4714670  24.941   3.451  -1.985
    1XTA   HL4814671  26.364   3.979  -1.906
    1XTA   HL4914672  26.461   3.884  -2.053
    1XTA     NT14673  28.289   5.240   0.337
    1XTA    CN114674  28.289   5.319   0.448
    1XTA     C114675  28.321   5.456   0.435
    1XTA     C214676  28.333   5.527   0.562
    1XTA     C314677  28.293   5.474   0.687
    1XTA     C414678  28.247   5.344   0.689
    1XTA     C514679  28.251   5.266   0.575
    1XTA    CN214680  28.227   5.296   0.233
    1XTA     C614681  28.090   5.315   0.236
    1XTA     C714682  28.020   5.371   0.121
    1XTA     C814683  28.094   5.419   0.011
    1XTA     C914684  28.233   5.413   0.019
    1XTA    C1014685  28.293   5.339   0.116
    1XTA    CN314686  28.381   5.139   0.325
    1XTA    C1114687  28.352   5.005   0.289
    1XTA    C1214688  28.460   4.913   0.280
    1XTA    C1314689  28.592   4.941   0.306
    1XTA    C1414690  28.619   5.074   0.355
    1XTA    C1514691  28.511   5.170   0.355
    1XTA     H114692  28.341   5.513   0.347
    1XTA     H214693  28.371   5.631   0.565
    1XTA     H314694  28.205   5.301   0.772
    1XTA     H414695  28.226   5.163   0.577
    1XTA     H514696  28.034   5.279   0.324
    1XTA     H614697  27.911   5.393   0.128
    1XTA     H714698  28.293   5.464  -0.052
    1XTA     H814699  28.404   5.323   0.124
    1XTA     H914700  28.250   4.974   0.270
    1XTA    H1014701  28.438   4.811   0.251
    1XTA    H1114702  28.714   5.101   0.381
    1XTA    H1214703  28.543   5.265   0.390
    1XTA    OA114704  28.288   5.552   0.798
    1XTA    CO114705  28.200   5.519   0.901
    1XTA    OA214706  28.030   5.497  -0.076
    1XTA    CO214707  28.064   5.478  -0.211
    1XTA    CL114708  27.952   5.550  -0.282
    1XTA    CL214709  27.824   5.469  -0.284
    1XTA    CL314710  27.769   5.448  -0.143
    1XTA    CL414711  27.641   5.364  -0.141
    1XTA    CO314712  27.596   5.340   0.002
    1XTA    OA314713  27.471   5.274   0.000
    1XTA    CO414714  27.361   5.355  -0.041
    1XTA    CT114715  27.233   5.274   0.000
    1XTA    CL514716  27.227   5.125  -0.032
    1XTA    CL614717  27.253   5.096  -0.182
    1XTA    OA414718  28.682   4.844   0.285
    1XTA    CO514719  28.819   4.898   0.289
    1XTA    CL714720  28.902   4.766   0.311
    1XTA    CL814721  29.051   4.799   0.306
    1XTA    CL914722  29.105   4.917   0.404
    1XTA   CL1014723  29.260   4.942   0.416
    1XTA    CO614724  29.295   5.077   0.477
    1XTA    OA514725  29.248   5.183   0.395
    1XTA    CO714726  29.321   5.296   0.405
    1XTA    CT214727  29.276   5.396   0.295
    1XTA   CL1114728  29.122   5.429   0.308
    1XTA   CL1214729  29.081   5.519   0.431
    1XTA    HL114730  28.224   5.590   0.979
    1XTA    HL214731  28.092   5.533   0.873
    1XTA    HL314732  28.228   5.419   0.935
    1XTA    HL414733  28.164   5.523  -0.237
    1XTA    HL514734  28.079   5.371  -0.225
    1XTA    HL614735  27.984   5.560  -0.388
    1XTA    HL714736  27.949   5.649  -0.247
    1XTA    HL814737  27.840   5.373  -0.329
    1XTA    HL914738  27.761   5.528  -0.343
    1XTA   HL1014739  27.841   5.403  -0.076
    1XTA   HL1114740  27.741   5.539  -0.090
    1XTA   HL1214741  27.671   5.275  -0.195
    1XTA   HL1314742  27.557   5.410  -0.200
    1XTA   HL1414743  27.665   5.270   0.048
    1XTA   HL1514744  27.589   5.419   0.069
    1XTA   HL1614745  27.354   5.453   0.004
    1XTA   HL1714746  27.373   5.365  -0.147
    1XTA   HL1814747  27.125   5.088  -0.010
    1XTA   HL1914748  27.291   5.057   0.027
    1XTA   HL2014749  27.226   4.995  -0.207
    1XTA   HL2114750  27.362   5.122  -0.199
    1XTA   HL2214751  27.192   5.162  -0.236
    1XTA   HL2314752  28.846   4.977   0.361
    1XTA   HL2414753  28.844   4.941   0.191
    1XTA   HL2514754  28.875   4.738   0.415
    1XTA   HL2614755  28.877   4.693   0.234
    1XTA   HL2714756  29.101   4.706   0.333
    1XTA   HL2814757  29.078   4.826   0.204
    1XTA   HL2914758  29.057   4.999   0.367
    1XTA   HL3014759  29.061   4.894   0.499
    1XTA   HL3114760  29.306   4.861   0.467
    1XTA   HL3214761  29.307   4.940   0.320
    1XTA   HL3314762  29.252   5.087   0.576
    1XTA   HL3414763  29.402   5.080   0.497
    1XTA   HL3514764  29.418   5.272   0.396
    1XTA   HL3614765  29.307   5.337   0.505
    1XTA   HL3714766  29.072   5.330   0.312
    1XTA   HL3814767  29.088   5.482   0.219
    1XTA   HL3914768  28.980   5.507   0.468
    1XTA   HL4014769  29.085   5.621   0.400
    1XTA   HL4114770  29.150   5.492   0.516
    1XTA    CO814771  27.104   5.346  -0.053
    1XTA    CO914772  27.227   5.285   0.149
    1XTA    OA614773  27.102   5.456  -0.034
    1XTA   HL4214774  27.019   5.298  -0.006
    1XTA   HL4314775  27.092   5.347  -0.160
    1XTA   HL4414776  29.267   5.226   0.149
    1XTA   HL4514777  29.236   5.389   0.076
    1XTA   CO1014778  29.295   5.331   0.153
    1XTA   CO1114779  29.359   5.523   0.296
    1XTA    OA714780  29.428   5.343   0.115
    1XTA   HL4614781  29.364   5.562   0.400
    1XTA   HL4714782  29.457   5.499   0.269
    1XTA   HL4814783  27.245   5.424   0.187
    1XTA   HL4914784  27.126   5.256   0.185
    1XTA     NT14785  23.071  -0.613   3.270
    1XTA    CN114786  23.012  -0.659   3.158
    1XTA     C114787  23.083  -0.751   3.084
    1XTA     C214788  23.027  -0.813   2.966
    1XTA     C314789  22.897  -0.770   2.921
    1XTA     C414790  22.826  -0.672   2.996
    1XTA     C514791  22.880  -0.624   3.114
    1XTA    CN214792  23.173  -0.520   3.278
    1XTA     C614793  23.285  -0.534   3.357
    1XTA     C714794  23.372  -0.427   3.376
    1XTA     C814795  23.362  -0.305   3.302
    1XTA     C914796  23.252  -0.296   3.215
    1XTA    C1014797  23.159  -0.403   3.204
    1XTA    CN314798  23.036  -0.676   3.384
    1XTA    C1114799  23.105  -0.795   3.423
    1XTA    C1214800  23.094  -0.840   3.559
    1XTA    C1314801  23.006  -0.779   3.646
    1XTA    C1414802  22.927  -0.667   3.603
    1XTA    C1514803  22.947  -0.622   3.468
    1XTA     H114804  23.177  -0.788   3.125
    1XTA     H214805  23.085  -0.881   2.908
    1XTA     H314806  22.731  -0.647   2.964
    1XTA     H414807  22.816  -0.554   3.165
    1XTA     H514808  23.295  -0.636   3.400
    1XTA     H614809  23.456  -0.438   3.444
    1XTA     H714810  23.221  -0.202   3.164
    1XTA     H814811  23.070  -0.396   3.134
    1XTA     H914812  23.169  -0.842   3.356
    1XTA    H1014813  23.149  -0.931   3.578
    1XTA    H1114814  22.853  -0.613   3.667
    1XTA    H1214815  22.897  -0.536   3.429
    1XTA    OA114816  22.849  -0.829   2.806
    1XTA    CO114817  22.754  -0.757   2.728
    1XTA    OA214818  23.454  -0.204   3.318
    1XTA    CO214819  23.412  -0.071   3.278
    1XTA    CL114820  23.523   0.040   3.286
    1XTA    CL214821  23.490   0.148   3.182
    1XTA    CL314822  23.609   0.243   3.172
    1XTA    CL414823  23.589   0.340   3.049
    1XTA    CO314824  23.484   0.450   3.078
    1XTA    OA314825  23.447   0.496   2.953
    1XTA    CO414826  23.315   0.468   2.916
    1XTA    CT114827  23.287   0.528   2.779
    1XTA    CL514828  23.296   0.684   2.778
    1XTA    CL614829  23.192   0.755   2.868
    1XTA    OA414830  23.009  -0.830   3.770
    1XTA    CO514831  22.916  -0.771   3.867
    1XTA    CL714832  22.937  -0.841   4.003
    1XTA    CL814833  22.848  -0.788   4.117
    1XTA    CL914834  22.914  -0.817   4.249
    1XTA   CL1014835  22.819  -0.786   4.370
    1XTA    CO614836  22.786  -0.639   4.402
    1XTA    OA514837  22.738  -0.617   4.540
    1XTA    CO714838  22.601  -0.629   4.550
    1XTA    CT214839  22.553  -0.634   4.698
    1XTA   CL1114840  22.397  -0.634   4.716
    1XTA   CL1214841  22.332  -0.497   4.677
    1XTA    HL114842  22.765  -0.801   2.628
    1XTA    HL214843  22.650  -0.765   2.764
    1XTA    HL314844  22.792  -0.657   2.713
    1XTA    HL414845  23.373  -0.073   3.179
    1XTA    HL514846  23.325  -0.051   3.336
    1XTA    HL614847  23.615   0.001   3.251
    1XTA    HL714848  23.532   0.086   3.388
    1XTA    HL814849  23.393   0.189   3.198
    1XTA    HL914850  23.482   0.092   3.089
    1XTA   HL1014851  23.639   0.305   3.253
    1XTA   HL1114852  23.698   0.186   3.156
    1XTA   HL1214853  23.562   0.291   2.959
    1XTA   HL1314854  23.681   0.386   3.020
    1XTA   HL1414855  23.393   0.409   3.130
    1XTA   HL1514856  23.524   0.535   3.128
    1XTA   HL1614857  23.278   0.363   2.920
    1XTA   HL1714858  23.259   0.515   2.997
    1XTA   HL1814859  23.286   0.725   2.682
    1XTA   HL1914860  23.395   0.706   2.807
    1XTA   HL2014861  23.211   0.865   2.856
    1XTA   HL2114862  23.199   0.721   2.969
    1XTA   HL2214863  23.090   0.721   2.832
    1XTA   HL2314864  22.814  -0.792   3.826
    1XTA   HL2414865  22.934  -0.662   3.877
    1XTA   HL2514866  22.930  -0.944   3.980
    1XTA   HL2614867  23.037  -0.824   4.040
    1XTA   HL2714868  22.837  -0.683   4.104
    1XTA   HL2814869  22.750  -0.832   4.116
    1XTA   HL2914870  22.932  -0.922   4.257
    1XTA   HL3014871  23.007  -0.762   4.248
    1XTA   HL3114872  22.732  -0.844   4.366
    1XTA   HL3214873  22.861  -0.834   4.455
    1XTA   HL3314874  22.871  -0.577   4.375
    1XTA   HL3414875  22.712  -0.598   4.332
    1XTA   HL3514876  22.560  -0.711   4.491
    1XTA   HL3614877  22.557  -0.538   4.504
    1XTA   HL3714878  22.358  -0.670   4.813
    1XTA   HL3814879  22.364  -0.719   4.657
    1XTA   HL3914880  22.354  -0.438   4.769
    1XTA   HL4014881  22.233  -0.517   4.656
    1XTA   HL4114882  22.378  -0.445   4.597
    1XTA    CO814883  23.147   0.474   2.727
    1XTA    CO914884  23.392   0.471   2.681
    1XTA    OA614885  23.392   0.330   2.686
    1XTA   HL4214886  23.121   0.524   2.632
    1XTA   HL4314887  23.184   0.375   2.693
    1XTA   HL4414888  22.574  -0.499   4.868
    1XTA   HL4514889  22.721  -0.548   4.799
    1XTA   CO1014890  22.617  -0.512   4.772
    1XTA   CO1114891  22.609  -0.765   4.757
    1XTA    OA714892  22.605  -0.393   4.689
    1XTA   HL4614893  22.562  -0.777   4.856
    1XTA   HL4714894  22.575  -0.846   4.696
    1XTA   HL4814895  23.496   0.506   2.711
    1XTA   HL4914896  23.368   0.507   2.584
    1XTA     NT14897  27.193  -2.321   4.193
    1XTA    CN114898  27.112  -2.433   4.223
    1XTA     C114899  27.154  -2.514   4.329
    1XTA     C214900  27.076  -2.629   4.367
    1XTA     C314901  26.958  -2.653   4.298
    1XTA     C414902  26.921  -2.566   4.195
    1XTA     C514903  26.994  -2.452   4.159
    1XTA    CN214904  27.255  -2.324   4.076
    1XTA     C614905  27.222  -2.227   3.985
    1XTA     C714906  27.266  -2.237   3.852
    1XTA     C814907  27.346  -2.339   3.812
    1XTA     C914908  27.397  -2.430   3.913
    1XTA    C1014909  27.345  -2.429   4.049
    1XTA    CN314910  27.176  -2.203   4.260
    1XTA    C1114911  27.280  -2.105   4.261
    1XTA    C1214912  27.257  -1.986   4.324
    1XTA    C1314913  27.139  -1.947   4.395
    1XTA    C1414914  27.036  -2.046   4.400
    1XTA    C1514915  27.058  -2.170   4.337
    1XTA     H114916  27.250  -2.485   4.368
    1XTA     H214917  27.110  -2.686   4.452
    1XTA     H314918  26.836  -2.593   4.135
    1XTA     H414919  26.969  -2.392   4.084
    1XTA     H514920  27.157  -2.143   4.008
    1XTA     H614921  27.229  -2.169   3.773
    1XTA     H714922  27.467  -2.509   3.886
    1XTA     H814923  27.370  -2.500   4.127
    1XTA     H914924  27.369  -2.128   4.220
    1XTA    H1014925  27.340  -1.913   4.330
    1XTA    H1114926  26.947  -2.046   4.460
    1XTA    H1214927  26.980  -2.241   4.354
    1XTA    OA114928  26.868  -2.755   4.320
    1XTA    CO114929  26.903  -2.840   4.422
    1XTA    OA214930  27.385  -2.345   3.684
    1XTA    CO214931  27.397  -2.222   3.608
    1XTA    CL114932  27.517  -2.239   3.517
    1XTA    CL214933  27.528  -2.124   3.418
    1XTA    CL314934  27.662  -2.081   3.367
    1XTA    CL414935  27.668  -1.989   3.250
    1XTA    CO314936  27.638  -1.846   3.267
    1XTA    OA314937  27.509  -1.836   3.319
    1XTA    CO414938  27.454  -1.702   3.331
    1XTA    CT114939  27.344  -1.690   3.438
    1XTA    CL514940  27.233  -1.796   3.401
    1XTA    CL614941  27.099  -1.784   3.478
    1XTA    OA414942  27.154  -1.836   4.477
    1XTA    CO514943  27.048  -1.808   4.576
    1XTA    CL714944  26.923  -1.756   4.506
    1XTA    CL814945  26.804  -1.787   4.589
    1XTA    CL914946  26.676  -1.769   4.514
    1XTA   CL1014947  26.656  -1.874   4.411
    1XTA    CO614948  26.556  -1.989   4.459
    1XTA    OA514949  26.600  -2.064   4.573
    1XTA    CO714950  26.689  -2.164   4.548
    1XTA    CT214951  26.711  -2.262   4.664
    1XTA   CL1114952  26.842  -2.342   4.635
    1XTA   CL1214953  26.840  -2.409   4.500
    1XTA    HL114954  26.927  -2.795   4.515
    1XTA    HL214955  26.819  -2.907   4.447
    1XTA    HL314956  26.980  -2.899   4.386
    1XTA    HL414957  27.311  -2.199   3.547
    1XTA    HL514958  27.426  -2.140   3.681
    1XTA    HL614959  27.520  -2.328   3.452
    1XTA    HL714960  27.607  -2.247   3.577
    1XTA    HL814961  27.469  -2.050   3.460
    1XTA    HL914962  27.467  -2.163   3.333
    1XTA   HL1014963  27.720  -2.053   3.453
    1XTA   HL1114964  27.706  -2.173   3.338
    1XTA   HL1214965  27.596  -2.025   3.175
    1XTA   HL1314966  27.766  -2.004   3.206
    1XTA   HL1414967  27.713  -1.804   3.333
    1XTA   HL1514968  27.635  -1.798   3.164
    1XTA   HL1614969  27.530  -1.632   3.348
    1XTA   HL1714970  27.403  -1.682   3.234
    1XTA   HL1814971  27.275  -1.896   3.411
    1XTA   HL1914972  27.213  -1.794   3.294
    1XTA   HL2014973  27.126  -1.834   3.573
    1XTA   HL2114974  27.028  -1.860   3.445
    1XTA   HL2214975  27.057  -1.683   3.488
    1XTA   HL2314976  27.091  -1.752   4.660
    1XTA   HL2414977  27.022  -1.903   4.631
    1XTA   HL2514978  26.927  -1.645   4.473
    1XTA   HL2614979  26.917  -1.796   4.409
    1XTA   HL2714980  26.810  -1.889   4.636
    1XTA   HL2814981  26.809  -1.722   4.670
    1XTA   HL2914982  26.591  -1.790   4.583
    1XTA   HL3014983  26.675  -1.667   4.467
    1XTA   HL3114984  26.620  -1.836   4.311
    1XTA   HL3214985  26.742  -1.923   4.378
    1XTA   HL3314986  26.466  -1.937   4.482
    1XTA   HL3414987  26.523  -2.062   4.382
    1XTA   HL3514988  26.782  -2.119   4.525
    1XTA   HL3614989  26.663  -2.212   4.456
    1XTA   HL3714990  26.849  -2.417   4.715
    1XTA   HL3814991  26.929  -2.281   4.637
    1XTA   HL3914992  26.815  -2.518   4.503
    1XTA   HL4014993  26.942  -2.418   4.467
    1XTA   HL4114994  26.778  -2.368   4.425
    1XTA    CO814995  27.283  -1.545   3.450
    1XTA    CO914996  27.413  -1.723   3.579
    1XTA    OA614997  27.388  -1.450   3.436
    1XTA   HL4214998  27.242  -1.538   3.559
    1XTA   HL4314999  27.202  -1.529   3.380
    1XTA   HL4415000  26.510  -2.325   4.740
    1XTA   HL4515001  26.636  -2.443   4.760
    1XTA   CO1015002  26.599  -2.365   4.689
    1XTA   CO1115003  26.732  -2.188   4.797
    1XTA    OA715004  26.857  -2.122   4.811
    1XTA   HL4615005  26.652  -2.120   4.822
    1XTA   HL4715006  26.746  -2.250   4.886
    1XTA   HL4815007  27.433  -1.834   3.582
    1XTA   HL4915008  27.516  -1.685   3.571
    1XTA     NT15009  31.781   4.280   2.904
    1XTA    CN115010  31.820   4.185   2.816
    1XTA     C115011  31.955   4.160   2.799
    1XTA     C215012  32.006   4.061   2.713
    1XTA     C315013  31.927   3.984   2.629
    1XTA     C415014  31.785   4.015   2.637
    1XTA     C515015  31.729   4.110   2.735
    1XTA    CN215016  31.706   4.381   2.854
    1XTA     C615017  31.591   4.422   2.929
    1XTA     C715018  31.520   4.528   2.886
    1XTA     C815019  31.570   4.607   2.775
    1XTA     C915020  31.682   4.568   2.707
    1XTA    C1015021  31.755   4.457   2.750
    1XTA    CN315022  31.799   4.249   3.038
    1XTA    C1115023  31.903   4.308   3.111
    1XTA    C1215024  31.920   4.274   3.243
    1XTA    C1315025  31.835   4.185   3.306
    1XTA    C1415026  31.727   4.138   3.237
    1XTA    C1515027  31.715   4.165   3.102
    1XTA     H115028  32.026   4.216   2.855
    1XTA     H215029  32.108   4.047   2.717
    1XTA     H315030  31.718   3.951   2.579
    1XTA     H415031  31.625   4.129   2.754
    1XTA     H515032  31.551   4.368   3.011
    1XTA     H615033  31.433   4.562   2.946
    1XTA     H715034  31.717   4.627   2.631
    1XTA     H815035  31.844   4.419   2.694
    1XTA     H915036  31.979   4.383   3.069
    1XTA    H1015037  32.002   4.310   3.297
    1XTA    H1115038  31.660   4.064   3.274
    1XTA    H1215039  31.627   4.133   3.049
    1XTA    OA115040  31.978   3.892   2.538
    1XTA    CO115041  31.887   3.794   2.505
    1XTA    OA215042  31.502   4.715   2.724
    1XTA    CO215043  31.471   4.820   2.810
    1XTA    CL115044  31.517   4.939   2.743
    1XTA    CL215045  31.664   4.939   2.703
    1XTA    CL315046  31.760   4.930   2.822
    1XTA    CL415047  31.910   4.962   2.785
    1XTA    CO315048  31.944   4.906   2.647
    1XTA    OA315049  32.083   4.930   2.623
    1XTA    CO415050  32.132   4.844   2.520
    1XTA    CT115051  32.284   4.875   2.475
    1XTA    CL515052  32.283   4.991   2.373
    1XTA    CL615053  32.234   5.128   2.420
    1XTA    OA415054  31.856   4.151   3.436
    1XTA    CO515055  31.765   4.080   3.526
    1XTA    CL715056  31.640   4.153   3.558
    1XTA    CL815057  31.547   4.093   3.665
    1XTA    CL915058  31.431   4.181   3.700
    1XTA   CL1015059  31.346   4.123   3.814
    1XTA    CO615060  31.212   4.204   3.836
    1XTA    OA515061  31.247   4.332   3.887
    1XTA    CO715062  31.259   4.326   4.024
    1XTA    CT215063  31.271   4.465   4.088
    1XTA   CL1115064  31.283   4.454   4.247
    1XTA   CL1215065  31.180   4.367   4.321
    1XTA    HL115066  31.818   3.837   2.431
    1XTA    HL215067  31.954   3.721   2.459
    1XTA    HL315068  31.829   3.758   2.591
    1XTA    HL415069  31.360   4.822   2.821
    1XTA    HL515070  31.517   4.805   2.910
    1XTA    HL615071  31.495   5.019   2.810
    1XTA    HL715072  31.463   4.962   2.659
    1XTA    HL815073  31.684   5.035   2.653
    1XTA    HL915074  31.685   4.855   2.635
    1XTA   HL1015075  31.726   4.996   2.904
    1XTA   HL1115076  31.752   4.826   2.856
    1XTA   HL1215077  31.967   4.907   2.863
    1XTA   HL1315078  31.935   5.070   2.805
    1XTA   HL1415079  31.907   4.806   2.622
    1XTA   HL1515080  31.891   4.981   2.577
    1XTA   HL1615081  32.126   4.747   2.565
    1XTA   HL1715082  32.057   4.855   2.438
    1XTA   HL1815083  32.207   4.959   2.306
    1XTA   HL1915084  32.377   4.998   2.315
    1XTA   HL2015085  32.291   5.156   2.514
    1XTA   HL2115086  32.127   5.142   2.441
    1XTA   HL2215087  32.254   5.192   2.338
    1XTA   HL2315088  31.826   4.060   3.614
    1XTA   HL2415089  31.754   3.981   3.485
    1XTA   HL2515090  31.658   4.258   3.591
    1XTA   HL2615091  31.569   4.161   3.471
    1XTA   HL2715092  31.520   4.002   3.620
    1XTA   HL2815093  31.608   4.067   3.748
    1XTA   HL2915094  31.468   4.278   3.720
    1XTA   HL3015095  31.360   4.184   3.614
    1XTA   HL3115096  31.306   4.023   3.786
    1XTA   HL3215097  31.394   4.103   3.910
    1XTA   HL3315098  31.182   4.237   3.738
    1XTA   HL3415099  31.143   4.141   3.895
    1XTA   HL3515100  31.350   4.268   4.033
    1XTA   HL3615101  31.181   4.276   4.076
    1XTA   HL3715102  31.284   4.547   4.295
    1XTA   HL3815103  31.380   4.408   4.261
    1XTA   HL3915104  31.094   4.334   4.267
    1XTA   HL4015105  31.146   4.415   4.413
    1XTA   HL4115106  31.233   4.274   4.337
    1XTA    CO815107  32.333   4.749   2.400
    1XTA    CO915108  32.372   4.895   2.596
    1XTA    OA615109  32.263   4.725   2.320
    1XTA   HL4215110  32.353   4.675   2.473
    1XTA   HL4315111  32.422   4.774   2.338
    1XTA   HL4415112  31.175   4.657   4.076
    1XTA   HL4515113  31.135   4.572   3.912
    1XTA   CO1015114  31.151   4.556   4.053
    1XTA   CO1115115  31.394   4.535   4.030
    1XTA    OA715116  31.396   4.562   3.919
    1XTA   HL4615117  31.396   4.621   4.095
    1XTA   HL4715118  31.486   4.468   4.045
    1XTA   HL4815119  32.304   4.978   2.692
    1XTA   HL4915120  32.399   4.804   2.646
    1XTA     NT15121  32.716   4.585   4.393
    1XTA    CN115122  32.803   4.486   4.363
    1XTA     C115123  32.932   4.501   4.308
    1XTA     C215124  33.019   4.392   4.291
    1XTA     C315125  32.974   4.264   4.344
    1XTA     C415126  32.850   4.253   4.400
    1XTA     C515127  32.764   4.364   4.408
    1XTA    CN215128  32.639   4.633   4.292
    1XTA     C615129  32.663   4.750   4.230
    1XTA     C715130  32.574   4.809   4.141
    1XTA     C815131  32.453   4.751   4.111
    1XTA     C915132  32.422   4.630   4.180
    1XTA    C1015133  32.516   4.570   4.265
    1XTA    CN315134  32.721   4.646   4.509
    1XTA    C1115135  32.822   4.739   4.542
    1XTA    C1215136  32.831   4.790   4.672
    1XTA    C1315137  32.734   4.760   4.766
    1XTA    C1415138  32.627   4.673   4.734
    1XTA    C1515139  32.629   4.615   4.608
    1XTA     H115140  32.964   4.597   4.273
    1XTA     H215141  33.103   4.410   4.236
    1XTA     H315142  32.804   4.153   4.433
    1XTA     H415143  32.661   4.348   4.452
    1XTA     H515144  32.762   4.799   4.244
    1XTA     H615145  32.608   4.893   4.090
    1XTA     H715146  32.329   4.577   4.160
    1XTA     H815147  32.502   4.481   4.318
    1XTA     H915148  32.883   4.779   4.471
    1XTA    H1015149  32.911   4.860   4.700
    1XTA    H1115150  32.549   4.649   4.801
    1XTA    H1215151  32.552   4.540   4.601
    1XTA    OA115152  33.045   4.148   4.338
    1XTA    CO115153  33.179   4.151   4.309
    1XTA    OA215154  32.374   4.805   4.011
    1XTA    CO215155  32.237   4.775   4.011
    1XTA    CL115156  32.151   4.887   3.948
    1XTA    CL215157  32.139   5.001   4.047
    1XTA    CL315158  32.007   5.067   4.044
    1XTA    CL415159  31.979   5.150   3.916
    1XTA    CO315160  31.843   5.224   3.922
    1XTA    OA315161  31.797   5.279   3.796
    1XTA    CO415162  31.744   5.179   3.709
    1XTA    CT115163  31.726   5.226   3.555
    1XTA    CL515164  31.651   5.367   3.546
    1XTA    CL615165  31.636   5.434   3.408
    1XTA    OA415166  32.730   4.818   4.891
    1XTA    CO515167  32.816   4.924   4.928
    1XTA    CL715168  32.763   5.056   4.881
    1XTA    CL815169  32.633   5.102   4.953
    1XTA    CL915170  32.521   5.128   4.864
    1XTA   CL1015171  32.441   4.998   4.827
    1XTA    CO615172  32.291   5.031   4.778
    1XTA    OA515173  32.221   5.084   4.888
    1XTA    CO715174  32.088   5.090   4.855
    1XTA    CT215175  31.999   5.190   4.939
    1XTA   CL1115176  31.968   5.124   5.079
    1XTA   CL1215177  31.892   5.201   5.186
    1XTA    HL115178  33.192   4.172   4.205
    1XTA    HL215179  33.224   4.234   4.367
    1XTA    HL315180  33.226   4.053   4.323
    1XTA    HL415181  32.217   4.678   3.958
    1XTA    HL515182  32.217   4.769   4.126
    1XTA    HL615183  32.058   4.848   3.918
    1XTA    HL715184  32.191   4.922   3.852
    1XTA    HL815185  32.227   5.048   4.032
    1XTA    HL915186  32.140   4.971   4.153
    1XTA   HL1015187  31.928   5.002   4.070
    1XTA   HL1115188  31.999   5.129   4.132
    1XTA   HL1215189  31.985   5.094   3.825
    1XTA   HL1315190  32.070   5.214   3.901
    1XTA   HL1415191  31.767   5.148   3.955
    1XTA   HL1515192  31.860   5.312   3.986
    1XTA   HL1615193  31.815   5.097   3.714
    1XTA   HL1715194  31.651   5.151   3.757
    1XTA   HL1815195  31.709   5.442   3.600
    1XTA   HL1915196  31.563   5.367   3.612
    1XTA   HL2015197  31.731   5.481   3.387
    1XTA   HL2115198  31.569   5.513   3.419
    1XTA   HL2215199  31.607   5.366   3.325
    1XTA   HL2315200  32.921   4.902   4.898
    1XTA   HL2415201  32.815   4.911   5.035
    1XTA   HL2515202  32.837   5.132   4.896
    1XTA   HL2615203  32.744   5.059   4.772
    1XTA   HL2715204  32.617   5.036   5.028
    1XTA   HL2815205  32.657   5.203   4.998
    1XTA   HL2915206  32.465   5.187   4.937
    1XTA   HL3015207  32.550   5.193   4.781
    1XTA   HL3115208  32.494   4.939   4.751
    1XTA   HL3215209  32.429   4.930   4.916
    1XTA   HL3315210  32.302   5.106   4.703
    1XTA   HL3415211  32.241   4.941   4.739
    1XTA   HL3515212  32.051   4.989   4.867
    1XTA   HL3615213  32.059   5.105   4.750
    1XTA   HL3715214  32.060   5.095   5.124
    1XTA   HL3815215  31.920   5.024   5.061
    1XTA   HL3915216  31.916   5.297   5.210
    1XTA   HL4015217  31.908   5.141   5.281
    1XTA   HL4115218  31.785   5.198   5.166
    1XTA    CO815219  31.654   5.124   3.467
    1XTA    CO915220  31.867   5.232   3.501
    1XTA    OA615221  31.906   5.132   3.491
    1XTA   HL4215222  31.674   5.149   3.360
    1XTA   HL4315223  31.718   4.996   3.482
    1XTA   HL4415224  31.886   5.238   4.778
    1XTA   HL4515225  31.781   5.316   4.935
    1XTA   CO1015226  31.859   5.205   4.874
    1XTA   CO1115227  32.061   5.326   4.961
    1XTA    OA715228  32.094   5.371   4.866
    1XTA   HL4615229  31.988   5.392   5.010
    1XTA   HL4715230  32.147   5.315   5.023
    1XTA   HL4815231  31.930   5.300   3.560
    1XTA   HL4915232  31.865   5.270   3.404
    1XTA     NT15233  25.653   0.516   5.284
    1XTA    CN115234  25.726   0.405   5.261
    1XTA     C115235  25.720   0.336   5.135
    1XTA     C215236  25.819   0.239   5.099
    1XTA     C315237  25.922   0.214   5.195
    1XTA     C415238  25.923   0.268   5.323
    1XTA     C515239  25.828   0.371   5.355
    1XTA    CN215240  25.567   0.530   5.393
    1XTA     C615241  25.623   0.581   5.509
    1XTA     C715242  25.541   0.610   5.618
    1XTA     C815243  25.409   0.564   5.619
    1XTA     C915244  25.352   0.503   5.505
    1XTA    C1015245  25.428   0.494   5.388
    1XTA    CN315246  25.666   0.623   5.198
    1XTA    C1115247  25.558   0.652   5.118
    1XTA    C1215248  25.567   0.764   5.031
    1XTA    C1315249  25.684   0.840   5.015
    1XTA    C1415250  25.794   0.800   5.101
    1XTA    C1515251  25.782   0.699   5.191
    1XTA     H115252  25.648   0.366   5.059
    1XTA     H215253  25.809   0.190   5.002
    1XTA     H315254  25.991   0.241   5.407
    1XTA     H415255  25.834   0.417   5.453
    1XTA     H515256  25.727   0.609   5.512
    1XTA     H615257  25.591   0.653   5.703
    1XTA     H715258  25.251   0.468   5.505
    1XTA     H815259  25.379   0.460   5.299
    1XTA     H915260  25.469   0.591   5.133
    1XTA    H1015261  25.478   0.796   4.970
    1XTA    H1115262  25.888   0.861   5.097
    1XTA    H1215263  25.860   0.672   5.257
    1XTA    OA115264  26.014   0.119   5.166
    1XTA    CO115265  26.042   0.101   5.024
    1XTA    OA215266  25.323   0.569   5.723
    1XTA    CO215267  25.381   0.607   5.846
    1XTA    CL115268  25.293   0.594   5.973
    1XTA    CL215269  25.380   0.614   6.104
    1XTA    CL315270  25.425   0.754   6.138
    1XTA    CL415271  25.529   0.763   6.243
    1XTA    CO315272  25.534   0.894   6.311
    1XTA    OA315273  25.545   0.990   6.211
    1XTA    CO415274  25.489   1.111   6.259
    1XTA    CT115275  25.516   1.239   6.161
    1XTA    CL515276  25.657   1.294   6.185
    1XTA    CL615277  25.768   1.197   6.171
    1XTA    OA415278  25.683   0.962   4.951
    1XTA    CO515279  25.803   1.029   4.920
    1XTA    CL715280  25.774   1.185   4.916
    1XTA    CL815281  25.765   1.238   5.064
    1XTA    CL915282  25.781   1.390   5.070
    1XTA   CL1015283  25.895   1.426   5.169
    1XTA    CO615284  26.037   1.391   5.119
    1XTA    OA515285  26.094   1.303   5.211
    1XTA    CO715286  26.213   1.233   5.166
    1XTA    CT215287  26.254   1.126   5.279
    1XTA   CL1115288  26.307   1.204   5.404
    1XTA   CL1215289  26.446   1.273   5.384
    1XTA    HL115290  26.046   0.198   4.971
    1XTA    HL215291  26.133   0.036   5.022
    1XTA    HL315292  25.971   0.028   4.989
    1XTA    HL415293  25.465   0.545   5.859
    1XTA    HL515294  25.439   0.696   5.841
    1XTA    HL615295  25.245   0.491   5.966
    1XTA    HL715296  25.212   0.667   5.979
    1XTA    HL815297  25.459   0.542   6.083
    1XTA    HL915298  25.319   0.573   6.187
    1XTA   HL1015299  25.461   0.814   6.053
    1XTA   HL1115300  25.341   0.803   6.176
    1XTA   HL1215301  25.627   0.749   6.205
    1XTA   HL1315302  25.514   0.686   6.313
    1XTA   HL1415303  25.450   0.910   6.373
    1XTA   HL1515304  25.627   0.900   6.372
    1XTA   HL1615305  25.384   1.085   6.256
    1XTA   HL1715306  25.511   1.123   6.367
    1XTA   HL1815307  25.656   1.339   6.285
    1XTA   HL1915308  25.687   1.380   6.124
    1XTA   HL2015309  25.772   1.160   6.064
    1XTA   HL2115310  25.755   1.112   6.234
    1XTA   HL2215311  25.868   1.237   6.187
    1XTA   HL2315312  25.844   1.001   4.822
    1XTA   HL2415313  25.878   1.016   4.995
    1XTA   HL2515314  25.867   1.231   4.882
    1XTA   HL2615315  25.688   1.203   4.854
    1XTA   HL2715316  25.677   1.209   5.115
    1XTA   HL2815317  25.849   1.195   5.111
    1XTA   HL2915318  25.806   1.436   4.972
    1XTA   HL3015319  25.683   1.437   5.096
    1XTA   HL3115320  25.887   1.539   5.202
    1XTA   HL3215321  25.870   1.365   5.260
    1XTA   HL3315322  26.036   1.345   5.021
    1XTA   HL3415323  26.111   1.476   5.108
    1XTA   HL3515324  26.297   1.297   5.142
    1XTA   HL3615325  26.194   1.181   5.071
    1XTA   HL3715326  26.338   1.137   5.490
    1XTA   HL3815327  26.231   1.270   5.449
    1XTA   HL3915328  26.461   1.334   5.472
    1XTA   HL4015329  26.443   1.340   5.307
    1XTA   HL4115330  26.538   1.212   5.389
    1XTA    CO815331  25.399   1.343   6.187
    1XTA    CO915332  25.502   1.199   6.011
    1XTA    OA615333  25.271   1.287   6.174
    1XTA   HL4215334  25.406   1.416   6.105
    1XTA   HL4315335  25.404   1.397   6.286
    1XTA   HL4415336  26.300   0.935   5.130
    1XTA   HL4515337  26.391   0.979   5.305
    1XTA   CO1015338  26.355   1.031   5.218
    1XTA   CO1115339  26.124   1.043   5.303
    1XTA    OA715340  26.042   1.095   5.359
    1XTA   HL4615341  26.079   1.019   5.209
    1XTA   HL4715342  26.166   0.963   5.357
    1XTA   HL4815343  25.582   1.129   6.010
    1XTA   HL4915344  25.407   1.154   5.984
    1XTA     NT15345  24.706   4.663   0.741
    1XTA    CN115346  24.584   4.700   0.711
    1XTA     C115347  24.483   4.703   0.810
    1XTA     C215348  24.346   4.725   0.779
    1XTA     C315349  24.305   4.733   0.644
    1XTA     C415350  24.405   4.744   0.548
    1XTA     C515351  24.538   4.709   0.576
    1XTA    CN215352  24.730   4.573   0.837
    1XTA     C615353  24.760   4.623   0.970
    1XTA     C715354  24.799   4.537   1.070
    1XTA     C815355  24.811   4.400   1.037
    1XTA     C915356  24.770   4.348   0.906
    1XTA    C1015357  24.733   4.432   0.809
    1XTA    CN315358  24.807   4.752   0.714
    1XTA    C1115359  24.917   4.707   0.646
    1XTA    C1215360  25.034   4.782   0.647
    1XTA    C1315361  25.042   4.917   0.700
    1XTA    C1415362  24.927   4.965   0.763
    1XTA    C1515363  24.810   4.880   0.768
    1XTA     H115364  24.504   4.688   0.916
    1XTA     H215365  24.268   4.708   0.855
    1XTA     H315366  24.369   4.751   0.450
    1XTA     H415367  24.613   4.687   0.499
    1XTA     H515368  24.753   4.733   0.992
    1XTA     H615369  24.810   4.571   1.174
    1XTA     H715370  24.773   4.240   0.884
    1XTA     H815371  24.702   4.400   0.711
    1XTA     H915372  24.909   4.604   0.610
    1XTA    H1015373  25.128   4.745   0.610
    1XTA    H1115374  24.922   5.060   0.821
    1XTA    H1215375  24.729   4.911   0.835
    1XTA    OA115376  24.172   4.748   0.600
    1XTA    CO115377  24.073   4.722   0.696
    1XTA    OA215378  24.841   4.301   1.128
    1XTA    CO215379  24.937   4.336   1.222
    1XTA    CL115380  24.965   4.217   1.317
    1XTA    CL215381  24.840   4.165   1.377
    1XTA    CL315382  24.786   4.254   1.495
    1XTA    CL415383  24.676   4.355   1.458
    1XTA    CO315384  24.606   4.424   1.578
    1XTA    OA315385  24.597   4.322   1.674
    1XTA    CO415386  24.553   4.373   1.800
    1XTA    CT115387  24.665   4.356   1.905
    1XTA    CL515388  24.623   4.429   2.040
    1XTA    CL615389  24.494   4.364   2.115
    1XTA    OA415390  25.151   5.002   0.699
    1XTA    CO515391  25.268   4.934   0.653
    1XTA    CL715392  25.379   5.039   0.650
    1XTA    CL815393  25.420   5.102   0.778
    1XTA    CL915394  25.544   5.188   0.762
    1XTA   CL1015395  25.523   5.312   0.678
    1XTA    CO615396  25.649   5.375   0.629
    1XTA    OA515397  25.620   5.480   0.533
    1XTA    CO715398  25.746   5.541   0.489
    1XTA    CT215399  25.720   5.625   0.364
    1XTA   CL1115400  25.851   5.674   0.309
    1XTA   CL1215401  25.944   5.760   0.389
    1XTA    HL115402  24.080   4.621   0.744
    1XTA    HL215403  24.069   4.790   0.772
    1XTA    HL315404  23.979   4.709   0.645
    1XTA    HL415405  25.038   4.352   1.177
    1XTA    HL515406  24.907   4.426   1.279
    1XTA    HL615407  25.037   4.244   1.395
    1XTA    HL715408  25.015   4.136   1.263
    1XTA    HL815409  24.877   4.075   1.423
    1XTA    HL915410  24.765   4.133   1.308
    1XTA   HL1015411  24.751   4.191   1.574
    1XTA   HL1115412  24.859   4.312   1.548
    1XTA   HL1215413  24.611   4.302   1.393
    1XTA   HL1315414  24.708   4.432   1.397
    1XTA   HL1415415  24.675   4.503   1.607
    1XTA   HL1515416  24.502   4.469   1.560
    1XTA   HL1615417  24.530   4.472   1.797
    1XTA   HL1715418  24.466   4.318   1.835
    1XTA   HL1815419  24.604   4.528   2.027
    1XTA   HL1915420  24.710   4.430   2.113
    1XTA   HL2015421  24.396   4.395   2.072
    1XTA   HL2115422  24.507   4.399   2.216
    1XTA   HL2215423  24.495   4.258   2.092
    1XTA   HL2315424  25.255   4.892   0.555
    1XTA   HL2415425  25.290   4.850   0.722
    1XTA   HL2515426  25.469   5.004   0.605
    1XTA   HL2615427  25.338   5.122   0.588
    1XTA   HL2715428  25.337   5.161   0.813
    1XTA   HL2815429  25.439   5.023   0.851
    1XTA   HL2915430  25.582   5.214   0.860
    1XTA   HL3015431  25.617   5.114   0.716
    1XTA   HL3115432  25.466   5.311   0.587
    1XTA   HL3215433  25.468   5.388   0.734
    1XTA   HL3315434  25.699   5.404   0.715
    1XTA   HL3415435  25.711   5.300   0.579
    1XTA   HL3515436  25.804   5.460   0.449
    1XTA   HL3615437  25.797   5.600   0.573
    1XTA   HL3715438  25.831   5.726   0.214
    1XTA   HL3815439  25.898   5.579   0.286
    1XTA   HL3915440  25.902   5.861   0.414
    1XTA   HL4015441  26.026   5.779   0.320
    1XTA   HL4115442  25.985   5.708   0.482
    1XTA    CO815443  24.794   4.425   1.854
    1XTA    CO915444  24.700   4.209   1.929
    1XTA    OA615445  24.775   4.525   1.817
    1XTA   HL4215446  24.844   4.366   1.778
    1XTA   HL4315447  24.859   4.433   1.944
    1XTA   HL4415448  25.552   5.736   0.467
    1XTA   HL4515449  25.703   5.812   0.478
    1XTA   CO1015450  25.637   5.753   0.410
    1XTA   CO1115451  25.638   5.542   0.259
    1XTA    OA715452  25.593   5.834   0.298
    1XTA   HL4615453  25.627   5.622   0.183
    1XTA   HL4715454  25.537   5.521   0.302
    1XTA   HL4815455  24.609   4.121   1.877
    1XTA   HL4915456  24.690   4.181   2.036
    1XTA     NT15457  26.663  -0.472   4.115
    1XTA    CN115458  26.550  -0.398   4.130
    1XTA     C115459  26.498  -0.382   4.263
    1XTA     C215460  26.363  -0.339   4.281
    1XTA     C315461  26.290  -0.303   4.171
    1XTA     C415462  26.349  -0.302   4.038
    1XTA     C515463  26.474  -0.359   4.020
    1XTA    CN215464  26.778  -0.404   4.093
    1XTA     C615465  26.884  -0.467   4.030
    1XTA     C715466  27.007  -0.411   4.026
    1XTA     C815467  27.030  -0.288   4.082
    1XTA     C915468  26.927  -0.222   4.146
    1XTA    C1015469  26.804  -0.281   4.153
    1XTA    CN315470  26.656  -0.601   4.121
    1XTA    C1115471  26.695  -0.657   4.240
    1XTA    C1215472  26.705  -0.792   4.255
    1XTA    C1315473  26.685  -0.874   4.143
    1XTA    C1415474  26.647  -0.822   4.022
    1XTA    C1515475  26.642  -0.684   4.004
    1XTA     H115476  26.563  -0.401   4.347
    1XTA     H215477  26.326  -0.324   4.374
    1XTA     H315478  26.289  -0.273   3.954
    1XTA     H415479  26.499  -0.377   3.921
    1XTA     H515480  26.873  -0.561   3.974
    1XTA     H615481  27.080  -0.476   3.981
    1XTA     H715482  26.940  -0.121   4.202
    1XTA     H815483  26.717  -0.229   4.198
    1XTA     H915484  26.719  -0.588   4.319
    1XTA    H1015485  26.750  -0.826   4.347
    1XTA    H1115486  26.646  -0.894   3.941
    1XTA    H1215487  26.617  -0.641   3.907
    1XTA    OA115488  26.166  -0.251   4.191
    1XTA    CO115489  26.079  -0.320   4.286
    1XTA    OA215490  27.156  -0.232   4.075
    1XTA    CO215491  27.188  -0.123   4.160
    1XTA    CL115492  27.338  -0.134   4.192
    1XTA    CL215493  27.388  -0.017   4.272
    1XTA    CL315494  27.539  -0.009   4.256
    1XTA    CL415495  27.588   0.142   4.255
    1XTA    CO315496  27.555   0.211   4.131
    1XTA    OA315497  27.602   0.145   4.018
    1XTA    CO415498  27.504   0.151   3.919
    1XTA    CT115499  27.556   0.107   3.783
    1XTA    CL515500  27.590   0.224   3.686
    1XTA    CL615501  27.710   0.303   3.728
    1XTA    OA415502  26.709  -1.011   4.141
    1XTA    CO515503  26.690  -1.087   4.259
    1XTA    CL715504  26.550  -1.152   4.247
    1XTA    CL815505  26.528  -1.254   4.355
    1XTA    CL915506  26.618  -1.377   4.348
    1XTA   CL1015507  26.622  -1.457   4.219
    1XTA    CO615508  26.754  -1.538   4.208
    1XTA    OA515509  26.865  -1.460   4.233
    1XTA    CO715510  26.990  -1.514   4.193
    1XTA    CT215511  27.092  -1.402   4.192
    1XTA   CL1115512  27.049  -1.275   4.120
    1XTA   CL1215513  27.025  -1.278   3.972
    1XTA    HL115514  26.100  -0.305   4.393
    1XTA    HL215515  25.976  -0.294   4.264
    1XTA    HL315516  26.083  -0.430   4.276
    1XTA    HL415517  27.165  -0.029   4.121
    1XTA    HL515518  27.128  -0.130   4.252
    1XTA    HL615519  27.382  -0.130   4.092
    1XTA    HL715520  27.358  -0.237   4.223
    1XTA    HL815521  27.356  -0.007   4.375
    1XTA    HL915522  27.346   0.076   4.240
    1XTA   HL1015523  27.583  -0.056   4.344
    1XTA   HL1115524  27.592  -0.062   4.176
    1XTA   HL1215525  27.694   0.148   4.275
    1XTA   HL1315526  27.536   0.184   4.341
    1XTA   HL1415527  27.447   0.212   4.138
    1XTA   HL1515528  27.571   0.319   4.136
    1XTA   HL1615529  27.416   0.106   3.951
    1XTA   HL1715530  27.484   0.257   3.908
    1XTA   HL1815531  27.504   0.293   3.680
    1XTA   HL1915532  27.612   0.183   3.585
    1XTA   HL2015533  27.733   0.374   3.656
    1XTA   HL2115534  27.791   0.238   3.721
    1XTA   HL2215535  27.709   0.344   3.829
    1XTA   HL2315536  26.711  -1.019   4.347
    1XTA   HL2415537  26.757  -1.172   4.271
    1XTA   HL2515538  26.464  -1.078   4.255
    1XTA   HL2615539  26.542  -1.192   4.148
    1XTA   HL2715540  26.537  -1.200   4.451
    1XTA   HL2815541  26.419  -1.278   4.352
    1XTA   HL2915542  26.717  -1.341   4.363
    1XTA   HL3015543  26.598  -1.441   4.433
    1XTA   HL3115544  26.529  -1.514   4.214
    1XTA   HL3215545  26.612  -1.382   4.138
    1XTA   HL3315546  26.759  -1.619   4.277
    1XTA   HL3415547  26.770  -1.591   4.110
    1XTA   HL3515548  26.992  -1.557   4.094
    1XTA   HL3615549  27.010  -1.583   4.277
    1XTA   HL3715550  27.138  -1.207   4.130
    1XTA   HL3815551  26.969  -1.226   4.173
    1XTA   HL3915552  26.944  -1.345   3.966
    1XTA   HL4015553  27.112  -1.314   3.917
    1XTA   HL4115554  26.986  -1.185   3.923
    1XTA    CO815555  27.479  -0.003   3.719
    1XTA    CO915556  27.673   0.007   3.795
    1XTA    OA615557  27.595  -0.081   3.717
    1XTA   HL4215558  27.434   0.035   3.625
    1XTA   HL4315559  27.393  -0.032   3.783
    1XTA   HL4415560  27.298  -1.366   4.141
    1XTA   HL4515561  27.266  -1.541   4.193
    1XTA   CO1015562  27.225  -1.453   4.134
    1XTA   CO1115563  27.130  -1.363   4.338
    1XTA    OA715564  27.208  -1.479   4.030
    1XTA   HL4615565  27.241  -1.442   4.373
    1XTA   HL4715566  27.181  -1.259   4.342
    1XTA   HL4815567  27.697  -0.037   3.896
    1XTA   HL4915568  27.755   0.054   3.742
    1XTA     NT15569  27.879  -2.013   2.245
    1XTA    CN115570  27.820  -2.126   2.291
    1XTA     C115571  27.719  -2.183   2.214
    1XTA     C215572  27.660  -2.307   2.253
    1XTA     C315573  27.691  -2.365   2.373
    1XTA     C415574  27.799  -2.308   2.449
    1XTA     C515575  27.865  -2.190   2.408
    1XTA    CN215576  28.015  -2.008   2.238
    1XTA     C615577  28.076  -2.048   2.115
    1XTA     C715578  28.215  -2.022   2.106
    1XTA     C815579  28.283  -1.950   2.203
    1XTA     C915580  28.221  -1.923   2.326
    1XTA    C1015581  28.091  -1.965   2.349
    1XTA    CN315582  27.834  -1.886   2.267
    1XTA    C1115583  27.829  -1.793   2.165
    1XTA    C1215584  27.788  -1.664   2.183
    1XTA    C1315585  27.770  -1.616   2.313
    1XTA    C1415586  27.767  -1.706   2.423
    1XTA    C1515587  27.799  -1.840   2.398
    1XTA     H115588  27.690  -2.135   2.122
    1XTA     H215589  27.580  -2.346   2.192
    1XTA     H315590  27.844  -2.340   2.540
    1XTA     H415591  27.943  -2.154   2.470
    1XTA     H515592  28.010  -2.096   2.043
    1XTA     H615593  28.268  -2.051   2.015
    1XTA     H715594  28.273  -1.870   2.408
    1XTA     H815595  28.044  -1.944   2.450
    1XTA     H915596  27.843  -1.827   2.065
    1XTA    H1015597  27.783  -1.598   2.099
    1XTA    H1115598  27.742  -1.679   2.525
    1XTA    H1215599  27.811  -1.910   2.476
    1XTA    OA115600  27.625  -2.478   2.413
    1XTA    CO115601  27.674  -2.547   2.531
    1XTA    OA215602  28.419  -1.938   2.193
    1XTA    CO215603  28.471  -1.808   2.230
    1XTA    CL115604  28.602  -1.850   2.302
    1XTA    CL215605  28.684  -1.737   2.375
    1XTA    CL315606  28.814  -1.787   2.434
    1XTA    CL415607  28.804  -1.869   2.565
    1XTA    CO315608  28.933  -1.946   2.591
    1XTA    OA315609  29.035  -1.852   2.565
    1XTA    CO415610  29.148  -1.918   2.517
    1XTA    CT115611  29.257  -1.823   2.479
    1XTA    CL515612  29.201  -1.719   2.384
    1XTA    CL615613  29.161  -1.783   2.246
    1XTA    OA415614  27.757  -1.481   2.333
    1XTA    CO515615  27.810  -1.422   2.455
    1XTA    CL715616  27.756  -1.281   2.478
    1XTA    CL815617  27.799  -1.169   2.377
    1XTA    CL915618  27.947  -1.156   2.371
    1XTA   CL1015619  27.988  -1.091   2.242
    1XTA    CO615620  28.121  -1.144   2.177
    1XTA    OA515621  28.110  -1.288   2.141
    1XTA    CO715622  28.011  -1.318   2.044
    1XTA    CT215623  28.065  -1.406   1.922
    1XTA   CL1115624  28.201  -1.355   1.866
    1XTA   CL1215625  28.326  -1.393   1.948
    1XTA    HL115626  27.698  -2.480   2.616
    1XTA    HL215627  27.586  -2.603   2.560
    1XTA    HL315628  27.759  -2.616   2.506
    1XTA    HL415629  28.498  -1.735   2.151
    1XTA    HL515630  28.396  -1.753   2.291
    1XTA    HL615631  28.664  -1.898   2.229
    1XTA    HL715632  28.574  -1.918   2.385
    1XTA    HL815633  28.625  -1.690   2.446
    1XTA    HL915634  28.722  -1.664   2.296
    1XTA   HL1015635  28.857  -1.855   2.353
    1XTA   HL1115636  28.882  -1.701   2.444
    1XTA   HL1215637  28.716  -1.939   2.562
    1XTA   HL1315638  28.801  -1.789   2.630
    1XTA   HL1415639  28.942  -1.989   2.694
    1XTA   HL1515640  28.930  -2.011   2.510
    1XTA   HL1615641  29.190  -1.987   2.601
    1XTA   HL1715642  29.101  -1.978   2.435
    1XTA   HL1815643  29.261  -1.632   2.372
    1XTA   HL1915644  29.104  -1.687   2.432
    1XTA   HL2015645  29.097  -1.872   2.258
    1XTA   HL2115646  29.248  -1.799   2.182
    1XTA   HL2215647  29.098  -1.706   2.204
    1XTA   HL2315648  27.920  -1.432   2.438
    1XTA   HL2415649  27.777  -1.471   2.542
    1XTA   HL2515650  27.647  -1.287   2.482
    1XTA   HL2615651  27.779  -1.259   2.585
    1XTA   HL2715652  27.759  -1.203   2.281
    1XTA   HL2815653  27.758  -1.078   2.409
    1XTA   HL2915654  27.987  -1.109   2.453
    1XTA   HL3015655  27.983  -1.259   2.369
    1XTA   HL3115656  27.912  -1.093   2.172
    1XTA   HL3215657  28.000  -0.986   2.253
    1XTA   HL3315658  28.151  -1.076   2.090
    1XTA   HL3415659  28.212  -1.133   2.239
    1XTA   HL3515660  27.972  -1.230   1.996
    1XTA   HL3615661  27.937  -1.363   2.099
    1XTA   HL3715662  28.193  -1.244   1.862
    1XTA   HL3815663  28.214  -1.392   1.763
    1XTA   HL3915664  28.320  -1.346   2.044
    1XTA   HL4015665  28.406  -1.347   1.889
    1XTA   HL4115666  28.350  -1.499   1.961
    1XTA    CO815667  29.362  -1.906   2.414
    1XTA    CO915668  29.316  -1.760   2.611
    1XTA    OA615669  29.425  -1.992   2.508
    1XTA   HL4215670  29.436  -1.840   2.372
    1XTA   HL4315671  29.323  -1.970   2.337
    1XTA   HL4415672  27.987  -1.452   1.720
    1XTA   HL4515673  27.867  -1.433   1.833
    1XTA   CO1015674  27.961  -1.391   1.802
    1XTA   CO1115675  28.073  -1.560   1.969
    1XTA    OA715676  27.967  -1.282   1.767
    1XTA   HL4615677  28.168  -1.572   2.072
    1XTA   HL4715678  27.979  -1.590   2.018
    1XTA   HL4815679  29.246  -1.701   2.668
    1XTA   HL4915680  29.355  -1.844   2.673
    1XTA     NT15681  26.387  -3.278   2.059
    1XTA    CN115682  26.257  -3.258   2.030
    1XTA     C115683  26.199  -3.276   1.903
    1XTA     C215684  26.060  -3.256   1.885
    1XTA     C315685  25.986  -3.190   1.983
    1XTA     C415686  26.036  -3.187   2.112
    1XTA     C515687  26.170  -3.219   2.133
    1XTA    CN215688  26.444  -3.388   2.016
    1XTA     C615689  26.488  -3.400   1.887
    1XTA     C715690  26.556  -3.525   1.850
    1XTA     C815691  26.599  -3.619   1.942
    1XTA     C915692  26.565  -3.593   2.078
    1XTA    C1015693  26.483  -3.478   2.111
    1XTA    CN315694  26.462  -3.177   2.107
    1XTA    C1115695  26.455  -3.052   2.053
    1XTA    C1215696  26.531  -2.947   2.103
    1XTA    C1315697  26.610  -2.962   2.218
    1XTA    C1415698  26.613  -3.087   2.280
    1XTA    C1515699  26.543  -3.195   2.220
    1XTA     H115700  26.254  -3.313   1.822
    1XTA     H215701  26.025  -3.275   1.784
    1XTA     H315702  25.984  -3.148   2.196
    1XTA     H415703  26.213  -3.207   2.229
    1XTA     H515704  26.480  -3.316   1.821
    1XTA     H615705  26.602  -3.542   1.749
    1XTA     H715706  26.597  -3.657   2.161
    1XTA     H815707  26.445  -3.469   2.213
    1XTA     H915708  26.391  -3.032   1.972
    1XTA    H1015709  26.536  -2.859   2.046
    1XTA    H1115710  26.664  -3.107   2.368
    1XTA    H1215711  26.540  -3.289   2.279
    1XTA    OA115712  25.853  -3.152   1.964
    1XTA    CO115713  25.788  -3.198   1.843
    1XTA    OA215714  26.689  -3.713   1.904
    1XTA    CO215715  26.714  -3.817   1.997
    1XTA    CL115716  26.763  -3.953   1.944
    1XTA    CL215717  26.908  -3.933   1.913
    1XTA    CL315718  26.969  -4.059   1.849
    1XTA    CL415719  27.101  -4.030   1.784
    1XTA    CO315720  27.208  -3.992   1.883
    1XTA    OA315721  27.174  -3.867   1.943
    1XTA    CO415722  27.198  -3.756   1.851
    1XTA    CT115723  27.231  -3.628   1.931
    1XTA    CL515724  27.352  -3.647   2.019
    1XTA    CL615725  27.487  -3.663   1.937
    1XTA    OA415726  26.679  -2.863   2.278
    1XTA    CO515727  26.741  -2.879   2.398
    1XTA    CL715728  26.786  -2.741   2.448
    1XTA    CL815729  26.854  -2.764   2.588
    1XTA    CL915730  26.861  -2.644   2.682
    1XTA   CL1015731  26.799  -2.507   2.639
    1XTA    CO615732  26.903  -2.423   2.565
    1XTA    OA515733  26.855  -2.289   2.556
    1XTA    CO715734  26.944  -2.221   2.468
    1XTA    CT215735  26.917  -2.069   2.479
    1XTA   CL1115736  26.772  -2.039   2.452
    1XTA   CL1215737  26.713  -2.108   2.337
    1XTA    HL115738  25.824  -3.181   1.739
    1XTA    HL215739  25.793  -3.309   1.841
    1XTA    HL315740  25.683  -3.152   1.843
    1XTA    HL415741  26.782  -3.777   2.072
    1XTA    HL515742  26.619  -3.837   2.043
    1XTA    HL615743  26.705  -3.979   1.855
    1XTA    HL715744  26.754  -4.035   2.022
    1XTA    HL815745  26.956  -3.899   2.004
    1XTA    HL915746  26.920  -3.851   1.850
    1XTA   HL1015747  26.977  -4.145   1.914
    1XTA   HL1115748  26.905  -4.096   1.766
    1XTA   HL1215749  27.094  -3.947   1.718
    1XTA   HL1315750  27.136  -4.117   1.733
    1XTA   HL1415751  27.229  -4.064   1.959
    1XTA   HL1515752  27.300  -3.973   1.832
    1XTA   HL1615753  27.284  -3.778   1.780
    1XTA   HL1715754  27.112  -3.734   1.791
    1XTA   HL1815755  27.339  -3.742   2.074
    1XTA   HL1915756  27.357  -3.570   2.098
    1XTA   HL2015757  27.573  -3.686   2.003
    1XTA   HL2115758  27.510  -3.569   1.882
    1XTA   HL2215759  27.477  -3.745   1.860
    1XTA   HL2315760  26.818  -2.955   2.395
    1XTA   HL2415761  26.667  -2.912   2.470
    1XTA   HL2515762  26.852  -2.679   2.378
    1XTA   HL2615763  26.699  -2.680   2.453
    1XTA   HL2715764  26.804  -2.846   2.640
    1XTA   HL2815765  26.957  -2.796   2.578
    1XTA   HL2915766  26.815  -2.656   2.783
    1XTA   HL3015767  26.967  -2.627   2.719
    1XTA   HL3115768  26.708  -2.533   2.589
    1XTA   HL3215769  26.763  -2.452   2.725
    1XTA   HL3315770  26.991  -2.416   2.624
    1XTA   HL3415771  26.926  -2.466   2.463
    1XTA   HL3515772  26.938  -2.261   2.373
    1XTA   HL3615773  27.047  -2.238   2.501
    1XTA   HL3715774  26.764  -1.934   2.429
    1XTA   HL3815775  26.713  -2.061   2.542
    1XTA   HL3915776  26.763  -2.096   2.240
    1XTA   HL4015777  26.614  -2.057   2.319
    1XTA   HL4115778  26.704  -2.212   2.357
    1XTA    CO815779  27.107  -3.592   2.025
    1XTA    CO915780  27.258  -3.516   1.832
    1XTA    OA615781  27.124  -3.473   2.101
    1XTA   HL4215782  27.083  -3.682   2.077
    1XTA   HL4315783  27.017  -3.583   1.964
    1XTA   HL4415784  26.986  -2.025   2.284
    1XTA   HL4515785  26.983  -1.877   2.377
    1XTA   CO1015786  27.004  -1.985   2.383
    1XTA   CO1115787  26.965  -2.009   2.606
    1XTA    OA715788  27.142  -1.985   2.413
    1XTA   HL4615789  26.992  -1.899   2.597
    1XTA   HL4715790  27.055  -2.063   2.632
    1XTA   HL4815791  27.166  -3.472   1.786
    1XTA   HL4915792  27.294  -3.433   1.891
    1XTA     NT15793  27.650   0.427   0.436
    1XTA    CN115794  27.621   0.524   0.353
    1XTA     C115795  27.700   0.643   0.350
    1XTA     C215796  27.651   0.760   0.279
    1XTA     C315797  27.530   0.752   0.205
    1XTA     C415798  27.456   0.629   0.214
    1XTA     C515799  27.492   0.520   0.295
    1XTA    CN215800  27.630   0.298   0.404
    1XTA     C615801  27.549   0.217   0.490
    1XTA     C715802  27.524   0.082   0.462
    1XTA     C815803  27.576   0.022   0.343
    1XTA     C915804  27.657   0.100   0.255
    1XTA    C1015805  27.686   0.234   0.292
    1XTA    CN315806  27.713   0.455   0.553
    1XTA    C1115807  27.854   0.452   0.556
    1XTA    C1215808  27.918   0.470   0.676
    1XTA    C1315809  27.847   0.502   0.799
    1XTA    C1415810  27.707   0.511   0.793
    1XTA    C1515811  27.644   0.496   0.672
    1XTA     H115812  27.792   0.645   0.405
    1XTA     H215813  27.710   0.849   0.291
    1XTA     H315814  27.370   0.620   0.148
    1XTA     H415815  27.426   0.437   0.307
    1XTA     H515816  27.513   0.264   0.584
    1XTA     H615817  27.464   0.025   0.530
    1XTA     H715818  27.676   0.054   0.154
    1XTA     H815819  27.761   0.283   0.231
    1XTA     H915820  27.916   0.427   0.465
    1XTA    H1015821  28.024   0.454   0.670
    1XTA    H1115822  27.660   0.532   0.889
    1XTA    H1215823  27.539   0.517   0.660
    1XTA    OA115824  27.487   0.844   0.115
    1XTA    CO115825  27.561   0.955   0.105
    1XTA    OA215826  27.524  -0.100   0.314
    1XTA    CO215827  27.611  -0.190   0.250
    1XTA    CL115828  27.716  -0.251   0.342
    1XTA    CL215829  27.790  -0.363   0.268
    1XTA    CL315830  27.906  -0.433   0.338
    1XTA    CL415831  28.035  -0.348   0.369
    1XTA    CO315832  28.078  -0.389   0.513
    1XTA    OA315833  27.993  -0.327   0.606
    1XTA    CO415834  28.026  -0.193   0.636
    1XTA    CT115835  28.052  -0.172   0.783
    1XTA    CL515836  28.080  -0.025   0.810
    1XTA    CL615837  27.984   0.083   0.765
    1XTA    OA415838  27.918   0.516   0.909
    1XTA    CO515839  27.851   0.558   1.029
    1XTA    CL715840  27.806   0.431   1.108
    1XTA    CL815841  27.727   0.476   1.229
    1XTA    CL915842  27.601   0.554   1.182
    1XTA   CL1015843  27.494   0.570   1.295
    1XTA    CO615844  27.432   0.431   1.320
    1XTA    OA515845  27.343   0.444   1.430
    1XTA    CO715846  27.205   0.403   1.394
    1XTA    CT215847  27.105   0.454   1.492
    1XTA   CL1115848  27.156   0.420   1.632
    1XTA   CL1215849  27.079   0.483   1.748
    1XTA    HL115850  27.546   1.014   0.198
    1XTA    HL215851  27.664   0.934   0.094
    1XTA    HL315852  27.524   1.017   0.021
    1XTA    HL415853  27.541  -0.260   0.205
    1XTA    HL515854  27.665  -0.150   0.164
    1XTA    HL615855  27.672  -0.290   0.427
    1XTA    HL715856  27.788  -0.176   0.373
    1XTA    HL815857  27.812  -0.319   0.172
    1XTA    HL915858  27.713  -0.433   0.249
    1XTA   HL1015859  27.858  -0.463   0.433
    1XTA   HL1115860  27.919  -0.535   0.302
    1XTA   HL1215861  28.025  -0.243   0.371
    1XTA   HL1315862  28.117  -0.380   0.303
    1XTA   HL1415863  28.070  -0.498   0.518
    1XTA   HL1515864  28.184  -0.364   0.537
    1XTA   HL1615865  28.118  -0.169   0.589
    1XTA   HL1715866  27.943  -0.140   0.586
    1XTA   HL1815867  28.171   0.013   0.763
    1XTA   HL1915868  28.092  -0.006   0.912
    1XTA   HL2015869  28.021   0.185   0.775
    1XTA   HL2115870  27.892   0.093   0.828
    1XTA   HL2215871  27.972   0.070   0.656
    1XTA   HL2315872  27.775   0.634   1.015
    1XTA   HL2415873  27.931   0.599   1.089
    1XTA   HL2515874  27.736   0.371   1.041
    1XTA   HL2615875  27.889   0.360   1.127
    1XTA   HL2715876  27.699   0.389   1.284
    1XTA   HL2815877  27.783   0.533   1.302
    1XTA   HL2915878  27.635   0.647   1.149
    1XTA   HL3015879  27.554   0.500   1.097
    1XTA   HL3115880  27.535   0.605   1.384
    1XTA   HL3215881  27.412   0.633   1.260
    1XTA   HL3315882  27.389   0.382   1.234
    1XTA   HL3415883  27.521   0.367   1.344
    1XTA   HL3515884  27.204   0.293   1.383
    1XTA   HL3615885  27.182   0.442   1.294
    1XTA   HL3715886  27.250   0.465   1.635
    1XTA   HL3815887  27.164   0.317   1.660
    1XTA   HL3915888  27.068   0.585   1.735
    1XTA   HL4015889  27.132   0.451   1.838
    1XTA   HL4115890  26.975   0.438   1.762
    1XTA    CO815891  28.164  -0.266   0.821
    1XTA    CO915892  27.929  -0.209   0.860
    1XTA    OA615893  27.928  -0.173   0.997
    1XTA   HL4215894  28.179  -0.237   0.929
    1XTA   HL4315895  28.142  -0.376   0.824
    1XTA   HL4415896  26.897   0.434   1.514
    1XTA   HL4515897  26.959   0.381   1.358
    1XTA   CO1015898  26.980   0.381   1.468
    1XTA   CO1115899  27.091   0.599   1.466
    1XTA    OA715900  26.977   0.276   1.501
    1XTA   HL4615901  27.225   0.655   1.480
    1XTA   HL4715902  27.011   0.641   1.529
    1XTA   HL4815903  27.918  -0.317   0.857
    1XTA   HL4915904  27.841  -0.166   0.807
    1XTA     NT15905  30.955  -0.105   6.711
    1XTA    CN115906  31.070  -0.032   6.702
    1XTA     C115907  31.175  -0.065   6.785
    1XTA     C215908  31.294   0.012   6.778
    1XTA     C315909  31.308   0.120   6.690
    1XTA     C415910  31.199   0.158   6.610
    1XTA     C515911  31.076   0.081   6.619
    1XTA    CN215912  30.859  -0.068   6.794
    1XTA     C615913  30.896  -0.042   6.927
    1XTA     C715914  30.801   0.001   7.021
    1XTA     C815915  30.666   0.021   6.986
    1XTA     C915916  30.621  -0.009   6.855
    1XTA    C1015917  30.716  -0.054   6.761
    1XTA    CN315918  30.922  -0.201   6.620
    1XTA    C1115919  30.920  -0.331   6.657
    1XTA    C1215920  30.891  -0.431   6.559
    1XTA    C1315921  30.865  -0.396   6.430
    1XTA    C1415922  30.861  -0.258   6.402
    1XTA    C1515923  30.884  -0.163   6.495
    1XTA     H115924  31.173  -0.149   6.850
    1XTA     H215925  31.366  -0.029   6.843
    1XTA     H315926  31.211   0.249   6.553
    1XTA     H415927  30.989   0.105   6.560
    1XTA     H515928  31.002  -0.063   6.962
    1XTA     H615929  30.836   0.020   7.122
    1XTA     H715930  30.519   0.013   6.832
    1XTA     H815931  30.680  -0.079   6.667
    1XTA     H915932  30.955  -0.373   6.753
    1XTA    H1015933  30.906  -0.533   6.580
    1XTA    H1115934  30.837  -0.233   6.302
    1XTA    H1215935  30.882  -0.056   6.476
    1XTA    OA115936  31.420   0.194   6.684
    1XTA    CO115937  31.514   0.182   6.791
    1XTA    OA215938  30.581   0.079   7.078
    1XTA    CO215939  30.447   0.085   7.051
    1XTA    CL115940  30.359   0.100   7.176
    1XTA    CL215941  30.428   0.201   7.272
    1XTA    CL315942  30.349   0.232   7.404
    1XTA    CL415943  30.436   0.319   7.496
    1XTA    CO315944  30.408   0.475   7.503
    1XTA    OA315945  30.529   0.540   7.530
    1XTA    CO415946  30.518   0.683   7.524
    1XTA    CT115947  30.652   0.761   7.508
    1XTA    CL515948  30.742   0.676   7.412
    1XTA    CL615949  30.873   0.742   7.365
    1XTA    OA415950  30.857  -0.497   6.335
    1XTA    CO515951  30.796  -0.463   6.215
    1XTA    CL715952  30.647  -0.442   6.232
    1XTA    CL815953  30.557  -0.414   6.103
    1XTA    CL915954  30.607  -0.298   6.022
    1XTA   CL1015955  30.602  -0.158   6.090
    1XTA    CO615956  30.601  -0.040   5.996
    1XTA    OA515957  30.491  -0.057   5.914
    1XTA    CO715958  30.468   0.053   5.830
    1XTA    CT215959  30.365   0.022   5.721
    1XTA   CL1115960  30.370   0.139   5.614
    1XTA   CL1215961  30.316   0.277   5.657
    1XTA    HL115962  31.555   0.087   6.813
    1XTA    HL215963  31.588   0.256   6.785
    1XTA    HL315964  31.443   0.204   6.875
    1XTA    HL415965  30.439   0.179   6.998
    1XTA    HL515966  30.402   0.012   6.988
    1XTA    HL615967  30.339   0.002   7.223
    1XTA    HL715968  30.263   0.135   7.140
    1XTA    HL815969  30.464   0.294   7.221
    1XTA    HL915970  30.520   0.152   7.303
    1XTA   HL1015971  30.259   0.281   7.365
    1XTA   HL1115972  30.310   0.143   7.454
    1XTA   HL1215973  30.541   0.318   7.455
    1XTA   HL1315974  30.449   0.273   7.590
    1XTA   HL1415975  30.367   0.506   7.410
    1XTA   HL1515976  30.341   0.498   7.582
    1XTA   HL1615977  30.459   0.718   7.443
    1XTA   HL1715978  30.464   0.723   7.615
    1XTA   HL1815979  30.683   0.664   7.323
    1XTA   HL1915980  30.765   0.574   7.452
    1XTA   HL2015981  30.861   0.834   7.295
    1XTA   HL2115982  30.941   0.671   7.318
    1XTA   HL2215983  30.931   0.774   7.453
    1XTA   HL2315984  30.817  -0.548   6.153
    1XTA   HL2415985  30.848  -0.389   6.160
    1XTA   HL2515986  30.598  -0.524   6.279
    1XTA   HL2615987  30.628  -0.361   6.302
    1XTA   HL2715988  30.531  -0.493   6.039
    1XTA   HL2815989  30.460  -0.387   6.136
    1XTA   HL2915990  30.710  -0.325   5.992
    1XTA   HL3015991  30.539  -0.298   5.934
    1XTA   HL3115992  30.504  -0.161   6.140
    1XTA   HL3215993  30.664  -0.132   6.180
    1XTA   HL3315994  30.592   0.050   6.052
    1XTA   HL3415995  30.691  -0.022   5.928
    1XTA   HL3515996  30.571   0.083   5.791
    1XTA   HL3615997  30.431   0.135   5.893
    1XTA   HL3715998  30.303   0.115   5.532
    1XTA   HL3815999  30.469   0.152   5.576
    1XTA   HL3916000  30.214   0.267   5.691
    1XTA   HL4016001  30.318   0.356   5.580
    1XTA   HL4116002  30.366   0.329   5.741
    1XTA    CO816003  30.720   0.773   7.641
    1XTA    CO916004  30.611   0.903   7.439
    1XTA    OA616005  30.648   0.792   7.725
    1XTA   HL4216006  30.783   0.857   7.632
    1XTA   HL4316007  30.784   0.683   7.652
    1XTA   HL4416008  30.222  -0.107   5.793
    1XTA   HL4516009  30.229   0.047   5.869
    1XTA   CO1016010  30.223  -0.000   5.772
    1XTA   CO1116011  30.407  -0.102   5.640
    1XTA    OA716012  30.296  -0.150   5.561
    1XTA   HL4616013  30.487  -0.081   5.572
    1XTA   HL4716014  30.443  -0.161   5.719
    1XTA   HL4816015  30.532   0.891   7.321
    1XTA   HL4916016  30.701   0.958   7.411
    1XTA     NT16017  32.156   0.824   2.604
    1XTA    CN116018  32.109   0.907   2.505
    1XTA     C116019  32.189   1.022   2.461
    1XTA     C216020  32.137   1.099   2.357
    1XTA     C316021  32.013   1.069   2.302
    1XTA     C416022  31.940   0.955   2.332
    1XTA     C516023  31.992   0.871   2.435
    1XTA    CN216024  32.106   0.829   2.727
    1XTA     C616025  32.181   0.800   2.846
    1XTA     C716026  32.112   0.800   2.972
    1XTA     C816027  31.976   0.841   2.983
    1XTA     C916028  31.906   0.877   2.871
    1XTA    C1016029  31.970   0.862   2.746
    1XTA    CN316030  32.262   0.749   2.572
    1XTA    C1116031  32.395   0.776   2.605
    1XTA    C1216032  32.494   0.693   2.550
    1XTA    C1316033  32.466   0.578   2.472
    1XTA    C1416034  32.327   0.559   2.440
    1XTA    C1516035  32.231   0.646   2.484
    1XTA     H116036  32.283   1.056   2.493
    1XTA     H216037  32.196   1.186   2.322
    1XTA     H316038  31.851   0.928   2.274
    1XTA     H416039  31.939   0.787   2.471
    1XTA     H516040  32.281   0.752   2.845
    1XTA     H616041  32.149   0.762   3.066
    1XTA     H716042  31.802   0.906   2.871
    1XTA     H816043  31.913   0.896   2.663
    1XTA     H916044  32.428   0.865   2.655
    1XTA    H1016045  32.599   0.728   2.579
    1XTA    H1116046  32.304   0.468   2.385
    1XTA    H1216047  32.135   0.633   2.446
    1XTA    OA116048  31.979   1.133   2.185
    1XTA    CO116049  31.854   1.105   2.130
    1XTA    OA216050  31.931   0.847   3.113
    1XTA    CO216051  31.790   0.878   3.120
    1XTA    CL116052  31.737   0.874   3.264
    1XTA    CL216053  31.782   0.748   3.337
    1XTA    CL316054  31.723   0.728   3.474
    1XTA    CL416055  31.740   0.582   3.521
    1XTA    CO316056  31.658   0.571   3.652
    1XTA    OA316057  31.685   0.440   3.715
    1XTA    CO416058  31.600   0.337   3.664
    1XTA    CT116059  31.632   0.204   3.727
    1XTA    CL516060  31.527   0.105   3.697
    1XTA    CL616061  31.391   0.124   3.771
    1XTA    OA416062  32.566   0.496   2.424
    1XTA    CO516063  32.694   0.501   2.496
    1XTA    CL716064  32.794   0.609   2.437
    1XTA    CL816065  32.914   0.632   2.530
    1XTA    CL916066  32.851   0.706   2.653
    1XTA   CL1016067  32.959   0.769   2.742
    1XTA    CO616068  32.897   0.871   2.844
    1XTA    OA516069  32.866   0.979   2.766
    1XTA    CO716070  32.847   1.102   2.836
    1XTA    CT216071  32.744   1.188   2.756
    1XTA   CL1116072  32.607   1.116   2.762
    1XTA   CL1216073  32.495   1.164   2.662
    1XTA    HL116074  31.839   0.999   2.099
    1XTA    HL216075  31.772   1.131   2.204
    1XTA    HL316076  31.830   1.172   2.053
    1XTA    HL416077  31.760   0.978   3.091
    1XTA    HL516078  31.731   0.805   3.067
    1XTA    HL616079  31.628   0.893   3.272
    1XTA    HL716080  31.778   0.957   3.322
    1XTA    HL816081  31.890   0.754   3.350
    1XTA    HL916082  31.755   0.661   3.277
    1XTA   HL1016083  31.766   0.802   3.548
    1XTA   HL1116084  31.622   0.750   3.476
    1XTA   HL1216085  31.835   0.550   3.551
    1XTA   HL1316086  31.714   0.501   3.450
    1XTA   HL1416087  31.687   0.653   3.719
    1XTA   HL1516088  31.550   0.574   3.634
    1XTA   HL1616089  31.496   0.359   3.689
    1XTA   HL1716090  31.617   0.335   3.554
    1XTA   HL1816091  31.574   0.008   3.709
    1XTA   HL1916092  31.521   0.111   3.588
    1XTA   HL2016093  31.325   0.042   3.742
    1XTA   HL2116094  31.341   0.214   3.733
    1XTA   HL2216095  31.401   0.125   3.877
    1XTA   HL2316096  32.750   0.409   2.464
    1XTA   HL2416097  32.682   0.515   2.600
    1XTA   HL2516098  32.821   0.570   2.342
    1XTA   HL2616099  32.739   0.704   2.413
    1XTA   HL2716100  32.971   0.543   2.572
    1XTA   HL2816101  32.988   0.700   2.476
    1XTA   HL2916102  32.784   0.783   2.628
    1XTA   HL3016103  32.800   0.635   2.722
    1XTA   HL3116104  33.005   0.693   2.796
    1XTA   HL3216105  33.032   0.811   2.674
    1XTA   HL3316106  32.802   0.832   2.888
    1XTA   HL3416107  32.969   0.911   2.919
    1XTA   HL3516108  32.942   1.142   2.845
    1XTA   HL3616109  32.819   1.108   2.936
    1XTA   HL3716110  32.562   1.122   2.856
    1XTA   HL3816111  32.620   1.014   2.736
    1XTA   HL3916112  32.410   1.097   2.674
    1XTA   HL4016113  32.517   1.163   2.553
    1XTA   HL4116114  32.463   1.266   2.691
    1XTA    CO816115  31.674   0.210   3.872
    1XTA    CO916116  31.770   0.157   3.679
    1XTA    OA616117  31.791   0.143   3.823
    1XTA   HL4216118  31.627   0.147   3.944
    1XTA   HL4316119  31.681   0.312   3.905
    1XTA   HL4416120  32.794   1.116   2.548
    1XTA   HL4516121  32.711   1.268   2.557
    1XTA   CO1016122  32.785   1.206   2.605
    1XTA   CO1116123  32.740   1.334   2.813
    1XTA    OA716124  32.871   1.269   2.582
    1XTA   HL4616125  32.654   1.410   2.734
    1XTA   HL4716126  32.837   1.372   2.778
    1XTA   HL4816127  31.823   0.227   3.621
    1XTA   HL4916128  31.768   0.066   3.628
    1XTA     NT16129  24.287   0.123  -0.153
    1XTA    CN116130  24.163   0.182  -0.150
    1XTA     C116131  24.064   0.117  -0.070
    1XTA     C216132  23.936   0.173  -0.065
    1XTA     C316133  23.908   0.291  -0.139
    1XTA     C416134  24.002   0.359  -0.213
    1XTA     C516135  24.127   0.299  -0.217
    1XTA    CN216136  24.394   0.196  -0.125
    1XTA     C616137  24.469   0.254  -0.225
    1XTA     C716138  24.564   0.356  -0.190
    1XTA     C816139  24.598   0.374  -0.050
    1XTA     C916140  24.521   0.310   0.049
    1XTA    C1016141  24.414   0.228   0.008
    1XTA    CN316142  24.304   0.005  -0.218
    1XTA    C1116143  24.267  -0.009  -0.350
    1XTA    C1216144  24.298  -0.129  -0.421
    1XTA    C1316145  24.368  -0.234  -0.360
    1XTA    C1416146  24.407  -0.211  -0.227
    1XTA    C1516147  24.382  -0.094  -0.161
    1XTA     H116148  24.092   0.027  -0.017
    1XTA     H216149  23.855   0.137  -0.002
    1XTA     H316150  23.977   0.449  -0.272
    1XTA     H416151  24.203   0.326  -0.296
    1XTA     H516152  24.440   0.243  -0.334
    1XTA     H616153  24.606   0.412  -0.273
    1XTA     H716154  24.538   0.328   0.156
    1XTA     H816155  24.360   0.185   0.088
    1XTA     H916156  24.213   0.071  -0.397
    1XTA    H1016157  24.260  -0.140  -0.523
    1XTA    H1116158  24.463  -0.292  -0.167
    1XTA    H1216159  24.423  -0.083  -0.061
    1XTA    OA116160  23.781   0.339  -0.123
    1XTA    CO116161  23.712   0.402  -0.232
    1XTA    OA216162  24.723   0.435  -0.014
    1XTA    CO216163  24.776   0.388   0.112
    1XTA    CL116164  24.928   0.404   0.132
    1XTA    CL216165  24.983   0.347   0.264
    1XTA    CL316166  25.135   0.361   0.284
    1XTA    CL416167  25.164   0.510   0.300
    1XTA    CO316168  25.308   0.546   0.325
    1XTA    OA316169  25.305   0.681   0.352
    1XTA    CO416170  25.436   0.729   0.360
    1XTA    CT116171  25.440   0.880   0.349
    1XTA    CL516172  25.343   0.936   0.441
    1XTA    CL616173  25.192   0.938   0.405
    1XTA    OA416174  24.407  -0.353  -0.425
    1XTA    CO516175  24.346  -0.408  -0.538
    1XTA    CL716176  24.449  -0.517  -0.575
    1XTA    CL816177  24.389  -0.601  -0.676
    1XTA    CL916178  24.501  -0.706  -0.704
    1XTA   CL1016179  24.460  -0.811  -0.811
    1XTA    CO616180  24.534  -0.942  -0.795
    1XTA    OA516181  24.505  -1.036  -0.898
    1XTA    CO716182  24.576  -1.021  -1.023
    1XTA    CT216183  24.519  -1.116  -1.139
    1XTA   CL1116184  24.570  -1.073  -1.276
    1XTA   CL1216185  24.506  -1.136  -1.388
    1XTA    HL116186  23.712   0.319  -0.308
    1XTA    HL216187  23.617   0.443  -0.196
    1XTA    HL316188  23.780   0.483  -0.266
    1XTA    HL416189  24.719   0.433   0.187
    1XTA    HL516190  24.754   0.282   0.110
    1XTA    HL616191  24.947   0.514   0.126
    1XTA    HL716192  24.986   0.356   0.048
    1XTA    HL816193  24.963   0.237   0.273
    1XTA    HL916194  24.933   0.377   0.354
    1XTA   HL1016195  25.184   0.310   0.364
    1XTA   HL1116196  25.187   0.333   0.197
    1XTA   HL1216197  25.102   0.556   0.371
    1XTA   HL1316198  25.134   0.553   0.206
    1XTA   HL1416199  25.347   0.495   0.409
    1XTA   HL1516200  25.357   0.515   0.233
    1XTA   HL1616201  25.470   0.706   0.456
    1XTA   HL1716202  25.502   0.676   0.288
    1XTA   HL1816203  25.369   1.044   0.456
    1XTA   HL1916204  25.358   0.898   0.544
    1XTA   HL2016205  25.141   0.989   0.485
    1XTA   HL2116206  25.147   0.841   0.397
    1XTA   HL2216207  25.184   0.999   0.319
    1XTA   HL2316208  24.345  -0.339  -0.617
    1XTA   HL2416209  24.241  -0.442  -0.511
    1XTA   HL2516210  24.540  -0.467  -0.603
    1XTA   HL2616211  24.470  -0.574  -0.480
    1XTA   HL2716212  24.300  -0.651  -0.641
    1XTA   HL2816213  24.354  -0.544  -0.768
    1XTA   HL2916214  24.586  -0.641  -0.736
    1XTA   HL3016215  24.544  -0.751  -0.609
    1XTA   HL3116216  24.357  -0.846  -0.801
    1XTA   HL3216217  24.477  -0.764  -0.909
    1XTA   HL3316218  24.645  -0.933  -0.796
    1XTA   HL3416219  24.503  -0.985  -0.705
    1XTA   HL3516220  24.679  -1.042  -1.009
    1XTA   HL3616221  24.573  -0.917  -1.056
    1XTA   HL3716222  24.679  -1.093  -1.287
    1XTA   HL3816223  24.565  -0.965  -1.284
    1XTA   HL3916224  24.408  -1.100  -1.400
    1XTA   HL4016225  24.510  -1.246  -1.382
    1XTA   HL4116226  24.554  -1.118  -1.485
    1XTA    CO816227  25.424   0.938   0.202
    1XTA    CO916228  25.586   0.925   0.388
    1XTA    OA616229  25.654   0.868   0.322
    1XTA   HL4216230  25.506   0.905   0.141
    1XTA   HL4316231  25.317   0.877   0.147
    1XTA   HL4416232  24.316  -1.188  -1.187
    1XTA   HL4516233  24.314  -1.108  -1.000
    1XTA   CO1016234  24.362  -1.102  -1.138
    1XTA   CO1116235  24.554  -1.265  -1.116
    1XTA    OA716236  24.653  -1.290  -1.148
    1XTA   HL4616237  24.537  -1.278  -1.006
    1XTA   HL4716238  24.476  -1.331  -1.152
    1XTA   HL4816239  25.609   0.910   0.490
    1XTA   HL4916240  25.601   1.026   0.371
    1XTA     NT16241  30.926   0.737   3.583
    1XTA    CN116242  31.024   0.680   3.655
    1XTA     C116243  31.086   0.565   3.603
    1XTA     C216244  31.196   0.507   3.667
    1XTA     C316245  31.251   0.555   3.791
    1XTA     C416246  31.175   0.659   3.853
    1XTA     C516247  31.070   0.728   3.782
    1XTA    CN216248  30.947   0.856   3.526
    1XTA     C616249  30.945   0.977   3.607
    1XTA     C716250  30.984   1.098   3.551
    1XTA     C816251  31.017   1.114   3.412
    1XTA     C916252  31.011   1.000   3.333
    1XTA    C1016253  30.979   0.874   3.392
    1XTA    CN316254  30.796   0.711   3.597
    1XTA    C1116255  30.729   0.658   3.483
    1XTA    C1216256  30.591   0.645   3.479
    1XTA    C1316257  30.518   0.664   3.597
    1XTA    C1416258  30.583   0.690   3.715
    1XTA    C1516259  30.722   0.717   3.717
    1XTA     H116260  31.049   0.529   3.507
    1XTA     H216261  31.233   0.407   3.631
    1XTA     H316262  31.206   0.691   3.956
    1XTA     H416263  31.017   0.805   3.831
    1XTA     H516264  30.921   0.985   3.712
    1XTA     H616265  30.993   1.197   3.603
    1XTA     H716266  31.042   0.998   3.233
    1XTA     H816267  30.986   0.785   3.328
    1XTA     H916268  30.789   0.641   3.396
    1XTA    H1016269  30.552   0.621   3.386
    1XTA    H1116270  30.526   0.698   3.806
    1XTA    H1216271  30.770   0.745   3.813
    1XTA    OA116272  31.346   0.480   3.852
    1XTA    CO116273  31.365   0.507   3.992
    1XTA    OA216274  31.058   1.233   3.364
    1XTA    CO216275  31.157   1.226   3.262
    1XTA    CL116276  31.222   1.364   3.238
    1XTA    CL216277  31.285   1.418   3.369
    1XTA    CL316278  31.383   1.536   3.349
    1XTA    CL416279  31.317   1.655   3.276
    1XTA    CO316280  31.394   1.779   3.300
    1XTA    OA316281  31.415   1.801   3.442
    1XTA    CO416282  31.295   1.845   3.514
    1XTA    CT116283  31.292   1.826   3.672
    1XTA    CL516284  31.184   1.921   3.730
    1XTA    CL616285  31.040   1.912   3.682
    1XTA    OA416286  30.383   0.634   3.597
    1XTA    CO516287  30.291   0.735   3.629
    1XTA    CL716288  30.285   0.842   3.516
    1XTA    CL816289  30.136   0.885   3.485
    1XTA    CL916290  30.047   0.914   3.612
    1XTA   CL1016291  30.092   1.022   3.714
    1XTA    CO616292  30.111   1.150   3.639
    1XTA    OA516293  30.136   1.261   3.736
    1XTA    CO716294  30.122   1.385   3.667
    1XTA    CT216295  30.123   1.501   3.777
    1XTA   CL1116296  30.265   1.491   3.847
    1XTA   CL1216297  30.271   1.396   3.958
    1XTA    HL116298  31.270   0.487   4.043
    1XTA    HL216299  31.446   0.448   4.033
    1XTA    HL316300  31.395   0.612   4.001
    1XTA    HL416301  31.230   1.142   3.268
    1XTA    HL516302  31.095   1.216   3.172
    1XTA    HL616303  31.128   1.419   3.208
    1XTA    HL716304  31.292   1.371   3.158
    1XTA    HL816305  31.325   1.346   3.441
    1XTA    HL916306  31.197   1.458   3.423
    1XTA   HL1016307  31.407   1.565   3.454
    1XTA   HL1116308  31.480   1.514   3.292
    1XTA   HL1216309  31.218   1.668   3.307
    1XTA   HL1316310  31.314   1.640   3.169
    1XTA   HL1416311  31.483   1.778   3.252
    1XTA   HL1516312  31.349   1.868   3.253
    1XTA   HL1616313  31.288   1.950   3.496
    1XTA   HL1716314  31.209   1.807   3.463
    1XTA   HL1816315  31.221   2.023   3.708
    1XTA   HL1916316  31.179   1.904   3.836
    1XTA   HL2016317  31.023   1.920   3.574
    1XTA   HL2116318  30.989   1.996   3.726
    1XTA   HL2216319  30.976   1.824   3.713
    1XTA   HL2316320  30.295   0.774   3.735
    1XTA   HL2416321  30.191   0.691   3.629
    1XTA   HL2516322  30.356   0.926   3.536
    1XTA   HL2616323  30.336   0.802   3.425
    1XTA   HL2716324  30.141   0.981   3.423
    1XTA   HL2816325  30.097   0.806   3.417
    1XTA   HL2916326  29.941   0.936   3.578
    1XTA   HL3016327  30.042   0.824   3.677
    1XTA   HL3116328  30.014   1.046   3.787
    1XTA   HL3216329  30.179   0.985   3.768
    1XTA   HL3316330  30.189   1.154   3.566
    1XTA   HL3416331  30.025   1.176   3.583
    1XTA   HL3516332  30.023   1.381   3.618
    1XTA   HL3616333  30.195   1.412   3.586
    1XTA   HL3716334  30.292   1.593   3.880
    1XTA   HL3816335  30.348   1.463   3.779
    1XTA   HL3916336  30.200   1.399   4.038
    1XTA   HL4016337  30.358   1.412   4.019
    1XTA   HL4116338  30.275   1.287   3.930
    1XTA    CO816339  31.425   1.853   3.743
    1XTA    CO916340  31.268   1.678   3.698
    1XTA    OA616341  31.467   1.985   3.728
    1XTA   HL4216342  31.502   1.788   3.698
    1XTA   HL4316343  31.429   1.826   3.849
    1XTA   HL4416344  29.918   1.437   3.818
    1XTA   HL4516345  30.032   1.396   3.943
    1XTA   CO1016346  30.000   1.479   3.874
    1XTA   CO1116347  30.109   1.633   3.700
    1XTA    OA716348  29.968   1.601   3.943
    1XTA   HL4616349  30.107   1.724   3.763
    1XTA   HL4716350  30.187   1.638   3.621
    1XTA   HL4816351  31.197   1.638   3.625
    1XTA   HL4916352  31.366   1.639   3.665
    1XTA     NT16353  28.310   0.822   4.601
    1XTA    CN116354  28.263   0.892   4.495
    1XTA     C116355  28.162   0.983   4.515
    1XTA     C216356  28.114   1.064   4.410
    1XTA     C316357  28.170   1.053   4.279
    1XTA     C416358  28.280   0.966   4.263
    1XTA     C516359  28.322   0.884   4.366
    1XTA    CN216360  28.403   0.889   4.669
    1XTA     C616361  28.366   0.967   4.780
    1XTA     C716362  28.452   1.042   4.855
    1XTA     C816363  28.590   1.054   4.815
    1XTA     C916364  28.633   0.972   4.702
    1XTA    C1016365  28.538   0.897   4.631
    1XTA    CN316366  28.242   0.712   4.647
    1XTA    C1116367  28.281   0.583   4.601
    1XTA    C1216368  28.220   0.468   4.642
    1XTA    C1316369  28.103   0.482   4.718
    1XTA    C1416370  28.062   0.610   4.770
    1XTA    C1516371  28.128   0.721   4.726
    1XTA     H116372  28.121   0.994   4.614
    1XTA     H216373  28.039   1.142   4.412
    1XTA     H316374  28.319   0.946   4.168
    1XTA     H416375  28.400   0.815   4.348
    1XTA     H516376  28.268   0.958   4.799
    1XTA     H616377  28.411   1.093   4.941
    1XTA     H716378  28.729   0.961   4.665
    1XTA     H816379  28.577   0.834   4.552
    1XTA     H916380  28.375   0.572   4.546
    1XTA    H1016381  28.255   0.382   4.602
    1XTA    H1116382  27.970   0.616   4.820
    1XTA    H1216383  28.084   0.823   4.753
    1XTA    OA116384  28.132   1.134   4.182
    1XTA    CO116385  28.155   1.097   4.042
    1XTA    OA216386  28.686   1.124   4.883
    1XTA    CO216387  28.659   1.193   5.002
    1XTA    CL116388  28.595   1.328   4.973
    1XTA    CL216389  28.585   1.394   5.107
    1XTA    CL316390  28.533   1.532   5.080
    1XTA    CL416391  28.646   1.626   5.037
    1XTA    CO316392  28.572   1.760   5.019
    1XTA    OA316393  28.517   1.781   4.890
    1XTA    CO416394  28.599   1.814   4.783
    1XTA    CT116395  28.527   1.911   4.693
    1XTA    CL516396  28.504   2.044   4.764
    1XTA    CL616397  28.381   2.061   4.853
    1XTA    OA416398  28.032   0.367   4.751
    1XTA    CO516399  27.917   0.382   4.835
    1XTA    CL716400  27.834   0.249   4.849
    1XTA    CL816401  27.698   0.280   4.900
    1XTA    CL916402  27.710   0.361   5.030
    1XTA   CL1016403  27.642   0.501   5.034
    1XTA    CO616404  27.706   0.598   5.134
    1XTA    OA516405  27.739   0.524   5.252
    1XTA    CO716406  27.848   0.569   5.325
    1XTA    CT216407  27.869   0.473   5.445
    1XTA   CL1116408  27.742   0.470   5.535
    1XTA   CL1216409  27.738   0.369   5.645
    1XTA    HL116410  28.153   1.179   3.974
    1XTA    HL216411  28.264   1.064   4.032
    1XTA    HL316412  28.082   1.021   4.012
    1XTA    HL416413  28.594   1.131   5.064
    1XTA    HL516414  28.749   1.194   5.060
    1XTA    HL616415  28.487   1.315   4.931
    1XTA    HL716416  28.656   1.376   4.899
    1XTA    HL816417  28.682   1.395   5.155
    1XTA    HL916418  28.528   1.354   5.184
    1XTA   HL1016419  28.450   1.533   5.011
    1XTA   HL1116420  28.501   1.579   5.175
    1XTA   HL1216421  28.688   1.603   4.932
    1XTA   HL1316422  28.719   1.620   5.109
    1XTA   HL1416423  28.494   1.774   5.096
    1XTA   HL1516424  28.645   1.839   5.032
    1XTA   HL1616425  28.703   1.857   4.808
    1XTA   HL1716426  28.614   1.721   4.724
    1XTA   HL1816427  28.518   2.130   4.695
    1XTA   HL1916428  28.592   2.066   4.820
    1XTA   HL2016429  28.369   1.982   4.929
    1XTA   HL2116430  28.292   2.056   4.802
    1XTA   HL2216431  28.371   2.151   4.913
    1XTA   HL2316432  27.849   0.452   4.796
    1XTA   HL2416433  27.946   0.421   4.932
    1XTA   HL2516434  27.823   0.177   4.762
    1XTA   HL2616435  27.880   0.192   4.932
    1XTA   HL2716436  27.656   0.342   4.822
    1XTA   HL2816437  27.632   0.196   4.898
    1XTA   HL2916438  27.656   0.305   5.101
    1XTA   HL3016439  27.821   0.362   5.072
    1XTA   HL3116440  27.663   0.552   4.949
    1XTA   HL3216441  27.535   0.490   5.036
    1XTA   HL3316442  27.805   0.640   5.091
    1XTA   HL3416443  27.624   0.670   5.153
    1XTA   HL3516444  27.826   0.665   5.374
    1XTA   HL3616445  27.933   0.583   5.265
    1XTA   HL3716446  27.658   0.455   5.473
    1XTA   HL3816447  27.727   0.572   5.582
    1XTA   HL3916448  27.644   0.379   5.705
    1XTA   HL4016449  27.818   0.388   5.716
    1XTA   HL4116450  27.743   0.264   5.604
    1XTA    CO816451  28.389   1.844   4.653
    1XTA    CO916452  28.603   1.930   4.562
    1XTA    OA616453  28.405   1.720   4.578
    1XTA   HL4216454  28.340   1.916   4.583
    1XTA   HL4316455  28.327   1.832   4.738
    1XTA   HL4416456  28.088   0.521   5.465
    1XTA   HL4516457  28.015   0.455   5.602
    1XTA   CO1016458  27.992   0.522   5.520
    1XTA   CO1116459  27.902   0.336   5.376
    1XTA    OA716460  27.970   0.247   5.460
    1XTA   HL4616461  27.816   0.281   5.340
    1XTA   HL4716462  27.962   0.353   5.289
    1XTA   HL4816463  28.558   2.011   4.506
    1XTA   HL4916464  28.602   1.841   4.492
    1XTA     NT16465  28.944   0.719   4.515
    1XTA    CN116466  28.919   0.752   4.643
    1XTA     C116467  28.977   0.867   4.693
    1XTA     C216468  28.960   0.893   4.829
    1XTA     C316469  28.885   0.810   4.918
    1XTA     C416470  28.819   0.698   4.865
    1XTA     C516471  28.842   0.673   4.729
    1XTA    CN216472  29.052   0.642   4.469
    1XTA     C616473  29.041   0.526   4.394
    1XTA     C716474  29.151   0.449   4.365
    1XTA     C816475  29.278   0.495   4.398
    1XTA     C916476  29.295   0.608   4.471
    1XTA    C1016477  29.181   0.689   4.504
    1XTA    CN316478  28.852   0.752   4.423
    1XTA    C1116479  28.741   0.672   4.398
    1XTA    C1216480  28.665   0.687   4.284
    1XTA    C1316481  28.687   0.800   4.199
    1XTA    C1416482  28.778   0.895   4.239
    1XTA    C1516483  28.871   0.867   4.346
    1XTA     H116484  29.039   0.923   4.626
    1XTA     H216485  29.010   0.981   4.874
    1XTA     H316486  28.752   0.638   4.927
    1XTA     H416487  28.799   0.584   4.692
    1XTA     H516488  28.946   0.481   4.370
    1XTA     H616489  29.139   0.359   4.310
    1XTA     H716490  29.392   0.640   4.505
    1XTA     H816491  29.188   0.785   4.571
    1XTA     H916492  28.736   0.581   4.456
    1XTA    H1016493  28.592   0.616   4.265
    1XTA    H1116494  28.792   0.990   4.186
    1XTA    H1216495  28.960   0.934   4.356
    1XTA    OA116496  28.884   0.850   5.051
    1XTA    CO116497  28.748   0.869   5.103
    1XTA    OA216498  29.383   0.422   4.349
    1XTA    CO216499  29.514   0.470   4.359
    1XTA    CL116500  29.603   0.354   4.320
    1XTA    CL216501  29.563   0.282   4.192
    1XTA    CL316502  29.651   0.163   4.163
    1XTA    CL416503  29.581   0.026   4.198
    1XTA    CO316504  29.537   0.030   4.341
    1XTA    OA316505  29.642   0.071   4.423
    1XTA    CO416506  29.623   0.041   4.563
    1XTA    CT116507  29.764   0.021   4.631
    1XTA    CL516508  29.826   0.160   4.633
    1XTA    CL616509  29.935   0.182   4.738
    1XTA    OA416510  28.597   0.830   4.101
    1XTA    CO516511  28.508   0.726   4.045
    1XTA    CL716512  28.432   0.786   3.918
    1XTA    CL816513  28.298   0.712   3.885
    1XTA    CL916514  28.201   0.795   3.793
    1XTA   CL1016515  28.057   0.729   3.779
    1XTA    CO616516  28.072   0.596   3.699
    1XTA    OA516517  28.099   0.629   3.561
    1XTA    CO716518  28.225   0.572   3.526
    1XTA    CT216519  28.288   0.641   3.404
    1XTA   CL1116520  28.339   0.785   3.449
    1XTA   CL1216521  28.425   0.851   3.351
    1XTA    HL116522  28.706   0.769   5.125
    1XTA    HL216523  28.746   0.936   5.191
    1XTA    HL316524  28.687   0.911   5.031
    1XTA    HL416525  29.527   0.556   4.297
    1XTA    HL516526  29.542   0.500   4.467
    1XTA    HL616527  29.603   0.279   4.401
    1XTA    HL716528  29.703   0.382   4.312
    1XTA    HL816529  29.570   0.350   4.105
    1XTA    HL916530  29.458   0.257   4.191
    1XTA   HL1016531  29.679   0.159   4.061
    1XTA   HL1116532  29.739   0.172   4.219
    1XTA   HL1216533  29.647  -0.055   4.183
    1XTA   HL1316534  29.499   0.008   4.133
    1XTA   HL1416535  29.444   0.092   4.349
    1XTA   HL1516536  29.498  -0.066   4.377
    1XTA   HL1616537  29.552   0.115   4.611
    1XTA   HL1716538  29.575  -0.056   4.564
    1XTA   HL1816539  29.754   0.242   4.627
    1XTA   HL1916540  29.871   0.173   4.532
    1XTA   HL2016541  30.017   0.109   4.744
    1XTA   HL2116542  29.895   0.180   4.841
    1XTA   HL2216543  29.989   0.279   4.724
    1XTA   HL2316544  28.439   0.700   4.119
    1XTA   HL2416545  28.567   0.637   4.015
    1XTA   HL2516546  28.410   0.884   3.938
    1XTA   HL2616547  28.501   0.780   3.835
    1XTA   HL2716548  28.322   0.607   3.843
    1XTA   HL2816549  28.244   0.689   3.975
    1XTA   HL2916550  28.194   0.896   3.825
    1XTA   HL3016551  28.244   0.793   3.695
    1XTA   HL3116552  28.008   0.714   3.880
    1XTA   HL3216553  27.992   0.800   3.724
    1XTA   HL3316554  28.144   0.518   3.744
    1XTA   HL3416555  27.981   0.533   3.696
    1XTA   HL3516556  28.221   0.467   3.501
    1XTA   HL3616557  28.292   0.576   3.611
    1XTA   HL3716558  28.389   0.779   3.552
    1XTA   HL3816559  28.253   0.849   3.471
    1XTA   HL3916560  28.523   0.804   3.324
    1XTA   HL4016561  28.457   0.956   3.379
    1XTA   HL4116562  28.374   0.884   3.254
    1XTA    CO816563  29.858  -0.069   4.544
    1XTA    CO916564  29.758  -0.052   4.772
    1XTA    OA616565  29.820  -0.175   4.522
    1XTA   HL4216566  29.951  -0.094   4.602
    1XTA   HL4316567  29.894  -0.016   4.457
    1XTA   HL4416568  28.091   0.686   3.325
    1XTA   HL4516569  28.225   0.735   3.218
    1XTA   CO1016570  28.186   0.656   3.290
    1XTA   CO1116571  28.402   0.544   3.353
    1XTA    OA716572  28.174   0.531   3.227
    1XTA   HL4616573  28.361   0.450   3.320
    1XTA   HL4716574  28.461   0.599   3.279
    1XTA   HL4816575  29.691   0.030   4.867
    1XTA   HL4916576  29.690  -0.136   4.762
    1XTA     NT16577  25.604   0.652   3.277
    1XTA    CN116578  25.731   0.609   3.263
    1XTA     C116579  25.830   0.684   3.196
    1XTA     C216580  25.964   0.635   3.176
    1XTA     C316581  25.999   0.515   3.229
    1XTA     C416582  25.911   0.436   3.297
    1XTA     C516583  25.781   0.484   3.319
    1XTA    CN216584  25.501   0.605   3.193
    1XTA     C616585  25.383   0.674   3.168
    1XTA     C716586  25.287   0.644   3.072
    1XTA     C816587  25.301   0.520   2.998
    1XTA     C916588  25.412   0.435   3.029
    1XTA    C1016589  25.503   0.479   3.130
    1XTA    CN316590  25.575   0.741   3.375
    1XTA    C1116591  25.572   0.879   3.349
    1XTA    C1216592  25.536   0.967   3.453
    1XTA    C1316593  25.504   0.930   3.580
    1XTA    C1416594  25.502   0.788   3.606
    1XTA    C1516595  25.548   0.696   3.509
    1XTA     H116596  25.802   0.775   3.148
    1XTA     H216597  26.035   0.698   3.133
    1XTA     H316598  25.951   0.349   3.340
    1XTA     H416599  25.720   0.429   3.385
    1XTA     H516600  25.366   0.772   3.213
    1XTA     H616601  25.214   0.715   3.049
    1XTA     H716602  25.425   0.341   2.979
    1XTA     H816603  25.589   0.420   3.143
    1XTA     H916604  25.585   0.908   3.248
    1XTA    H1016605  25.535   1.075   3.444
    1XTA    H1116606  25.468   0.752   3.700
    1XTA    H1216607  25.566   0.590   3.536
    1XTA    OA116608  26.129   0.474   3.216
    1XTA    CO116609  26.213   0.528   3.112
    1XTA    OA216610  25.214   0.488   2.897
    1XTA    CO216611  25.246   0.377   2.808
    1XTA    CL116612  25.178   0.386   2.673
    1XTA    CL216613  25.025   0.373   2.685
    1XTA    CL316614  24.951   0.370   2.554
    1XTA    CL416615  24.963   0.507   2.481
    1XTA    CO316616  24.910   0.488   2.333
    1XTA    OA316617  24.966   0.373   2.276
    1XTA    CO416618  25.089   0.393   2.209
    1XTA    CT116619  25.160   0.258   2.172
    1XTA    CL516620  25.163   0.175   2.307
    1XTA    CL616621  25.239   0.040   2.299
    1XTA    OA416622  25.475   1.031   3.669
    1XTA    CO516623  25.445   1.003   3.802
    1XTA    CL716624  25.402   1.133   3.867
    1XTA    CL816625  25.527   1.217   3.912
    1XTA    CL916626  25.484   1.349   3.965
    1XTA   CL1016627  25.602   1.444   3.980
    1XTA    CO616628  25.569   1.560   4.064
    1XTA    OA516629  25.678   1.641   4.110
    1XTA    CO716630  25.661   1.751   4.201
    1XTA    CT216631  25.781   1.842   4.219
    1XTA   CL1116632  25.757   1.929   4.342
    1XTA   CL1216633  25.861   2.046   4.358
    1XTA    HL116634  26.247   0.627   3.121
    1XTA    HL216635  26.286   0.454   3.099
    1XTA    HL316636  26.163   0.530   3.016
    1XTA    HL416637  25.356   0.374   2.787
    1XTA    HL516638  25.222   0.284   2.852
    1XTA    HL616639  25.213   0.305   2.619
    1XTA    HL716640  25.213   0.473   2.613
    1XTA    HL816641  24.984   0.449   2.741
    1XTA    HL916642  24.997   0.286   2.732
    1XTA   HL1016643  24.990   0.290   2.494
    1XTA   HL1116644  24.843   0.348   2.568
    1XTA   HL1216645  25.065   0.538   2.477
    1XTA   HL1316646  24.920   0.596   2.532
    1XTA   HL1416647  24.803   0.475   2.345
    1XTA   HL1516648  24.932   0.576   2.270
    1XTA   HL1616649  25.066   0.448   2.118
    1XTA   HL1716650  25.156   0.464   2.271
    1XTA   HL1816651  25.057   0.157   2.325
    1XTA   HL1916652  25.193   0.233   2.396
    1XTA   HL2016653  25.347   0.039   2.311
    1XTA   HL2116654  25.212  -0.026   2.218
    1XTA   HL2216655  25.208  -0.010   2.396
    1XTA   HL2316656  25.525   0.947   3.852
    1XTA   HL2416657  25.353   0.952   3.802
    1XTA   HL2516658  25.350   1.189   3.794
    1XTA   HL2616659  25.341   1.128   3.948
    1XTA   HL2716660  25.589   1.158   3.983
    1XTA   HL2816661  25.589   1.239   3.832
    1XTA   HL2916662  25.406   1.401   3.911
    1XTA   HL3016663  25.435   1.337   4.062
    1XTA   HL3116664  25.677   1.390   4.036
    1XTA   HL3216665  25.644   1.471   3.881
    1XTA   HL3316666  25.488   1.627   4.019
    1XTA   HL3416667  25.523   1.522   4.152
    1XTA   HL3516668  25.642   1.711   4.304
    1XTA   HL3616669  25.578   1.817   4.185
    1XTA   HL3716670  25.762   1.870   4.432
    1XTA   HL3816671  25.658   1.969   4.332
    1XTA   HL3916672  25.958   2.009   4.372
    1XTA   HL4016673  25.845   2.113   4.441
    1XTA   HL4116674  25.854   2.106   4.271
    1XTA    CO816675  25.301   0.300   2.115
    1XTA    CO916676  25.082   0.189   2.062
    1XTA    OA616677  25.076   0.281   1.955
    1XTA   HL4216678  25.284   0.370   2.034
    1XTA   HL4316679  25.338   0.211   2.065
    1XTA   HL4416680  25.895   1.982   4.112
    1XTA   HL4516681  25.722   1.986   4.090
    1XTA   CO1016682  25.807   1.920   4.093
    1XTA   CO1116683  25.909   1.754   4.235
    1XTA    OA716684  25.913   1.687   4.363
    1XTA   HL4616685  25.920   1.676   4.151
    1XTA   HL4716686  25.995   1.814   4.218
    1XTA   HL4816687  24.986   0.151   2.107
    1XTA   HL4916688  25.138   0.098   2.032
    1XTA     NT16689  27.702  -1.784   5.313
    1XTA    CN116690  27.728  -1.891   5.380
    1XTA     C116691  27.851  -1.912   5.452
    1XTA     C216692  27.866  -2.023   5.535
    1XTA     C316693  27.760  -2.116   5.548
    1XTA     C416694  27.644  -2.101   5.473
    1XTA     C516695  27.628  -1.987   5.394
    1XTA    CN216696  27.743  -1.663   5.361
    1XTA     C616697  27.826  -1.582   5.277
    1XTA     C716698  27.861  -1.453   5.311
    1XTA     C816699  27.824  -1.410   5.439
    1XTA     C916700  27.758  -1.497   5.533
    1XTA    C1016701  27.718  -1.628   5.494
    1XTA    CN316702  27.646  -1.795   5.188
    1XTA    C1116703  27.676  -1.904   5.106
    1XTA    C1216704  27.614  -1.908   4.979
    1XTA    C1316705  27.515  -1.816   4.945
    1XTA    C1416706  27.475  -1.714   5.031
    1XTA    C1516707  27.552  -1.703   5.149
    1XTA     H116708  27.927  -1.835   5.437
    1XTA     H216709  27.958  -2.047   5.591
    1XTA     H316710  27.559  -2.174   5.476
    1XTA     H416711  27.532  -1.957   5.354
    1XTA     H516712  27.841  -1.617   5.179
    1XTA     H616713  27.903  -1.388   5.233
    1XTA     H716714  27.721  -1.460   5.631
    1XTA     H816715  27.667  -1.699   5.551
    1XTA     H916716  27.757  -1.966   5.134
    1XTA    H1016717  27.632  -1.995   4.915
    1XTA    H1116718  27.410  -1.637   4.997
    1XTA    H1216719  27.527  -1.626   5.221
    1XTA    OA116720  27.780  -2.220   5.632
    1XTA    CO116721  27.692  -2.328   5.620
    1XTA    OA216722  27.854  -1.281   5.472
    1XTA    CO216723  27.793  -1.229   5.592
    1XTA    CL116724  27.807  -1.080   5.577
    1XTA    CL216725  27.777  -0.998   5.704
    1XTA    CL316726  27.749  -0.852   5.671
    1XTA    CL416727  27.735  -0.757   5.794
    1XTA    CO316728  27.749  -0.612   5.753
    1XTA    OA316729  27.774  -0.518   5.857
    1XTA    CO416730  27.658  -0.469   5.925
    1XTA    CT116731  27.611  -0.333   5.870
    1XTA    CL516732  27.595  -0.330   5.714
    1XTA    CL616733  27.718  -0.292   5.632
    1XTA    OA416734  27.464  -1.832   4.820
    1XTA    CO516735  27.542  -1.762   4.721
    1XTA    CL716736  27.496  -1.798   4.584
    1XTA    CL816737  27.568  -1.727   4.473
    1XTA    CL916738  27.502  -1.594   4.431
    1XTA   CL1016739  27.603  -1.497   4.367
    1XTA    CO616740  27.650  -1.539   4.225
    1XTA    OA516741  27.531  -1.534   4.142
    1XTA    CO716742  27.556  -1.577   4.011
    1XTA    CT216743  27.429  -1.621   3.946
    1XTA   CL1116744  27.392  -1.751   4.014
    1XTA   CL1216745  27.251  -1.802   3.954
    1XTA    HL116746  27.673  -2.352   5.516
    1XTA    HL216747  27.728  -2.423   5.667
    1XTA    HL316748  27.600  -2.301   5.673
    1XTA    HL416749  27.692  -1.246   5.601
    1XTA    HL516750  27.842  -1.267   5.680
    1XTA    HL616751  27.735  -1.036   5.504
    1XTA    HL716752  27.905  -1.058   5.540
    1XTA    HL816753  27.871  -0.995   5.760
    1XTA    HL916754  27.701  -1.048   5.770
    1XTA   HL1016755  27.835  -0.820   5.614
    1XTA   HL1116756  27.663  -0.838   5.614
    1XTA   HL1216757  27.822  -0.783   5.859
    1XTA   HL1316758  27.647  -0.776   5.853
    1XTA   HL1416759  27.826  -0.597   5.684
    1XTA   HL1516760  27.658  -0.591   5.702
    1XTA   HL1616761  27.571  -0.536   5.912
    1XTA   HL1716762  27.670  -0.445   6.027
    1XTA   HL1816763  27.517  -0.247   5.691
    1XTA   HL1916764  27.546  -0.419   5.670
    1XTA   HL2016765  27.745  -0.183   5.655
    1XTA   HL2116766  27.693  -0.294   5.524
    1XTA   HL2216767  27.809  -0.340   5.665
    1XTA   HL2316768  27.640  -1.808   4.742
    1XTA   HL2416769  27.542  -1.653   4.736
    1XTA   HL2516770  27.519  -1.899   4.569
    1XTA   HL2616771  27.393  -1.778   4.576
    1XTA   HL2716772  27.678  -1.717   4.498
    1XTA   HL2816773  27.567  -1.790   4.386
    1XTA   HL2916774  27.424  -1.617   4.354
    1XTA   HL3016775  27.458  -1.538   4.520
    1XTA   HL3116776  27.565  -1.399   4.363
    1XTA   HL3216777  27.690  -1.485   4.438
    1XTA   HL3316778  27.740  -1.484   4.196
    1XTA   HL3416779  27.682  -1.643   4.213
    1XTA   HL3516780  27.623  -1.659   4.008
    1XTA   HL3616781  27.607  -1.503   3.956
    1XTA   HL3716782  27.379  -1.749   4.123
    1XTA   HL3816783  27.459  -1.833   3.996
    1XTA   HL3916784  27.175  -1.731   3.979
    1XTA   HL4016785  27.244  -1.911   3.983
    1XTA   HL4116786  27.246  -1.808   3.850
    1XTA    CO816787  27.706  -0.225   5.918
    1XTA    CO916788  27.477  -0.308   5.941
    1XTA    OA616789  27.736  -0.234   6.026
    1XTA   HL4216790  27.669  -0.124   5.900
    1XTA   HL4316791  27.798  -0.238   5.857
    1XTA   HL4416792  27.516  -1.569   3.751
    1XTA   HL4516793  27.533  -1.737   3.802
    1XTA   CO1016794  27.466  -1.654   3.799
    1XTA   CO1116795  27.326  -1.506   3.954
    1XTA    OA716796  27.361  -1.681   3.710
    1XTA   HL4616797  27.387  -1.408   3.962
    1XTA   HL4716798  27.288  -1.505   3.853
    1XTA   HL4816799  27.503  -0.224   6.051
    1XTA   HL4916800  27.420  -0.247   5.875
    1XTA     NT16801  28.632   0.227   7.076
    1XTA    CN116802  28.523   0.184   7.145
    1XTA     C116803  28.391   0.232   7.123
    1XTA     C216804  28.283   0.184   7.202
    1XTA     C316805  28.307   0.083   7.295
    1XTA     C416806  28.445   0.034   7.310
    1XTA     C516807  28.552   0.080   7.234
    1XTA    CN216808  28.683   0.349   7.087
    1XTA     C616809  28.649   0.458   6.998
    1XTA     C716810  28.704   0.587   7.021
    1XTA     C816811  28.800   0.606   7.119
    1XTA     C916812  28.834   0.500   7.208
    1XTA    C1016813  28.772   0.375   7.193
    1XTA    CN316814  28.688   0.143   6.989
    1XTA    C1116815  28.623   0.128   6.864
    1XTA    C1216816  28.673   0.044   6.765
    1XTA    C1316817  28.790  -0.028   6.788
    1XTA    C1416818  28.862  -0.010   6.907
    1XTA    C1516819  28.805   0.065   7.011
    1XTA     H116820  28.372   0.306   7.051
    1XTA     H216821  28.186   0.219   7.189
    1XTA     H316822  28.468  -0.039   7.385
    1XTA     H416823  28.652   0.046   7.252
    1XTA     H516824  28.580   0.447   6.918
    1XTA     H616825  28.673   0.666   6.954
    1XTA     H716826  28.895   0.528   7.296
    1XTA     H816827  28.792   0.293   7.261
    1XTA     H916828  28.528   0.177   6.853
    1XTA    H1016829  28.623   0.022   6.671
    1XTA    H1116830  28.957  -0.060   6.919
    1XTA    H1216831  28.866   0.083   7.101
    1XTA    OA116832  28.215   0.038   7.388
    1XTA    CO116833  28.079   0.081   7.389
    1XTA    OA216834  28.864   0.728   7.143
    1XTA    CO216835  28.807   0.848   7.083
    1XTA    CL116836  28.867   0.974   7.146
    1XTA    CL216837  28.808   1.009   7.282
    1XTA    CL316838  28.850   0.901   7.390
    1XTA    CL416839  28.820   0.937   7.535
    1XTA    CO316840  28.919   0.880   7.638
    1XTA    OA316841  28.864   0.910   7.769
    1XTA    CO416842  28.956   0.905   7.880
    1XTA    CT116843  28.893   0.937   8.017
    1XTA    CL516844  28.998   0.991   8.116
    1XTA    CL616845  29.110   0.893   8.148
    1XTA    OA416846  28.851  -0.103   6.689
    1XTA    CO516847  28.831  -0.065   6.556
    1XTA    CL716848  28.949   0.015   6.506
    1XTA    CL816849  28.926   0.169   6.505
    1XTA    CL916850  29.051   0.248   6.455
    1XTA   CL1016851  29.020   0.398   6.438
    1XTA    CO616852  29.143   0.486   6.407
    1XTA    OA516853  29.153   0.516   6.268
    1XTA    CO716854  29.194   0.395   6.191
    1XTA    CT216855  29.233   0.427   6.046
    1XTA   CL1116856  29.354   0.530   6.048
    1XTA   CL1216857  29.497   0.480   6.078
    1XTA    HL116858  28.041   0.024   7.306
    1XTA    HL216859  28.032   0.037   7.480
    1XTA    HL316860  28.059   0.184   7.375
    1XTA    HL416861  28.831   0.847   6.975
    1XTA    HL516862  28.695   0.845   7.083
    1XTA    HL616863  28.856   1.057   7.075
    1XTA    HL716864  28.974   0.966   7.148
    1XTA    HL816865  28.701   1.019   7.265
    1XTA    HL916866  28.860   1.101   7.310
    1XTA   HL1016867  28.822   0.794   7.374
    1XTA   HL1116868  28.960   0.904   7.392
    1XTA   HL1216869  28.724   0.895   7.557
    1XTA   HL1316870  28.826   1.044   7.540
    1XTA   HL1416871  28.941   0.777   7.628
    1XTA   HL1516872  29.017   0.927   7.632
    1XTA   HL1616873  29.009   0.808   7.877
    1XTA   HL1716874  29.027   0.975   7.861
    1XTA   HL1816875  28.943   1.010   8.198
    1XTA   HL1916876  29.049   1.078   8.079
    1XTA   HL2016877  29.065   0.816   8.205
    1XTA   HL2116878  29.189   0.937   8.210
    1XTA   HL2216879  29.155   0.863   8.055
    1XTA   HL2316880  28.743  -0.020   6.530
    1XTA   HL2416881  28.828  -0.159   6.504
    1XTA   HL2516882  29.042  -0.017   6.554
    1XTA   HL2616883  28.969  -0.005   6.407
    1XTA   HL2716884  28.828   0.188   6.455
    1XTA   HL2816885  28.910   0.191   6.612
    1XTA   HL2916886  29.129   0.221   6.520
    1XTA   HL3016887  29.081   0.210   6.368
    1XTA   HL3116888  28.952   0.416   6.347
    1XTA   HL3216889  28.979   0.445   6.526
    1XTA   HL3316890  29.145   0.576   6.461
    1XTA   HL3416891  29.232   0.440   6.448
    1XTA   HL3516892  29.122   0.319   6.204
    1XTA   HL3616893  29.280   0.351   6.238
    1XTA   HL3716894  29.322   0.620   6.111
    1XTA   HL3816895  29.365   0.579   5.953
    1XTA   HL3916896  29.567   0.569   6.074
    1XTA   HL4016897  29.542   0.416   6.008
    1XTA   HL4116898  29.513   0.427   6.171
    1XTA    CO816899  28.814   0.821   8.072
    1XTA    CO916900  28.785   1.048   8.002
    1XTA    OA616901  28.845   1.173   7.970
    1XTA   HL4216902  28.894   0.742   8.093
    1XTA   HL4316903  28.776   0.838   8.169
    1XTA   HL4416904  29.063   0.562   6.028
    1XTA   HL4516905  29.039   0.396   5.977
    1XTA   CO1016906  29.112   0.478   5.976
    1XTA   CO1116907  29.270   0.290   5.973
    1XTA    OA716908  29.349   0.299   5.853
    1XTA   HL4616909  29.318   0.219   6.039
    1XTA   HL4716910  29.177   0.241   5.943
    1XTA   HL4816911  28.724   1.061   8.091
    1XTA   HL4916912  28.719   1.030   7.927
    1XTA     NT16913  27.305   1.968   7.413
    1XTA    CN116914  27.263   2.073   7.494
    1XTA     C116915  27.155   2.056   7.583
    1XTA     C216916  27.118   2.174   7.660
    1XTA     C316917  27.188   2.297   7.655
    1XTA     C416918  27.286   2.308   7.556
    1XTA     C516919  27.326   2.199   7.470
    1XTA    CN216920  27.225   1.928   7.311
    1XTA     C616921  27.117   1.838   7.333
    1XTA     C716922  27.033   1.811   7.229
    1XTA     C816923  27.051   1.864   7.102
    1XTA     C916924  27.158   1.953   7.073
    1XTA    C1016925  27.241   1.981   7.183
    1XTA    CN316926  27.419   1.901   7.451
    1XTA    C1116927  27.438   1.849   7.585
    1XTA    C1216928  27.557   1.782   7.622
    1XTA    C1316929  27.661   1.775   7.528
    1XTA    C1416930  27.640   1.813   7.393
    1XTA    C1516931  27.527   1.882   7.357
    1XTA     H116932  27.095   1.965   7.598
    1XTA     H216933  27.038   2.163   7.741
    1XTA     H316934  27.333   2.401   7.534
    1XTA     H416935  27.411   2.214   7.405
    1XTA     H516936  27.107   1.798   7.432
    1XTA     H616937  26.942   1.753   7.243
    1XTA     H716938  27.176   1.991   6.975
    1XTA     H816939  27.324   2.047   7.172
    1XTA     H916940  27.351   1.861   7.644
    1XTA    H1016941  27.569   1.743   7.719
    1XTA    H1116942  27.721   1.793   7.333
    1XTA    H1216943  27.536   1.919   7.252
    1XTA    OA116944  27.149   2.396   7.742
    1XTA    CO116945  27.240   2.504   7.747
    1XTA    OA216946  26.967   1.814   7.009
    1XTA    CO216947  26.980   1.866   6.881
    1XTA    CL116948  26.879   1.793   6.791
    1XTA    CL216949  26.841   1.881   6.672
    1XTA    CL316950  26.750   1.824   6.566
    1XTA    CL416951  26.747   1.894   6.425
    1XTA    CO316952  26.697   2.038   6.434
    1XTA    OA316953  26.567   2.039   6.487
    1XTA    CO416954  26.491   2.155   6.448
    1XTA    CT116955  26.357   2.143   6.512
    1XTA    CL516956  26.280   2.273   6.478
    1XTA    CL616957  26.136   2.267   6.527
    1XTA    OA416958  27.777   1.706   7.549
    1XTA    CO516959  27.818   1.680   7.680
    1XTA    CL716960  27.959   1.626   7.650
    1XTA    CL816961  27.987   1.521   7.749
    1XTA    CL916962  27.901   1.393   7.732
    1XTA   CL1016963  27.948   1.269   7.818
    1XTA    CO616964  27.870   1.141   7.779
    1XTA    OA516965  27.898   1.097   7.646
    1XTA    CO716966  27.808   1.005   7.584
    1XTA    CT216967  27.871   0.957   7.449
    1XTA   CL1116968  27.760   0.884   7.374
    1XTA   CL1216969  27.791   0.836   7.233
    1XTA    HL116970  27.343   2.474   7.780
    1XTA    HL216971  27.248   2.549   7.645
    1XTA    HL316972  27.197   2.590   7.808
    1XTA    HL416973  26.959   1.973   6.878
    1XTA    HL516974  27.075   1.841   6.845
    1XTA    HL616975  26.786   1.770   6.848
    1XTA    HL716976  26.919   1.696   6.755
    1XTA    HL816977  26.941   1.890   6.629
    1XTA    HL916978  26.807   1.972   6.701
    1XTA   HL1016979  26.779   1.719   6.557
    1XTA   HL1116980  26.650   1.818   6.599
    1XTA   HL1216981  26.679   1.840   6.365
    1XTA   HL1316982  26.839   1.904   6.368
    1XTA   HL1416983  26.753   2.113   6.487
    1XTA   HL1516984  26.694   2.076   6.333
    1XTA   HL1616985  26.531   2.251   6.478
    1XTA   HL1716986  26.484   2.163   6.337
    1XTA   HL1816987  26.293   2.279   6.373
    1XTA   HL1916988  26.328   2.358   6.517
    1XTA   HL2016989  26.088   2.367   6.528
    1XTA   HL2116990  26.128   2.215   6.624
    1XTA   HL2216991  26.080   2.205   6.465
    1XTA   HL2316992  27.744   1.609   7.717
    1XTA   HL2416993  27.820   1.761   7.752
    1XTA   HL2516994  27.976   1.581   7.547
    1XTA   HL2616995  28.032   1.709   7.648
    1XTA   HL2716996  28.090   1.494   7.742
    1XTA   HL2816997  27.976   1.568   7.849
    1XTA   HL2916998  27.796   1.423   7.750
    1XTA   HL3016999  27.897   1.362   7.627
    1XTA   HL3117000  28.062   1.259   7.781
    1XTA   HL3217001  27.941   1.292   7.922
    1XTA   HL3317002  27.916   1.052   7.825
    1XTA   HL3417003  27.766   1.140   7.803
    1XTA   HL3517004  27.707   1.053   7.569
    1XTA   HL3617005  27.787   0.926   7.652
    1XTA   HL3717006  27.667   0.945   7.374
    1XTA   HL3817007  27.720   0.798   7.428
    1XTA   HL3917008  27.793   0.928   7.159
    1XTA   HL4017009  27.722   0.769   7.180
    1XTA   HL4117010  27.891   0.804   7.216
    1XTA    CO817011  26.377   2.124   6.663
    1XTA    CO917012  26.292   2.010   6.459
    1XTA    OA617013  26.287   2.004   6.349
    1XTA   HL4217014  26.281   2.113   6.711
    1XTA   HL4317015  26.462   2.012   6.681
    1XTA   HL4417016  28.016   0.810   7.377
    1XTA   HL4517017  27.927   0.784   7.533
    1XTA   CO1017018  27.985   0.861   7.475
    1XTA   CO1117019  27.922   1.076   7.368
    1XTA    OA717020  27.814   1.158   7.329
    1XTA   HL4617021  27.999   1.140   7.423
    1XTA   HL4717022  27.962   1.027   7.281
    1XTA   HL4817023  26.195   1.989   6.496
    1XTA   HL4917024  26.352   1.923   6.500
    1XTA     NT17025  28.458   2.843   1.260
    1XTA    CN117026  28.495   2.971   1.232
    1XTA     C117027  28.511   3.025   1.101
    1XTA     C217028  28.541   3.161   1.082
    1XTA     C317029  28.545   3.246   1.194
    1XTA     C417030  28.520   3.199   1.321
    1XTA     C517031  28.498   3.061   1.341
    1XTA    CN217032  28.558   2.768   1.311
    1XTA     C617033  28.668   2.733   1.221
    1XTA     C717034  28.775   2.666   1.275
    1XTA     C817035  28.774   2.613   1.406
    1XTA     C917036  28.664   2.640   1.491
    1XTA    C1017037  28.552   2.713   1.442
    1XTA    CN317038  28.329   2.803   1.240
    1XTA    C1117039  28.228   2.890   1.268
    1XTA    C1217040  28.095   2.853   1.246
    1XTA    C1317041  28.059   2.726   1.194
    1XTA    C1417042  28.164   2.642   1.163
    1XTA    C1517043  28.303   2.676   1.186
    1XTA     H117044  28.499   2.957   1.017
    1XTA     H217045  28.544   3.204   0.985
    1XTA     H317046  28.516   3.278   1.394
    1XTA     H417047  28.473   3.030   1.442
    1XTA     H517048  28.681   2.778   1.127
    1XTA     H617049  28.863   2.644   1.211
    1XTA     H717050  28.661   2.604   1.590
    1XTA     H817051  28.469   2.749   1.503
    1XTA     H917052  28.246   2.994   1.303
    1XTA    H1017053  28.004   2.919   1.261
    1XTA    H1117054  28.148   2.549   1.104
    1XTA    H1217055  28.394   2.624   1.148
    1XTA    OA117056  28.572   3.381   1.173
    1XTA    CO117057  28.599   3.433   1.039
    1XTA    OA217058  28.877   2.534   1.464
    1XTA    CO217059  28.933   2.432   1.385
    1XTA    CL117060  29.035   2.357   1.466
    1XTA    CL217061  28.962   2.274   1.579
    1XTA    CL317062  28.882   2.148   1.536
    1XTA    CL417063  28.797   2.100   1.653
    1XTA    CO317064  28.665   2.179   1.663
    1XTA    OA317065  28.588   2.164   1.543
    1XTA    CO417066  28.520   2.284   1.516
    1XTA    CT117067  28.443   2.287   1.386
    1XTA    CL517068  28.548   2.274   1.274
    1XTA    CL617069  28.483   2.278   1.130
    1XTA    OA417070  27.932   2.678   1.177
    1XTA    CO517071  27.824   2.776   1.148
    1XTA    CL717072  27.743   2.798   1.273
    1XTA    CL817073  27.698   2.664   1.336
    1XTA    CL917074  27.653   2.662   1.473
    1XTA   CL1017075  27.663   2.522   1.534
    1XTA    CO617076  27.636   2.529   1.681
    1XTA    OA517077  27.663   2.398   1.730
    1XTA    CO717078  27.728   2.405   1.851
    1XTA    CT217079  27.824   2.278   1.855
    1XTA   CL1117080  27.730   2.162   1.841
    1XTA   CL1217081  27.778   2.015   1.857
    1XTA    HL117082  28.517   3.410   0.974
    1XTA    HL217083  28.616   3.542   1.036
    1XTA    HL317084  28.690   3.390   0.994
    1XTA    HL417085  28.856   2.366   1.357
    1XTA    HL517086  28.980   2.462   1.290
    1XTA    HL617087  29.099   2.434   1.504
    1XTA    HL717088  29.102   2.296   1.400
    1XTA    HL817089  28.905   2.333   1.648
    1XTA    HL917090  29.041   2.225   1.636
    1XTA   HL1017091  28.811   2.173   1.451
    1XTA   HL1117092  28.949   2.069   1.501
    1XTA   HL1217093  28.859   2.096   1.747
    1XTA   HL1317094  28.770   1.993   1.637
    1XTA   HL1417095  28.619   2.141   1.748
    1XTA   HL1517096  28.686   2.286   1.688
    1XTA   HL1617097  28.454   2.323   1.594
    1XTA   HL1717098  28.592   2.365   1.510
    1XTA   HL1817099  28.618   2.195   1.280
    1XTA   HL1917100  28.617   2.356   1.275
    1XTA   HL2017101  28.405   2.203   1.127
    1XTA   HL2117102  28.547   2.257   1.051
    1XTA   HL2217103  28.432   2.375   1.106
    1XTA   HL2317104  27.758   2.723   1.073
    1XTA   HL2417105  27.871   2.857   1.090
    1XTA   HL2517106  27.804   2.856   1.344
    1XTA   HL2617107  27.650   2.859   1.253
    1XTA   HL2717108  27.612   2.636   1.280
    1XTA   HL2817109  27.764   2.581   1.322
    1XTA   HL2917110  27.718   2.721   1.529
    1XTA   HL3017111  27.554   2.718   1.489
    1XTA   HL3117112  27.593   2.457   1.482
    1XTA   HL3217113  27.758   2.473   1.518
    1XTA   HL3317114  27.694   2.608   1.723
    1XTA   HL3417115  27.531   2.549   1.703
    1XTA   HL3517116  27.653   2.416   1.926
    1XTA   HL3617117  27.797   2.488   1.852
    1XTA   HL3717118  27.684   2.168   1.743
    1XTA   HL3817119  27.631   2.166   1.889
    1XTA   HL3917120  27.831   1.999   1.765
    1XTA   HL4017121  27.693   1.941   1.868
    1XTA   HL4117122  27.858   1.995   1.933
    1XTA    CO817123  28.356   2.410   1.379
    1XTA    CO917124  28.341   2.167   1.377
    1XTA    OA617125  28.276   2.420   1.490
    1XTA   HL4217126  28.294   2.391   1.288
    1XTA   HL4317127  28.428   2.496   1.377
    1XTA   HL4417128  27.979   2.369   1.974
    1XTA   HL4517129  27.854   2.316   2.080
    1XTA   CO1017130  27.909   2.285   1.989
    1XTA   CO1117131  27.917   2.281   1.739
    1XTA    OA717132  27.965   2.194   2.014
    1XTA   HL4617133  28.001   2.168   1.753
    1XTA   HL4717134  27.861   2.262   1.649
    1XTA   HL4817135  28.286   2.161   1.467
    1XTA   HL4917136  28.280   2.176   1.292
    1XTA     NT17137  27.537   0.171  -0.148
    1XTA    CN117138  27.447   0.112  -0.070
    1XTA     C117139  27.405  -0.017  -0.094
    1XTA     C217140  27.329  -0.089   0.002
    1XTA     C317141  27.283  -0.022   0.115
    1XTA     C417142  27.337   0.107   0.140
    1XTA     C517143  27.409   0.179   0.044
    1XTA    CN217144  27.504   0.246  -0.258
    1XTA     C617145  27.456   0.380  -0.241
    1XTA     C717146  27.444   0.478  -0.348
    1XTA     C817147  27.474   0.431  -0.476
    1XTA     C917148  27.517   0.297  -0.497
    1XTA    C1017149  27.538   0.201  -0.391
    1XTA    CN317150  27.668   0.173  -0.126
    1XTA    C1117151  27.731   0.292  -0.086
    1XTA    C1217152  27.873   0.291  -0.058
    1XTA    C1317153  27.954   0.170  -0.060
    1XTA    C1417154  27.884   0.057  -0.105
    1XTA    C1517155  27.750   0.057  -0.136
    1XTA     H117156  27.424  -0.072  -0.186
    1XTA     H217157  27.289  -0.185  -0.020
    1XTA     H317158  27.313   0.147   0.235
    1XTA     H417159  27.443   0.284   0.069
    1XTA     H517160  27.433   0.412  -0.137
    1XTA     H617161  27.406   0.585  -0.334
    1XTA     H717162  27.544   0.266  -0.594
    1XTA     H817163  27.580   0.104  -0.411
    1XTA     H917164  27.666   0.381  -0.069
    1XTA    H1017165  27.918   0.387  -0.022
    1XTA    H1117166  27.950  -0.032  -0.102
    1XTA    H1217167  27.697  -0.032  -0.169
    1XTA    OA117168  27.205  -0.087   0.202
    1XTA    CO117169  27.122  -0.006   0.277
    1XTA    OA217170  27.472   0.505  -0.587
    1XTA    CO217171  27.465   0.647  -0.578
    1XTA    CL117172  27.427   0.702  -0.714
    1XTA    CL217173  27.442   0.856  -0.733
    1XTA    CL317174  27.407   0.905  -0.876
    1XTA    CL417175  27.420   1.056  -0.891
    1XTA    CO317176  27.412   1.102  -1.033
    1XTA    OA317177  27.298   1.049  -1.104
    1XTA    CO417178  27.167   1.090  -1.057
    1XTA    CT117179  27.061   1.027  -1.146
    1XTA    CL517180  27.074   1.091  -1.290
    1XTA    CL617181  27.021   0.995  -1.399
    1XTA    OA417182  28.073   0.160  -0.007
    1XTA    CO517183  28.075   0.095   0.117
    1XTA    CL717184  28.212   0.106   0.187
    1XTA    CL817185  28.218   0.033   0.318
    1XTA    CL917186  28.124   0.078   0.424
    1XTA   CL1017187  28.113   0.231   0.452
    1XTA    CO617188  28.251   0.299   0.481
    1XTA    OA517189  28.267   0.319   0.620
    1XTA    CO717190  28.372   0.415   0.646
    1XTA    CT217191  28.431   0.396   0.789
    1XTA   CL1117192  28.497   0.257   0.821
    1XTA   CL1217193  28.406   0.129   0.841
    1XTA    HL117194  27.053  -0.061   0.345
    1XTA    HL217195  27.183   0.060   0.337
    1XTA    HL317196  27.049   0.058   0.222
    1XTA    HL417197  27.398   0.673  -0.503
    1XTA    HL517198  27.568   0.678  -0.534
    1XTA    HL617199  27.347   0.657  -0.758
    1XTA    HL717200  27.508   0.657  -0.779
    1XTA    HL817201  27.549   0.882  -0.719
    1XTA    HL917202  27.392   0.913  -0.662
    1XTA   HL1017203  27.475   0.855  -0.945
    1XTA   HL1117204  27.299   0.883  -0.885
    1XTA   HL1217205  27.519   1.093  -0.851
    1XTA   HL1317206  27.334   1.100  -0.837
    1XTA   HL1417207  27.413   1.216  -1.033
    1XTA   HL1517208  27.499   1.068  -1.093
    1XTA   HL1617209  27.151   1.074  -0.954
    1XTA   HL1717210  27.172   1.200  -1.070
    1XTA   HL1817211  27.173   1.126  -1.315
    1XTA   HL1917212  27.012   1.171  -1.293
    1XTA   HL2017213  27.088   0.910  -1.404
    1XTA   HL2117214  27.013   1.041  -1.496
    1XTA   HL2217215  26.921   0.956  -1.382
    1XTA   HL2317216  28.042  -0.007   0.110
    1XTA   HL2417217  28.003   0.142   0.180
    1XTA   HL2517218  28.290   0.062   0.121
    1XTA   HL2617219  28.253   0.209   0.193
    1XTA   HL2717220  28.192  -0.076   0.293
    1XTA   HL2817221  28.322   0.039   0.355
    1XTA   HL2917222  28.018   0.041   0.409
    1XTA   HL3017223  28.152   0.033   0.521
    1XTA   HL3117224  28.069   0.278   0.362
    1XTA   HL3217225  28.053   0.253   0.540
    1XTA   HL3317226  28.336   0.232   0.452
    1XTA   HL3417227  28.248   0.385   0.413
    1XTA   HL3517228  28.326   0.519   0.645
    1XTA   HL3617229  28.449   0.413   0.572
    1XTA   HL3717230  28.559   0.263   0.911
    1XTA   HL3817231  28.565   0.244   0.739
    1XTA   HL3917232  28.311   0.151   0.897
    1XTA   HL4017233  28.455   0.053   0.885
    1XTA   HL4117234  28.366   0.102   0.743
    1XTA    CO817235  26.924   1.074  -1.076
    1XTA    CO917236  27.062   0.873  -1.145
    1XTA    OA617237  26.889   1.174  -1.095
    1XTA   HL4217238  26.926   1.046  -0.968
    1XTA   HL4317239  26.846   1.007  -1.116
    1XTA   HL4417240  28.191   0.358   0.856
    1XTA   HL4517241  28.286   0.534   0.882
    1XTA   CO1017242  28.311   0.427   0.893
    1XTA   CO1117243  28.524   0.512   0.813
    1XTA    OA717244  28.607   0.493   0.736
    1XTA   HL4617245  28.475   0.601   0.784
    1XTA   HL4717246  28.564   0.513   0.911
    1XTA   HL4817247  27.135   0.824  -1.042
    1XTA   HL4917248  27.136   0.842  -1.218
    1XTA     NT17249  30.193   4.650   3.497
    1XTA    CN117250  30.177   4.754   3.411
    1XTA     C117251  30.076   4.755   3.312
    1XTA     C217252  30.063   4.863   3.222
    1XTA     C317253  30.134   4.983   3.244
    1XTA     C417254  30.243   4.978   3.337
    1XTA     C517255  30.269   4.862   3.412
    1XTA    CN217256  30.319   4.617   3.550
    1XTA     C617257  30.350   4.655   3.681
    1XTA     C717258  30.472   4.615   3.741
    1XTA     C817259  30.553   4.532   3.674
    1XTA     C917260  30.520   4.483   3.542
    1XTA    C1017261  30.404   4.531   3.478
    1XTA    CN317262  30.084   4.596   3.561
    1XTA    C1117263  30.011   4.669   3.659
    1XTA    C1217264  29.903   4.606   3.726
    1XTA    C1317265  29.879   4.470   3.708
    1XTA    C1417266  29.949   4.395   3.607
    1XTA    C1517267  30.049   4.463   3.537
    1XTA     H117268  30.005   4.679   3.295
    1XTA     H217269  29.988   4.862   3.145
    1XTA     H317270  30.290   5.069   3.362
    1XTA     H417271  30.340   4.860   3.491
    1XTA     H517272  30.275   4.713   3.741
    1XTA     H617273  30.509   4.647   3.834
    1XTA     H717274  30.584   4.408   3.496
    1XTA     H817275  30.381   4.506   3.374
    1XTA     H917276  30.030   4.771   3.676
    1XTA    H1017277  29.855   4.668   3.804
    1XTA    H1117278  29.933   4.292   3.584
    1XTA    H1217279  30.116   4.398   3.477
    1XTA    OA117280  30.115   5.099   3.179
    1XTA    CO117281  30.005   5.104   3.095
    1XTA    OA217282  30.665   4.484   3.734
    1XTA    CO217283  30.688   4.342   3.712
    1XTA    CL117284  30.822   4.316   3.785
    1XTA    CL217285  30.931   4.399   3.730
    1XTA    CL317286  30.989   4.365   3.593
    1XTA    CL417287  31.120   4.441   3.554
    1XTA    CO317288  31.109   4.593   3.527
    1XTA    OA317289  31.022   4.621   3.420
    1XTA    CO417290  31.019   4.758   3.383
    1XTA    CT117291  30.872   4.798   3.381
    1XTA    CL517292  30.861   4.949   3.355
    1XTA    CL617293  30.897   5.003   3.218
    1XTA    OA417294  29.780   4.400   3.771
    1XTA    CO517295  29.672   4.480   3.822
    1XTA    CL717296  29.662   4.495   3.974
    1XTA    CL817297  29.748   4.608   4.033
    1XTA    CL917298  29.752   4.619   4.184
    1XTA   CL1017299  29.613   4.664   4.232
    1XTA    CO617300  29.622   4.774   4.344
    1XTA    OA517301  29.495   4.812   4.389
    1XTA    CO717302  29.419   4.705   4.453
    1XTA    CT217303  29.330   4.770   4.560
    1XTA   CL1117304  29.230   4.855   4.480
    1XTA   CL1217305  29.148   4.957   4.563
    1XTA    HL117306  30.004   5.037   3.006
    1XTA    HL217307  29.911   5.093   3.160
    1XTA    HL317308  30.000   5.205   3.059
    1XTA    HL417309  30.601   4.286   3.741
    1XTA    HL517310  30.713   4.337   3.610
    1XTA    HL617311  30.846   4.213   3.789
    1XTA    HL717312  30.817   4.346   3.889
    1XTA    HL817313  31.013   4.401   3.797
    1XTA    HL917314  30.908   4.509   3.723
    1XTA   HL1017315  31.009   4.262   3.597
    1XTA   HL1117316  30.907   4.380   3.523
    1XTA   HL1217317  31.166   4.404   3.463
    1XTA   HL1317318  31.195   4.424   3.633
    1XTA   HL1417319  31.073   4.648   3.616
    1XTA   HL1517320  31.201   4.634   3.511
    1XTA   HL1617321  31.072   4.814   3.461
    1XTA   HL1717322  31.064   4.781   3.288
    1XTA   HL1817323  30.935   4.996   3.423
    1XTA   HL1917324  30.762   4.987   3.394
    1XTA   HL2017325  30.835   4.964   3.127
    1XTA   HL2117326  31.000   4.958   3.199
    1XTA   HL2217327  30.889   5.115   3.217
    1XTA   HL2317328  29.582   4.427   3.798
    1XTA   HL2417329  29.667   4.571   3.768
    1XTA   HL2517330  29.556   4.508   3.995
    1XTA   HL2617331  29.684   4.394   4.008
    1XTA   HL2717332  29.845   4.591   3.997
    1XTA   HL2817333  29.718   4.695   3.976
    1XTA   HL2917334  29.783   4.523   4.226
    1XTA   HL3017335  29.828   4.688   4.216
    1XTA   HL3117336  29.549   4.689   4.149
    1XTA   HL3217337  29.552   4.591   4.279
    1XTA   HL3317338  29.675   4.740   4.442
    1XTA   HL3417339  29.680   4.857   4.314
    1XTA   HL3517340  29.492   4.631   4.502
    1XTA   HL3617341  29.360   4.651   4.381
    1XTA   HL3717342  29.162   4.799   4.417
    1XTA   HL3817343  29.286   4.918   4.419
    1XTA   HL3917344  29.218   5.039   4.594
    1XTA   HL4017345  29.111   4.909   4.652
    1XTA   HL4117346  29.074   5.006   4.510
    1XTA    CO817347  30.794   4.768   3.508
    1XTA    CO917348  30.799   4.716   3.272
    1XTA    OA617349  30.818   4.837   3.597
    1XTA   HL4217350  30.808   4.661   3.539
    1XTA   HL4317351  30.687   4.772   3.476
    1XTA   HL4417352  29.467   4.923   4.594
    1XTA   HL4517353  29.348   4.895   4.729
    1XTA   CO1017354  29.417   4.849   4.655
    1XTA   CO1117355  29.245   4.671   4.635
    1XTA    OA717356  29.510   4.774   4.719
    1XTA   HL4617357  29.192   4.613   4.562
    1XTA   HL4717358  29.162   4.728   4.670
    1XTA   HL4817359  30.666   4.750   3.255
    1XTA   HL4917360  30.793   4.611   3.297
    1XTA     NT17361  30.738  -0.810   4.067
    1XTA    CN117362  30.748  -0.922   4.144
    1XTA     C117363  30.793  -0.920   4.277
    1XTA     C217364  30.789  -1.040   4.359
    1XTA     C317365  30.734  -1.158   4.302
    1XTA     C417366  30.691  -1.161   4.167
    1XTA     C517367  30.708  -1.047   4.089
    1XTA    CN217368  30.701  -0.697   4.132
    1XTA     C617369  30.800  -0.604   4.175
    1XTA     C717370  30.766  -0.488   4.249
    1XTA     C817371  30.634  -0.471   4.293
    1XTA     C917372  30.536  -0.568   4.258
    1XTA    C1017373  30.570  -0.681   4.188
    1XTA    CN317374  30.746  -0.802   3.930
    1XTA    C1117375  30.871  -0.797   3.871
    1XTA    C1217376  30.877  -0.769   3.737
    1XTA    C1317377  30.766  -0.752   3.656
    1XTA    C1417378  30.640  -0.763   3.718
    1XTA    C1517379  30.626  -0.786   3.857
    1XTA     H117380  30.827  -0.828   4.329
    1XTA     H217381  30.820  -1.034   4.457
    1XTA     H317382  30.654  -1.248   4.121
    1XTA     H417383  30.684  -1.066   3.989
    1XTA     H517384  30.904  -0.616   4.137
    1XTA     H617385  30.845  -0.413   4.253
    1XTA     H717386  30.441  -0.562   4.296
    1XTA     H817387  30.495  -0.760   4.171
    1XTA     H917388  30.956  -0.818   3.936
    1XTA    H1017389  30.970  -0.741   3.684
    1XTA    H1117390  30.551  -0.748   3.664
    1XTA    H1217391  30.531  -0.772   3.908
    1XTA    OA117392  30.728  -1.267   4.392
    1XTA    CO117393  30.694  -1.397   4.343
    1XTA    OA217394  30.601  -0.354   4.353
    1XTA    CO217395  30.472  -0.336   4.398
    1XTA    CL117396  30.375  -0.260   4.304
    1XTA    CL217397  30.416  -0.123   4.251
    1XTA    CL317398  30.313  -0.066   4.151
    1XTA    CL417399  30.181  -0.019   4.211
    1XTA    CO317400  30.076   0.042   4.120
    1XTA    OA317401  30.032  -0.048   4.014
    1XTA    CO417402  29.942   0.014   3.921
    1XTA    CT117403  29.879  -0.073   3.813
    1XTA    CL517404  29.800  -0.184   3.883
    1XTA    CL617405  29.755  -0.291   3.781
    1XTA    OA417406  30.774  -0.692   3.527
    1XTA    CO517407  30.681  -0.760   3.432
    1XTA    CL717408  30.729  -0.714   3.294
    1XTA    CL817409  30.864  -0.776   3.262
    1XTA    CL917410  30.885  -0.932   3.280
    1XTA   CL1017411  31.030  -0.979   3.240
    1XTA    CO617412  31.128  -0.977   3.357
    1XTA    OA517413  31.076  -1.049   3.465
    1XTA    CO717414  31.114  -1.019   3.596
    1XTA    CT217415  31.045  -1.113   3.697
    1XTA   CL1117416  30.893  -1.110   3.682
    1XTA   CL1217417  30.840  -1.194   3.567
    1XTA    HL117418  30.673  -1.466   4.427
    1XTA    HL217419  30.610  -1.380   4.278
    1XTA    HL317420  30.768  -1.446   4.278
    1XTA    HL417421  30.425  -0.420   4.438
    1XTA    HL517422  30.482  -0.272   4.490
    1XTA    HL617423  30.276  -0.273   4.338
    1XTA    HL717424  30.375  -0.331   4.221
    1XTA    HL817425  30.508  -0.125   4.203
    1XTA    HL917426  30.415  -0.053   4.336
    1XTA   HL1017427  30.362   0.016   4.097
    1XTA   HL1117428  30.293  -0.143   4.077
    1XTA   HL1217429  30.207   0.049   4.290
    1XTA   HL1317430  30.127  -0.099   4.263
    1XTA   HL1417431  29.984   0.058   4.179
    1XTA   HL1517432  30.110   0.134   4.077
    1XTA   HL1617433  29.854   0.066   3.967
    1XTA   HL1717434  30.013   0.090   3.888
    1XTA   HL1817435  29.717  -0.143   3.933
    1XTA   HL1917436  29.869  -0.234   3.947
    1XTA   HL2017437  29.834  -0.337   3.724
    1XTA   HL2117438  29.668  -0.262   3.726
    1XTA   HL2217439  29.723  -0.371   3.840
    1XTA   HL2317440  30.577  -0.723   3.440
    1XTA   HL2417441  30.679  -0.864   3.456
    1XTA   HL2517442  30.658  -0.747   3.221
    1XTA   HL2617443  30.734  -0.608   3.267
    1XTA   HL2717444  30.906  -0.750   3.161
    1XTA   HL2817445  30.927  -0.725   3.338
    1XTA   HL2917446  30.857  -0.964   3.377
    1XTA   HL3017447  30.803  -0.970   3.211
    1XTA   HL3117448  31.021  -1.087   3.213
    1XTA   HL3217449  31.064  -0.936   3.148
    1XTA   HL3317450  31.221  -1.026   3.329
    1XTA   HL3417451  31.153  -0.870   3.375
    1XTA   HL3517452  31.093  -0.913   3.617
    1XTA   HL3617453  31.219  -1.039   3.602
    1XTA   HL3717454  30.859  -1.006   3.663
    1XTA   HL3817455  30.847  -1.149   3.775
    1XTA   HL3917456  30.881  -1.158   3.474
    1XTA   HL4017457  30.732  -1.188   3.550
    1XTA   HL4117458  30.871  -1.303   3.568
    1XTA    CO817459  29.985  -0.115   3.710
    1XTA    CO917460  29.781   0.017   3.740
    1XTA    OA617461  30.057  -0.000   3.677
    1XTA   HL4217462  29.938  -0.158   3.621
    1XTA   HL4317463  30.058  -0.178   3.762
    1XTA   HL4417464  31.183  -1.024   3.829
    1XTA   HL4517465  31.025  -1.039   3.918
    1XTA   CO1017466  31.093  -1.087   3.837
    1XTA   CO1117467  31.099  -1.255   3.713
    1XTA    OA717468  31.138  -1.223   3.849
    1XTA   HL4617469  31.032  -1.345   3.702
    1XTA   HL4717470  31.189  -1.269   3.648
    1XTA   HL4817471  29.711  -0.043   3.688
    1XTA   HL4917472  29.716   0.070   3.815
    1XTA     NT17473  29.101   3.265   5.233
    1XTA    CN117474  29.031   3.277   5.353
    1XTA     C117475  29.109   3.270   5.472
    1XTA     C217476  29.047   3.285   5.596
    1XTA     C317477  28.908   3.302   5.604
    1XTA     C417478  28.834   3.303   5.488
    1XTA     C517479  28.894   3.283   5.362
    1XTA    CN217480  29.211   3.189   5.231
    1XTA     C617481  29.192   3.055   5.248
    1XTA     C717482  29.308   2.976   5.259
    1XTA     C817483  29.439   3.036   5.253
    1XTA     C917484  29.454   3.176   5.235
    1XTA    C1017485  29.340   3.255   5.225
    1XTA    CN317486  29.049   3.296   5.116
    1XTA    C1117487  29.091   3.411   5.050
    1XTA    C1217488  29.026   3.445   4.930
    1XTA    C1317489  28.930   3.358   4.870
    1XTA    C1417490  28.895   3.236   4.936
    1XTA    C1517491  28.953   3.205   5.059
    1XTA     H117492  29.214   3.281   5.475
    1XTA     H217493  29.104   3.283   5.687
    1XTA     H317494  28.724   3.327   5.489
    1XTA     H417495  28.827   3.289   5.273
    1XTA     H517496  29.097   3.008   5.260
    1XTA     H617497  29.292   2.870   5.274
    1XTA     H717498  29.549   3.223   5.228
    1XTA     H817499  29.342   3.365   5.205
    1XTA     H917500  29.166   3.474   5.097
    1XTA    H1017501  29.056   3.536   4.879
    1XTA    H1117502  28.823   3.170   4.893
    1XTA    H1217503  28.917   3.110   5.095
    1XTA    OA117504  28.847   3.320   5.725
    1XTA    CO117505  28.895   3.425   5.812
    1XTA    OA217506  29.551   2.960   5.285
    1XTA    CO217507  29.544   2.822   5.260
    1XTA    CL117508  29.537   2.799   5.101
    1XTA    CL217509  29.665   2.847   5.022
    1XTA    CL317510  29.629   2.859   4.867
    1XTA    CL417511  29.745   2.867   4.773
    1XTA    CO317512  29.707   2.898   4.623
    1XTA    OA317513  29.820   2.937   4.549
    1XTA    CO417514  29.784   3.016   4.433
    1XTA    CT117515  29.909   3.074   4.365
    1XTA    CL517516  30.028   3.110   4.454
    1XTA    CL617517  29.996   3.205   4.572
    1XTA    OA417518  28.887   3.379   4.740
    1XTA    CO517519  28.931   3.489   4.676
    1XTA    CL717520  28.891   3.464   4.532
    1XTA    CL817521  29.010   3.457   4.433
    1XTA    CL917522  29.112   3.352   4.476
    1XTA   CL1017523  29.216   3.327   4.362
    1XTA    CO617524  29.341   3.260   4.414
    1XTA    OA517525  29.456   3.283   4.330
    1XTA    CO717526  29.457   3.213   4.207
    1XTA    CT217527  29.556   3.282   4.112
    1XTA   CL1117528  29.568   3.204   3.980
    1XTA   CL1217529  29.641   3.068   3.981
    1XTA    HL117530  28.880   3.522   5.770
    1XTA    HL217531  28.840   3.415   5.902
    1XTA    HL317532  29.000   3.408   5.828
    1XTA    HL417533  29.641   2.787   5.288
    1XTA    HL517534  29.476   2.756   5.313
    1XTA    HL617535  29.457   2.858   5.058
    1XTA    HL717536  29.502   2.693   5.079
    1XTA    HL817537  29.760   2.781   5.045
    1XTA    HL917538  29.701   2.951   5.052
    1XTA   HL1017539  29.563   2.777   4.848
    1XTA   HL1117540  29.572   2.950   4.851
    1XTA   HL1217541  29.811   2.778   4.789
    1XTA   HL1317542  29.806   2.942   4.806
    1XTA   HL1417543  29.670   2.798   4.592
    1XTA   HL1517544  29.614   2.957   4.614
    1XTA   HL1617545  29.724   2.958   4.363
    1XTA   HL1717546  29.724   3.101   4.463
    1XTA   HL1817547  30.103   3.163   4.393
    1XTA   HL1917548  30.061   3.017   4.498
    1XTA   HL2017549  29.929   3.152   4.632
    1XTA   HL2117550  29.946   3.299   4.549
    1XTA   HL2217551  30.077   3.226   4.646
    1XTA   HL2317552  29.035   3.504   4.680
    1XTA   HL2417553  28.883   3.584   4.713
    1XTA   HL2517554  28.823   3.378   4.510
    1XTA   HL2617555  28.828   3.544   4.508
    1XTA   HL2717556  28.970   3.457   4.336
    1XTA   HL2817557  29.054   3.553   4.438
    1XTA   HL2917558  29.160   3.384   4.567
    1XTA   HL3017559  29.064   3.258   4.495
    1XTA   HL3117560  29.172   3.260   4.282
    1XTA   HL3217561  29.258   3.427   4.333
    1XTA   HL3317562  29.374   3.289   4.517
    1XTA   HL3417563  29.317   3.152   4.426
    1XTA   HL3517564  29.359   3.216   4.160
    1XTA   HL3617565  29.487   3.108   4.227
    1XTA   HL3717566  29.631   3.262   3.909
    1XTA   HL3817567  29.466   3.198   3.933
    1XTA   HL3917568  29.748   3.085   3.985
    1XTA   HL4017569  29.622   3.006   3.903
    1XTA   HL4117570  29.614   3.002   4.066
    1XTA    CO817571  29.869   3.196   4.289
    1XTA    CO917572  29.945   2.974   4.250
    1XTA    OA617573  29.742   3.177   4.239
    1XTA   HL4217574  29.952   3.218   4.217
    1XTA   HL4317575  29.856   3.283   4.360
    1XTA   HL4417576  29.681   3.362   4.278
    1XTA   HL4517577  29.784   3.356   4.100
    1XTA   CO1017578  29.692   3.296   4.191
    1XTA   CO1117579  29.516   3.426   4.080
    1XTA    OA717580  29.425   3.428   4.021
    1XTA   HL4617581  29.508   3.472   4.175
    1XTA   HL4717582  29.597   3.467   4.030
    1XTA   HL4817583  30.022   3.015   4.181
    1XTA   HL4917584  29.857   2.957   4.186
    1XTA     NT17585  26.558   0.691   5.456
    1XTA    CN117586  26.477   0.691   5.347
    1XTA     C117587  26.334   0.698   5.356
    1XTA     C217588  26.251   0.676   5.247
    1XTA     C317589  26.306   0.655   5.121
    1XTA     C417590  26.444   0.669   5.104
    1XTA     C517591  26.535   0.688   5.215
    1XTA    CN217592  26.522   0.763   5.569
    1XTA     C617593  26.474   0.697   5.682
    1XTA     C717594  26.415   0.773   5.783
    1XTA     C817595  26.413   0.914   5.771
    1XTA     C917596  26.458   0.982   5.657
    1XTA    C1017597  26.515   0.906   5.550
    1XTA    CN317598  26.656   0.603   5.469
    1XTA    C1117599  26.791   0.647   5.468
    1XTA    C1217600  26.896   0.556   5.488
    1XTA    C1317601  26.863   0.423   5.509
    1XTA    C1417602  26.729   0.377   5.494
    1XTA    C1517603  26.626   0.469   5.486
    1XTA     H117604  26.278   0.710   5.454
    1XTA     H217605  26.142   0.674   5.261
    1XTA     H317606  26.483   0.647   5.006
    1XTA     H417607  26.643   0.671   5.207
    1XTA     H517608  26.468   0.591   5.694
    1XTA     H617609  26.364   0.726   5.870
    1XTA     H717610  26.430   1.089   5.658
    1XTA     H817611  26.553   0.944   5.464
    1XTA     H917612  26.807   0.755   5.465
    1XTA    H1017613  26.993   0.600   5.504
    1XTA    H1117614  26.711   0.275   5.497
    1XTA    H1217615  26.523   0.441   5.487
    1XTA    OA117616  26.235   0.630   5.011
    1XTA    CO117617  26.100   0.583   5.030
    1XTA    OA217618  26.365   0.998   5.872
    1XTA    CO217619  26.389   0.968   6.013
    1XTA    CL117620  26.532   1.000   6.041
    1XTA    CL217621  26.557   1.026   6.187
    1XTA    CL317622  26.698   1.082   6.216
    1XTA    CL417623  26.722   1.096   6.367
    1XTA    CO317624  26.858   1.155   6.405
    1XTA    OA317625  26.954   1.065   6.361
    1XTA    CO417626  27.032   1.107   6.253
    1XTA    CT117627  27.180   1.110   6.301
    1XTA    CL517628  27.183   1.198   6.432
    1XTA    CL617629  27.320   1.207   6.500
    1XTA    OA417630  26.960   0.335   5.529
    1XTA    CO517631  27.083   0.378   5.576
    1XTA    CL717632  27.154   0.248   5.562
    1XTA    CL817633  27.299   0.256   5.602
    1XTA    CL917634  27.367   0.378   5.538
    1XTA   CL1017635  27.373   0.364   5.389
    1XTA    CO617636  27.417   0.498   5.329
    1XTA    OA517637  27.303   0.579   5.300
    1XTA    CO717638  27.320   0.684   5.206
    1XTA    CT217639  27.183   0.748   5.171
    1XTA   CL1117640  27.099   0.627   5.115
    1XTA   CL1217641  26.976   0.664   5.041
    1XTA    HL117642  26.077   0.508   5.113
    1XTA    HL217643  26.041   0.676   5.045
    1XTA    HL317644  26.071   0.524   4.940
    1XTA    HL417645  26.325   1.034   6.066
    1XTA    HL517646  26.362   0.860   6.046
    1XTA    HL617647  26.550   1.086   5.981
    1XTA    HL717648  26.591   0.914   6.004
    1XTA    HL817649  26.535   0.939   6.245
    1XTA    HL917650  26.491   1.097   6.230
    1XTA   HL1017651  26.776   1.017   6.173
    1XTA   HL1117652  26.699   1.183   6.170
    1XTA   HL1217653  26.709   1.006   6.428
    1XTA   HL1317654  26.645   1.160   6.413
    1XTA   HL1417655  26.876   1.256   6.366
    1XTA   HL1517656  26.861   1.154   6.515
    1XTA   HL1617657  27.035   1.032   6.172
    1XTA   HL1717658  27.001   1.200   6.209
    1XTA   HL1817659  27.118   1.156   6.509
    1XTA   HL1917660  27.157   1.298   6.411
    1XTA   HL2017661  27.404   1.222   6.436
    1XTA   HL2117662  27.340   1.111   6.559
    1XTA   HL2217663  27.309   1.291   6.566
    1XTA   HL2317664  27.083   0.414   5.685
    1XTA   HL2417665  27.124   0.451   5.503
    1XTA   HL2517666  27.099   0.178   5.625
    1XTA   HL2617667  27.155   0.194   5.459
    1XTA   HL2717668  27.319   0.261   5.716
    1XTA   HL2817669  27.338   0.161   5.573
    1XTA   HL2917670  27.307   0.464   5.564
    1XTA   HL3017671  27.469   0.385   5.574
    1XTA   HL3117672  27.431   0.281   5.358
    1XTA   HL3217673  27.276   0.340   5.334
    1XTA   HL3317674  27.476   0.556   5.398
    1XTA   HL3417675  27.475   0.472   5.241
    1XTA   HL3517676  27.383   0.645   5.123
    1XTA   HL3617677  27.379   0.766   5.251
    1XTA   HL3717678  27.064   0.573   5.208
    1XTA   HL3817679  27.169   0.562   5.059
    1XTA   HL3917680  27.006   0.697   4.941
    1XTA   HL4017681  26.920   0.755   5.070
    1XTA   HL4117682  26.898   0.579   5.024
    1XTA    CO817683  27.272   1.180   6.200
    1XTA    CO917684  27.255   0.972   6.335
    1XTA    OA617685  27.272   1.136   6.095
    1XTA   HL4217686  27.379   1.185   6.230
    1XTA   HL4317687  27.251   1.291   6.211
    1XTA   HL4417688  27.234   0.959   5.119
    1XTA   HL4517689  27.094   0.895   5.001
    1XTA   CO1017690  27.221   0.862   5.065
    1XTA   CO1117691  27.108   0.817   5.291
    1XTA    OA717692  27.022   0.881   5.254
    1XTA   HL4617693  27.083   0.753   5.375
    1XTA   HL4717694  27.174   0.889   5.339
    1XTA   HL4817695  27.261   0.893   6.221
    1XTA   HL4917696  27.349   0.986   6.374
    1XTA     NT17697  27.565   4.388   7.634
    1XTA    CN117698  27.521   4.339   7.754
    1XTA     C117699  27.607   4.332   7.863
    1XTA     C217700  27.566   4.267   7.981
    1XTA     C317701  27.436   4.212   7.993
    1XTA     C417702  27.350   4.219   7.883
    1XTA     C517703  27.393   4.283   7.764
    1XTA    CN217704  27.570   4.296   7.536
    1XTA     C617705  27.689   4.227   7.492
    1XTA     C717706  27.678   4.132   7.385
    1XTA     C817707  27.553   4.106   7.324
    1XTA     C917708  27.434   4.159   7.377
    1XTA    C1017709  27.446   4.256   7.474
    1XTA    CN317710  27.617   4.509   7.613
    1XTA    C1117711  27.754   4.522   7.633
    1XTA    C1217712  27.815   4.645   7.593
    1XTA    C1317713  27.738   4.749   7.539
    1XTA    C1417714  27.596   4.725   7.523
    1XTA    C1517715  27.535   4.607   7.556
    1XTA     H117716  27.705   4.383   7.861
    1XTA     H217717  27.637   4.243   8.051
    1XTA     H317718  27.245   4.187   7.888
    1XTA     H417719  27.322   4.283   7.684
    1XTA     H517720  27.785   4.246   7.538
    1XTA     H617721  27.767   4.079   7.346
    1XTA     H717722  27.343   4.127   7.334
    1XTA     H817723  27.356   4.313   7.511
    1XTA     H917724  27.810   4.437   7.665
    1XTA    H1017725  27.923   4.658   7.608
    1XTA    H1117726  27.536   4.809   7.478
    1XTA    H1217727  27.428   4.590   7.537
    1XTA    OA117728  27.407   4.140   8.112
    1XTA    CO117729  27.457   4.187   8.234
    1XTA    OA217730  27.534   4.014   7.222
    1XTA    CO217731  27.631   4.024   7.111
    1XTA    CL117732  27.678   4.163   7.059
    1XTA    CL217733  27.549   4.241   7.035
    1XTA    CL317734  27.555   4.392   7.024
    1XTA    CL417735  27.571   4.458   7.163
    1XTA    CO317736  27.606   4.606   7.148
    1XTA    OA317737  27.704   4.633   7.051
    1XTA    CO417738  27.733   4.770   7.033
    1XTA    CT117739  27.833   4.808   6.923
    1XTA    CL517740  27.855   4.962   6.944
    1XTA    CL617741  27.922   5.047   6.831
    1XTA    OA417742  27.802   4.870   7.513
    1XTA    CO517743  27.717   4.982   7.484
    1XTA    CL717744  27.681   4.999   7.338
    1XTA    CL817745  27.575   5.113   7.314
    1XTA    CL917746  27.557   5.164   7.166
    1XTA   CL1017747  27.455   5.280   7.167
    1XTA    CO617748  27.438   5.354   7.035
    1XTA    OA517749  27.561   5.428   7.023
    1XTA    CO717750  27.595   5.468   6.894
    1XTA    CT217751  27.675   5.603   6.904
    1XTA   CL1117752  27.594   5.715   6.973
    1XTA   CL1217753  27.456   5.728   6.907
    1XTA    HL117754  27.405   4.124   8.308
    1XTA    HL217755  27.564   4.173   8.248
    1XTA    HL317756  27.431   4.294   8.242
    1XTA    HL417757  27.710   3.956   7.137
    1XTA    HL517758  27.577   3.983   7.031
    1XTA    HL617759  27.728   4.144   6.960
    1XTA    HL717760  27.739   4.210   7.134
    1XTA    HL817761  27.457   4.211   7.092
    1XTA    HL917762  27.525   4.206   6.940
    1XTA   HL1017763  27.630   4.407   6.954
    1XTA   HL1117764  27.466   4.429   6.975
    1XTA   HL1217765  27.647   4.409   7.217
    1XTA   HL1317766  27.481   4.435   7.227
    1XTA   HL1417767  27.520   4.667   7.128
    1XTA   HL1517768  27.648   4.644   7.244
    1XTA   HL1617769  27.650   4.838   7.015
    1XTA   HL1717770  27.768   4.801   7.134
    1XTA   HL1817771  27.918   4.979   7.029
    1XTA   HL1917772  27.756   5.010   6.963
    1XTA   HL2017773  27.960   5.141   6.870
    1XTA   HL2117774  27.861   5.053   6.744
    1XTA   HL2217775  28.017   4.991   6.804
    1XTA   HL2317776  27.783   5.065   7.505
    1XTA   HL2417777  27.635   4.992   7.556
    1XTA   HL2517778  27.774   5.026   7.289
    1XTA   HL2617779  27.645   4.902   7.302
    1XTA   HL2717780  27.479   5.091   7.361
    1XTA   HL2817781  27.623   5.200   7.358
    1XTA   HL2917782  27.653   5.196   7.133
    1XTA   HL3017783  27.537   5.078   7.101
    1XTA   HL3117784  27.353   5.243   7.196
    1XTA   HL3217785  27.474   5.361   7.235
    1XTA   HL3317786  27.427   5.280   6.952
    1XTA   HL3417787  27.350   5.416   7.024
    1XTA   HL3517788  27.514   5.470   6.828
    1XTA   HL3617789  27.657   5.390   6.849
    1XTA   HL3717790  27.654   5.799   6.946
    1XTA   HL3817791  27.592   5.706   7.080
    1XTA   HL3917792  27.386   5.657   6.952
    1XTA   HL4017793  27.458   5.744   6.797
    1XTA   HL4117794  27.410   5.825   6.934
    1XTA    CO817795  27.771   4.782   6.789
    1XTA    CO917796  27.964   4.721   6.933
    1XTA    OA617797  27.699   4.851   6.759
    1XTA   HL4217798  27.732   4.678   6.793
    1XTA   HL4317799  27.852   4.782   6.721
    1XTA   HL4417800  27.781   5.736   6.779
    1XTA   HL4517801  27.806   5.583   6.736
    1XTA   CO1017802  27.730   5.649   6.769
    1XTA   CO1117803  27.803   5.564   6.983
    1XTA    OA717804  27.653   5.664   6.687
    1XTA   HL4617805  27.764   5.493   7.104
    1XTA   HL4717806  27.857   5.496   6.919
    1XTA   HL4817807  28.019   4.752   7.060
    1XTA   HL4917808  28.041   4.758   6.869
    1XTA     NT17809  25.448   2.438   1.401
    1XTA    CN117810  25.351   2.535   1.402
    1XTA     C117811  25.223   2.508   1.362
    1XTA     C217812  25.124   2.604   1.367
    1XTA     C317813  25.152   2.739   1.387
    1XTA     C417814  25.288   2.777   1.413
    1XTA     C517815  25.382   2.675   1.430
    1XTA    CN217816  25.494   2.373   1.515
    1XTA     C617817  25.405   2.314   1.603
    1XTA     C717818  25.446   2.251   1.719
    1XTA     C817819  25.572   2.259   1.768
    1XTA     C917820  25.655   2.354   1.698
    1XTA    C1017821  25.620   2.401   1.570
    1XTA    CN317822  25.486   2.384   1.278
    1XTA    C1117823  25.604   2.425   1.216
    1XTA    C1217824  25.644   2.388   1.089
    1XTA    C1317825  25.556   2.307   1.015
    1XTA    C1417826  25.443   2.253   1.077
    1XTA    C1517827  25.409   2.286   1.211
    1XTA     H117828  25.188   2.408   1.358
    1XTA     H217829  25.018   2.578   1.349
    1XTA     H317830  25.302   2.877   1.434
    1XTA     H417831  25.480   2.697   1.464
    1XTA     H517832  25.309   2.293   1.567
    1XTA     H617833  25.375   2.194   1.777
    1XTA     H717834  25.749   2.370   1.746
    1XTA     H817835  25.695   2.463   1.518
    1XTA     H917836  25.664   2.502   1.254
    1XTA    H1017837  25.734   2.423   1.048
    1XTA    H1117838  25.388   2.184   1.014
    1XTA    H1217839  25.335   2.228   1.262
    1XTA    OA117840  25.041   2.818   1.376
    1XTA    CO117841  25.060   2.956   1.386
    1XTA    OA217842  25.601   2.197   1.887
    1XTA    CO217843  25.726   2.229   1.944
    1XTA    CL117844  25.730   2.147   2.071
    1XTA    CL217845  25.872   2.151   2.133
    1XTA    CL317846  25.911   2.274   2.211
    1XTA    CL417847  25.933   2.406   2.125
    1XTA    CO317848  26.037   2.377   2.015
    1XTA    OA317849  26.161   2.331   2.059
    1XTA    CO417850  26.244   2.268   1.965
    1XTA    CT117851  26.369   2.207   2.032
    1XTA    CL517852  26.328   2.124   2.156
    1XTA    CL617853  26.235   2.006   2.125
    1XTA    OA417854  25.592   2.255   0.896
    1XTA    CO517855  25.704   2.310   0.828
    1XTA    CL717856  25.732   2.242   0.695
    1XTA    CL817857  25.646   2.305   0.587
    1XTA    CL917858  25.648   2.255   0.448
    1XTA   CL1017859  25.526   2.291   0.357
    1XTA    CO617860  25.523   2.442   0.342
    1XTA    OA517861  25.642   2.488   0.267
    1XTA    CO717862  25.620   2.624   0.230
    1XTA    CT217863  25.754   2.689   0.196
    1XTA   CL1117864  25.832   2.596   0.102
    1XTA   CL1217865  25.949   2.657   0.034
    1XTA    HL117866  24.958   2.994   1.395
    1XTA    HL217867  25.125   2.980   1.477
    1XTA    HL317868  25.107   3.000   1.298
    1XTA    HL417869  25.795   2.197   1.864
    1XTA    HL517870  25.747   2.334   1.962
    1XTA    HL617871  25.697   2.047   2.049
    1XTA    HL717872  25.648   2.180   2.136
    1XTA    HL817873  25.952   2.123   2.056
    1XTA    HL917874  25.884   2.079   2.210
    1XTA   HL1017875  25.836   2.298   2.293
    1XTA   HL1117876  26.004   2.252   2.260
    1XTA   HL1217877  25.975   2.481   2.194
    1XTA   HL1317878  25.841   2.458   2.094
    1XTA   HL1417879  26.000   2.304   1.941
    1XTA   HL1517880  26.059   2.474   1.963
    1XTA   HL1617881  26.182   2.191   1.924
    1XTA   HL1717882  26.278   2.334   1.885
    1XTA   HL1817883  26.283   2.196   2.222
    1XTA   HL1917884  26.418   2.092   2.203
    1XTA   HL2017885  26.150   1.978   2.188
    1XTA   HL2117886  26.302   1.923   2.113
    1XTA   HL2217887  26.211   2.020   2.022
    1XTA   HL2317888  25.795   2.299   0.900
    1XTA   HL2417889  25.690   2.419   0.808
    1XTA   HL2517890  25.840   2.251   0.665
    1XTA   HL2617891  25.709   2.138   0.703
    1XTA   HL2717892  25.544   2.303   0.624
    1XTA   HL2817893  25.664   2.415   0.566
    1XTA   HL2917894  25.742   2.286   0.403
    1XTA   HL3017895  25.644   2.143   0.457
    1XTA   HL3117896  25.536   2.238   0.264
    1XTA   HL3217897  25.436   2.241   0.396
    1XTA   HL3317898  25.430   2.466   0.287
    1XTA   HL3417899  25.511   2.487   0.445
    1XTA   HL3517900  25.576   2.680   0.319
    1XTA   HL3617901  25.556   2.631   0.142
    1XTA   HL3717902  25.765   2.562   0.021
    1XTA   HL3817903  25.876   2.515   0.159
    1XTA   HL3917904  26.016   2.577  -0.003
    1XTA   HL4017905  26.003   2.721   0.100
    1XTA   HL4117906  25.921   2.698  -0.063
    1XTA    CO817907  26.473   2.316   2.063
    1XTA    CO917908  26.440   2.124   1.931
    1XTA    OA617909  26.430   2.391   2.131
    1XTA   HL4217910  26.507   2.365   1.970
    1XTA   HL4317911  26.558   2.271   2.113
    1XTA   HL4417912  25.877   2.624   0.371
    1XTA   HL4517913  25.941   2.772   0.300
    1XTA   CO1017914  25.844   2.720   0.324
    1XTA   CO1117915  25.733   2.830   0.126
    1XTA    OA717916  25.795   2.789   0.399
    1XTA   HL4617917  25.724   2.807  -0.014
    1XTA   HL4717918  25.821   2.894   0.139
    1XTA   HL4817919  26.505   2.027   2.004
    1XTA   HL4917920  26.358   2.074   1.880
    1XTA     NT17921  29.660   6.625   1.651
    1XTA    CN117922  29.561   6.562   1.711
    1XTA     C117923  29.424   6.564   1.673
    1XTA     C217924  29.326   6.523   1.764
    1XTA     C317925  29.359   6.476   1.891
    1XTA     C417926  29.495   6.475   1.935
    1XTA     C517927  29.597   6.517   1.846
    1XTA    CN217928  29.698   6.561   1.541
    1XTA     C617929  29.634   6.584   1.417
    1XTA     C717930  29.685   6.507   1.309
    1XTA     C817931  29.780   6.402   1.325
    1XTA     C917932  29.839   6.384   1.449
    1XTA    C1017933  29.798   6.461   1.559
    1XTA    CN317934  29.715   6.734   1.705
    1XTA    C1117935  29.641   6.826   1.786
    1XTA    C1217936  29.702   6.946   1.831
    1XTA    C1317937  29.836   6.975   1.802
    1XTA    C1417938  29.911   6.887   1.721
    1XTA    C1517939  29.851   6.764   1.681
    1XTA     H117940  29.411   6.593   1.567
    1XTA     H217941  29.224   6.521   1.722
    1XTA     H317942  29.514   6.446   2.037
    1XTA     H417943  29.697   6.516   1.887
    1XTA     H517944  29.568   6.670   1.402
    1XTA     H617945  29.646   6.529   1.209
    1XTA     H717946  29.925   6.316   1.458
    1XTA     H817947  29.845   6.442   1.657
    1XTA     H917948  29.539   6.808   1.812
    1XTA    H1017949  29.641   7.018   1.886
    1XTA    H1117950  30.010   6.903   1.703
    1XTA    H1217951  29.909   6.697   1.622
    1XTA    OA117952  29.256   6.433   1.974
    1XTA    CO117953  29.286   6.308   2.030
    1XTA    OA217954  29.821   6.327   1.222
    1XTA    CO217955  29.756   6.332   1.100
    1XTA    CL117956  29.832   6.240   1.001
    1XTA    CL217957  29.758   6.220   0.872
    1XTA    CL317958  29.771   6.351   0.780
    1XTA    CL417959  29.686   6.345   0.656
    1XTA    CO317960  29.583   6.466   0.639
    1XTA    OA317961  29.541   6.484   0.506
    1XTA    CO417962  29.465   6.372   0.461
    1XTA    CT117963  29.393   6.392   0.334
    1XTA    CL517964  29.303   6.262   0.313
    1XTA    CL617965  29.207   6.260   0.198
    1XTA    OA417966  29.920   7.079   1.842
    1XTA    CO517967  29.907   7.124   1.982
    1XTA    CL717968  30.015   7.231   1.996
    1XTA    CL817969  30.002   7.323   2.117
    1XTA    CL917970  30.025   7.257   2.253
    1XTA   CL1017971  30.141   7.154   2.256
    1XTA    CO617972  30.288   7.209   2.240
    1XTA    OA517973  30.316   7.305   2.344
    1XTA    CO717974  30.452   7.346   2.348
    1XTA    CT217975  30.466   7.464   2.458
    1XTA   CL1117976  30.607   7.524   2.467
    1XTA   CL1217977  30.654   7.605   2.348
    1XTA    HL117978  29.355   6.309   2.118
    1XTA    HL217979  29.189   6.284   2.076
    1XTA    HL317980  29.314   6.223   1.960
    1XTA    HL417981  29.657   6.284   1.103
    1XTA    HL517982  29.750   6.435   1.060
    1XTA    HL617983  29.850   6.146   1.059
    1XTA    HL717984  29.934   6.276   0.994
    1XTA    HL817985  29.660   6.188   0.895
    1XTA    HL917986  29.808   6.128   0.828
    1XTA   HL1017987  29.731   6.433   0.841
    1XTA   HL1117988  29.864   6.380   0.750
    1XTA   HL1217989  29.618   6.261   0.653
    1XTA   HL1317990  29.746   6.330   0.562
    1XTA   HL1417991  29.501   6.450   0.710
    1XTA   HL1517992  29.635   6.565   0.666
    1XTA   HL1617993  29.530   6.289   0.450
    1XTA   HL1717994  29.399   6.346   0.546
    1XTA   HL1817995  29.242   6.237   0.397
    1XTA   HL1917996  29.375   6.176   0.310
    1XTA   HL2017997  29.157   6.168   0.205
    1XTA   HL2117998  29.254   6.262   0.104
    1XTA   HL2217999  29.122   6.331   0.208
    1XTA   HL2318000  29.927   7.042   2.047
    1XTA   HL2418001  29.807   7.165   2.002
    1XTA   HL2518002  30.117   7.187   2.002
    1XTA   HL2618003  30.009   7.294   1.908
    1XTA   HL2718004  30.061   7.411   2.115
    1XTA   HL2818005  29.899   7.356   2.104
    1XTA   HL2918006  30.039   7.334   2.329
    1XTA   HL3018007  29.933   7.205   2.263
    1XTA   HL3118008  30.144   7.096   2.350
    1XTA   HL3218009  30.116   7.081   2.177
    1XTA   HL3318010  30.351   7.118   2.239
    1XTA   HL3418011  30.304   7.258   2.135
    1XTA   HL3518012  30.476   7.388   2.245
    1XTA   HL3618013  30.516   7.266   2.366
    1XTA   HL3718014  30.679   7.448   2.494
    1XTA   HL3818015  30.610   7.597   2.549
    1XTA   HL3918016  30.604   7.702   2.344
    1XTA   HL4018017  30.633   7.551   2.260
    1XTA   HL4118018  30.755   7.620   2.363
    1XTA    CO818019  29.498   6.404   0.221
    1XTA    CO918020  29.315   6.527   0.338
    1XTA    OA618021  29.567   6.315   0.225
    1XTA   HL4218022  29.541   6.510   0.216
    1XTA   HL4318023  29.445   6.395   0.129
    1XTA   HL4418024  30.365   7.331   2.574
    1XTA   HL4518025  30.498   7.411   2.664
    1XTA   CO1018026  30.424   7.420   2.584
    1XTA   CO1118027  30.351   7.561   2.449
    1XTA    OA718028  30.360   7.510   2.594
    1XTA   HL4618029  30.382   7.700   2.431
    1XTA   HL4718030  30.269   7.523   2.388
    1XTA   HL4818031  29.397   6.635   0.384
    1XTA   HL4918032  29.280   6.548   0.233
    1XTA     NT18033  28.679   1.781   3.323
    1XTA    CN118034  28.575   1.842   3.259
    1XTA     C118035  28.575   1.983   3.233
    1XTA     C218036  28.469   2.047   3.165
    1XTA     C318037  28.355   1.975   3.115
    1XTA     C418038  28.347   1.840   3.149
    1XTA     C518039  28.455   1.776   3.215
    1XTA    CN218040  28.795   1.771   3.265
    1XTA     C618041  28.899   1.864   3.292
    1XTA     C718042  29.030   1.843   3.234
    1XTA     C818043  29.057   1.748   3.135
    1XTA     C918044  28.951   1.656   3.110
    1XTA    C1018045  28.825   1.669   3.178
    1XTA    CN318046  28.664   1.724   3.443
    1XTA    C1118047  28.670   1.812   3.555
    1XTA    C1218048  28.661   1.768   3.690
    1XTA    C1318049  28.668   1.629   3.705
    1XTA    C1418050  28.685   1.536   3.594
    1XTA    C1518051  28.676   1.582   3.464
    1XTA     H118052  28.665   2.032   3.269
    1XTA     H218053  28.486   2.155   3.154
    1XTA     H318054  28.258   1.780   3.127
    1XTA     H418055  28.448   1.674   3.244
    1XTA     H518056  28.873   1.943   3.359
    1XTA     H618057  29.108   1.911   3.261
    1XTA     H718058  28.967   1.577   3.029
    1XTA     H818059  28.753   1.594   3.163
    1XTA     H918060  28.683   1.917   3.537
    1XTA    H1018061  28.659   1.840   3.772
    1XTA    H1118062  28.694   1.433   3.623
    1XTA    H1218063  28.676   1.514   3.383
    1XTA    OA118064  28.255   2.029   3.035
    1XTA    CO118065  28.260   2.164   3.011
    1XTA    OA218066  29.186   1.743   3.087
    1XTA    CO218067  29.206   1.667   2.967
    1XTA    CL118068  29.352   1.692   2.922
    1XTA    CL218069  29.383   1.838   2.878
    1XTA    CL318070  29.419   1.837   2.729
    1XTA    CL418071  29.435   1.974   2.679
    1XTA    CO318072  29.309   2.023   2.591
    1XTA    OA318073  29.355   2.128   2.509
    1XTA    CO418074  29.243   2.208   2.468
    1XTA    CT118075  29.279   2.331   2.387
    1XTA    CL518076  29.367   2.446   2.465
    1XTA    CL618077  29.425   2.551   2.367
    1XTA    OA418078  28.639   1.586   3.832
    1XTA    CO518079  28.609   1.449   3.844
    1XTA    CL718080  28.550   1.430   3.977
    1XTA    CL818081  28.409   1.492   4.003
    1XTA    CL918082  28.349   1.407   4.118
    1XTA   CL1018083  28.216   1.463   4.170
    1XTA    CO618084  28.220   1.585   4.262
    1XTA    OA518085  28.228   1.535   4.394
    1XTA    CO718086  28.343   1.469   4.433
    1XTA    CT218087  28.364   1.474   4.590
    1XTA   CL1118088  28.520   1.470   4.624
    1XTA   CL1218089  28.576   1.336   4.580
    1XTA    HL118090  28.164   2.201   2.967
    1XTA    HL218091  28.286   2.216   3.106
    1XTA    HL318092  28.334   2.190   2.939
    1XTA    HL418093  29.184   1.552   2.977
    1XTA    HL518094  29.134   1.710   2.893
    1XTA    HL618095  29.366   1.625   2.837
    1XTA    HL718096  29.411   1.649   3.004
    1XTA    HL818097  29.470   1.871   2.941
    1XTA    HL918098  29.293   1.898   2.891
    1XTA   HL1018099  29.512   1.788   2.724
    1XTA   HL1118100  29.352   1.779   2.666
    1XTA   HL1218101  29.523   1.988   2.615
    1XTA   HL1318102  29.452   2.038   2.762
    1XTA   HL1418103  29.259   1.943   2.527
    1XTA   HL1518104  29.239   2.067   2.663
    1XTA   HL1618105  29.165   2.148   2.420
    1XTA   HL1718106  29.200   2.248   2.569
    1XTA   HL1818107  29.449   2.383   2.507
    1XTA   HL1918108  29.312   2.482   2.553
    1XTA   HL2018109  29.338   2.605   2.318
    1XTA   HL2118110  29.487   2.509   2.282
    1XTA   HL2218111  29.502   2.619   2.409
    1XTA   HL2318112  28.698   1.384   3.835
    1XTA   HL2418113  28.540   1.412   3.762
    1XTA   HL2518114  28.541   1.322   3.994
    1XTA   HL2618115  28.618   1.462   4.049
    1XTA   HL2718116  28.410   1.598   4.018
    1XTA   HL2818117  28.346   1.475   3.920
    1XTA   HL2918118  28.330   1.306   4.089
    1XTA   HL3018119  28.422   1.395   4.202
    1XTA   HL3118120  28.164   1.497   4.079
    1XTA   HL3218121  28.136   1.399   4.217
    1XTA   HL3318122  28.294   1.667   4.231
    1XTA   HL3418123  28.123   1.631   4.261
    1XTA   HL3518124  28.425   1.527   4.390
    1XTA   HL3618125  28.351   1.368   4.397
    1XTA   HL3718126  28.520   1.483   4.727
    1XTA   HL3818127  28.580   1.553   4.580
    1XTA   HL3918128  28.498   1.264   4.588
    1XTA   HL4018129  28.668   1.314   4.632
    1XTA   HL4118130  28.599   1.342   4.472
    1XTA    CO818131  29.152   2.385   2.317
    1XTA    CO918132  29.364   2.276   2.268
    1XTA    OA618133  29.500   2.249   2.292
    1XTA   HL4218134  29.184   2.460   2.247
    1XTA   HL4318135  29.090   2.440   2.384
    1XTA   HL4418136  28.302   1.266   4.644
    1XTA   HL4518137  28.299   1.385   4.781
    1XTA   CO1018138  28.280   1.373   4.671
    1XTA   CO1118139  28.325   1.619   4.639
    1XTA    OA718140  28.173   1.371   4.660
    1XTA   HL4618141  28.191   1.643   4.607
    1XTA   HL4718142  28.341   1.616   4.743
    1XTA   HL4818143  29.347   2.340   2.182
    1XTA   HL4918144  29.315   2.180   2.227
    1XTA     NT18145  30.127   1.690   5.289
    1XTA    CN118146  30.180   1.810   5.313
    1XTA     C118147  30.279   1.814   5.412
    1XTA     C218148  30.344   1.939   5.428
    1XTA     C318149  30.308   2.058   5.360
    1XTA     C418150  30.199   2.052   5.272
    1XTA     C518151  30.147   1.931   5.249
    1XTA    CN218152  30.011   1.658   5.354
    1XTA     C618153  30.007   1.546   5.438
    1XTA     C718154  29.895   1.523   5.517
    1XTA     C818155  29.775   1.599   5.500
    1XTA     C918156  29.783   1.710   5.423
    1XTA    C1018157  29.898   1.742   5.348
    1XTA    CN318158  30.189   1.612   5.203
    1XTA    C1118159  30.306   1.539   5.233
    1XTA    C1218160  30.363   1.448   5.142
    1XTA    C1318161  30.310   1.432   5.009
    1XTA    C1418162  30.194   1.503   4.978
    1XTA    C1518163  30.131   1.581   5.079
    1XTA     H118164  30.309   1.719   5.455
    1XTA     H218165  30.433   1.934   5.492
    1XTA     H318166  30.152   2.137   5.227
    1XTA     H418167  30.064   1.933   5.171
    1XTA     H518168  30.091   1.482   5.453
    1XTA     H618169  29.899   1.438   5.595
    1XTA     H718170  29.697   1.781   5.410
    1XTA     H818171  29.903   1.835   5.299
    1XTA     H918172  30.341   1.549   5.334
    1XTA    H1018173  30.449   1.384   5.164
    1XTA    H1118174  30.133   1.487   4.886
    1XTA    H1218175  30.041   1.624   5.045
    1XTA    OA118176  30.370   2.177   5.396
    1XTA    CO118177  30.323   2.296   5.329
    1XTA    OA218178  29.675   1.570   5.593
    1XTA    CO218179  29.566   1.662   5.585
    1XTA    CL118180  29.476   1.617   5.474
    1XTA    CL218181  29.334   1.677   5.456
    1XTA    CL318182  29.261   1.657   5.321
    1XTA    CL418183  29.204   1.520   5.301
    1XTA    CO318184  29.310   1.417   5.257
    1XTA    OA318185  29.337   1.331   5.370
    1XTA    CO418186  29.475   1.289   5.373
    1XTA    CT118187  29.509   1.187   5.479
    1XTA    CL518188  29.434   1.055   5.441
    1XTA    CL618189  29.470   0.933   5.511
    1XTA    OA418190  30.367   1.356   4.905
    1XTA    CO518191  30.488   1.299   4.918
    1XTA    CL718192  30.600   1.400   4.914
    1XTA    CL818193  30.739   1.340   4.902
    1XTA    CL918194  30.749   1.256   4.774
    1XTA   CL1018195  30.892   1.210   4.727
    1XTA    CO618196  30.970   1.317   4.637
    1XTA    OA518197  30.887   1.365   4.533
    1XTA    CO718198  30.970   1.433   4.438
    1XTA    CT218199  30.879   1.518   4.336
    1XTA   CL1118200  30.801   1.619   4.411
    1XTA   CL1218201  30.719   1.719   4.328
    1XTA    HL118202  30.225   2.332   5.366
    1XTA    HL218203  30.394   2.381   5.347
    1XTA    HL318204  30.324   2.275   5.224
    1XTA    HL418205  29.510   1.657   5.682
    1XTA    HL518206  29.605   1.758   5.578
    1XTA    HL618207  29.448   1.514   5.495
    1XTA    HL718208  29.523   1.628   5.382
    1XTA    HL818209  29.332   1.784   5.472
    1XTA    HL918210  29.273   1.642   5.536
    1XTA   HL1018211  29.185   1.729   5.334
    1XTA   HL1118212  29.310   1.680   5.230
    1XTA   HL1218213  29.138   1.534   5.216
    1XTA   HL1318214  29.152   1.483   5.384
    1XTA   HL1418215  29.264   1.348   5.190
    1XTA   HL1518216  29.393   1.482   5.228
    1XTA   HL1618217  29.505   1.243   5.275
    1XTA   HL1718218  29.541   1.379   5.380
    1XTA   HL1818219  29.445   1.043   5.332
    1XTA   HL1918220  29.329   1.068   5.465
    1XTA   HL2018221  29.455   0.939   5.618
    1XTA   HL2118222  29.577   0.925   5.491
    1XTA   HL2218223  29.408   0.849   5.487
    1XTA   HL2318224  30.508   1.226   4.836
    1XTA   HL2418225  30.497   1.235   5.006
    1XTA   HL2518226  30.574   1.472   4.843
    1XTA   HL2618227  30.600   1.453   5.005
    1XTA   HL2718228  30.822   1.413   4.900
    1XTA   HL2818229  30.761   1.274   4.984
    1XTA   HL2918230  30.705   1.157   4.787
    1XTA   HL3018231  30.702   1.299   4.688
    1XTA   HL3118232  30.956   1.195   4.823
    1XTA   HL3218233  30.897   1.107   4.678
    1XTA   HL3318234  31.000   1.401   4.696
    1XTA   HL3418235  31.054   1.267   4.586
    1XTA   HL3518236  31.027   1.362   4.389
    1XTA   HL3618237  31.019   1.502   4.500
    1XTA   HL3718238  30.877   1.685   4.454
    1XTA   HL3818239  30.731   1.568   4.483
    1XTA   HL3918240  30.704   1.811   4.381
    1XTA   HL4018241  30.617   1.688   4.326
    1XTA   HL4118242  30.751   1.724   4.228
    1XTA    CO818243  29.462   1.228   5.620
    1XTA    CO918244  29.661   1.179   5.490
    1XTA    OA618245  29.700   1.153   5.390
    1XTA   HL4218246  29.497   1.329   5.637
    1XTA   HL4318247  29.327   1.229   5.628
    1XTA   HL4418248  30.844   1.346   4.204
    1XTA   HL4518249  30.718   1.468   4.195
    1XTA   CO1018250  30.785   1.415   4.266
    1XTA   CO1118251  30.974   1.582   4.232
    1XTA    OA718252  31.047   1.484   4.161
    1XTA   HL4618253  30.917   1.639   4.157
    1XTA   HL4718254  31.042   1.648   4.286
    1XTA   HL4818255  29.704   1.091   5.558
    1XTA   HL4918256  29.701   1.275   5.521
    1XTA     NT18257  31.465   3.894   4.210
    1XTA    CN118258  31.339   3.939   4.200
    1XTA     C118259  31.273   3.973   4.318
    1XTA     C218260  31.137   3.991   4.317
    1XTA     C318261  31.061   3.973   4.196
    1XTA     C418262  31.129   3.934   4.074
    1XTA     C518263  31.265   3.919   4.080
    1XTA    CN218264  31.503   3.770   4.240
    1XTA     C618265  31.430   3.688   4.329
    1XTA     C718266  31.471   3.552   4.336
    1XTA     C818267  31.587   3.500   4.273
    1XTA     C918268  31.672   3.590   4.204
    1XTA    C1018269  31.627   3.723   4.187
    1XTA    CN318270  31.555   3.997   4.184
    1XTA    C1118271  31.585   4.094   4.280
    1XTA    C1218272  31.679   4.195   4.247
    1XTA    C1318273  31.727   4.211   4.121
    1XTA    C1418274  31.680   4.120   4.021
    1XTA    C1518275  31.598   4.010   4.054
    1XTA     H118276  31.338   3.966   4.404
    1XTA     H218277  31.085   4.015   4.414
    1XTA     H318278  31.070   3.897   3.995
    1XTA     H418279  31.318   3.882   3.996
    1XTA     H518280  31.345   3.725   4.379
    1XTA     H618281  31.397   3.487   4.386
    1XTA     H718282  31.759   3.557   4.152
    1XTA     H818283  31.695   3.784   4.138
    1XTA     H918284  31.559   4.090   4.389
    1XTA    H1018285  31.727   4.261   4.318
    1XTA    H1118286  31.726   4.127   3.925
    1XTA    H1218287  31.560   3.948   3.977
    1XTA    OA118288  30.927   3.993   4.209
    1XTA    CO118289  30.849   3.974   4.091
    1XTA    OA218290  31.622   3.364   4.285
    1XTA    CO218291  31.514   3.278   4.329
    1XTA    CL118292  31.555   3.134   4.298
    1XTA    CL218293  31.468   3.054   4.391
    1XTA    CL318294  31.503   3.056   4.535
    1XTA    CL418295  31.652   3.024   4.566
    1XTA    CO318296  31.681   3.020   4.719
    1XTA    OA318297  31.638   3.136   4.788
    1XTA    CO418298  31.688   3.258   4.742
    1XTA    CT118299  31.672   3.368   4.849
    1XTA    CL518300  31.715   3.509   4.799
    1XTA    CL618301  31.748   3.620   4.901
    1XTA    OA418302  31.813   4.317   4.099
    1XTA    CO518303  31.841   4.346   3.962
    1XTA    CL718304  31.919   4.474   3.955
    1XTA    CL818305  31.942   4.538   3.813
    1XTA    CL918306  32.055   4.479   3.732
    1XTA   CL1018307  32.016   4.344   3.677
    1XTA    CO618308  32.142   4.301   3.594
    1XTA    OA518309  32.128   4.167   3.551
    1XTA    CO718310  32.240   4.129   3.470
    1XTA    CT218311  32.211   4.001   3.388
    1XTA   CL1118312  32.149   4.040   3.250
    1XTA   CL1218313  32.227   4.146   3.169
    1XTA    HL118314  30.745   3.993   4.102
    1XTA    HL218315  30.890   4.035   4.015
    1XTA    HL318316  30.852   3.874   4.065
    1XTA    HL418317  31.497   3.291   4.437
    1XTA    HL518318  31.426   3.294   4.267
    1XTA    HL618319  31.658   3.110   4.322
    1XTA    HL718320  31.530   3.115   4.193
    1XTA    HL818321  31.489   2.956   4.359
    1XTA    HL918322  31.362   3.084   4.382
    1XTA   HL1018323  31.471   3.150   4.577
    1XTA   HL1118324  31.449   2.969   4.567
    1XTA   HL1218325  31.714   3.100   4.516
    1XTA   HL1318326  31.691   2.929   4.528
    1XTA   HL1418327  31.622   2.929   4.746
    1XTA   HL1518328  31.788   2.987   4.738
    1XTA   HL1618329  31.792   3.251   4.708
    1XTA   HL1718330  31.628   3.288   4.652
    1XTA   HL1818331  31.644   3.556   4.726
    1XTA   HL1918332  31.807   3.479   4.736
    1XTA   HL2018333  31.664   3.670   4.951
    1XTA   HL2118334  31.797   3.702   4.848
    1XTA   HL2218335  31.821   3.592   4.981
    1XTA   HL2318336  31.746   4.374   3.912
    1XTA   HL2418337  31.886   4.262   3.913
    1XTA   HL2518338  31.847   4.550   4.003
    1XTA   HL2618339  32.009   4.459   4.011
    1XTA   HL2718340  31.847   4.556   3.760
    1XTA   HL2818341  31.982   4.639   3.839
    1XTA   HL2918342  32.072   4.542   3.645
    1XTA   HL3018343  32.151   4.482   3.784
    1XTA   HL3118344  31.991   4.267   3.751
    1XTA   HL3218345  31.929   4.356   3.607
    1XTA   HL3318346  32.161   4.370   3.516
    1XTA   HL3418347  32.224   4.311   3.656
    1XTA   HL3518348  32.319   4.110   3.547
    1XTA   HL3618349  32.277   4.212   3.410
    1XTA   HL3718350  32.051   4.069   3.276
    1XTA   HL3818351  32.134   3.943   3.199
    1XTA   HL3918352  32.236   4.241   3.215
    1XTA   HL4018353  32.176   4.151   3.075
    1XTA   HL4118354  32.323   4.121   3.129
    1XTA    CO818355  31.757   3.321   4.968
    1XTA    CO918356  31.525   3.376   4.896
    1XTA    OA618357  31.488   3.277   4.939
    1XTA   HL4218358  31.713   3.230   5.009
    1XTA   HL4318359  31.747   3.418   5.063
    1XTA   HL4418360  32.164   3.894   3.574
    1XTA   HL4518361  32.020   3.968   3.504
    1XTA   CO1018362  32.118   3.916   3.479
    1XTA   CO1118363  32.339   3.921   3.362
    1XTA    OA718364  32.447   3.987   3.311
    1XTA   HL4618365  32.371   3.859   3.446
    1XTA   HL4718366  32.314   3.837   3.283
    1XTA   HL4818367  31.462   3.397   4.812
    1XTA   HL4918368  31.524   3.457   4.971
    1XTA     NT18369  27.995   1.776   8.194
    1XTA    CN118370  27.934   1.871   8.262
    1XTA     C118371  27.798   1.857   8.293
    1XTA     C218372  27.733   1.954   8.377
    1XTA     C318373  27.811   2.057   8.438
    1XTA     C418374  27.951   2.070   8.403
    1XTA     C518375  28.009   1.973   8.318
    1XTA    CN218376  28.018   1.653   8.243
    1XTA     C618377  27.960   1.542   8.185
    1XTA     C718378  27.985   1.412   8.239
    1XTA     C818379  28.059   1.393   8.358
    1XTA     C918380  28.105   1.509   8.433
    1XTA    C1018381  28.097   1.639   8.363
    1XTA    CN318382  28.062   1.815   8.087
    1XTA    C1118383  28.201   1.839   8.093
    1XTA    C1218384  28.276   1.867   7.976
    1XTA    C1318385  28.212   1.897   7.859
    1XTA    C1418386  28.070   1.892   7.857
    1XTA    C1518387  27.995   1.852   7.969
    1XTA     H118388  27.736   1.785   8.229
    1XTA     H218389  27.628   1.941   8.406
    1XTA     H318390  28.019   2.148   8.435
    1XTA     H418391  28.103   1.998   8.281
    1XTA     H518392  27.902   1.548   8.098
    1XTA     H618393  27.944   1.333   8.185
    1XTA     H718394  28.150   1.513   8.529
    1XTA     H818395  28.139   1.731   8.411
    1XTA     H918396  28.266   1.825   8.176
    1XTA    H1018397  28.382   1.873   7.984
    1XTA    H1118398  28.022   1.908   7.770
    1XTA    H1218399  27.887   1.863   7.958
    1XTA    OA118400  27.747   2.131   8.530
    1XTA    CO118401  27.818   2.235   8.583
    1XTA    OA218402  28.077   1.268   8.396
    1XTA    CO218403  28.193   1.245   8.469
    1XTA    CL118404  28.200   1.097   8.516
    1XTA    CL218405  28.303   1.088   8.624
    1XTA    CL318406  28.438   1.154   8.596
    1XTA    CL418407  28.520   1.180   8.722
    1XTA    CO318408  28.639   1.272   8.681
    1XTA    OA318409  28.708   1.324   8.792
    1XTA    CO418410  28.647   1.448   8.839
    1XTA    CT118411  28.754   1.539   8.893
    1XTA    CL518412  28.864   1.571   8.789
    1XTA    CL618413  28.823   1.634   8.657
    1XTA    OA418414  28.295   1.928   7.754
    1XTA    CO518415  28.242   1.989   7.640
    1XTA    CL718416  28.351   2.017   7.535
    1XTA    CL818417  28.428   1.883   7.506
    1XTA    CL918418  28.533   1.904   7.392
    1XTA   CL1018419  28.574   1.769   7.339
    1XTA    CO618420  28.673   1.696   7.426
    1XTA    OA518421  28.674   1.559   7.400
    1XTA    CO718422  28.557   1.493   7.426
    1XTA    CT218423  28.564   1.344   7.403
    1XTA   CL1118424  28.602   1.309   7.254
    1XTA   CL1218425  28.492   1.345   7.155
    1XTA    HL118426  27.753   2.295   8.641
    1XTA    HL218427  27.904   2.201   8.636
    1XTA    HL318428  27.845   2.304   8.510
    1XTA    HL418429  28.283   1.276   8.416
    1XTA    HL518430  28.187   1.301   8.559
    1XTA    HL618431  28.227   1.029   8.431
    1XTA    HL718432  28.106   1.056   8.559
    1XTA    HL818433  28.314   0.984   8.644
    1XTA    HL918434  28.254   1.127   8.715
    1XTA   HL1018435  28.497   1.105   8.518
    1XTA   HL1118436  28.426   1.257   8.560
    1XTA   HL1218437  28.561   1.091   8.766
    1XTA   HL1318438  28.450   1.233   8.783
    1XTA   HL1418439  28.711   1.200   8.638
    1XTA   HL1518440  28.611   1.359   8.613
    1XTA   HL1618441  28.594   1.506   8.760
    1XTA   HL1718442  28.577   1.424   8.920
    1XTA   HL1818443  28.929   1.492   8.764
    1XTA   HL1918444  28.934   1.637   8.831
    1XTA   HL2018445  28.751   1.713   8.673
    1XTA   HL2118446  28.783   1.553   8.604
    1XTA   HL2218447  28.919   1.662   8.612
    1XTA   HL2318448  28.188   2.086   7.670
    1XTA   HL2418449  28.176   1.923   7.587
    1XTA   HL2518450  28.309   2.061   7.445
    1XTA   HL2618451  28.412   2.096   7.574
    1XTA   HL2718452  28.481   1.835   7.588
    1XTA   HL2818453  28.360   1.806   7.481
    1XTA   HL2918454  28.485   1.957   7.310
    1XTA   HL3018455  28.612   1.972   7.426
    1XTA   HL3118456  28.482   1.715   7.316
    1XTA   HL3218457  28.623   1.790   7.247
    1XTA   HL3318458  28.767   1.743   7.405
    1XTA   HL3418459  28.659   1.718   7.533
    1XTA   HL3518460  28.483   1.527   7.351
    1XTA   HL3618461  28.514   1.501   7.527
    1XTA   HL3718462  28.637   1.204   7.243
    1XTA   HL3818463  28.687   1.368   7.236
    1XTA   HL3918464  28.473   1.451   7.154
    1XTA   HL4018465  28.400   1.286   7.176
    1XTA   HL4118466  28.507   1.320   7.049
    1XTA    CO818467  28.811   1.464   9.012
    1XTA    CO918468  28.693   1.671   8.949
    1XTA    OA618469  28.607   1.648   9.054
    1XTA   HL4218470  28.726   1.442   9.075
    1XTA   HL4318471  28.863   1.372   8.972
    1XTA   HL4418472  28.427   1.281   7.565
    1XTA   HL4518473  28.351   1.307   7.400
    1XTA   CO1018474  28.438   1.267   7.455
    1XTA   CO1118475  28.674   1.284   7.498
    1XTA    OA718476  28.443   1.127   7.443
    1XTA   HL4618477  28.695   1.176   7.477
    1XTA   HL4718478  28.760   1.341   7.476
    1XTA   HL4818479  28.640   1.724   8.863
    1XTA   HL4918480  28.786   1.727   8.985
    1XTA     NT18481  27.828   1.452   9.797
    1XTA    CN118482  27.757   1.402   9.896
    1XTA     C118483  27.778   1.437  10.028
    1XTA     C218484  27.714   1.381  10.139
    1XTA     C318485  27.604   1.295  10.117
    1XTA     C418486  27.577   1.264   9.982
    1XTA     C518487  27.656   1.309   9.878
    1XTA    CN218488  27.791   1.572   9.741
    1XTA     C618489  27.695   1.585   9.633
    1XTA     C718490  27.645   1.703   9.587
    1XTA     C818491  27.702   1.824   9.631
    1XTA     C918492  27.790   1.817   9.741
    1XTA    C1018493  27.837   1.694   9.798
    1XTA    CN318494  27.938   1.384   9.758
    1XTA    C1118495  28.029   1.331   9.850
    1XTA    C1218496  28.138   1.253   9.814
    1XTA    C1318497  28.169   1.239   9.679
    1XTA    C1418498  28.071   1.282   9.582
    1XTA    C1518499  27.950   1.346   9.622
    1XTA     H118500  27.861   1.503  10.043
    1XTA     H218501  27.752   1.411  10.239
    1XTA     H318502  27.498   1.202   9.955
    1XTA     H418503  27.636   1.277   9.777
    1XTA     H518504  27.648   1.492   9.604
    1XTA     H618505  27.567   1.698   9.515
    1XTA     H718506  27.824   1.909   9.789
    1XTA     H818507  27.894   1.700   9.886
    1XTA     H918508  28.006   1.355   9.949
    1XTA    H1018509  28.203   1.210   9.884
    1XTA    H1118510  28.082   1.248   9.480
    1XTA    H1218511  27.878   1.379   9.547
    1XTA    OA118512  27.534   1.227  10.216
    1XTA    CO118513  27.587   1.247  10.345
    1XTA    OA218514  27.654   1.946   9.585
    1XTA    CO218515  27.740   2.053   9.585
    1XTA    CL118516  27.859   2.031   9.493
    1XTA    CL218517  27.929   2.164   9.440
    1XTA    CL318518  28.009   2.157   9.310
    1XTA    CL418519  28.138   2.071   9.327
    1XTA    CO318520  28.214   2.042   9.192
    1XTA    OA318521  28.324   1.962   9.211
    1XTA    CO418522  28.294   1.825   9.176
    1XTA    CT118523  28.427   1.739   9.190
    1XTA    CL518524  28.391   1.589   9.204
    1XTA    CL618525  28.280   1.545   9.299
    1XTA    OA418526  28.265   1.151   9.633
    1XTA    CO518527  28.367   1.108   9.718
    1XTA    CL718528  28.422   0.980   9.649
    1XTA    CL818529  28.489   0.882   9.747
    1XTA    CL918530  28.388   0.807   9.828
    1XTA   CL1018531  28.439   0.684   9.908
    1XTA    CO618532  28.501   0.575   9.814
    1XTA    OA518533  28.399   0.497   9.758
    1XTA    CO718534  28.410   0.469   9.617
    1XTA    CT218535  28.298   0.376   9.567
    1XTA   CL1118536  28.173   0.388   9.657
    1XTA   CL1218537  28.111   0.525   9.667
    1XTA    HL118538  27.548   1.178  10.415
    1XTA    HL218539  27.696   1.232  10.348
    1XTA    HL318540  27.569   1.349  10.375
    1XTA    HL418541  27.685   2.143   9.547
    1XTA    HL518542  27.777   2.070   9.689
    1XTA    HL618543  27.823   1.970   9.404
    1XTA    HL718544  27.925   1.965   9.550
    1XTA    HL818545  27.995   2.196   9.520
    1XTA    HL918546  27.852   2.242   9.429
    1XTA   HL1018547  27.951   2.096   9.238
    1XTA   HL1118548  28.032   2.264   9.273
    1XTA   HL1218549  28.121   1.972   9.359
    1XTA   HL1318550  28.213   2.106   9.396
    1XTA   HL1418551  28.150   2.018   9.106
    1XTA   HL1518552  28.246   2.145   9.164
    1XTA   HL1618553  28.214   1.792   9.248
    1XTA   HL1718554  28.253   1.803   9.076
    1XTA   HL1818555  28.470   1.541   9.248
    1XTA   HL1918556  28.365   1.556   9.108
    1XTA   HL2018557  28.185   1.569   9.263
    1XTA   HL2118558  28.281   1.568   9.403
    1XTA   HL2218559  28.287   1.437   9.307
    1XTA   HL2318560  28.317   1.070   9.804
    1XTA   HL2418561  28.444   1.191   9.742
    1XTA   HL2518562  28.345   0.915   9.605
    1XTA   HL2618563  28.479   1.002   9.556
    1XTA   HL2718564  28.549   0.811   9.687
    1XTA   HL2818565  28.547   0.927   9.824
    1XTA   HL2918566  28.358   0.872   9.906
    1XTA   HL3018567  28.303   0.785   9.775
    1XTA   HL3118568  28.525   0.715   9.972
    1XTA   HL3218569  28.369   0.650   9.982
    1XTA   HL3318570  28.556   0.630   9.736
    1XTA   HL3418571  28.576   0.518   9.869
    1XTA   HL3518572  28.508   0.427   9.589
    1XTA   HL3618573  28.401   0.566   9.569
    1XTA   HL3718574  28.205   0.366   9.759
    1XTA   HL3818575  28.097   0.314   9.630
    1XTA   HL3918576  28.003   0.522   9.655
    1XTA   HL4018577  28.133   0.590   9.581
    1XTA   HL4118578  28.143   0.572   9.763
    1XTA    CO818579  28.513   1.792   9.307
    1XTA    CO918580  28.513   1.759   9.070
    1XTA    OA618581  28.452   1.792   9.436
    1XTA   HL4218582  28.531   1.896   9.291
    1XTA   HL4318583  28.614   1.744   9.315
    1XTA   HL4418584  28.473   0.202   9.506
    1XTA   HL4518585  28.281   0.172   9.513
    1XTA   CO1018586  28.353   0.227   9.577
    1XTA   CO1118587  28.261   0.401   9.415
    1XTA    OA718588  28.343   0.406   9.352
    1XTA   HL4618589  28.195   0.320   9.384
    1XTA   HL4718590  28.203   0.492   9.405
    1XTA   HL4818591  28.455   1.749   8.980
    1XTA   HL4918592  28.571   1.852   9.076
    1XTA     NT18593  29.297   2.763   5.817
    1XTA    CN118594  29.192   2.802   5.894
    1XTA     C118595  29.167   2.749   6.025
    1XTA     C218596  29.056   2.791   6.098
    1XTA     C318597  28.972   2.895   6.049
    1XTA     C418598  28.999   2.942   5.915
    1XTA     C518599  29.105   2.893   5.837
    1XTA    CN218600  29.300   2.635   5.771
    1XTA     C618601  29.274   2.601   5.636
    1XTA     C718602  29.275   2.468   5.603
    1XTA     C818603  29.299   2.367   5.701
    1XTA     C918604  29.329   2.399   5.839
    1XTA    C1018605  29.330   2.536   5.869
    1XTA    CN318606  29.396   2.845   5.788
    1XTA    C1118607  29.501   2.851   5.874
    1XTA    C1218608  29.611   2.939   5.848
    1XTA    C1318609  29.621   3.008   5.723
    1XTA    C1418610  29.514   2.995   5.634
    1XTA    C1518611  29.402   2.923   5.672
    1XTA     H118612  29.231   2.677   6.075
    1XTA     H218613  29.028   2.760   6.196
    1XTA     H318614  28.944   3.020   5.871
    1XTA     H418615  29.110   2.939   5.742
    1XTA     H518616  29.263   2.681   5.558
    1XTA     H618617  29.264   2.433   5.499
    1XTA     H718618  29.345   2.322   5.910
    1XTA     H818619  29.348   2.559   5.973
    1XTA     H918620  29.503   2.802   5.964
    1XTA    H1018621  29.687   2.954   5.924
    1XTA    H1118622  29.525   3.043   5.545
    1XTA    H1218623  29.322   2.921   5.601
    1XTA    OA118624  28.866   2.938   6.120
    1XTA    CO118625  28.792   3.041   6.061
    1XTA    OA218626  29.292   2.238   5.660
    1XTA    CO218627  29.277   2.136   5.747
    1XTA    CL118628  29.270   2.002   5.678
    1XTA    CL218629  29.209   1.885   5.767
    1XTA    CL318630  29.269   1.861   5.908
    1XTA    CL418631  29.393   1.780   5.887
    1XTA    CO318632  29.479   1.790   6.012
    1XTA    OA318633  29.522   1.927   6.036
    1XTA    CO418634  29.584   1.950   6.163
    1XTA    CT118635  29.589   2.104   6.178
    1XTA    CL518636  29.458   2.173   6.123
    1XTA    CL618637  29.326   2.127   6.185
    1XTA    OA418638  29.726   3.097   5.712
    1XTA    CO518639  29.775   3.117   5.583
    1XTA    CL718640  29.811   3.267   5.566
    1XTA    CL818641  29.696   3.327   5.500
    1XTA    CL918642  29.696   3.487   5.489
    1XTA   CL1018643  29.606   3.546   5.373
    1XTA    CO618644  29.615   3.701   5.345
    1XTA    OA518645  29.571   3.725   5.210
    1XTA    CO718646  29.557   3.858   5.178
    1XTA    CT218647  29.503   3.872   5.034
    1XTA   CL1118648  29.353   3.846   5.028
    1XTA   CL1218649  29.310   3.704   5.052
    1XTA    HL118650  28.851   3.123   6.024
    1XTA    HL218651  28.741   3.011   5.964
    1XTA    HL318652  28.710   3.074   6.133
    1XTA    HL418653  29.358   2.131   5.815
    1XTA    HL518654  29.194   2.163   5.801
    1XTA    HL618655  29.365   1.968   5.650
    1XTA    HL718656  29.217   2.024   5.587
    1XTA    HL818657  29.216   1.794   5.714
    1XTA    HL918658  29.098   1.898   5.775
    1XTA   HL1018659  29.284   1.956   5.958
    1XTA   HL1118660  29.200   1.810   5.971
    1XTA   HL1218661  29.449   1.838   5.811
    1XTA   HL1318662  29.377   1.678   5.862
    1XTA   HL1418663  29.419   1.756   6.097
    1XTA   HL1518664  29.567   1.728   6.002
    1XTA   HL1618665  29.521   1.892   6.229
    1XTA   HL1718666  29.679   1.900   6.171
    1XTA   HL1818667  29.449   2.158   6.013
    1XTA   HL1918668  29.463   2.284   6.142
    1XTA   HL2018669  29.239   2.164   6.139
    1XTA   HL2118670  29.329   2.164   6.284
    1XTA   HL2218671  29.322   2.020   6.183
    1XTA   HL2318672  29.715   3.074   5.503
    1XTA   HL2418673  29.868   3.063   5.575
    1XTA   HL2518674  29.854   3.319   5.651
    1XTA   HL2618675  29.894   3.290   5.500
    1XTA   HL2718676  29.711   3.286   5.398
    1XTA   HL2818677  29.607   3.284   5.543
    1XTA   HL2918678  29.646   3.517   5.577
    1XTA   HL3018679  29.796   3.530   5.491
    1XTA   HL3118680  29.646   3.506   5.279
    1XTA   HL3218681  29.505   3.507   5.376
    1XTA   HL3318682  29.542   3.747   5.407
    1XTA   HL3418683  29.716   3.747   5.374
    1XTA   HL3518684  29.650   3.902   5.178
    1XTA   HL3618685  29.504   3.923   5.246
    1XTA   HL3718686  29.322   3.876   4.933
    1XTA   HL3818687  29.312   3.919   5.098
    1XTA   HL3918688  29.205   3.699   5.074
    1XTA   HL4018689  29.351   3.660   5.143
    1XTA   HL4118690  29.337   3.646   4.961
    1XTA    CO818691  29.704   2.159   6.092
    1XTA    CO918692  29.620   2.134   6.317
    1XTA    OA618693  29.674   2.137   5.954
    1XTA   HL4218694  29.793   2.114   6.134
    1XTA   HL4318695  29.701   2.269   6.102
    1XTA   HL4418696  29.618   3.696   4.977
    1XTA   HL4518697  29.682   3.840   4.911
    1XTA   CO1018698  29.587   3.789   4.931
    1XTA   CO1118699  29.508   4.022   4.987
    1XTA    OA718700  29.642   4.058   4.971
    1XTA   HL4618701  29.457   4.039   4.899
    1XTA   HL4718702  29.460   4.075   5.065
    1XTA   HL4818703  29.637   2.238   6.329
    1XTA   HL4918704  29.719   2.095   6.339
    1XTA     NT18705  27.952   6.332   6.469
    1XTA    CN118706  27.982   6.201   6.440
    1XTA     C118707  27.900   6.093   6.463
    1XTA     C218708  27.941   5.959   6.442
    1XTA     C318709  28.071   5.929   6.402
    1XTA     C418710  28.148   6.038   6.370
    1XTA     C518711  28.103   6.171   6.380
    1XTA    CN218712  27.915   6.366   6.595
    1XTA     C618713  28.000   6.351   6.708
    1XTA     C718714  27.955   6.387   6.835
    1XTA     C818715  27.821   6.421   6.862
    1XTA     C918716  27.733   6.431   6.751
    1XTA    C1018717  27.779   6.407   6.622
    1XTA    CN318718  27.923   6.419   6.371
    1XTA    C1118719  27.788   6.424   6.324
    1XTA    C1218720  27.749   6.525   6.237
    1XTA    C1318721  27.839   6.635   6.208
    1XTA    C1418722  27.972   6.625   6.243
    1XTA    C1518723  28.019   6.517   6.326
    1XTA     H118724  27.798   6.105   6.503
    1XTA     H218725  27.872   5.874   6.447
    1XTA     H318726  28.253   6.023   6.336
    1XTA     H418727  28.169   6.251   6.343
    1XTA     H518728  28.100   6.318   6.700
    1XTA     H618729  28.027   6.369   6.909
    1XTA     H718730  27.625   6.447   6.760
    1XTA     H818731  27.703   6.410   6.541
    1XTA     H918732  27.711   6.346   6.338
    1XTA    H1018733  27.646   6.535   6.190
    1XTA    H1118734  28.044   6.697   6.208
    1XTA    H1218735  28.118   6.521   6.356
    1XTA    OA118736  28.120   5.804   6.395
    1XTA    CO118737  28.070   5.733   6.280
    1XTA    OA218738  27.779   6.450   6.989
    1XTA    CO218739  27.647   6.444   7.021
    1XTA    CL118740  27.603   6.301   7.085
    1XTA    CL218741  27.454   6.280   7.101
    1XTA    CL318742  27.398   6.143   7.141
    1XTA    CL418743  27.463   6.099   7.274
    1XTA    CO318744  27.445   5.943   7.294
    1XTA    OA318745  27.532   5.882   7.389
    1XTA    CO418746  27.673   5.878   7.365
    1XTA    CT118747  27.719   5.757   7.447
    1XTA    CL518748  27.648   5.631   7.408
    1XTA    CL618749  27.716   5.509   7.466
    1XTA    OA418750  27.785   6.734   6.132
    1XTA    CO518751  27.867   6.840   6.094
    1XTA    CL718752  27.899   6.922   6.219
    1XTA    CL818753  27.988   7.048   6.204
    1XTA    CL918754  27.933   7.150   6.103
    1XTA   CL1018755  28.042   7.254   6.058
    1XTA    CO618756  28.081   7.247   5.908
    1XTA    OA518757  28.100   7.371   5.849
    1XTA    CO718758  28.227   7.424   5.875
    1XTA    CT218759  28.221   7.582   5.851
    1XTA   CL1118760  28.249   7.617   5.706
    1XTA   CL1218761  28.145   7.565   5.604
    1XTA    HL118762  28.108   5.751   6.177
    1XTA    HL218763  28.040   5.628   6.294
    1XTA    HL318764  27.971   5.774   6.265
    1XTA    HL418765  27.647   6.509   7.101
    1XTA    HL518766  27.567   6.483   6.959
    1XTA    HL618767  27.674   6.281   7.171
    1XTA    HL718768  27.634   6.227   7.008
    1XTA    HL818769  27.416   6.314   7.003
    1XTA    HL918770  27.408   6.347   7.178
    1XTA   HL1018771  27.288   6.153   7.158
    1XTA   HL1118772  27.405   6.072   7.067
    1XTA   HL1218773  27.411   6.149   7.347
    1XTA   HL1318774  27.568   6.117   7.292
    1XTA   HL1418775  27.349   5.920   7.348
    1XTA   HL1518776  27.452   5.892   7.198
    1XTA   HL1618777  27.685   5.855   7.257
    1XTA   HL1718778  27.720   5.977   7.389
    1XTA   HL1818779  27.654   5.616   7.301
    1XTA   HL1918780  27.538   5.648   7.435
    1XTA   HL2018781  27.735   5.508   7.574
    1XTA   HL2118782  27.814   5.485   7.420
    1XTA   HL2218783  27.665   5.414   7.447
    1XTA   HL2318784  27.820   6.904   6.022
    1XTA   HL2418785  27.964   6.817   6.049
    1XTA   HL2518786  27.810   6.963   6.261
    1XTA   HL2618787  27.956   6.861   6.289
    1XTA   HL2718788  28.013   7.090   6.296
    1XTA   HL2818789  28.086   7.008   6.170
    1XTA   HL2918790  27.907   7.100   6.013
    1XTA   HL3018791  27.841   7.200   6.123
    1XTA   HL3118792  27.992   7.351   6.073
    1XTA   HL3218793  28.132   7.247   6.125
    1XTA   HL3318794  28.157   7.178   5.888
    1XTA   HL3418795  28.000   7.194   5.855
    1XTA   HL3518796  28.302   7.372   5.814
    1XTA   HL3618797  28.247   7.418   5.982
    1XTA   HL3718798  28.347   7.585   5.681
    1XTA   HL3818799  28.241   7.720   5.691
    1XTA   HL3918800  28.159   7.458   5.571
    1XTA   HL4018801  28.160   7.624   5.516
    1XTA   HL4118802  28.041   7.579   5.637
    1XTA    CO818803  27.705   5.780   7.592
    1XTA    CO918804  27.862   5.756   7.419
    1XTA    OA618805  27.879   5.714   7.323
    1XTA   HL4218806  27.598   5.782   7.619
    1XTA   HL4318807  27.759   5.675   7.672
    1XTA   HL4418808  28.319   7.746   5.946
    1XTA   HL4518809  28.315   7.604   6.043
    1XTA   CO1018810  28.331   7.641   5.942
    1XTA   CO1118811  28.088   7.639   5.899
    1XTA    OA718812  28.457   7.588   5.907
    1XTA   HL4618813  28.017   7.596   5.839
    1XTA   HL4718814  28.090   7.751   5.879
    1XTA   HL4818815  27.906   5.683   7.489
    1XTA   HL4918816  27.912   5.857   7.436
    1XTA     NT18817  25.989   5.340  -0.814
    1XTA    CN118818  25.858   5.320  -0.795
    1XTA     C118819  25.816   5.233  -0.695
    1XTA     C218820  25.682   5.206  -0.673
    1XTA     C318821  25.583   5.260  -0.752
    1XTA     C418822  25.625   5.342  -0.863
    1XTA     C518823  25.763   5.373  -0.883
    1XTA    CN218824  26.027   5.459  -0.868
    1XTA     C618825  26.010   5.572  -0.781
    1XTA     C718826  26.052   5.701  -0.817
    1XTA     C818827  26.140   5.712  -0.932
    1XTA     C918828  26.150   5.604  -1.024
    1XTA    C1018829  26.105   5.477  -0.985
    1XTA    CN318830  26.068   5.228  -0.814
    1XTA    C1118831  26.181   5.218  -0.727
    1XTA    C1218832  26.270   5.114  -0.746
    1XTA    C1318833  26.250   5.021  -0.850
    1XTA    C1418834  26.138   5.026  -0.938
    1XTA    C1518835  26.048   5.132  -0.918
    1XTA     H118836  25.879   5.187  -0.622
    1XTA     H218837  25.655   5.144  -0.585
    1XTA     H318838  25.555   5.380  -0.937
    1XTA     H418839  25.804   5.426  -0.963
    1XTA     H518840  25.954   5.561  -0.689
    1XTA     H618841  26.044   5.784  -0.740
    1XTA     H718842  26.214   5.601  -1.111
    1XTA     H818843  26.125   5.396  -1.048
    1XTA     H918844  26.203   5.299  -0.658
    1XTA    H1018845  26.362   5.111  -0.692
    1XTA    H1118846  26.136   4.957  -1.019
    1XTA    H1218847  25.961   5.140  -0.981
    1XTA    OA118848  25.457   5.229  -0.718
    1XTA    CO118849  25.350   5.243  -0.818
    1XTA    OA218850  26.197   5.839  -0.960
    1XTA    CO218851  26.291   5.850  -1.069
    1XTA    CL118852  26.213   5.844  -1.197
    1XTA    CL218853  26.146   5.982  -1.232
    1XTA    CL318854  26.020   5.963  -1.316
    1XTA    CL418855  26.056   5.907  -1.450
    1XTA    CO318856  25.946   5.844  -1.525
    1XTA    OA318857  25.940   5.719  -1.458
    1XTA    CO418858  25.841   5.629  -1.503
    1XTA    CT118859  25.869   5.488  -1.451
    1XTA    CL518860  25.900   5.476  -1.294
    1XTA    CL618861  25.802   5.558  -1.212
    1XTA    OA418862  26.340   4.925  -0.885
    1XTA    CO518863  26.474   4.971  -0.905
    1XTA    CL718864  26.576   4.872  -0.847
    1XTA    CL818865  26.588   4.877  -0.693
    1XTA    CL918866  26.460   4.829  -0.612
    1XTA   CL1018867  26.420   4.684  -0.642
    1XTA    CO618868  26.306   4.628  -0.556
    1XTA    OA518869  26.322   4.666  -0.416
    1XTA    CO718870  26.241   4.590  -0.326
    1XTA    CT218871  26.242   4.650  -0.179
    1XTA   CL1118872  26.173   4.556  -0.082
    1XTA   CL1218873  26.035   4.505  -0.123
    1XTA    HL118874  25.369   5.173  -0.900
    1XTA    HL218875  25.252   5.211  -0.770
    1XTA    HL318876  25.353   5.344  -0.845
    1XTA    HL418877  26.341   5.943  -1.047
    1XTA    HL518878  26.372   5.773  -1.057
    1XTA    HL618879  26.140   5.761  -1.208
    1XTA    HL718880  26.282   5.832  -1.278
    1XTA    HL818881  26.207   6.035  -1.303
    1XTA    HL918882  26.122   6.042  -1.142
    1XTA   HL1018883  25.947   5.901  -1.262
    1XTA   HL1118884  25.979   6.061  -1.320
    1XTA   HL1218885  26.132   5.830  -1.443
    1XTA   HL1318886  26.101   5.983  -1.511
    1XTA   HL1418887  25.850   5.890  -1.504
    1XTA   HL1518888  25.971   5.823  -1.630
    1XTA   HL1618889  25.746   5.677  -1.477
    1XTA   HL1718890  25.852   5.631  -1.614
    1XTA   HL1818891  26.005   5.520  -1.281
    1XTA   HL1918892  25.910   5.372  -1.263
    1XTA   HL2018893  25.790   5.660  -1.245
    1XTA   HL2118894  25.846   5.574  -1.118
    1XTA   HL2218895  25.708   5.502  -1.205
    1XTA   HL2318896  26.491   5.063  -0.854
    1XTA   HL2418897  26.488   4.996  -1.009
    1XTA   HL2518898  26.569   4.766  -0.885
    1XTA   HL2618899  26.677   4.893  -0.883
    1XTA   HL2718900  26.664   4.800  -0.669
    1XTA   HL2818901  26.631   4.968  -0.658
    1XTA   HL2918902  26.491   4.845  -0.513
    1XTA   HL3018903  26.380   4.890  -0.649
    1XTA   HL3118904  26.383   4.692  -0.748
    1XTA   HL3218905  26.507   4.615  -0.639
    1XTA   HL3318906  26.211   4.665  -0.589
    1XTA   HL3418907  26.306   4.521  -0.566
    1XTA   HL3518908  26.278   4.492  -0.319
    1XTA   HL3618909  26.138   4.594  -0.373
    1XTA   HL3718910  26.161   4.604   0.012
    1XTA   HL3818911  26.232   4.462  -0.065
    1XTA   HL3918912  25.961   4.517  -0.050
    1XTA   HL4018913  26.034   4.405  -0.155
    1XTA   HL4118914  26.005   4.562  -0.208
    1XTA    CO818915  25.988   5.423  -1.520
    1XTA    CO918916  25.742   5.408  -1.486
    1XTA    OA618917  25.735   5.284  -1.408
    1XTA   HL4218918  26.081   5.489  -1.517
    1XTA   HL4318919  26.016   5.337  -1.456
    1XTA   HL4418920  26.163   4.829  -0.258
    1XTA   HL4518921  26.122   4.811  -0.084
    1XTA   CO1018922  26.191   4.792  -0.161
    1XTA   CO1118923  26.381   4.691  -0.137
    1XTA    OA718924  26.326   4.822  -0.114
    1XTA   HL4618925  26.412   4.637  -0.044
    1XTA   HL4718926  26.452   4.666  -0.213
    1XTA   HL4818927  25.740   5.392  -1.587
    1XTA   HL4918928  25.656   5.473  -1.461
    1XTA     NT18929  25.813   3.934   6.086
    1XTA    CN118930  25.810   4.012   6.198
    1XTA     C118931  25.774   3.967   6.323
    1XTA     C218932  25.765   4.056   6.433
    1XTA     C318933  25.789   4.195   6.426
    1XTA     C418934  25.827   4.245   6.295
    1XTA     C518935  25.842   4.151   6.186
    1XTA    CN218936  25.919   3.958   6.002
    1XTA     C618937  25.905   4.012   5.875
    1XTA     C718938  26.017   4.031   5.790
    1XTA     C818939  26.143   3.984   5.819
    1XTA     C918940  26.156   3.912   5.942
    1XTA    C1018941  26.047   3.904   6.033
    1XTA    CN318942  25.720   3.854   6.034
    1XTA    C1118943  25.607   3.908   5.978
    1XTA    C1218944  25.501   3.832   5.926
    1XTA    C1318945  25.509   3.690   5.938
    1XTA    C1418946  25.613   3.632   6.014
    1XTA    C1518947  25.717   3.714   6.058
    1XTA     H118948  25.754   3.866   6.325
    1XTA     H218949  25.748   4.005   6.532
    1XTA     H318950  25.847   4.353   6.272
    1XTA     H418951  25.883   4.197   6.096
    1XTA     H518952  25.809   4.055   5.856
    1XTA     H618953  25.994   4.078   5.693
    1XTA     H718954  26.249   3.862   5.970
    1XTA     H818955  26.052   3.857   6.118
    1XTA     H918956  25.606   4.018   5.974
    1XTA    H1018957  25.424   3.887   5.877
    1XTA    H1118958  25.628   3.521   6.016
    1XTA    H1218959  25.800   3.673   6.108
    1XTA    OA118960  25.783   4.283   6.528
    1XTA    CO118961  25.800   4.222   6.659
    1XTA    OA218962  26.247   3.982   5.734
    1XTA    CO218963  26.383   3.946   5.778
    1XTA    CL118964  26.480   3.992   5.670
    1XTA    CL218965  26.469   3.907   5.546
    1XTA    CL318966  26.584   3.926   5.447
    1XTA    CL418967  26.570   3.818   5.336
    1XTA    CO318968  26.691   3.825   5.251
    1XTA    OA318969  26.699   3.716   5.157
    1XTA    CO418970  26.826   3.677   5.106
    1XTA    CT118971  26.815   3.638   4.956
    1XTA    CL518972  26.960   3.623   4.899
    1XTA    CL618973  27.043   3.504   4.942
    1XTA    OA418974  25.419   3.607   5.881
    1XTA    CO518975  25.361   3.649   5.758
    1XTA    CL718976  25.216   3.581   5.725
    1XTA    CL818977  25.098   3.634   5.811
    1XTA    CL918978  25.057   3.765   5.757
    1XTA   CL1018979  24.915   3.801   5.792
    1XTA    CO618980  24.873   3.913   5.693
    1XTA    OA518981  24.887   3.871   5.553
    1XTA    CO718982  24.868   3.987   5.467
    1XTA    CT218983  24.995   4.023   5.384
    1XTA   CL1118984  25.094   4.112   5.471
    1XTA   CL1218985  25.236   4.133   5.411
    1XTA    HL118986  25.723   4.163   6.695
    1XTA    HL218987  25.885   4.153   6.659
    1XTA    HL318988  25.823   4.288   6.746
    1XTA    HL418989  26.402   3.995   5.877
    1XTA    HL518990  26.389   3.838   5.789
    1XTA    HL618991  26.585   3.985   5.720
    1XTA    HL718992  26.451   4.095   5.646
    1XTA    HL818993  26.378   3.928   5.493
    1XTA    HL918994  26.456   3.804   5.576
    1XTA   HL1018995  26.587   4.028   5.394
    1XTA   HL1118996  26.681   3.913   5.492
    1XTA   HL1218997  26.480   3.837   5.276
    1XTA   HL1318998  26.550   3.728   5.382
    1XTA   HL1418999  26.688   3.916   5.195
    1XTA   HL1519000  26.769   3.825   5.330
    1XTA   HL1619001  26.890   3.758   5.113
    1XTA   HL1719002  26.881   3.600   5.160
    1XTA   HL1819003  27.020   3.701   4.926
    1XTA   HL1919004  26.956   3.645   4.794
    1XTA   HL2019005  27.087   3.536   5.033
    1XTA   HL2119006  27.113   3.471   4.864
    1XTA   HL2219007  26.983   3.411   4.958
    1XTA   HL2319008  25.421   3.616   5.666
    1XTA   HL2419009  25.349   3.755   5.753
    1XTA   HL2519010  25.186   3.594   5.624
    1XTA   HL2619011  25.224   3.477   5.726
    1XTA   HL2719012  25.018   3.563   5.793
    1XTA   HL2819013  25.107   3.627   5.920
    1XTA   HL2919014  25.131   3.835   5.796
    1XTA   HL3019015  25.064   3.767   5.650
    1XTA   HL3119016  24.856   3.715   5.772
    1XTA   HL3219017  24.896   3.821   5.897
    1XTA   HL3319018  24.768   3.930   5.702
    1XTA   HL3419019  24.911   4.008   5.706
    1XTA   HL3519020  24.842   4.086   5.516
    1XTA   HL3619021  24.776   3.977   5.403
    1XTA   HL3719022  25.105   4.071   5.576
    1XTA   HL3819023  25.056   4.217   5.489
    1XTA   HL3919024  25.233   4.140   5.304
    1XTA   HL4019025  25.293   4.044   5.423
    1XTA   HL4119026  25.297   4.206   5.463
    1XTA    CO819027  26.742   3.761   4.887
    1XTA    CO919028  26.719   3.519   4.918
    1XTA    OA619029  26.750   3.415   4.916
    1XTA   HL4219030  26.742   3.734   4.783
    1XTA   HL4319031  26.611   3.772   4.918
    1XTA   HL4419032  24.938   4.194   5.286
    1XTA   HL4519033  25.054   4.111   5.200
    1XTA   CO1019034  24.967   4.098   5.261
    1XTA   CO1119035  25.058   3.885   5.342
    1XTA    OA719036  24.890   4.040   5.211
    1XTA   HL4619037  24.966   3.796   5.274
    1XTA   HL4719038  25.078   3.834   5.440
    1XTA   HL4819039  26.666   3.545   4.829
    1XTA   HL4919040  26.633   3.518   4.993
    1XTA     NT19041  27.712   4.851  -0.144
    1XTA    CN119042  27.593   4.782  -0.146
    1XTA     C119043  27.477   4.836  -0.080
    1XTA     C219044  27.354   4.768  -0.090
    1XTA     C319045  27.344   4.647  -0.163
    1XTA     C419046  27.453   4.600  -0.238
    1XTA     C519047  27.577   4.669  -0.230
    1XTA    CN219048  27.743   4.934  -0.247
    1XTA     C619049  27.856   4.892  -0.324
    1XTA     C719050  27.902   4.979  -0.422
    1XTA     C819051  27.824   5.090  -0.458
    1XTA     C919052  27.700   5.118  -0.389
    1XTA    C1019053  27.659   5.042  -0.281
    1XTA    CN319054  27.767   4.878  -0.024
    1XTA    C1119055  27.760   5.004   0.041
    1XTA    C1219056  27.825   5.023   0.167
    1XTA    C1319057  27.919   4.924   0.208
    1XTA    C1419058  27.931   4.800   0.144
    1XTA    C1519059  27.853   4.779   0.031
    1XTA     H119060  27.484   4.925  -0.021
    1XTA     H219061  27.269   4.802  -0.031
    1XTA     H319062  27.445   4.508  -0.300
    1XTA     H419063  27.661   4.627  -0.286
    1XTA     H519064  27.911   4.798  -0.297
    1XTA     H619065  27.995   4.954  -0.473
    1XTA     H719066  27.657   5.215  -0.411
    1XTA     H819067  27.564   5.075  -0.225
    1XTA     H919068  27.693   5.077  -0.008
    1XTA    H1019069  27.836   5.118   0.215
    1XTA    H1119070  27.991   4.721   0.187
    1XTA    H1219071  27.855   4.680  -0.016
    1XTA    OA119072  27.214   4.594  -0.166
    1XTA    CO119073  27.184   4.480  -0.243
    1XTA    OA219074  27.864   5.180  -0.556
    1XTA    CO219075  27.997   5.228  -0.546
    1XTA    CL119076  27.997   5.361  -0.620
    1XTA    CL219077  28.106   5.453  -0.590
    1XTA    CL319078  28.084   5.595  -0.630
    1XTA    CL419079  28.189   5.683  -0.578
    1XTA    CO319080  28.147   5.832  -0.596
    1XTA    OA319081  28.037   5.863  -0.521
    1XTA    CO419082  27.984   5.999  -0.541
    1XTA    CT119083  27.856   5.992  -0.465
    1XTA    CL519084  27.782   6.124  -0.495
    1XTA    CL619085  27.853   6.254  -0.453
    1XTA    OA419086  27.998   4.946   0.314
    1XTA    CO519087  27.933   4.945   0.442
    1XTA    CL719088  28.031   5.026   0.525
    1XTA    CL819089  27.962   5.088   0.641
    1XTA    CL919090  27.839   5.170   0.600
    1XTA   CL1019091  27.782   5.245   0.723
    1XTA    CO619092  27.643   5.305   0.689
    1XTA    OA519093  27.551   5.194   0.652
    1XTA    CO719094  27.447   5.227   0.575
    1XTA    CT219095  27.449   5.186   0.429
    1XTA   CL1119096  27.568   5.245   0.359
    1XTA   CL1219097  27.576   5.396   0.331
    1XTA    HL119098  27.210   4.486  -0.344
    1XTA    HL219099  27.253   4.396  -0.219
    1XTA    HL319100  27.079   4.445  -0.232
    1XTA    HL419101  28.028   5.237  -0.441
    1XTA    HL519102  28.066   5.156  -0.586
    1XTA    HL619103  27.908   5.409  -0.590
    1XTA    HL719104  27.965   5.348  -0.725
    1XTA    HL819105  28.185   5.400  -0.654
    1XTA    HL919106  28.133   5.445  -0.483
    1XTA   HL1019107  28.073   5.623  -0.734
    1XTA   HL1119108  27.992   5.632  -0.580
    1XTA   HL1219109  28.286   5.656  -0.625
    1XTA   HL1319110  28.206   5.668  -0.473
    1XTA   HL1419111  28.224   5.897  -0.555
    1XTA   HL1519112  28.130   5.853  -0.705
    1XTA   HL1619113  28.055   6.076  -0.509
    1XTA   HL1719114  27.975   6.016  -0.651
    1XTA   HL1819115  27.679   6.116  -0.444
    1XTA   HL1919116  27.749   6.141  -0.595
    1XTA   HL2019117  27.946   6.260  -0.504
    1XTA   HL2119118  27.889   6.241  -0.354
    1XTA   HL2219119  27.805   6.350  -0.471
    1XTA   HL2319120  27.914   4.847   0.484
    1XTA   HL2419121  27.836   4.992   0.431
    1XTA   HL2519122  28.120   4.967   0.548
    1XTA   HL2619123  28.056   5.108   0.454
    1XTA   HL2719124  27.918   5.019   0.715
    1XTA   HL2819125  28.038   5.140   0.701
    1XTA   HL2919126  27.861   5.249   0.534
    1XTA   HL3019127  27.757   5.111   0.562
    1XTA   HL3119128  27.780   5.181   0.810
    1XTA   HL3219129  27.848   5.327   0.739
    1XTA   HL3319130  27.597   5.356   0.770
    1XTA   HL3419131  27.650   5.382   0.607
    1XTA   HL3519132  27.432   5.335   0.580
    1XTA   HL3619133  27.364   5.178   0.617
    1XTA   HL3719134  27.565   5.194   0.260
    1XTA   HL3819135  27.652   5.216   0.422
    1XTA   HL3919136  27.671   5.435   0.303
    1XTA   HL4019137  27.539   5.452   0.416
    1XTA   HL4119138  27.515   5.426   0.243
    1XTA    CO819139  27.867   5.960  -0.318
    1XTA    CO919140  27.759   5.893  -0.530
    1XTA    OA619141  27.755   5.900  -0.677
    1XTA   HL4219142  27.928   5.874  -0.284
    1XTA   HL4319143  27.911   6.038  -0.259
    1XTA   HL4419144  27.232   5.192   0.401
    1XTA   HL4519145  27.307   5.343   0.364
    1XTA   CO1019146  27.322   5.237   0.358
    1XTA   CO1119147  27.454   5.029   0.419
    1XTA    OA719148  27.314   5.191   0.228
    1XTA   HL4619149  27.532   4.987   0.479
    1XTA   HL4719150  27.472   5.008   0.315
    1XTA   HL4819151  27.655   5.915  -0.491
    1XTA   HL4919152  27.786   5.790  -0.486
    1XTA     NT19153  27.761   3.066   0.807
    1XTA    CN119154  27.779   3.105   0.936
    1XTA     C119155  27.671   3.111   1.028
    1XTA     C219156  27.696   3.167   1.156
    1XTA     C319157  27.827   3.203   1.203
    1XTA     C419158  27.933   3.196   1.114
    1XTA     C519159  27.911   3.150   0.984
    1XTA    CN219160  27.772   2.932   0.766
    1XTA     C619161  27.880   2.887   0.689
    1XTA     C719162  27.902   2.751   0.658
    1XTA     C819163  27.812   2.659   0.713
    1XTA     C919164  27.710   2.704   0.805
    1XTA    C1019165  27.687   2.837   0.824
    1XTA    CN319166  27.746   3.157   0.707
    1XTA    C1119167  27.834   3.257   0.669
    1XTA    C1219168  27.810   3.352   0.569
    1XTA    C1319169  27.683   3.351   0.507
    1XTA    C1419170  27.593   3.242   0.532
    1XTA    C1519171  27.626   3.152   0.637
    1XTA     H119172  27.578   3.073   1.008
    1XTA     H219173  27.622   3.190   1.230
    1XTA     H319174  28.037   3.226   1.137
    1XTA     H419175  27.998   3.130   0.919
    1XTA     H519176  27.947   2.969   0.660
    1XTA     H619177  27.990   2.720   0.600
    1XTA     H719178  27.635   2.633   0.838
    1XTA     H819179  27.600   2.864   0.883
    1XTA     H919180  27.924   3.259   0.727
    1XTA    H1019181  27.893   3.419   0.543
    1XTA    H1119182  27.500   3.233   0.486
    1XTA    H1219183  27.562   3.069   0.653
    1XTA    OA119184  27.841   3.267   1.327
    1XTA    CO119185  27.967   3.267   1.389
    1XTA    OA219186  27.817   2.526   0.678
    1XTA    CO219187  27.797   2.431   0.781
    1XTA    CL119188  27.772   2.287   0.725
    1XTA    CL219189  27.638   2.263   0.657
    1XTA    CL319190  27.614   2.374   0.559
    1XTA    CL419191  27.515   2.336   0.457
    1XTA    CO319192  27.505   2.443   0.350
    1XTA    OA319193  27.442   2.560   0.403
    1XTA    CO419194  27.392   2.652   0.306
    1XTA    CT119195  27.338   2.790   0.357
    1XTA    CL519196  27.447   2.903   0.358
    1XTA    CL619197  27.581   2.872   0.430
    1XTA    OA419198  27.642   3.453   0.418
    1XTA    CO519199  27.728   3.567   0.405
    1XTA    CL719200  27.670   3.665   0.304
    1XTA    CL819201  27.523   3.688   0.302
    1XTA    CL919202  27.475   3.776   0.189
    1XTA   CL1019203  27.325   3.774   0.158
    1XTA    CO619204  27.298   3.882   0.052
    1XTA    OA519205  27.180   3.860  -0.021
    1XTA    CO719206  27.156   3.951  -0.125
    1XTA    CT219207  27.020   3.937  -0.202
    1XTA   CL1119208  26.981   4.064  -0.279
    1XTA   CL1219209  26.866   4.046  -0.379
    1XTA    HL119210  27.998   3.164   1.399
    1XTA    HL219211  28.036   3.331   1.338
    1XTA    HL319212  27.957   3.317   1.479
    1XTA    HL419213  27.878   2.435   0.850
    1XTA    HL519214  27.715   2.462   0.843
    1XTA    HL619215  27.779   2.222   0.815
    1XTA    HL719216  27.855   2.248   0.663
    1XTA    HL819217  27.562   2.247   0.733
    1XTA    HL919218  27.645   2.171   0.600
    1XTA   HL1019219  27.580   2.468   0.620
    1XTA   HL1119220  27.704   2.399   0.504
    1XTA   HL1219221  27.412   2.333   0.497
    1XTA   HL1319222  27.532   2.235   0.405
    1XTA   HL1419223  27.602   2.469   0.312
    1XTA   HL1519224  27.448   2.413   0.266
    1XTA   HL1619225  27.464   2.673   0.224
    1XTA   HL1719226  27.315   2.593   0.252
    1XTA   HL1819227  27.401   2.993   0.400
    1XTA   HL1919228  27.467   2.941   0.258
    1XTA   HL2019229  27.651   2.954   0.427
    1XTA   HL2119230  27.622   2.776   0.387
    1XTA   HL2219231  27.564   2.844   0.529
    1XTA   HL2319232  27.826   3.533   0.372
    1XTA   HL2419233  27.730   3.614   0.502
    1XTA   HL2519234  27.719   3.759   0.330
    1XTA   HL2619235  27.689   3.628   0.202
    1XTA   HL2719236  27.460   3.597   0.309
    1XTA   HL2819237  27.492   3.742   0.392
    1XTA   HL2919238  27.497   3.880   0.217
    1XTA   HL3019239  27.541   3.751   0.105
    1XTA   HL3119240  27.308   3.681   0.112
    1XTA   HL3219241  27.276   3.796   0.254
    1XTA   HL3319242  27.285   3.976   0.112
    1XTA   HL3419243  27.391   3.879  -0.015
    1XTA   HL3519244  27.239   3.941  -0.199
    1XTA   HL3619245  27.165   4.052  -0.083
    1XTA   HL3719246  27.062   4.102  -0.333
    1XTA   HL3819247  26.950   4.148  -0.212
    1XTA   HL3919248  26.894   3.977  -0.455
    1XTA   HL4019249  26.846   4.128  -0.440
    1XTA   HL4119250  26.774   4.019  -0.338
    1XTA    CO819251  27.281   2.761   0.496
    1XTA    CO919252  27.235   2.831   0.252
    1XTA    OA619253  27.278   2.836   0.152
    1XTA   HL4219254  27.202   2.685   0.498
    1XTA   HL4319255  27.371   2.728   0.594
    1XTA   HL4419256  26.937   3.803  -0.049
    1XTA   HL4519257  26.934   3.979  -0.011
    1XTA   CO1019258  26.917   3.903  -0.095
    1XTA   CO1119259  27.032   3.810  -0.292
    1XTA    OA719260  26.815   3.898  -0.138
    1XTA   HL4619261  27.077   3.691  -0.225
    1XTA   HL4719262  26.938   3.778  -0.320
    1XTA   HL4819263  27.203   2.935   0.278
    1XTA   HL4919264  27.144   2.767   0.262
    1XTA     NT19265  30.256   4.295   4.229
    1XTA    CN119266  30.333   4.204   4.285
    1XTA     C119267  30.360   4.205   4.427
    1XTA     C219268  30.441   4.105   4.475
    1XTA     C319269  30.501   4.005   4.401
    1XTA     C419270  30.486   4.012   4.262
    1XTA     C519271  30.397   4.108   4.202
    1XTA    CN219272  30.298   4.425   4.221
    1XTA     C619273  30.319   4.489   4.096
    1XTA     C719274  30.337   4.630   4.089
    1XTA     C819275  30.333   4.710   4.206
    1XTA     C919276  30.327   4.646   4.331
    1XTA    C1019277  30.306   4.509   4.338
    1XTA    CN319278  30.121   4.283   4.212
    1XTA    C1119279  30.061   4.261   4.085
    1XTA    C1219280  29.924   4.230   4.076
    1XTA    C1319281  29.842   4.228   4.192
    1XTA    C1419282  29.908   4.254   4.314
    1XTA    C1519283  30.046   4.282   4.327
    1XTA     H119284  30.327   4.278   4.499
    1XTA     H219285  30.441   4.118   4.583
    1XTA     H319286  30.537   3.941   4.204
    1XTA     H419287  30.391   4.120   4.093
    1XTA     H519288  30.330   4.430   4.008
    1XTA     H619289  30.352   4.665   3.994
    1XTA     H719290  30.326   4.708   4.419
    1XTA     H819291  30.276   4.466   4.437
    1XTA     H919292  30.119   4.242   4.001
    1XTA    H1019293  29.890   4.193   3.980
    1XTA    H1119294  29.850   4.251   4.400
    1XTA    H1219295  30.085   4.302   4.425
    1XTA    OA119296  30.565   3.900   4.460
    1XTA    CO119297  30.501   3.841   4.574
    1XTA    OA219298  30.348   4.847   4.201
    1XTA    CO219299  30.325   4.917   4.074
    1XTA    CL119300  30.301   5.068   4.107
    1XTA    CL219301  30.426   5.116   4.192
    1XTA    CL319302  30.556   5.133   4.115
    1XTA    CL419303  30.662   5.201   4.209
    1XTA    CO319304  30.758   5.118   4.297
    1XTA    OA319305  30.686   5.037   4.385
    1XTA    CO419306  30.620   5.112   4.493
    1XTA    CT119307  30.604   5.030   4.622
    1XTA    CL519308  30.523   5.104   4.733
    1XTA    CL619309  30.387   5.152   4.684
    1XTA    OA419310  29.710   4.196   4.179
    1XTA    CO519311  29.632   4.252   4.285
    1XTA    CL719312  29.490   4.267   4.241
    1XTA    CL819313  29.435   4.139   4.179
    1XTA    CL919314  29.410   4.032   4.285
    1XTA   CL1019315  29.314   3.925   4.233
    1XTA    CO619316  29.276   3.810   4.326
    1XTA    OA519317  29.399   3.753   4.377
    1XTA    CO719318  29.416   3.800   4.510
    1XTA    CT219319  29.484   3.683   4.594
    1XTA   CL1119320  29.383   3.575   4.636
    1XTA   CL1219321  29.250   3.618   4.694
    1XTA    HL119322  30.504   3.915   4.656
    1XTA    HL219323  30.397   3.816   4.545
    1XTA    HL319324  30.544   3.745   4.602
    1XTA    HL419325  30.409   4.908   4.007
    1XTA    HL519326  30.229   4.880   4.022
    1XTA    HL619327  30.209   5.082   4.166
    1XTA    HL719328  30.299   5.140   4.021
    1XTA    HL819329  30.441   5.052   4.278
    1XTA    HL919330  30.402   5.215   4.221
    1XTA   HL1019331  30.602   5.043   4.088
    1XTA   HL1119332  30.539   5.189   4.023
    1XTA   HL1219333  30.611   5.265   4.291
    1XTA   HL1319334  30.705   5.279   4.148
    1XTA   HL1419335  30.816   5.060   4.225
    1XTA   HL1519336  30.835   5.185   4.339
    1XTA   HL1619337  30.678   5.204   4.514
    1XTA   HL1719338  30.526   5.156   4.455
    1XTA   HL1819339  30.576   5.190   4.775
    1XTA   HL1919340  30.503   5.041   4.820
    1XTA   HL2019341  30.332   5.058   4.684
    1XTA   HL2119342  30.385   5.195   4.578
    1XTA   HL2219343  30.340   5.222   4.752
    1XTA   HL2319344  29.656   4.352   4.308
    1XTA   HL2419345  29.643   4.198   4.379
    1XTA   HL2519346  29.430   4.300   4.323
    1XTA   HL2619347  29.488   4.347   4.164
    1XTA   HL2719348  29.346   4.165   4.128
    1XTA   HL2819349  29.509   4.099   4.100
    1XTA   HL2919350  29.499   3.985   4.314
    1XTA   HL3019351  29.363   4.084   4.370
    1XTA   HL3119352  29.229   3.993   4.208
    1XTA   HL3219353  29.351   3.890   4.140
    1XTA   HL3319354  29.215   3.833   4.413
    1XTA   HL3419355  29.215   3.739   4.275
    1XTA   HL3519356  29.327   3.837   4.560
    1XTA   HL3619357  29.477   3.887   4.513
    1XTA   HL3719358  29.419   3.501   4.706
    1XTA   HL3819359  29.356   3.524   4.540
    1XTA   HL3919360  29.206   3.525   4.727
    1XTA   HL4019361  29.177   3.651   4.621
    1XTA   HL4119362  29.260   3.693   4.771
    1XTA    CO819363  30.728   4.952   4.668
    1XTA    CO919364  30.538   4.893   4.590
    1XTA    OA619365  30.644   4.833   4.671
    1XTA   HL4219366  30.769   4.986   4.759
    1XTA   HL4319367  30.808   4.936   4.599
    1XTA   HL4419368  29.604   3.639   4.754
    1XTA   HL4519369  29.645   3.804   4.682
    1XTA   CO1019370  29.565   3.734   4.712
    1XTA   CO1119371  29.585   3.618   4.491
    1XTA    OA719372  29.512   3.773   4.803
    1XTA   HL4619373  29.516   3.539   4.393
    1XTA   HL4719374  29.637   3.547   4.552
    1XTA   HL4819375  30.556   4.862   4.493
    1XTA   HL4919376  30.448   4.889   4.645
    1XTA     NT19377  27.121   1.709   5.413
    1XTA    CN119378  27.222   1.694   5.327
    1XTA     C119379  27.339   1.610   5.347
    1XTA     C219380  27.456   1.612   5.263
    1XTA     C319381  27.459   1.691   5.148
    1XTA     C419382  27.345   1.769   5.121
    1XTA     C519383  27.233   1.774   5.207
    1XTA    CN219384  27.142   1.677   5.545
    1XTA     C619385  27.227   1.762   5.620
    1XTA     C719386  27.250   1.726   5.756
    1XTA     C819387  27.193   1.621   5.814
    1XTA     C919388  27.116   1.534   5.737
    1XTA    C1019389  27.080   1.560   5.604
    1XTA    CN319390  26.990   1.727   5.378
    1XTA    C1119391  26.925   1.626   5.294
    1XTA    C1219392  26.789   1.639   5.262
    1XTA    C1319393  26.714   1.744   5.309
    1XTA    C1419394  26.773   1.844   5.381
    1XTA    C1519395  26.911   1.841   5.418
    1XTA     H119396  27.348   1.549   5.433
    1XTA     H219397  27.538   1.547   5.291
    1XTA     H319398  27.336   1.836   5.032
    1XTA     H419399  27.153   1.847   5.188
    1XTA     H519400  27.274   1.846   5.578
    1XTA     H619401  27.311   1.796   5.819
    1XTA     H719402  27.075   1.450   5.782
    1XTA     H819403  27.017   1.490   5.548
    1XTA     H919404  26.978   1.541   5.257
    1XTA    H1019405  26.750   1.562   5.205
    1XTA    H1119406  26.708   1.929   5.398
    1XTA    H1219407  26.956   1.926   5.462
    1XTA    OA119408  27.568   1.680   5.068
    1XTA    CO119409  27.585   1.774   4.964
    1XTA    OA219410  27.209   1.583   5.941
    1XTA    CO219411  27.301   1.663   6.018
    1XTA    CL119412  27.319   1.588   6.153
    1XTA    CL219413  27.435   1.636   6.239
    1XTA    CL319414  27.429   1.578   6.376
    1XTA    CL419415  27.568   1.559   6.432
    1XTA    CO319416  27.586   1.474   6.550
    1XTA    OA319417  27.514   1.509   6.671
    1XTA    CO419418  27.538   1.420   6.777
    1XTA    CT119419  27.458   1.477   6.905
    1XTA    CL519420  27.521   1.614   6.929
    1XTA    CL619421  27.486   1.680   7.059
    1XTA    OA419422  26.581   1.751   5.266
    1XTA    CO519423  26.530   1.669   5.172
    1XTA    CL719424  26.398   1.713   5.113
    1XTA    CL819425  26.372   1.653   4.975
    1XTA    CL919426  26.433   1.516   4.961
    1XTA   CL1019427  26.355   1.444   4.858
    1XTA    CO619428  26.429   1.319   4.810
    1XTA    OA519429  26.483   1.250   4.916
    1XTA    CO719430  26.561   1.135   4.876
    1XTA    CT219431  26.641   1.070   4.997
    1XTA   CL1119432  26.750   0.968   4.949
    1XTA   CL1219433  26.702   0.851   4.862
    1XTA    HL119434  27.505   1.779   4.889
    1XTA    HL219435  27.591   1.866   5.020
    1XTA    HL319436  27.675   1.757   4.912
    1XTA    HL419437  27.401   1.675   5.976
    1XTA    HL519438  27.258   1.762   6.021
    1XTA    HL619439  27.330   1.482   6.137
    1XTA    HL719440  27.231   1.600   6.218
    1XTA    HL819441  27.429   1.746   6.244
    1XTA    HL919442  27.526   1.594   6.187
    1XTA   HL1019443  27.360   1.636   6.439
    1XTA   HL1119444  27.388   1.479   6.369
    1XTA   HL1219445  27.599   1.662   6.465
    1XTA   HL1319446  27.627   1.527   6.355
    1XTA   HL1419447  27.559   1.373   6.517
    1XTA   HL1519448  27.696   1.463   6.572
    1XTA   HL1619449  27.516   1.312   6.763
    1XTA   HL1719450  27.646   1.439   6.790
    1XTA   HL1819451  27.507   1.686   6.839
    1XTA   HL1919452  27.631   1.605   6.927
    1XTA   HL2019453  27.547   1.650   7.143
    1XTA   HL2119454  27.384   1.667   7.084
    1XTA   HL2219455  27.510   1.785   7.051
    1XTA   HL2319456  26.542   1.565   5.203
    1XTA   HL2419457  26.599   1.671   5.086
    1XTA   HL2519458  26.327   1.674   5.182
    1XTA   HL2619459  26.401   1.816   5.099
    1XTA   HL2719460  26.254   1.647   4.970
    1XTA   HL2819461  26.401   1.712   4.884
    1XTA   HL2919462  26.547   1.518   4.938
    1XTA   HL3019463  26.408   1.474   5.054
    1XTA   HL3119464  26.261   1.413   4.902
    1XTA   HL3219465  26.333   1.515   4.779
    1XTA   HL3319466  26.357   1.263   4.743
    1XTA   HL3419467  26.519   1.343   4.749
    1XTA   HL3519468  26.634   1.168   4.807
    1XTA   HL3619469  26.508   1.068   4.817
    1XTA   HL3719470  26.801   0.933   5.038
    1XTA   HL3819471  26.829   1.021   4.901
    1XTA   HL3919472  26.768   0.771   4.855
    1XTA   HL4019473  26.681   0.894   4.763
    1XTA   HL4119474  26.619   0.800   4.898
    1XTA    CO819475  27.485   1.369   7.011
    1XTA    CO919476  27.311   1.482   6.875
    1XTA    OA619477  27.235   1.522   6.981
    1XTA   HL4219478  27.410   1.373   7.091
    1XTA   HL4319479  27.479   1.270   6.970
    1XTA   HL4419480  26.492   0.924   5.052
    1XTA   HL4519481  26.607   0.978   5.182
    1XTA   CO1019482  26.545   1.007   5.098
    1XTA   CO1119483  26.715   1.174   5.079
    1XTA    OA719484  26.453   1.099   5.153
    1XTA   HL4619485  26.782   1.227   5.012
    1XTA   HL4719486  26.643   1.253   5.109
    1XTA   HL4819487  27.277   1.387   6.839
    1XTA   HL4919488  27.308   1.543   6.790
    1XTA     NT19489  28.772   4.097   5.221
    1XTA    CN119490  28.683   4.114   5.321
    1XTA     C119491  28.605   4.233   5.328
    1XTA     C219492  28.533   4.265   5.444
    1XTA     C319493  28.525   4.169   5.547
    1XTA     C419494  28.590   4.046   5.534
    1XTA     C519495  28.670   4.016   5.420
    1XTA    CN219496  28.768   3.982   5.150
    1XTA     C619497  28.646   3.963   5.080
    1XTA     C719498  28.628   3.845   4.999
    1XTA     C819499  28.735   3.757   4.987
    1XTA     C919500  28.865   3.780   5.050
    1XTA    C1019501  28.878   3.892   5.133
    1XTA    CN319502  28.830   4.200   5.158
    1XTA    C1119503  28.802   4.239   5.023
    1XTA    C1219504  28.873   4.353   4.970
    1XTA    C1319505  28.956   4.429   5.061
    1XTA    C1419506  28.979   4.386   5.194
    1XTA    C1519507  28.917   4.269   5.241
    1XTA     H119508  28.611   4.310   5.247
    1XTA     H219509  28.481   4.361   5.438
    1XTA     H319510  28.586   3.968   5.608
    1XTA     H419511  28.717   3.919   5.425
    1XTA     H519512  28.563   4.034   5.083
    1XTA     H619513  28.542   3.817   4.942
    1XTA     H719514  28.946   3.709   5.030
    1XTA     H819515  28.968   3.921   5.180
    1XTA     H919516  28.734   4.181   4.964
    1XTA    H1019517  28.866   4.388   4.874
    1XTA    H1119518  29.046   4.446   5.260
    1XTA    H1219519  28.931   4.242   5.343
    1XTA    OA119520  28.460   4.187   5.662
    1XTA    CO119521  28.443   4.325   5.699
    1XTA    OA219522  28.722   3.643   4.915
    1XTA    CO219523  28.663   3.545   4.996
    1XTA    CL119524  28.592   3.425   4.933
    1XTA    CL219525  28.572   3.317   5.045
    1XTA    CL319526  28.501   3.192   5.009
    1XTA    CL419527  28.536   3.077   5.098
    1XTA    CO319528  28.436   2.957   5.077
    1XTA    OA319529  28.493   2.840   5.145
    1XTA    CO419530  28.389   2.759   5.194
    1XTA    CT119531  28.442   2.633   5.260
    1XTA    CL519532  28.495   2.540   5.151
    1XTA    CL619533  28.521   2.396   5.175
    1XTA    OA419534  29.015   4.547   5.018
    1XTA    CO519535  28.962   4.607   4.896
    1XTA    CL719536  29.012   4.741   4.891
    1XTA    CL819537  28.979   4.830   5.015
    1XTA    CL919538  29.080   4.938   5.025
    1XTA   CL1019539  29.031   5.050   5.119
    1XTA    CO619540  29.146   5.163   5.119
    1XTA    OA519541  29.139   5.239   5.241
    1XTA    CO719542  29.252   5.324   5.250
    1XTA    CT219543  29.244   5.429   5.365
    1XTA   CL1119544  29.116   5.514   5.348
    1XTA   CL1219545  29.061   5.551   5.213
    1XTA    HL119546  28.395   4.385   5.621
    1XTA    HL219547  28.383   4.348   5.787
    1XTA    HL319548  28.539   4.379   5.702
    1XTA    HL419549  28.741   3.511   5.066
    1XTA    HL519550  28.592   3.589   5.063
    1XTA    HL619551  28.653   3.373   4.857
    1XTA    HL719552  28.501   3.467   4.873
    1XTA    HL819553  28.519   3.363   5.125
    1XTA    HL919554  28.672   3.294   5.073
    1XTA   HL1019555  28.397   3.216   5.004
    1XTA   HL1119556  28.530   3.157   4.909
    1XTA   HL1219557  28.541   3.108   5.204
    1XTA   HL1319558  28.635   3.043   5.071
    1XTA   HL1419559  28.333   2.985   5.098
    1XTA   HL1519560  28.428   2.932   4.967
    1XTA   HL1619561  28.326   2.817   5.265
    1XTA   HL1719562  28.317   2.740   5.122
    1XTA   HL1819563  28.585   2.586   5.108
    1XTA   HL1919564  28.425   2.549   5.072
    1XTA   HL2019565  28.542   2.332   5.089
    1XTA   HL2119566  28.431   2.351   5.218
    1XTA   HL2219567  28.602   2.374   5.239
    1XTA   HL2319568  28.850   4.611   4.914
    1XTA   HL2419569  28.963   4.538   4.809
    1XTA   HL2519570  29.118   4.731   4.888
    1XTA   HL2619571  28.981   4.788   4.795
    1XTA   HL2719572  28.872   4.852   5.005
    1XTA   HL2819573  29.002   4.777   5.107
    1XTA   HL2919574  29.179   4.897   5.053
    1XTA   HL3019575  29.107   4.983   4.931
    1XTA   HL3119576  28.936   5.091   5.079
    1XTA   HL3219577  29.017   5.013   5.223
    1XTA   HL3319578  29.244   5.123   5.111
    1XTA   HL3419579  29.133   5.236   5.041
    1XTA   HL3519580  29.252   5.373   5.154
    1XTA   HL3619581  29.352   5.276   5.243
    1XTA   HL3719582  29.120   5.595   5.412
    1XTA   HL3819583  29.033   5.456   5.394
    1XTA   HL3919584  28.953   5.543   5.222
    1XTA   HL4019585  29.085   5.489   5.134
    1XTA   HL4119586  29.070   5.661   5.192
    1XTA    CO819587  28.324   2.563   5.339
    1XTA    CO919588  28.551   2.678   5.361
    1XTA    OA619589  28.265   2.505   5.268
    1XTA   HL4219590  28.253   2.646   5.389
    1XTA   HL4319591  28.362   2.503   5.425
    1XTA   HL4419592  29.380   5.579   5.276
    1XTA   HL4519593  29.358   5.597   5.451
    1XTA   CO1019594  29.372   5.521   5.369
    1XTA   CO1119595  29.238   5.355   5.506
    1XTA    OA719596  29.457   5.448   5.375
    1XTA   HL4619597  29.355   5.285   5.536
    1XTA   HL4719598  29.160   5.277   5.510
    1XTA   HL4819599  28.660   2.740   5.303
    1XTA   HL4919600  28.599   2.581   5.401
    1XTA     NT19601  25.401   4.376   5.783
    1XTA    CN119602  25.384   4.474   5.693
    1XTA     C119603  25.265   4.488   5.620
    1XTA     C219604  25.252   4.599   5.535
    1XTA     C319605  25.362   4.694   5.519
    1XTA     C419606  25.480   4.674   5.584
    1XTA     C519607  25.487   4.569   5.678
    1XTA    CN219608  25.454   4.256   5.737
    1XTA     C619609  25.590   4.233   5.705
    1XTA     C719610  25.641   4.114   5.646
    1XTA     C819611  25.551   4.007   5.631
    1XTA     C919612  25.417   4.019   5.662
    1XTA    C1019613  25.367   4.141   5.723
    1XTA    CN319614  25.385   4.393   5.912
    1XTA    C1119615  25.265   4.454   5.959
    1XTA    C1219616  25.235   4.472   6.095
    1XTA    C1319617  25.337   4.452   6.185
    1XTA    C1419618  25.458   4.387   6.141
    1XTA    C1519619  25.478   4.359   6.007
    1XTA     H119620  25.175   4.428   5.647
    1XTA     H219621  25.163   4.613   5.485
    1XTA     H319622  25.563   4.735   5.571
    1XTA     H419623  25.587   4.551   5.727
    1XTA     H519624  25.657   4.319   5.725
    1XTA     H619625  25.749   4.117   5.617
    1XTA     H719626  25.344   3.937   5.639
    1XTA     H819627  25.263   4.139   5.745
    1XTA     H919628  25.184   4.471   5.886
    1XTA    H1019629  25.138   4.506   6.124
    1XTA    H1119630  25.538   4.365   6.213
    1XTA    H1219631  25.571   4.314   5.979
    1XTA    OA119632  25.363   4.792   5.429
    1XTA    CO119633  25.338   4.744   5.298
    1XTA    OA219634  25.590   3.881   5.590
    1XTA    CO219635  25.731   3.857   5.584
    1XTA    CL119636  25.745   3.713   5.562
    1XTA    CL219637  25.877   3.676   5.504
    1XTA    CL319638  25.933   3.547   5.554
    1XTA    CL419639  25.842   3.419   5.529
    1XTA    CO319640  25.855   3.373   5.382
    1XTA    OA319641  25.790   3.457   5.292
    1XTA    CO419642  25.803   3.417   5.155
    1XTA    CT119643  25.724   3.518   5.065
    1XTA    CL519644  25.777   3.665   5.097
    1XTA    CL619645  25.926   3.690   5.056
    1XTA    OA419646  25.322   4.499   6.312
    1XTA    CO519647  25.435   4.500   6.392
    1XTA    CL719648  25.416   4.563   6.522
    1XTA    CL819649  25.413   4.716   6.525
    1XTA    CL919650  25.483   4.764   6.652
    1XTA   CL1019651  25.628   4.801   6.631
    1XTA    CO619652  25.699   4.842   6.769
    1XTA    OA519653  25.628   4.954   6.823
    1XTA    CO719654  25.678   4.998   6.944
    1XTA    CT219655  25.586   5.108   7.001
    1XTA   CL1119656  25.625   5.141   7.147
    1XTA   CL1219657  25.574   5.043   7.254
    1XTA    HL119658  25.411   4.666   5.275
    1XTA    HL219659  25.242   4.698   5.283
    1XTA    HL319660  25.352   4.824   5.222
    1XTA    HL419661  25.784   3.924   5.521
    1XTA    HL519662  25.773   3.882   5.673
    1XTA    HL619663  25.669   3.669   5.500
    1XTA    HL719664  25.724   3.660   5.654
    1XTA    HL819665  25.951   3.752   5.513
    1XTA    HL919666  25.861   3.680   5.400
    1XTA   HL1019667  26.034   3.540   5.513
    1XTA   HL1119668  25.949   3.561   5.657
    1XTA   HL1219669  25.734   3.434   5.557
    1XTA   HL1319670  25.880   3.333   5.598
    1XTA   HL1419671  25.959   3.366   5.363
    1XTA   HL1519672  25.807   3.281   5.371
    1XTA   HL1619673  25.908   3.413   5.130
    1XTA   HL1719674  25.774   3.317   5.143
    1XTA   HL1819675  25.756   3.686   5.205
    1XTA   HL1919676  25.709   3.729   5.049
    1XTA   HL2019677  25.989   3.612   5.099
    1XTA   HL2119678  25.963   3.786   5.075
    1XTA   HL2219679  25.938   3.660   4.949
    1XTA   HL2319680  25.521   4.547   6.347
    1XTA   HL2419681  25.467   4.397   6.404
    1XTA   HL2519682  25.337   4.520   6.574
    1XTA   HL2619683  25.509   4.535   6.579
    1XTA   HL2719684  25.450   4.755   6.438
    1XTA   HL2819685  25.312   4.742   6.523
    1XTA   HL2919686  25.429   4.856   6.675
    1XTA   HL3019687  25.469   4.694   6.736
    1XTA   HL3119688  25.677   4.712   6.583
    1XTA   HL3219689  25.642   4.877   6.551
    1XTA   HL3319690  25.688   4.761   6.836
    1XTA   HL3419691  25.812   4.861   6.741
    1XTA   HL3519692  25.774   5.053   6.937
    1XTA   HL3619693  25.695   4.914   7.014
    1XTA   HL3719694  25.576   5.240   7.167
    1XTA   HL3819695  25.734   5.148   7.155
    1XTA   HL3919696  25.579   4.941   7.230
    1XTA   HL4019697  25.469   5.061   7.278
    1XTA   HL4119698  25.634   5.061   7.335
    1XTA    CO819699  25.574   3.519   5.098
    1XTA    CO919700  25.740   3.484   4.921
    1XTA    OA619701  25.478   3.595   5.020
    1XTA   HL4219702  25.568   3.566   5.186
    1XTA   HL4319703  25.541   3.417   5.107
    1XTA   HL4419704  25.409   5.069   6.875
    1XTA   HL4519705  25.421   4.973   7.019
    1XTA   CO1019706  25.443   5.072   6.982
    1XTA   CO1119707  25.600   5.239   6.916
    1XTA    OA719708  25.375   5.144   7.034
    1XTA   HL4619709  25.546   5.218   6.788
    1XTA   HL4719710  25.534   5.317   6.950
    1XTA   HL4819711  25.846   3.508   4.888
    1XTA   HL4919712  25.676   3.547   4.863
    1XTA     NT19713  25.459   4.037  -0.714
    1XTA    CN119714  25.521   3.920  -0.738
    1XTA     C119715  25.577   3.885  -0.858
    1XTA     C219716  25.629   3.761  -0.886
    1XTA     C319717  25.632   3.667  -0.782
    1XTA     C419718  25.577   3.700  -0.657
    1XTA     C519719  25.515   3.823  -0.635
    1XTA    CN219720  25.523   4.147  -0.660
    1XTA     C619721  25.571   4.146  -0.525
    1XTA     C719722  25.633   4.261  -0.472
    1XTA     C819723  25.648   4.379  -0.550
    1XTA     C919724  25.596   4.378  -0.684
    1XTA    C1019725  25.542   4.261  -0.733
    1XTA    CN319726  25.323   4.048  -0.741
    1XTA    C1119727  25.266   4.054  -0.872
    1XTA    C1219728  25.128   4.074  -0.892
    1XTA    C1319729  25.043   4.083  -0.785
    1XTA    C1419730  25.095   4.067  -0.655
    1XTA    C1519731  25.230   4.044  -0.635
    1XTA     H119732  25.581   3.966  -0.935
    1XTA     H219733  25.665   3.741  -0.982
    1XTA     H319734  25.586   3.626  -0.578
    1XTA     H419735  25.470   3.832  -0.541
    1XTA     H519736  25.564   4.054  -0.468
    1XTA     H619737  25.668   4.258  -0.374
    1XTA     H719738  25.605   4.466  -0.749
    1XTA     H819739  25.511   4.256  -0.838
    1XTA     H919740  25.331   4.067  -0.959
    1XTA    H1019741  25.095   4.105  -0.992
    1XTA    H1119742  25.023   4.057  -0.570
    1XTA    H1219743  25.262   4.031  -0.535
    1XTA    OA119744  25.698   3.553  -0.800
    1XTA    CO119745  25.792   3.543  -0.900
    1XTA    OA219746  25.704   4.494  -0.487
    1XTA    CO219747  25.660   4.620  -0.526
    1XTA    CL119748  25.733   4.730  -0.463
    1XTA    CL219749  25.726   4.737  -0.310
    1XTA    CL319750  25.801   4.868  -0.272
    1XTA    CL419751  25.840   4.893  -0.124
    1XTA    CO319752  25.723   4.963  -0.052
    1XTA    OA319753  25.774   5.014   0.069
    1XTA    CO419754  25.724   5.140   0.097
    1XTA    CT119755  25.703   5.183   0.238
    1XTA    CL519756  25.631   5.076   0.325
    1XTA    CL619757  25.476   5.073   0.309
    1XTA    OA419758  24.910   4.120  -0.814
    1XTA    CO519759  24.841   4.211  -0.723
    1XTA    CL719760  24.736   4.298  -0.784
    1XTA    CL819761  24.721   4.435  -0.719
    1XTA    CL919762  24.594   4.505  -0.755
    1XTA   CL1019763  24.596   4.537  -0.911
    1XTA    CO619764  24.710   4.627  -0.952
    1XTA    OA519765  24.689   4.658  -1.086
    1XTA    CO719766  24.788   4.739  -1.146
    1XTA    CT219767  24.782   4.753  -1.300
    1XTA   CL1119768  24.919   4.808  -1.344
    1XTA   CL1219769  24.947   4.835  -1.495
    1XTA    HL119770  25.840   3.635  -0.915
    1XTA    HL219771  25.865   3.465  -0.868
    1XTA    HL319772  25.740   3.531  -0.997
    1XTA    HL419773  25.688   4.623  -0.631
    1XTA    HL519774  25.551   4.626  -0.523
    1XTA    HL619775  25.689   4.823  -0.498
    1XTA    HL719776  25.827   4.733  -0.504
    1XTA    HL819777  25.770   4.651  -0.264
    1XTA    HL919778  25.626   4.730  -0.271
    1XTA   HL1019779  25.898   4.870  -0.328
    1XTA   HL1119780  25.743   4.953  -0.313
    1XTA   HL1219781  25.938   4.949  -0.117
    1XTA   HL1319782  25.868   4.798  -0.080
    1XTA   HL1419783  25.691   5.046  -0.110
    1XTA   HL1519784  25.641   4.888  -0.035
    1XTA   HL1619785  25.789   5.207   0.036
    1XTA   HL1719786  25.622   5.141   0.048
    1XTA   HL1819787  25.634   5.105   0.434
    1XTA   HL1919788  25.674   4.977   0.317
    1XTA   HL2019789  25.406   5.154   0.333
    1XTA   HL2119790  25.441   4.996   0.388
    1XTA   HL2219791  25.435   5.038   0.215
    1XTA   HL2319792  24.922   4.277  -0.699
    1XTA   HL2419793  24.812   4.151  -0.636
    1XTA   HL2519794  24.758   4.300  -0.891
    1XTA   HL2619795  24.641   4.243  -0.777
    1XTA   HL2719796  24.730   4.441  -0.610
    1XTA   HL2819797  24.803   4.493  -0.764
    1XTA   HL2919798  24.509   4.441  -0.721
    1XTA   HL3019799  24.591   4.594  -0.692
    1XTA   HL3119800  24.611   4.456  -0.978
    1XTA   HL3219801  24.509   4.592  -0.949
    1XTA   HL3319802  24.721   4.722  -0.904
    1XTA   HL3419803  24.806   4.579  -0.947
    1XTA   HL3519804  24.884   4.710  -1.115
    1XTA   HL3619805  24.773   4.831  -1.089
    1XTA   HL3719806  25.000   4.749  -1.307
    1XTA   HL3819807  24.924   4.912  -1.303
    1XTA   HL3919808  24.937   4.739  -1.543
    1XTA   HL4019809  25.046   4.873  -1.516
    1XTA   HL4119810  24.863   4.893  -1.535
    1XTA    CO819811  25.629   5.316   0.249
    1XTA    CO919812  25.841   5.201   0.308
    1XTA    OA619813  25.702   5.426   0.212
    1XTA   HL4219814  25.602   5.320   0.356
    1XTA   HL4319815  25.536   5.309   0.188
    1XTA   HL4419816  24.615   4.816  -1.423
    1XTA   HL4519817  24.597   4.847  -1.256
    1XTA   CO1019818  24.669   4.857  -1.341
    1XTA   CO1119819  24.755   4.618  -1.368
    1XTA    OA719820  24.627   4.564  -1.340
    1XTA   HL4619821  24.766   4.614  -1.478
    1XTA   HL4719822  24.842   4.557  -1.336
    1XTA   HL4819823  25.841   5.244   0.412
    1XTA   HL4919824  25.895   5.105   0.313
    1XTA     NT19825  28.765   6.409   1.040
    1XTA    CN119826  28.835   6.511   1.096
    1XTA     C119827  28.842   6.633   1.024
    1XTA     C219828  28.916   6.746   1.074
    1XTA     C319829  28.974   6.728   1.203
    1XTA     C419830  28.961   6.610   1.276
    1XTA     C519831  28.889   6.502   1.224
    1XTA    CN219832  28.830   6.320   0.970
    1XTA     C619833  28.920   6.227   1.028
    1XTA     C719834  28.997   6.140   0.948
    1XTA     C819835  28.963   6.125   0.811
    1XTA     C919836  28.867   6.213   0.753
    1XTA    C1019837  28.807   6.314   0.833
    1XTA    CN319838  28.628   6.390   1.067
    1XTA    C1119839  28.537   6.498   1.048
    1XTA    C1219840  28.396   6.484   1.079
    1XTA    C1319841  28.345   6.350   1.099
    1XTA    C1419842  28.439   6.243   1.108
    1XTA    C1519843  28.576   6.266   1.100
    1XTA     H119844  28.787   6.633   0.933
    1XTA     H219845  28.919   6.832   1.010
    1XTA     H319846  29.017   6.598   1.364
    1XTA     H419847  28.878   6.405   1.272
    1XTA     H519848  28.940   6.233   1.137
    1XTA     H619849  29.075   6.084   0.991
    1XTA     H719850  28.839   6.204   0.653
    1XTA     H819851  28.726   6.370   0.789
    1XTA     H919852  28.570   6.596   1.012
    1XTA    H1019853  28.331   6.573   1.063
    1XTA    H1119854  28.402   6.147   1.136
    1XTA    H1219855  28.646   6.182   1.112
    1XTA    OA119856  29.052   6.825   1.267
    1XTA    CO119857  29.025   6.957   1.213
    1XTA    OA219858  29.026   6.038   0.722
    1XTA    CO219859  29.037   5.906   0.765
    1XTA    CL119860  28.945   5.828   0.673
    1XTA    CL219861  28.913   5.688   0.716
    1XTA    CL319862  28.799   5.680   0.813
    1XTA    CL419863  28.758   5.530   0.820
    1XTA    CO319864  28.676   5.459   0.708
    1XTA    OA319865  28.677   5.324   0.750
    1XTA    CO419866  28.617   5.230   0.663
    1XTA    CT119867  28.613   5.093   0.737
    1XTA    CL519868  28.748   5.043   0.792
    1XTA    CL619869  28.872   5.070   0.698
    1XTA    OA419870  28.214   6.309   1.105
    1XTA    CO519871  28.118   6.408   1.096
    1XTA    CL719872  27.976   6.356   1.111
    1XTA    CL819873  27.938   6.272   0.989
    1XTA    CL919874  27.786   6.229   0.996
    1XTA   CL1019875  27.773   6.099   1.071
    1XTA    CO619876  27.631   6.053   1.067
    1XTA    OA519877  27.539   6.150   1.102
    1XTA    CO719878  27.463   6.114   1.218
    1XTA    CT219879  27.351   6.215   1.242
    1XTA   CL1119880  27.316   6.190   1.387
    1XTA   CL1219881  27.198   6.267   1.444
    1XTA    HL119882  29.057   7.037   1.283
    1XTA    HL219883  29.061   6.967   1.108
    1XTA    HL319884  28.922   6.986   1.202
    1XTA    HL419885  29.141   5.875   0.761
    1XTA    HL519886  29.001   5.895   0.871
    1XTA    HL619887  28.988   5.824   0.573
    1XTA    HL719888  28.854   5.886   0.682
    1XTA    HL819889  29.007   5.639   0.742
    1XTA    HL919890  28.876   5.645   0.614
    1XTA   HL1019891  28.816   5.712   0.914
    1XTA   HL1119892  28.705   5.738   0.783
    1XTA   HL1219893  28.706   5.511   0.915
    1XTA   HL1319894  28.850   5.477   0.827
    1XTA   HL1419895  28.578   5.500   0.694
    1XTA   HL1519896  28.736   5.473   0.610
    1XTA   HL1619897  28.510   5.263   0.647
    1XTA   HL1719898  28.675   5.225   0.572
    1XTA   HL1819899  28.743   4.938   0.803
    1XTA   HL1919900  28.756   5.085   0.893
    1XTA   HL2019901  28.896   5.172   0.679
    1XTA   HL2119902  28.859   5.030   0.599
    1XTA   HL2219903  28.956   5.018   0.747
    1XTA   HL2319904  28.125   6.468   1.014
    1XTA   HL2419905  28.139   6.475   1.179
    1XTA   HL2519906  27.979   6.276   1.189
    1XTA   HL2619907  27.908   6.433   1.142
    1XTA   HL2719908  27.950   6.334   0.910
    1XTA   HL2819909  28.007   6.190   0.974
    1XTA   HL2919910  27.730   6.312   1.038
    1XTA   HL3019911  27.739   6.212   0.906
    1XTA   HL3119912  27.838   6.017   1.038
    1XTA   HL3219913  27.798   6.130   1.181
    1XTA   HL3319914  27.606   6.014   0.965
    1XTA   HL3419915  27.641   5.970   1.135
    1XTA   HL3519916  27.526   6.119   1.305
    1XTA   HL3619917  27.424   6.014   1.209
    1XTA   HL3719918  27.405   6.203   1.446
    1XTA   HL3819919  27.274   6.080   1.395
    1XTA   HL3919920  27.173   6.362   1.390
    1XTA   HL4019921  27.228   6.310   1.537
    1XTA   HL4119922  27.109   6.202   1.447
    1XTA    CO819923  28.538   4.992   0.666
    1XTA    CO919924  28.510   5.080   0.849
    1XTA    OA619925  28.493   4.950   0.756
    1XTA   HL4219926  28.605   4.924   0.610
    1XTA   HL4319927  28.471   5.048   0.596
    1XTA   HL4419928  27.242   6.258   1.054
    1XTA   HL4519929  27.243   6.089   1.107
    1XTA   CO1019930  27.233   6.192   1.136
    1XTA   CO1119931  27.402   6.359   1.223
    1XTA    OA719932  27.105   6.207   1.191
    1XTA   HL4619933  27.460   6.354   1.139
    1XTA   HL4719934  27.479   6.380   1.290
    1XTA   HL4819935  28.414   5.177   0.840
    1XTA   HL4919936  28.552   5.064   0.946
    1XTA     NT19937  29.472   5.130   0.928
    1XTA    CN119938  29.357   5.062   0.946
    1XTA     C119939  29.291   5.062   1.074
    1XTA     C219940  29.167   4.999   1.089
    1XTA     C319941  29.111   4.931   0.971
    1XTA     C419942  29.168   4.939   0.845
    1XTA     C519943  29.293   5.006   0.835
    1XTA    CN219944  29.482   5.260   0.888
    1XTA     C619945  29.490   5.364   0.978
    1XTA     C719946  29.516   5.495   0.940
    1XTA     C819947  29.564   5.522   0.812
    1XTA     C919948  29.564   5.418   0.722
    1XTA    C1019949  29.520   5.288   0.753
    1XTA    CN319950  29.587   5.069   0.954
    1XTA    C1119951  29.635   5.069   1.086
    1XTA    C1219952  29.751   4.995   1.118
    1XTA    C1319953  29.841   4.947   1.022
    1XTA    C1419954  29.791   4.954   0.884
    1XTA    C1519955  29.670   5.022   0.854
    1XTA     H119956  29.337   5.107   1.162
    1XTA     H219957  29.137   5.008   1.195
    1XTA     H319958  29.126   4.895   0.756
    1XTA     H419959  29.344   4.995   0.739
    1XTA     H519960  29.463   5.358   1.084
    1XTA     H619961  29.517   5.580   1.010
    1XTA     H719962  29.598   5.429   0.619
    1XTA     H819963  29.526   5.205   0.683
    1XTA     H919964  29.593   5.127   1.171
    1XTA    H1019965  29.773   4.994   1.223
    1XTA    H1119966  29.846   4.912   0.805
    1XTA    H1219967  29.645   5.042   0.747
    1XTA    OA119968  29.020   4.827   0.986
    1XTA    CO119969  28.959   4.822   1.112
    1XTA    OA219970  29.594   5.645   0.769
    1XTA    CO219971  29.647   5.736   0.862
    1XTA    CL119972  29.680   5.860   0.777
    1XTA    CL219973  29.572   5.962   0.740
    1XTA    CL319974  29.475   5.899   0.639
    1XTA    CL419975  29.380   6.007   0.594
    1XTA    CO319976  29.270   5.953   0.500
    1XTA    OA319977  29.344   5.919   0.383
    1XTA    CO419978  29.247   5.887   0.284
    1XTA    CT119979  29.312   5.852   0.142
    1XTA    CL519980  29.204   5.827   0.037
    1XTA    CL619981  29.101   5.944   0.021
    1XTA    OA419982  29.960   4.886   1.051
    1XTA    CO519983  30.024   4.909   1.174
    1XTA    CL719984  30.122   5.028   1.163
    1XTA    CL819985  30.050   5.166   1.157
    1XTA    CL919986  30.148   5.275   1.129
    1XTA   CL1019987  30.096   5.420   1.135
    1XTA    CO619988  30.210   5.515   1.107
    1XTA    OA519989  30.234   5.485   0.969
    1XTA    CO719990  30.342   5.553   0.915
    1XTA    CT219991  30.338   5.538   0.758
    1XTA   CL1119992  30.468   5.592   0.696
    1XTA   CL1219993  30.474   5.746   0.713
    1XTA    HL119994  29.044   4.770   1.165
    1XTA    HL219995  28.940   4.926   1.145
    1XTA    HL319996  28.864   4.768   1.109
    1XTA    HL419997  29.583   5.753   0.953
    1XTA    HL519998  29.742   5.699   0.899
    1XTA    HL619999  29.702   5.818   0.680
    1XTA    HL720000  29.758   5.918   0.821
    1XTA    HL820001  29.622   6.057   0.697
    1XTA    HL920002  29.521   5.993   0.837
    1XTA   HL1020003  29.532   5.868   0.553
    1XTA   HL1120004  29.422   5.811   0.675
    1XTA   HL1220005  29.433   6.090   0.548
    1XTA   HL1320006  29.326   6.050   0.682
    1XTA   HL1420007  29.208   5.876   0.552
    1XTA   HL1520008  29.199   6.030   0.475
    1XTA   HL1620009  29.198   5.798   0.311
    1XTA   HL1720010  29.176   5.966   0.266
    1XTA   HL1820011  29.146   5.734   0.057
    1XTA   HL1920012  29.251   5.802  -0.059
    1XTA   HL2020013  29.031   5.926   0.102
    1XTA   HL2120014  29.040   5.932  -0.064
    1XTA   HL2220015  29.144   6.036   0.028
    1XTA   HL2320016  30.094   4.831   1.206
    1XTA   HL2420017  29.959   4.909   1.263
    1XTA   HL2520018  30.188   5.037   1.246
    1XTA   HL2620019  30.182   5.011   1.072
    1XTA   HL2720020  29.973   5.179   1.078
    1XTA   HL2820021  30.004   5.167   1.254
    1XTA   HL2920022  30.218   5.266   1.208
    1XTA   HL3020023  30.187   5.258   1.030
    1XTA   HL3120024  30.015   5.427   1.061
    1XTA   HL3220025  30.052   5.430   1.236
    1XTA   HL3320026  30.186   5.623   1.112
    1XTA   HL3420027  30.300   5.482   1.158
    1XTA   HL3520028  30.424   5.494   0.955
    1XTA   HL3620029  30.349   5.664   0.934
    1XTA   HL3720030  30.456   5.580   0.587
    1XTA   HL3820031  30.562   5.549   0.741
    1XTA   HL3920032  30.375   5.788   0.693
    1XTA   HL4020033  30.547   5.796   0.646
    1XTA   HL4120034  30.497   5.777   0.816
    1XTA    CO820035  29.405   5.731   0.170
    1XTA    CO920036  29.409   5.964   0.097
    1XTA    OA620037  29.315   5.622   0.202
    1XTA   HL4220038  29.476   5.742   0.254
    1XTA   HL4320039  29.470   5.684   0.094
    1XTA   HL4420040  30.127   5.536   0.733
    1XTA   HL4520041  30.195   5.701   0.736
    1XTA   CO1020042  30.211   5.603   0.700
    1XTA   CO1120043  30.318   5.388   0.723
    1XTA    OA720044  30.206   5.625   0.565
    1XTA   HL4620045  30.309   5.382   0.616
    1XTA   HL4720046  30.232   5.332   0.760
    1XTA   HL4820047  29.425   6.024   0.188
    1XTA   HL4920048  29.511   5.928   0.070
    1XTA     NT20049  26.703   3.190   1.642
    1XTA    CN120050  26.720   3.087   1.732
    1XTA     C120051  26.681   3.099   1.866
    1XTA     C220052  26.703   2.989   1.955
    1XTA     C320053  26.753   2.868   1.908
    1XTA     C420054  26.786   2.859   1.770
    1XTA     C520055  26.763   2.962   1.681
    1XTA    CN220056  26.814   3.272   1.635
    1XTA     C620057  26.799   3.409   1.679
    1XTA     C720058  26.920   3.482   1.690
    1XTA     C820059  27.045   3.432   1.657
    1XTA     C920060  27.057   3.295   1.618
    1XTA    C1020061  26.940   3.219   1.595
    1XTA    CN320062  26.580   3.210   1.595
    1XTA    C1120063  26.487   3.287   1.665
    1XTA    C1220064  26.362   3.314   1.610
    1XTA    C1320065  26.320   3.249   1.495
    1XTA    C1420066  26.407   3.167   1.424
    1XTA    C1520067  26.541   3.152   1.472
    1XTA     H120068  26.633   3.192   1.898
    1XTA     H220069  26.667   3.000   2.058
    1XTA     H320070  26.830   2.762   1.737
    1XTA     H420071  26.785   2.946   1.574
    1XTA     H520072  26.701   3.449   1.700
    1XTA     H620073  26.914   3.580   1.735
    1XTA     H720074  27.145   3.242   1.592
    1XTA     H820075  26.953   3.116   1.571
    1XTA     H920076  26.507   3.337   1.762
    1XTA    H1020077  26.290   3.365   1.665
    1XTA    H1120078  26.381   3.110   1.335
    1XTA    H1220079  26.607   3.095   1.410
    1XTA    OA120080  26.750   2.759   1.992
    1XTA    CO120081  26.763   2.632   1.936
    1XTA    OA220082  27.163   3.500   1.644
    1XTA    CO220083  27.177   3.603   1.735
    1XTA    CL120084  27.125   3.733   1.674
    1XTA    CL220085  27.129   3.849   1.771
    1XTA    CL320086  27.263   3.922   1.752
    1XTA    CL420087  27.307   4.014   1.874
    1XTA    CO320088  27.398   3.939   1.969
    1XTA    OA320089  27.317   3.882   2.063
    1XTA    CO420090  27.384   3.808   2.164
    1XTA    CT120091  27.284   3.725   2.239
    1XTA    CL520092  27.206   3.822   2.323
    1XTA    CL620093  27.070   3.781   2.373
    1XTA    OA420094  26.192   3.270   1.452
    1XTA    CO520095  26.151   3.198   1.346
    1XTA    CL720096  26.005   3.218   1.319
    1XTA    CL820097  25.961   3.142   1.196
    1XTA    CL920098  25.858   3.211   1.114
    1XTA   CL1020099  25.911   3.319   1.023
    1XTA    CO620100  25.866   3.466   1.076
    1XTA    OA520101  25.948   3.560   1.007
    1XTA    CO720102  26.085   3.557   1.031
    1XTA    CT220103  26.133   3.703   1.049
    1XTA   CL1120104  26.285   3.700   1.080
    1XTA   CL1220105  26.316   3.623   1.211
    1XTA    HL120106  26.762   2.559   2.010
    1XTA    HL220107  26.688   2.610   1.861
    1XTA    HL320108  26.874   2.623   1.904
    1XTA    HL420109  27.124   3.576   1.824
    1XTA    HL520110  27.284   3.605   1.746
    1XTA    HL620111  27.032   3.718   1.616
    1XTA    HL720112  27.190   3.760   1.595
    1XTA    HL820113  27.127   3.816   1.867
    1XTA    HL920114  27.041   3.913   1.774
    1XTA   HL1020115  27.342   3.853   1.719
    1XTA   HL1120116  27.263   3.980   1.658
    1XTA   HL1220117  27.228   4.062   1.925
    1XTA   HL1320118  27.365   4.104   1.840
    1XTA   HL1420119  27.462   3.862   1.908
    1XTA   HL1520120  27.468   4.006   2.013
    1XTA   HL1620121  27.448   3.729   2.119
    1XTA   HL1720122  27.439   3.875   2.232
    1XTA   HL1820123  27.193   3.915   2.265
    1XTA   HL1920124  27.265   3.842   2.411
    1XTA   HL2020125  26.999   3.756   2.293
    1XTA   HL2120126  27.030   3.854   2.434
    1XTA   HL2220127  27.061   3.679   2.428
    1XTA   HL2320128  26.156   3.090   1.357
    1XTA   HL2420129  26.215   3.229   1.260
    1XTA   HL2520130  25.950   3.199   1.408
    1XTA   HL2620131  26.002   3.326   1.307
    1XTA   HL2720132  26.049   3.123   1.133
    1XTA   HL2820133  25.919   3.049   1.227
    1XTA   HL2920134  25.806   3.133   1.054
    1XTA   HL3020135  25.771   3.251   1.180
    1XTA   HL3120136  26.017   3.307   1.013
    1XTA   HL3220137  25.875   3.311   0.928
    1XTA   HL3320138  25.763   3.487   1.067
    1XTA   HL3420139  25.890   3.480   1.182
    1XTA   HL3520140  26.135   3.508   0.944
    1XTA   HL3620141  26.102   3.512   1.126
    1XTA   HL3720142  26.323   3.800   1.069
    1XTA   HL3820143  26.325   3.651   0.995
    1XTA   HL3920144  26.274   3.528   1.208
    1XTA   HL4020145  26.280   3.672   1.305
    1XTA   HL4120146  26.425   3.616   1.226
    1XTA    CO820147  27.354   3.625   2.326
    1XTA    CO920148  27.205   3.633   2.143
    1XTA    OA620149  27.104   3.548   2.199
    1XTA   HL4220150  27.275   3.578   2.384
    1XTA   HL4320151  27.404   3.551   2.264
    1XTA   HL4420152  25.938   3.767   1.142
    1XTA   HL4520153  26.056   3.715   1.254
    1XTA   CO1020154  26.045   3.772   1.160
    1XTA   CO1120155  26.118   3.800   0.927
    1XTA    OA720156  26.103   3.897   1.196
    1XTA   HL4620157  26.011   3.831   0.918
    1XTA   HL4720158  26.138   3.733   0.845
    1XTA   HL4820159  27.278   3.579   2.084
    1XTA   HL4920160  27.151   3.699   2.071
    1XTA     NT20161  29.471   1.949   4.646
    1XTA    CN120162  29.369   1.936   4.741
    1XTA     C120163  29.337   2.044   4.829
    1XTA     C220164  29.239   2.032   4.928
    1XTA     C320165  29.169   1.910   4.938
    1XTA     C420166  29.193   1.805   4.843
    1XTA     C520167  29.286   1.823   4.741
    1XTA    CN220168  29.605   1.953   4.681
    1XTA     C620169  29.654   2.039   4.779
    1XTA     C720170  29.789   2.047   4.812
    1XTA     C820171  29.879   1.978   4.732
    1XTA     C920172  29.833   1.887   4.635
    1XTA    C1020173  29.695   1.871   4.607
    1XTA    CN320174  29.451   1.999   4.523
    1XTA    C1120175  29.395   1.929   4.417
    1XTA    C1220176  29.361   1.996   4.301
    1XTA    C1320177  29.404   2.128   4.288
    1XTA    C1420178  29.457   2.200   4.392
    1XTA    C1520179  29.484   2.140   4.508
    1XTA     H120180  29.395   2.137   4.817
    1XTA     H220181  29.208   2.111   4.987
    1XTA     H320182  29.128   1.717   4.845
    1XTA     H420183  29.307   1.744   4.678
    1XTA     H520184  29.587   2.095   4.836
    1XTA     H620185  29.842   2.108   4.887
    1XTA     H720186  29.909   1.834   4.579
    1XTA     H820187  29.654   1.804   4.537
    1XTA     H920188  29.378   1.824   4.418
    1XTA    H1020189  29.316   1.940   4.222
    1XTA    H1120190  29.482   2.306   4.380
    1XTA    H1220191  29.520   2.194   4.596
    1XTA    OA120192  29.072   1.907   5.031
    1XTA    CO120193  28.964   1.829   4.990
    1XTA    OA220194  30.013   2.007   4.751
    1XTA    CO220195  30.093   1.903   4.808
    1XTA    CL120196  30.241   1.943   4.808
    1XTA    CL220197  30.312   1.873   4.935
    1XTA    CL320198  30.459   1.922   4.950
    1XTA    CL420199  30.474   2.046   5.043
    1XTA    CO320200  30.611   2.104   5.036
    1XTA    OA320201  30.621   2.213   4.944
    1XTA    CO420202  30.588   2.161   4.813
    1XTA    CT120203  30.626   2.261   4.697
    1XTA    CL520204  30.585   2.205   4.564
    1XTA    CL620205  30.665   2.084   4.512
    1XTA    OA420206  29.376   2.209   4.182
    1XTA    CO520207  29.367   2.144   4.067
    1XTA    CL720208  29.352   2.238   3.947
    1XTA    CL820209  29.345   2.149   3.820
    1XTA    CL920210  29.466   2.070   3.771
    1XTA   CL1020211  29.449   1.921   3.812
    1XTA    CO620212  29.520   1.814   3.728
    1XTA    OA520213  29.648   1.859   3.701
    1XTA    CO720214  29.740   1.752   3.657
    1XTA    CT220215  29.863   1.837   3.624
    1XTA   CL1120216  29.907   1.904   3.759
    1XTA   CL1220217  30.025   2.009   3.747
    1XTA    HL120218  28.879   1.852   5.046
    1XTA    HL220219  28.941   1.834   4.885
    1XTA    HL320220  28.975   1.720   5.015
    1XTA    HL420221  30.061   1.882   4.912
    1XTA    HL520222  30.070   1.813   4.744
    1XTA    HL620223  30.241   2.052   4.809
    1XTA    HL720224  30.294   1.917   4.718
    1XTA    HL820225  30.315   1.764   4.906
    1XTA    HL920226  30.259   1.887   5.025
    1XTA   HL1020227  30.506   1.829   4.991
    1XTA   HL1120228  30.502   1.936   4.847
    1XTA   HL1220229  30.456   2.012   5.150
    1XTA   HL1320230  30.403   2.130   5.024
    1XTA   HL1420231  30.644   2.146   5.131
    1XTA   HL1520232  30.674   2.020   5.006
    1XTA   HL1620233  30.642   2.067   4.806
    1XTA   HL1720234  30.483   2.132   4.800
    1XTA   HL1820235  30.602   2.287   4.493
    1XTA   HL1920236  30.475   2.179   4.573
    1XTA   HL2020237  30.621   1.992   4.558
    1XTA   HL2120238  30.771   2.083   4.552
    1XTA   HL2220239  30.664   2.088   4.403
    1XTA   HL2320240  29.280   2.088   4.056
    1XTA   HL2420241  29.460   2.086   4.050
    1XTA   HL2520242  29.273   2.306   3.953
    1XTA   HL2620243  29.438   2.302   3.939
    1XTA   HL2720244  29.257   2.091   3.831
    1XTA   HL2820245  29.331   2.214   3.731
    1XTA   HL2920246  29.467   2.081   3.660
    1XTA   HL3020247  29.557   2.117   3.809
    1XTA   HL3120248  29.498   1.919   3.906
    1XTA   HL3220249  29.348   1.890   3.824
    1XTA   HL3320250  29.517   1.722   3.791
    1XTA   HL3420251  29.470   1.795   3.637
    1XTA   HL3520252  29.705   1.708   3.570
    1XTA   HL3620253  29.761   1.687   3.742
    1XTA   HL3720254  29.943   1.828   3.831
    1XTA   HL3820255  29.821   1.950   3.811
    1XTA   HL3920256  30.113   1.955   3.721
    1XTA   HL4020257  30.033   2.065   3.839
    1XTA   HL4120258  30.006   2.088   3.670
    1XTA    CO820259  30.773   2.295   4.696
    1XTA    CO920260  30.540   2.383   4.720
    1XTA    OA620261  30.433   2.361   4.706
    1XTA   HL4220262  30.784   2.367   4.790
    1XTA   HL4320263  30.855   2.189   4.725
    1XTA   HL4420264  29.752   2.046   3.539
    1XTA   HL4520265  29.934   1.986   3.476
    1XTA   CO1020266  29.838   1.944   3.508
    1XTA   CO1120267  29.971   1.739   3.567
    1XTA    OA720268  29.986   1.645   3.630
    1XTA   HL4620269  29.920   1.699   3.478
    1XTA   HL4720270  30.061   1.792   3.532
    1XTA   HL4820271  30.569   2.463   4.658
    1XTA   HL4920272  30.571   2.425   4.813
    1XTA     NT20273  29.098   7.236   4.079
    1XTA    CN120274  29.225   7.185   4.091
    1XTA     C120275  29.298   7.205   4.206
    1XTA     C220276  29.427   7.154   4.229
    1XTA     C320277  29.485   7.075   4.128
    1XTA     C420278  29.408   7.045   4.019
    1XTA     C520279  29.277   7.093   3.999
    1XTA    CN220280  28.991   7.176   4.131
    1XTA     C620281  28.907   7.095   4.054
    1XTA     C720282  28.783   7.051   4.105
    1XTA     C820283  28.737   7.094   4.235
    1XTA     C920284  28.831   7.162   4.314
    1XTA    C1020285  28.956   7.201   4.260
    1XTA    CN320286  29.085   7.339   3.989
    1XTA    C1120287  29.124   7.469   4.027
    1XTA    C1220288  29.094   7.581   3.944
    1XTA    C1320289  29.042   7.568   3.814
    1XTA    C1420290  29.010   7.440   3.777
    1XTA    C1520291  29.025   7.327   3.864
    1XTA     H120292  29.263   7.272   4.283
    1XTA     H220293  29.484   7.191   4.307
    1XTA     H320294  29.446   6.984   3.940
    1XTA     H420295  29.210   7.055   3.913
    1XTA     H520296  28.923   7.059   3.952
    1XTA     H620297  28.717   6.981   4.050
    1XTA     H720298  28.801   7.192   4.413
    1XTA     H820299  29.020   7.264   4.313
    1XTA     H920300  29.167   7.489   4.130
    1XTA    H1020301  29.131   7.683   3.963
    1XTA    H1120302  28.963   7.425   3.681
    1XTA    H1220303  28.976   7.235   3.843
    1XTA    OA120304  29.619   7.052   4.136
    1XTA    CO120305  29.679   7.111   4.022
    1XTA    OA220306  28.611   7.061   4.288
    1XTA    CO220307  28.521   6.995   4.206
    1XTA    CL120308  28.382   7.018   4.265
    1XTA    CL220309  28.279   6.993   4.161
    1XTA    CL320310  28.208   6.861   4.181
    1XTA    CL420311  28.300   6.738   4.165
    1XTA    CO320312  28.229   6.616   4.091
    1XTA    OA320313  28.310   6.499   4.087
    1XTA    CO420314  28.306   6.419   4.201
    1XTA    CT120315  28.380   6.288   4.157
    1XTA    CL520316  28.423   6.195   4.270
    1XTA    CL620317  28.320   6.149   4.373
    1XTA    OA420318  29.034   7.680   3.738
    1XTA    CO520319  28.968   7.666   3.613
    1XTA    CL720320  28.932   7.808   3.564
    1XTA    CL820321  28.807   7.851   3.636
    1XTA    CL920322  28.794   8.004   3.613
    1XTA   CL1020323  28.663   8.072   3.680
    1XTA    CO620324  28.622   8.190   3.594
    1XTA    OA520325  28.720   8.295   3.579
    1XTA    CO720326  28.738   8.334   3.441
    1XTA    CT220327  28.872   8.399   3.392
    1XTA   CL1120328  28.873   8.447   3.241
    1XTA   CL1220329  28.845   8.331   3.145
    1XTA    HL120330  29.792   7.110   4.017
    1XTA    HL220331  29.634   7.058   3.940
    1XTA    HL320332  29.644   7.211   4.004
    1XTA    HL420333  28.528   7.048   4.116
    1XTA    HL520334  28.540   6.892   4.187
    1XTA    HL620335  28.378   7.114   4.312
    1XTA    HL720336  28.376   6.964   4.364
    1XTA    HL820337  28.327   6.994   4.060
    1XTA    HL920338  28.205   7.076   4.151
    1XTA   HL1020339  28.159   6.842   4.276
    1XTA   HL1120340  28.120   6.859   4.104
    1XTA   HL1220341  28.342   6.702   4.255
    1XTA   HL1320342  28.391   6.757   4.114
    1XTA   HL1420343  28.129   6.598   4.134
    1XTA   HL1520344  28.219   6.653   3.986
    1XTA   HL1620345  28.356   6.459   4.288
    1XTA   HL1720346  28.203   6.406   4.236
    1XTA   HL1820347  28.509   6.237   4.334
    1XTA   HL1920348  28.468   6.109   4.228
    1XTA   HL2020349  28.249   6.079   4.332
    1XTA   HL2120350  28.273   6.243   4.416
    1XTA   HL2220351  28.370   6.102   4.455
    1XTA   HL2320352  28.884   7.602   3.621
    1XTA   HL2420353  29.040   7.611   3.546
    1XTA   HL2520354  29.016   7.873   3.584
    1XTA   HL2620355  28.919   7.802   3.459
    1XTA   HL2720356  28.721   7.792   3.596
    1XTA   HL2820357  28.817   7.842   3.743
    1XTA   HL2920358  28.885   8.055   3.648
    1XTA   HL3020359  28.784   8.013   3.503
    1XTA   HL3120360  28.580   7.999   3.689
    1XTA   HL3220361  28.688   8.101   3.779
    1XTA   HL3320362  28.590   8.145   3.498
    1XTA   HL3420363  28.535   8.239   3.644
    1XTA   HL3520364  28.662   8.413   3.426
    1XTA   HL3620365  28.723   8.248   3.379
    1XTA   HL3720366  28.981   8.471   3.231
    1XTA   HL3820367  28.810   8.544   3.225
    1XTA   HL3920368  28.735   8.310   3.137
    1XTA   HL4020369  28.876   8.244   3.192
    1XTA   HL4120370  28.894   8.335   3.047
    1XTA    CO820371  28.513   6.316   4.074
    1XTA    CO920372  28.283   6.209   4.066
    1XTA    OA620373  28.316   6.110   4.023
    1XTA   HL4220374  28.563   6.219   4.040
    1XTA   HL4320375  28.507   6.401   3.963
    1XTA   HL4420376  28.989   8.218   3.354
    1XTA   HL4520377  28.965   8.259   3.528
    1XTA   CO1020378  28.983   8.298   3.426
    1XTA   CO1120379  28.896   8.526   3.481
    1XTA    OA720380  28.793   8.626   3.457
    1XTA   HL4620381  28.891   8.494   3.585
    1XTA   HL4720382  28.995   8.574   3.466
    1XTA   HL4820383  28.244   6.284   3.996
    1XTA   HL4920384  28.199   6.183   4.124
    1XTA     NT20385  27.848   4.538   6.387
    1XTA    CN120386  27.727   4.512   6.435
    1XTA     C120387  27.615   4.545   6.358
    1XTA     C220388  27.492   4.522   6.418
    1XTA     C320389  27.480   4.493   6.551
    1XTA     C420390  27.588   4.462   6.628
    1XTA     C520391  27.712   4.464   6.565
    1XTA    CN220392  27.910   4.652   6.425
    1XTA     C620393  27.874   4.776   6.385
    1XTA     C720394  27.945   4.895   6.419
    1XTA     C820395  28.061   4.885   6.506
    1XTA     C920396  28.100   4.754   6.551
    1XTA    C1020397  28.028   4.641   6.503
    1XTA    CN320398  27.897   4.467   6.285
    1XTA    C1120399  27.864   4.479   6.147
    1XTA    C1220400  27.926   4.396   6.051
    1XTA    C1320401  28.018   4.295   6.092
    1XTA    C1420402  28.052   4.283   6.226
    1XTA    C1520403  27.986   4.367   6.318
    1XTA     H120404  27.633   4.576   6.255
    1XTA     H220405  27.400   4.530   6.366
    1XTA     H320406  27.588   4.428   6.725
    1XTA     H420407  27.805   4.446   6.625
    1XTA     H520408  27.790   4.780   6.317
    1XTA     H620409  27.908   4.994   6.386
    1XTA     H720410  28.185   4.743   6.613
    1XTA     H820411  28.054   4.543   6.545
    1XTA     H920412  27.802   4.569   6.114
    1XTA    H1020413  27.900   4.407   5.946
    1XTA    H1120414  28.129   4.215   6.261
    1XTA    H1220415  28.006   4.349   6.425
    1XTA    OA120416  27.351   4.494   6.601
    1XTA    CO120417  27.331   4.483   6.742
    1XTA    OA220418  28.153   4.986   6.528
    1XTA    CO220419  28.136   5.106   6.465
    1XTA    CL120420  28.030   5.185   6.538
    1XTA    CL220421  27.971   5.299   6.456
    1XTA    CL320422  27.916   5.251   6.316
    1XTA    CL420423  27.842   5.356   6.241
    1XTA    CO320424  27.700   5.396   6.283
    1XTA    OA320425  27.703   5.527   6.346
    1XTA    CO420426  27.588   5.559   6.418
    1XTA    CT120427  27.598   5.712   6.452
    1XTA    CL520428  27.635   5.796   6.329
    1XTA    CL620429  27.545   5.784   6.211
    1XTA    OA420430  28.081   4.222   5.992
    1XTA    CO520431  28.153   4.111   6.019
    1XTA    CL720432  28.073   3.994   6.036
    1XTA    CL820433  28.135   3.876   6.097
    1XTA    CL920434  28.030   3.765   6.130
    1XTA   CL1020435  27.968   3.703   6.007
    1XTA    CO620436  27.877   3.587   6.033
    1XTA    OA520437  27.947   3.474   6.080
    1XTA    CO720438  27.870   3.362   6.077
    1XTA    CT220439  27.948   3.236   6.133
    1XTA   CL1120440  27.848   3.119   6.121
    1XTA   CL1220441  27.868   2.991   6.205
    1XTA    HL120442  27.224   4.506   6.767
    1XTA    HL220443  27.354   4.383   6.775
    1XTA    HL320444  27.391   4.561   6.797
    1XTA    HL420445  28.222   5.176   6.453
    1XTA    HL520446  28.116   5.079   6.360
    1XTA    HL620447  28.074   5.221   6.633
    1XTA    HL720448  27.948   5.119   6.560
    1XTA    HL820449  28.039   5.382   6.445
    1XTA    HL920450  27.887   5.347   6.515
    1XTA   HL1020451  28.004   5.220   6.269
    1XTA   HL1120452  27.851   5.166   6.327
    1XTA   HL1220453  27.820   5.318   6.141
    1XTA   HL1320454  27.905   5.443   6.237
    1XTA   HL1420455  27.636   5.406   6.197
    1XTA   HL1520456  27.660   5.323   6.360
    1XTA   HL1620457  27.496   5.550   6.366
    1XTA   HL1720458  27.589   5.503   6.511
    1XTA   HL1820459  27.739   5.791   6.297
    1XTA   HL1920460  27.631   5.899   6.356
    1XTA   HL2020461  27.570   5.695   6.156
    1XTA   HL2120462  27.553   5.863   6.137
    1XTA   HL2220463  27.437   5.770   6.232
    1XTA   HL2320464  28.219   4.132   6.103
    1XTA   HL2420465  28.211   4.101   5.928
    1XTA   HL2520466  27.985   4.010   6.099
    1XTA   HL2620467  28.034   3.954   5.941
    1XTA   HL2720468  28.220   3.845   6.034
    1XTA   HL2820469  28.171   3.908   6.195
    1XTA   HL2920470  28.074   3.693   6.197
    1XTA   HL3020471  27.953   3.811   6.188
    1XTA   HL3120472  27.911   3.782   5.964
    1XTA   HL3220473  28.052   3.677   5.935
    1XTA   HL3320474  27.813   3.626   6.103
    1XTA   HL3420475  27.816   3.557   5.943
    1XTA   HL3520476  27.827   3.357   5.969
    1XTA   HL3620477  27.792   3.382   6.151
    1XTA   HL3720478  27.834   3.095   6.014
    1XTA   HL3820479  27.749   3.149   6.145
    1XTA   HL3920480  27.911   3.016   6.301
    1XTA   HL4020481  27.942   2.919   6.165
    1XTA   HL4120482  27.773   2.934   6.228
    1XTA    CO820483  27.699   5.723   6.567
    1XTA    CO920484  27.472   5.779   6.509
    1XTA    OA620485  27.481   5.890   6.539
    1XTA   HL4220486  27.712   5.829   6.589
    1XTA   HL4320487  27.833   5.668   6.535
    1XTA   HL4420488  28.068   3.342   6.284
    1XTA   HL4520489  28.041   3.176   6.322
    1XTA   CO1020490  27.988   3.265   6.282
    1XTA   CO1120491  28.081   3.213   6.049
    1XTA    OA720492  28.147   3.096   6.092
    1XTA   HL4620493  28.060   3.210   5.941
    1XTA   HL4720494  28.145   3.296   6.072
    1XTA   HL4820495  27.453   5.728   6.597
    1XTA   HL4920496  27.386   5.762   6.435
    1XTA     NT20497  27.470   3.312   5.810
    1XTA    CN120498  27.520   3.184   5.804
    1XTA     C120499  27.662   3.165   5.811
    1XTA     C220500  27.715   3.044   5.793
    1XTA     C320501  27.635   2.922   5.791
    1XTA     C420502  27.495   2.939   5.778
    1XTA     C520503  27.439   3.069   5.788
    1XTA    CN220504  27.417   3.364   5.926
    1XTA     C620505  27.491   3.359   6.050
    1XTA     C720506  27.436   3.375   6.177
    1XTA     C820507  27.303   3.420   6.191
    1XTA     C920508  27.226   3.420   6.071
    1XTA    C1020509  27.282   3.394   5.944
    1XTA    CN320510  27.465   3.394   5.706
    1XTA    C1120511  27.361   3.371   5.613
    1XTA    C1220512  27.352   3.457   5.506
    1XTA    C1320513  27.454   3.555   5.480
    1XTA    C1420514  27.566   3.565   5.567
    1XTA    C1520515  27.563   3.494   5.684
    1XTA     H120516  27.726   3.257   5.811
    1XTA     H220517  27.819   3.045   5.784
    1XTA     H320518  27.423   2.856   5.766
    1XTA     H420519  27.333   3.071   5.782
    1XTA     H520520  27.591   3.316   6.045
    1XTA     H620521  27.502   3.352   6.259
    1XTA     H720522  27.130   3.461   6.074
    1XTA     H820523  27.223   3.387   5.857
    1XTA     H920524  27.280   3.300   5.622
    1XTA    H1020525  27.267   3.445   5.445
    1XTA    H1120526  27.653   3.622   5.548
    1XTA    H1220527  27.648   3.496   5.753
    1XTA    OA120528  27.690   2.797   5.786
    1XTA    CO120529  27.830   2.784   5.784
    1XTA    OA220530  27.238   3.434   6.314
    1XTA    CO220531  27.316   3.430   6.428
    1XTA    CL120532  27.212   3.462   6.542
    1XTA    CL220533  27.259   3.421   6.686
    1XTA    CL320534  27.242   3.269   6.716
    1XTA    CL420535  27.372   3.201   6.752
    1XTA    CO320536  27.482   3.195   6.641
    1XTA    OA320537  27.563   3.315   6.630
    1XTA    CO420538  27.686   3.283   6.551
    1XTA    CT120539  27.780   3.406   6.530
    1XTA    CL520540  27.697   3.509   6.453
    1XTA    CL620541  27.764   3.650   6.439
    1XTA    OA420542  27.452   3.630   5.356
    1XTA    CO520543  27.344   3.614   5.269
    1XTA    CL720544  27.340   3.728   5.172
    1XTA    CL820545  27.281   3.853   5.242
    1XTA    CL920546  27.130   3.852   5.258
    1XTA   CL1020547  27.088   3.879   5.398
    1XTA    CO620548  27.105   3.765   5.500
    1XTA    OA520549  27.056   3.813   5.622
    1XTA    CO720550  27.132   3.769   5.738
    1XTA    CT220551  27.070   3.815   5.872
    1XTA   CL1120552  26.933   3.745   5.898
    1XTA   CL1220553  26.937   3.590   5.896
    1XTA    HL120554  27.876   2.837   5.704
    1XTA    HL220555  27.878   2.818   5.873
    1XTA    HL320556  27.854   2.676   5.764
    1XTA    HL420557  27.386   3.345   6.435
    1XTA    HL520558  27.384   3.520   6.426
    1XTA    HL620559  27.117   3.414   6.521
    1XTA    HL720560  27.186   3.567   6.534
    1XTA    HL820561  27.214   3.478   6.769
    1XTA    HL920562  27.368   3.435   6.689
    1XTA   HL1020563  27.178   3.248   6.803
    1XTA   HL1120564  27.202   3.212   6.634
    1XTA   HL1220565  27.344   3.093   6.764
    1XTA   HL1320566  27.419   3.243   6.831
    1XTA   HL1420567  27.551   3.117   6.676
    1XTA   HL1520568  27.453   3.169   6.544
    1XTA   HL1620569  27.742   3.201   6.592
    1XTA   HL1720570  27.666   3.253   6.446
    1XTA   HL1820571  27.598   3.521   6.499
    1XTA   HL1920572  27.680   3.460   6.357
    1XTA   HL2020573  27.768   3.676   6.543
    1XTA   HL2120574  27.704   3.731   6.395
    1XTA   HL2220575  27.864   3.660   6.391
    1XTA   HL2320576  27.249   3.602   5.314
    1XTA   HL2420577  27.358   3.516   5.206
    1XTA   HL2520578  27.430   3.743   5.115
    1XTA   HL2620579  27.259   3.693   5.104
    1XTA   HL2720580  27.334   3.865   5.342
    1XTA   HL2820581  27.315   3.947   5.191
    1XTA   HL2920582  27.088   3.931   5.192
    1XTA   HL3020583  27.078   3.765   5.233
    1XTA   HL3120584  27.147   3.966   5.426
    1XTA   HL3220585  26.988   3.908   5.416
    1XTA   HL3320586  27.043   3.695   5.442
    1XTA   HL3420587  27.207   3.720   5.511
    1XTA   HL3520588  27.242   3.793   5.732
    1XTA   HL3620589  27.134   3.656   5.740
    1XTA   HL3720590  26.864   3.785   5.818
    1XTA   HL3820591  26.886   3.786   5.986
    1XTA   HL3920592  26.835   3.556   5.909
    1XTA   HL4020593  26.985   3.548   5.984
    1XTA   HL4120594  26.968   3.550   5.808
    1XTA    CO820595  27.914   3.355   6.462
    1XTA    CO920596  27.822   3.453   6.662
    1XTA    OA620597  27.880   3.316   6.365
    1XTA   HL4220598  27.956   3.277   6.529
    1XTA   HL4320599  27.987   3.435   6.451
    1XTA   HL4420600  26.983   3.977   5.766
    1XTA   HL4520601  26.946   3.998   5.935
    1XTA   CO1020602  27.031   3.966   5.866
    1XTA   CO1120603  27.174   3.810   5.987
    1XTA    OA720604  27.120   4.033   5.881
    1XTA   HL4620605  27.273   3.905   5.975
    1XTA   HL4720606  27.229   3.715   5.980
    1XTA   HL4820607  27.719   3.492   6.754
    1XTA   HL4920608  27.868   3.372   6.717
    1XTA     NT20609  27.377   7.032   5.994
    1XTA    CN120610  27.425   6.909   5.963
    1XTA     C120611  27.560   6.903   5.930
    1XTA     C220612  27.608   6.777   5.886
    1XTA     C320613  27.535   6.663   5.864
    1XTA     C420614  27.396   6.674   5.893
    1XTA     C520615  27.342   6.796   5.944
    1XTA    CN220616  27.259   7.076   5.940
    1XTA     C620617  27.142   7.107   6.015
    1XTA     C720618  27.018   7.142   5.951
    1XTA     C820619  27.009   7.163   5.810
    1XTA     C920620  27.127   7.134   5.738
    1XTA    C1020621  27.243   7.088   5.804
    1XTA    CN320622  27.428   7.110   6.096
    1XTA    C1120623  27.460   7.245   6.075
    1XTA    C1220624  27.497   7.319   6.189
    1XTA    C1320625  27.526   7.263   6.315
    1XTA    C1420626  27.505   7.124   6.326
    1XTA    C1520627  27.443   7.048   6.221
    1XTA     H120628  27.628   6.993   5.940
    1XTA     H220629  27.707   6.768   5.852
    1XTA     H320630  27.326   6.588   5.886
    1XTA     H420631  27.233   6.798   5.965
    1XTA     H520632  27.144   7.107   6.125
    1XTA     H620633  26.927   7.140   6.004
    1XTA     H720634  27.132   7.138   5.628
    1XTA     H820635  27.329   7.054   5.749
    1XTA     H920636  27.455   7.294   5.979
    1XTA    H1020637  27.527   7.420   6.165
    1XTA    H1120638  27.533   7.069   6.414
    1XTA    H1220639  27.434   6.944   6.238
    1XTA    OA120640  27.579   6.547   5.814
    1XTA    CO120641  27.716   6.532   5.823
    1XTA    OA220642  26.890   7.190   5.748
    1XTA    CO220643  26.908   7.264   5.626
    1XTA    CL120644  26.777   7.339   5.613
    1XTA    CL220645  26.667   7.238   5.571
    1XTA    CL320646  26.529   7.291   5.604
    1XTA    CL420647  26.417   7.202   5.555
    1XTA    CO320648  26.417   7.063   5.626
    1XTA    OA320649  26.320   6.980   5.563
    1XTA    CO420650  26.368   6.901   5.450
    1XTA    CT120651  26.282   6.785   5.415
    1XTA    CL520652  26.349   6.657   5.473
    1XTA    CL620653  26.470   6.602   5.408
    1XTA    OA420654  27.582   7.345   6.410
    1XTA    CO520655  27.641   7.276   6.519
    1XTA    CL720656  27.770   7.206   6.483
    1XTA    CL820657  27.857   7.160   6.601
    1XTA    CL920658  27.864   7.263   6.717
    1XTA   CL1020659  27.949   7.390   6.706
    1XTA    CO620660  27.877   7.520   6.669
    1XTA    OA520661  27.780   7.555   6.768
    1XTA    CO720662  27.691   7.663   6.729
    1XTA    CT220663  27.598   7.698   6.847
    1XTA   CL1120664  27.533   7.579   6.912
    1XTA   CL1220665  27.439   7.510   6.818
    1XTA    HL120666  27.756   6.435   5.791
    1XTA    HL220667  27.784   6.592   5.763
    1XTA    HL320668  27.747   6.544   5.927
    1XTA    HL420669  26.993   7.331   5.627
    1XTA    HL520670  26.931   7.196   5.546
    1XTA    HL620671  26.782   7.415   5.536
    1XTA    HL720672  26.758   7.393   5.705
    1XTA    HL820673  26.674   7.146   5.626
    1XTA    HL920674  26.688   7.223   5.470
    1XTA   HL1020675  26.507   7.306   5.713
    1XTA   HL1120676  26.519   7.387   5.553
    1XTA   HL1220677  26.436   7.193   5.448
    1XTA   HL1320678  26.315   7.245   5.575
    1XTA   HL1420679  26.509   7.008   5.629
    1XTA   HL1520680  26.376   7.078   5.725
    1XTA   HL1620681  26.384   6.970   5.366
    1XTA   HL1720682  26.469   6.863   5.465
    1XTA   HL1820683  26.283   6.578   5.488
    1XTA   HL1920684  26.382   6.685   5.578
    1XTA   HL2020685  26.559   6.650   5.449
    1XTA   HL2120686  26.475   6.578   5.295
    1XTA   HL2220687  26.489   6.505   5.447
    1XTA   HL2320688  27.571   7.206   6.558
    1XTA   HL2420689  27.658   7.352   6.599
    1XTA   HL2520690  27.737   7.117   6.418
    1XTA   HL2620691  27.834   7.264   6.420
    1XTA   HL2720692  27.825   7.063   6.641
    1XTA   HL2820693  27.958   7.136   6.566
    1XTA   HL2920694  27.767   7.281   6.756
    1XTA   HL3020695  27.924   7.210   6.798
    1XTA   HL3120696  27.985   7.405   6.807
    1XTA   HL3220697  28.038   7.379   6.647
    1XTA   HL3320698  27.946   7.601   6.663
    1XTA   HL3420699  27.827   7.496   6.573
    1XTA   HL3520700  27.627   7.626   6.651
    1XTA   HL3620701  27.761   7.740   6.693
    1XTA   HL3720702  27.485   7.604   7.002
    1XTA   HL3820703  27.606   7.510   6.933
    1XTA   HL3920704  27.390   7.422   6.865
    1XTA   HL4020705  27.489   7.475   6.730
    1XTA   HL4120706  27.360   7.582   6.784
    1XTA    CO820707  26.265   6.781   5.258
    1XTA    CO920708  26.145   6.796   5.471
    1XTA    OA620709  26.362   6.801   5.211
    1XTA   HL4220710  26.180   6.851   5.227
    1XTA   HL4320711  26.228   6.687   5.235
    1XTA   HL4420712  27.445   7.762   6.708
    1XTA   HL4520713  27.419   7.809   6.887
    1XTA   CO1020714  27.494   7.803   6.801
    1XTA   CO1120715  27.695   7.763   6.946
    1XTA    OA720716  27.547   7.899   6.770
    1XTA   HL4620717  27.751   7.882   6.885
    1XTA   HL4720718  27.776   7.702   6.970
    1XTA   HL4820719  26.143   6.830   5.610
    1XTA   HL4920720  26.091   6.878   5.423
    1XTA     NT20721  31.644   7.339   2.532
    1XTA    CN120722  31.614   7.457   2.586
    1XTA     C120723  31.724   7.535   2.627
    1XTA     C220724  31.702   7.659   2.689
    1XTA     C320725  31.569   7.704   2.717
    1XTA     C420726  31.458   7.620   2.682
    1XTA     C520727  31.486   7.496   2.630
    1XTA    CN220728  31.702   7.239   2.605
    1XTA     C620729  31.642   7.190   2.728
    1XTA     C720730  31.713   7.091   2.792
    1XTA     C820731  31.830   7.031   2.746
    1XTA     C920732  31.890   7.088   2.638
    1XTA    C1020733  31.825   7.186   2.565
    1XTA    CN320734  31.591   7.306   2.415
    1XTA    C1120735  31.491   7.205   2.401
    1XTA    C1220736  31.444   7.174   2.273
    1XTA    C1320737  31.493   7.243   2.157
    1XTA    C1420738  31.581   7.350   2.174
    1XTA    C1520739  31.632   7.374   2.300
    1XTA     H120740  31.820   7.501   2.608
    1XTA     H220741  31.785   7.715   2.711
    1XTA     H320742  31.358   7.655   2.688
    1XTA     H420743  31.403   7.433   2.617
    1XTA     H520744  31.555   7.231   2.773
    1XTA     H620745  31.666   7.050   2.881
    1XTA     H720746  31.988   7.049   2.609
    1XTA     H820747  31.864   7.232   2.474
    1XTA     H920748  31.456   7.150   2.485
    1XTA    H1020749  31.366   7.096   2.269
    1XTA    H1120750  31.625   7.405   2.090
    1XTA    H1220751  31.707   7.445   2.327
    1XTA    OA120752  31.545   7.831   2.770
    1XTA    CO120753  31.411   7.855   2.830
    1XTA    OA220754  31.882   6.917   2.806
    1XTA    CO220755  31.937   6.825   2.712
    1XTA    CL120756  31.985   6.703   2.798
    1XTA    CL220757  31.863   6.615   2.844
    1XTA    CL320758  31.894   6.533   2.966
    1XTA    CL420759  31.765   6.466   2.993
    1XTA    CO320760  31.775   6.381   3.119
    1XTA    OA320761  31.652   6.342   3.187
    1XTA    CO420762  31.569   6.453   3.221
    1XTA    CT120763  31.448   6.409   3.303
    1XTA    CL520764  31.345   6.515   3.308
    1XTA    CL620765  31.401   6.645   3.380
    1XTA    OA420766  31.441   7.207   2.028
    1XTA    CO520767  31.391   7.074   2.014
    1XTA    CL720768  31.353   7.048   1.866
    1XTA    CL820769  31.288   6.911   1.837
    1XTA    CL920770  31.225   6.903   1.697
    1XTA   CL1020771  31.306   6.959   1.577
    1XTA    CO620772  31.407   6.860   1.518
    1XTA    OA520773  31.527   6.931   1.480
    1XTA    CO720774  31.612   6.957   1.588
    1XTA    CT220775  31.728   7.059   1.553
    1XTA   CL1120776  31.807   7.102   1.681
    1XTA   CL1220777  31.717   7.186   1.776
    1XTA    HL120778  31.333   7.875   2.754
    1XTA    HL220779  31.376   7.787   2.898
    1XTA    HL320780  31.435   7.946   2.883
    1XTA    HL420781  31.865   6.792   2.630
    1XTA    HL520782  32.021   6.870   2.663
    1XTA    HL620783  32.040   6.734   2.882
    1XTA    HL720784  32.059   6.644   2.743
    1XTA    HL820785  31.834   6.550   2.759
    1XTA    HL920786  31.776   6.682   2.859
    1XTA   HL1020787  31.963   6.460   2.933
    1XTA   HL1120788  31.933   6.585   3.049
    1XTA   HL1220789  31.708   6.413   2.918
    1XTA   HL1320790  31.690   6.543   3.008
    1XTA   HL1420791  31.836   6.289   3.097
    1XTA   HL1520792  31.844   6.417   3.189
    1XTA   HL1620793  31.632   6.518   3.278
    1XTA   HL1720794  31.529   6.502   3.130
    1XTA   HL1820795  31.254   6.479   3.348
    1XTA   HL1920796  31.314   6.541   3.211
    1XTA   HL2020797  31.499   6.673   3.354
    1XTA   HL2120798  31.408   6.628   3.486
    1XTA   HL2220799  31.333   6.729   3.363
    1XTA   HL2320800  31.296   7.056   2.062
    1XTA   HL2420801  31.461   6.993   2.046
    1XTA   HL2520802  31.279   7.127   1.847
    1XTA   HL2620803  31.443   7.070   1.812
    1XTA   HL2720804  31.363   6.830   1.863
    1XTA   HL2820805  31.213   6.893   1.914
    1XTA   HL2920806  31.196   6.795   1.678
    1XTA   HL3020807  31.131   6.953   1.709
    1XTA   HL3120808  31.245   6.995   1.497
    1XTA   HL3220809  31.356   7.056   1.605
    1XTA   HL3320810  31.431   6.787   1.590
    1XTA   HL3420811  31.365   6.804   1.431
    1XTA   HL3520812  31.644   6.864   1.630
    1XTA   HL3620813  31.549   6.989   1.670
    1XTA   HL3720814  31.893   7.162   1.650
    1XTA   HL3820815  31.854   7.018   1.734
    1XTA   HL3920816  31.670   7.271   1.726
    1XTA   HL4020817  31.782   7.223   1.851
    1XTA   HL4120818  31.654   7.118   1.840
    1XTA    CO820819  31.475   6.354   3.444
    1XTA    CO920820  31.382   6.284   3.241
    1XTA    OA620821  31.342   6.312   3.144
    1XTA   HL4220822  31.524   6.443   3.491
    1XTA   HL4320823  31.570   6.253   3.447
    1XTA   HL4420824  31.625   7.162   1.397
    1XTA   HL4520825  31.575   7.227   1.542
    1XTA   CO1020826  31.666   7.181   1.492
    1XTA   CO1120827  31.816   6.992   1.448
    1XTA    OA720828  31.764   7.271   1.472
    1XTA   HL4620829  31.755   6.941   1.379
    1XTA   HL4720830  31.891   7.053   1.405
    1XTA   HL4820831  31.309   6.245   3.313
    1XTA   HL4920832  31.457   6.210   3.236
    1XTA     NT20833  25.437  -0.505   1.072
    1XTA    CN120834  25.545  -0.574   1.022
    1XTA     C120835  25.622  -0.535   0.908
    1XTA     C220836  25.736  -0.607   0.875
    1XTA     C320837  25.780  -0.717   0.946
    1XTA     C420838  25.699  -0.766   1.047
    1XTA     C520839  25.587  -0.691   1.093
    1XTA    CN220840  25.457  -0.403   1.164
    1XTA     C620841  25.484  -0.277   1.114
    1XTA     C720842  25.490  -0.166   1.202
    1XTA     C820843  25.469  -0.183   1.339
    1XTA     C920844  25.434  -0.307   1.385
    1XTA    C1020845  25.439  -0.421   1.298
    1XTA    CN320846  25.308  -0.538   1.053
    1XTA    C1120847  25.250  -0.647   1.121
    1XTA    C1220848  25.110  -0.671   1.116
    1XTA    C1320849  25.031  -0.580   1.042
    1XTA    C1420850  25.090  -0.472   0.969
    1XTA    C1520851  25.225  -0.460   0.968
    1XTA     H120852  25.583  -0.453   0.846
    1XTA     H220853  25.789  -0.567   0.789
    1XTA     H320854  25.734  -0.851   1.093
    1XTA     H420855  25.528  -0.731   1.168
    1XTA     H520856  25.497  -0.266   1.004
    1XTA     H620857  25.506  -0.066   1.159
    1XTA     H720858  25.405  -0.327   1.484
    1XTA     H820859  25.411  -0.522   1.332
    1XTA     H920860  25.313  -0.713   1.186
    1XTA    H1020861  25.075  -0.747   1.186
    1XTA    H1120862  25.035  -0.392   0.921
    1XTA    H1220863  25.269  -0.380   0.911
    1XTA    OA120864  25.896  -0.783   0.923
    1XTA    CO120865  25.992  -0.709   0.849
    1XTA    OA220866  25.453  -0.085   1.431
    1XTA    CO220867  25.536   0.028   1.421
    1XTA    CL120868  25.452   0.144   1.363
    1XTA    CL220869  25.529   0.257   1.296
    1XTA    CL320870  25.602   0.358   1.388
    1XTA    CL420871  25.507   0.457   1.466
    1XTA    CO320872  25.578   0.518   1.587
    1XTA    OA320873  25.502   0.592   1.679
    1XTA    CO420874  25.538   0.578   1.809
    1XTA    CT120875  25.638   0.684   1.866
    1XTA    CL520876  25.599   0.824   1.823
    1XTA    CL620877  25.686   0.945   1.865
    1XTA    OA420878  24.894  -0.570   1.060
    1XTA    CO520879  24.831  -0.674   1.135
    1XTA    CL720880  24.685  -0.642   1.165
    1XTA    CL820881  24.677  -0.514   1.253
    1XTA    CL920882  24.704  -0.386   1.175
    1XTA   CL1020883  24.594  -0.334   1.079
    1XTA    CO620884  24.620  -0.373   0.939
    1XTA    OA520885  24.710  -0.276   0.881
    1XTA    CO720886  24.756  -0.292   0.748
    1XTA    CT220887  24.802  -0.158   0.698
    1XTA   CL1120888  24.932  -0.106   0.768
    1XTA   CL1220889  24.966   0.032   0.720
    1XTA    HL120890  26.008  -0.620   0.907
    1XTA    HL220891  26.090  -0.765   0.849
    1XTA    HL320892  25.948  -0.693   0.748
    1XTA    HL420893  25.557   0.040   1.528
    1XTA    HL520894  25.624   0.002   1.357
    1XTA    HL620895  25.380   0.183   1.433
    1XTA    HL720896  25.393   0.092   1.296
    1XTA    HL820897  25.469   0.314   1.229
    1XTA    HL920898  25.617   0.207   1.247
    1XTA   HL1020899  25.669   0.309   1.462
    1XTA   HL1120900  25.676   0.412   1.335
    1XTA   HL1220901  25.417   0.404   1.499
    1XTA   HL1320902  25.465   0.544   1.407
    1XTA   HL1420903  25.621   0.433   1.635
    1XTA   HL1520904  25.665   0.579   1.566
    1XTA   HL1620905  25.440   0.586   1.862
    1XTA   HL1720906  25.579   0.483   1.827
    1XTA   HL1820907  25.503   0.855   1.868
    1XTA   HL1920908  25.606   0.820   1.715
    1XTA   HL2020909  25.785   0.940   1.819
    1XTA   HL2120910  25.705   0.946   1.967
    1XTA   HL2220911  25.642   1.035   1.833
    1XTA   HL2320912  24.884  -0.689   1.231
    1XTA   HL2420913  24.831  -0.776   1.084
    1XTA   HL2520914  24.609  -0.640   1.083
    1XTA   HL2620915  24.642  -0.719   1.223
    1XTA   HL2720916  24.573  -0.511   1.282
    1XTA   HL2820917  24.749  -0.520   1.328
    1XTA   HL2920918  24.715  -0.309   1.254
    1XTA   HL3020919  24.804  -0.387   1.122
    1XTA   HL3120920  24.495  -0.381   1.108
    1XTA   HL3220921  24.588  -0.225   1.077
    1XTA   HL3320922  24.635  -0.478   0.928
    1XTA   HL3420923  24.520  -0.360   0.883
    1XTA   HL3520924  24.677  -0.333   0.692
    1XTA   HL3620925  24.826  -0.372   0.752
    1XTA   HL3720926  25.011  -0.170   0.739
    1XTA   HL3820927  24.927  -0.113   0.875
    1XTA   HL3920928  24.881   0.096   0.743
    1XTA   HL4020929  24.974   0.038   0.613
    1XTA   HL4120930  25.059   0.058   0.769
    1XTA    CO820931  25.781   0.654   1.811
    1XTA    CO920932  25.642   0.675   2.021
    1XTA    OA620933  25.626   0.573   2.067
    1XTA   HL4220934  25.789   0.675   1.705
    1XTA   HL4320935  25.864   0.747   1.872
    1XTA   HL4420936  24.588  -0.123   0.710
    1XTA   HL4520937  24.687  -0.013   0.811
    1XTA   CO1020938  24.682  -0.066   0.712
    1XTA   CO1120939  24.841  -0.190   0.551
    1XTA    OA720940  24.685   0.030   0.619
    1XTA   HL4620941  24.885  -0.103   0.503
    1XTA   HL4720942  24.751  -0.214   0.495
    1XTA   HL4820943  25.569   0.747   2.057
    1XTA   HL4920944  25.727   0.724   2.055
    1XTA     NT20945  28.772   5.673   2.404
    1XTA    CN120946  28.720   5.798   2.440
    1XTA     C120947  28.608   5.848   2.369
    1XTA     C220948  28.552   5.976   2.397
    1XTA     C320949  28.626   6.058   2.489
    1XTA     C420950  28.736   6.006   2.560
    1XTA     C520951  28.786   5.876   2.538
    1XTA    CN220952  28.866   5.669   2.312
    1XTA     C620953  28.993   5.623   2.351
    1XTA     C720954  29.095   5.613   2.253
    1XTA     C820955  29.072   5.620   2.121
    1XTA     C920956  28.940   5.655   2.077
    1XTA    C1020957  28.835   5.667   2.177
    1XTA    CN320958  28.723   5.561   2.460
    1XTA    C1120959  28.614   5.489   2.396
    1XTA    C1220960  28.558   5.374   2.461
    1XTA    C1320961  28.613   5.343   2.584
    1XTA    C1420962  28.723   5.413   2.648
    1XTA    C1520963  28.777   5.523   2.584
    1XTA     H120964  28.568   5.794   2.289
    1XTA     H220965  28.466   6.012   2.340
    1XTA     H320966  28.798   6.064   2.630
    1XTA     H420967  28.871   5.847   2.597
    1XTA     H520968  29.014   5.615   2.451
    1XTA     H620969  29.196   5.594   2.287
    1XTA     H720970  28.902   5.669   1.972
    1XTA     H820971  28.734   5.695   2.154
    1XTA     H920972  28.574   5.523   2.302
    1XTA    H1020973  28.467   5.329   2.427
    1XTA    H1120974  28.768   5.380   2.734
    1XTA    H1220975  28.854   5.582   2.629
    1XTA    OA120976  28.587   6.187   2.512
    1XTA    CO120977  28.449   6.209   2.515
    1XTA    OA220978  29.176   5.595   2.038
    1XTA    CO220979  29.146   5.617   1.892
    1XTA    CL120980  29.058   5.502   1.830
    1XTA    CL220981  29.016   5.520   1.686
    1XTA    CL320982  28.965   5.389   1.624
    1XTA    CL420983  28.841   5.341   1.698
    1XTA    CO320984  28.771   5.225   1.622
    1XTA    OA320985  28.652   5.190   1.695
    1XTA    CO420986  28.558   5.121   1.623
    1XTA    CT120987  28.417   5.109   1.694
    1XTA    CL520988  28.311   5.041   1.604
    1XTA    CL620989  28.248   5.139   1.505
    1XTA    OA420990  28.563   5.225   2.629
    1XTA    CO520991  28.562   5.224   2.773
    1XTA    CL720992  28.476   5.111   2.828
    1XTA    CL820993  28.547   4.983   2.796
    1XTA    CL920994  28.487   4.862   2.867
    1XTA   CL1020995  28.519   4.731   2.795
    1XTA    CO620996  28.405   4.632   2.825
    1XTA    OA520997  28.283   4.668   2.763
    1XTA    CO720998  28.170   4.589   2.796
    1XTA    CT220999  28.049   4.671   2.751
    1XTA   CL1121000  28.041   4.695   2.595
    1XTA   CL1221001  27.914   4.754   2.528
    1XTA    HL121002  28.437   6.298   2.576
    1XTA    HL221003  28.402   6.210   2.416
    1XTA    HL321004  28.395   6.128   2.564
    1XTA    HL421005  29.093   5.708   1.881
    1XTA    HL521006  29.240   5.623   1.835
    1XTA    HL621007  28.973   5.472   1.887
    1XTA    HL721008  29.124   5.420   1.840
    1XTA    HL821009  29.097   5.550   1.617
    1XTA    HL921010  28.935   5.592   1.678
    1XTA   HL1021011  28.941   5.401   1.512
    1XTA   HL1121012  29.047   5.315   1.630
    1XTA   HL1221013  28.775   5.417   1.706
    1XTA   HL1321014  28.867   5.303   1.798
    1XTA   HL1421015  28.741   5.257   1.525
    1XTA   HL1521016  28.844   5.143   1.600
    1XTA   HL1621017  28.525   5.181   1.532
    1XTA   HL1721018  28.594   5.027   1.597
    1XTA   HL1821019  28.237   4.991   1.669
    1XTA   HL1921020  28.360   4.967   1.546
    1XTA   HL2021021  28.204   5.227   1.556
    1XTA   HL2121022  28.159   5.097   1.456
    1XTA   HL2221023  28.314   5.177   1.416
    1XTA   HL2321024  28.507   5.312   2.805
    1XTA   HL2421025  28.656   5.211   2.816
    1XTA   HL2521026  28.477   5.121   2.933
    1XTA   HL2621027  28.372   5.102   2.794
    1XTA   HL2721028  28.524   4.963   2.687
    1XTA   HL2821029  28.658   4.982   2.801
    1XTA   HL2921030  28.514   4.864   2.978
    1XTA   HL3021031  28.379   4.861   2.860
    1XTA   HL3121032  28.523   4.751   2.690
    1XTA   HL3221033  28.617   4.691   2.823
    1XTA   HL3321034  28.439   4.539   2.775
    1XTA   HL3421035  28.394   4.614   2.934
    1XTA   HL3521036  28.158   4.562   2.902
    1XTA   HL3621037  28.171   4.496   2.745
    1XTA   HL3721038  28.057   4.589   2.547
    1XTA   HL3821039  28.124   4.754   2.560
    1XTA   HL3921040  27.841   4.673   2.521
    1XTA   HL4021041  27.919   4.782   2.426
    1XTA   HL4121042  27.868   4.837   2.576
    1XTA    CO821043  28.384   5.248   1.741
    1XTA    CO921044  28.428   5.023   1.832
    1XTA    OA621045  28.257   5.252   1.791
    1XTA   HL4221046  28.393   5.318   1.658
    1XTA   HL4321047  28.463   5.273   1.818
    1XTA   HL4421048  27.965   4.866   2.785
    1XTA   HL4521049  28.154   4.884   2.807
    1XTA   CO1021050  28.039   4.804   2.831
    1XTA   CO1121051  27.921   4.592   2.791
    1XTA    OA721052  27.906   4.505   2.721
    1XTA   HL4621053  27.934   4.561   2.893
    1XTA   HL4721054  27.822   4.651   2.781
    1XTA   HL4821055  28.502   5.072   1.906
    1XTA   HL4921056  28.336   5.028   1.881
    1XTA     NT21057  25.779   4.605   0.253
    1XTA    CN121058  25.756   4.506   0.160
    1XTA     C121059  25.758   4.373   0.196
    1XTA     C221060  25.737   4.276   0.097
    1XTA     C321061  25.684   4.310  -0.028
    1XTA     C421062  25.680   4.447  -0.066
    1XTA     C521063  25.714   4.542   0.032
    1XTA    CN221064  25.690   4.613   0.356
    1XTA     C621065  25.715   4.538   0.469
    1XTA     C721066  25.617   4.530   0.568
    1XTA     C821067  25.501   4.613   0.561
    1XTA     C921068  25.476   4.693   0.451
    1XTA    C1021069  25.572   4.692   0.349
    1XTA    CN321070  25.905   4.656   0.277
    1XTA    C1121071  26.023   4.574   0.293
    1XTA    C1221072  26.156   4.626   0.291
    1XTA    C1321073  26.170   4.771   0.275
    1XTA    C1421074  26.051   4.847   0.269
    1XTA    C1521075  25.924   4.789   0.271
    1XTA     H121076  25.797   4.352   0.295
    1XTA     H221077  25.740   4.174   0.119
    1XTA     H321078  25.658   4.484  -0.167
    1XTA     H421079  25.716   4.646   0.009
    1XTA     H521080  25.799   4.479   0.485
    1XTA     H621081  25.628   4.463   0.650
    1XTA     H721082  25.407   4.768   0.441
    1XTA     H821083  25.549   4.758   0.263
    1XTA     H921084  26.003   4.467   0.294
    1XTA    H1021085  26.234   4.556   0.295
    1XTA    H1121086  26.055   4.951   0.272
    1XTA    H1221087  25.841   4.859   0.256
    1XTA    OA121088  25.633   4.226  -0.118
    1XTA    CO121089  25.674   4.088  -0.120
    1XTA    OA221090  25.402   4.598   0.658
    1XTA    CO221091  25.405   4.487   0.746
    1XTA    CL121092  25.263   4.464   0.806
    1XTA    CL221093  25.249   4.335   0.888
    1XTA    CL321094  25.278   4.371   1.040
    1XTA    CL421095  25.298   4.253   1.142
    1XTA    CO321096  25.359   4.292   1.278
    1XTA    OA321097  25.297   4.215   1.380
    1XTA    CO421098  25.298   4.078   1.370
    1XTA    CT121099  25.276   4.003   1.503
    1XTA    CL521100  25.384   4.041   1.603
    1XTA    CL621101  25.397   3.957   1.729
    1XTA    OA421102  26.292   4.841   0.271
    1XTA    CO521103  26.403   4.758   0.237
    1XTA    CL721104  26.528   4.842   0.230
    1XTA    CL821105  26.637   4.767   0.162
    1XTA    CL921106  26.776   4.831   0.154
    1XTA   CL1021107  26.878   4.720   0.106
    1XTA    CO621108  27.028   4.743   0.122
    1XTA    OA521109  27.051   4.752   0.262
    1XTA    CO721110  27.182   4.792   0.291
    1XTA    CT221111  27.203   4.779   0.448
    1XTA   CL1121112  27.210   4.632   0.502
    1XTA   CL1221113  27.095   4.543   0.493
    1XTA    HL121114  25.642   4.029  -0.202
    1XTA    HL221115  25.785   4.082  -0.114
    1XTA    HL321116  25.648   4.045  -0.025
    1XTA    HL421117  25.419   4.400   0.680
    1XTA    HL521118  25.472   4.500   0.828
    1XTA    HL621119  25.199   4.434   0.725
    1XTA    HL721120  25.217   4.548   0.854
    1XTA    HL821121  25.312   4.260   0.840
    1XTA    HL921122  25.147   4.305   0.884
    1XTA   HL1021123  25.375   4.420   1.039
    1XTA   HL1121124  25.204   4.442   1.075
    1XTA   HL1221125  25.351   4.173   1.091
    1XTA   HL1321126  25.195   4.220   1.167
    1XTA   HL1421127  25.466   4.295   1.276
    1XTA   HL1521128  25.335   4.398   1.297
    1XTA   HL1621129  25.220   4.045   1.302
    1XTA   HL1721130  25.396   4.041   1.335
    1XTA   HL1821131  25.374   4.140   1.635
    1XTA   HL1921132  25.476   4.026   1.546
    1XTA   HL2021133  25.404   4.035   1.808
    1XTA   HL2121134  25.495   3.900   1.725
    1XTA   HL2221135  25.317   3.887   1.752
    1XTA   HL2321136  26.393   4.731   0.136
    1XTA   HL2421137  26.436   4.680   0.307
    1XTA   HL2521138  26.498   4.929   0.183
    1XTA   HL2621139  26.560   4.873   0.330
    1XTA   HL2721140  26.658   4.673   0.221
    1XTA   HL2821141  26.605   4.716   0.070
    1XTA   HL2921142  26.792   4.907   0.079
    1XTA   HL3021143  26.797   4.865   0.257
    1XTA   HL3121144  26.856   4.624   0.148
    1XTA   HL3221145  26.852   4.709  -0.001
    1XTA   HL3321146  27.085   4.661   0.079
    1XTA   HL3421147  27.051   4.832   0.061
    1XTA   HL3521148  27.184   4.895   0.252
    1XTA   HL3621149  27.258   4.731   0.238
    1XTA   HL3721150  27.247   4.633   0.608
    1XTA   HL3821151  27.288   4.576   0.449
    1XTA   HL3921152  27.133   4.445   0.482
    1XTA   HL4021153  27.046   4.557   0.393
    1XTA   HL4121154  27.015   4.553   0.566
    1XTA    CO821155  25.274   3.846   1.476
    1XTA    CO921156  25.136   4.034   1.562
    1XTA    OA621157  25.104   3.972   1.681
    1XTA   HL4221158  25.372   3.830   1.442
    1XTA   HL4321159  25.264   3.783   1.567
    1XTA   HL4421160  26.994   4.818   0.521
    1XTA   HL4521161  27.086   4.951   0.477
    1XTA   CO1021162  27.095   4.862   0.529
    1XTA   CO1121163  27.332   4.840   0.490
    1XTA    OA721164  27.332   4.980   0.462
    1XTA   HL4621165  27.364   4.816   0.584
    1XTA   HL4721166  27.401   4.789   0.429
    1XTA   HL4821167  25.057   4.005   1.491
    1XTA   HL4921168  25.105   4.137   1.576
    1XTA     NT21169  25.337   5.725   3.631
    1XTA    CN121170  25.339   5.858   3.637
    1XTA     C121171  25.265   5.931   3.737
    1XTA     C221172  25.257   6.072   3.735
    1XTA     C321173  25.323   6.142   3.631
    1XTA     C421174  25.402   6.077   3.538
    1XTA     C521175  25.403   5.936   3.540
    1XTA    CN221176  25.219   5.667   3.650
    1XTA     C621177  25.139   5.641   3.537
    1XTA     C721178  25.014   5.574   3.555
    1XTA     C821179  24.960   5.541   3.683
    1XTA     C921180  25.038   5.578   3.795
    1XTA    C1021181  25.165   5.632   3.778
    1XTA    CN321182  25.447   5.647   3.641
    1XTA    C1121183  25.504   5.638   3.772
    1XTA    C1221184  25.620   5.554   3.788
    1XTA    C1321185  25.675   5.487   3.676
    1XTA    C1421186  25.611   5.499   3.547
    1XTA    C1521187  25.500   5.581   3.530
    1XTA     H121188  25.223   5.874   3.814
    1XTA     H221189  25.203   6.119   3.818
    1XTA     H321190  25.435   6.135   3.450
    1XTA     H421191  25.450   5.895   3.454
    1XTA     H521192  25.176   5.676   3.443
    1XTA     H621193  24.948   5.552   3.473
    1XTA     H721194  25.014   5.554   3.902
    1XTA     H821195  25.221   5.648   3.865
    1XTA     H921196  25.465   5.685   3.860
    1XTA    H1021197  25.673   5.548   3.883
    1XTA    H1121198  25.641   5.442   3.458
    1XTA    H1221199  25.464   5.598   3.431
    1XTA    OA121200  25.323   6.279   3.620
    1XTA    CO121201  25.275   6.343   3.741
    1XTA    OA221202  24.840   5.478   3.706
    1XTA    CO221203  24.777   5.410   3.598
    1XTA    CL121204  24.669   5.494   3.526
    1XTA    CL221205  24.549   5.405   3.469
    1XTA    CL321206  24.409   5.481   3.483
    1XTA    CL421207  24.351   5.495   3.629
    1XTA    CO321208  24.364   5.361   3.706
    1XTA    OA321209  24.276   5.268   3.653
    1XTA    CO421210  24.289   5.142   3.708
    1XTA    CT121211  24.151   5.081   3.686
    1XTA    CL521212  24.033   5.150   3.754
    1XTA    CL621213  23.997   5.301   3.717
    1XTA    OA421214  25.791   5.412   3.681
    1XTA    CO521215  25.882   5.461   3.779
    1XTA    CL721216  26.025   5.411   3.752
    1XTA    CL821217  26.132   5.516   3.798
    1XTA    CL921218  26.155   5.646   3.715
    1XTA   CL1021219  26.235   5.754   3.787
    1XTA    CO621220  26.258   5.887   3.706
    1XTA    OA521221  26.334   5.844   3.589
    1XTA    CO721222  26.377   5.946   3.501
    1XTA    CT221223  26.483   5.895   3.400
    1XTA   CL1121224  26.506   5.996   3.289
    1XTA   CL1221225  26.531   6.143   3.334
    1XTA    HL121226  25.173   6.318   3.759
    1XTA    HL221227  25.327   6.307   3.824
    1XTA    HL321228  25.290   6.456   3.731
    1XTA    HL421229  24.844   5.358   3.522
    1XTA    HL521230  24.729   5.325   3.646
    1XTA    HL621231  24.726   5.570   3.468
    1XTA    HL721232  24.633   5.550   3.610
    1XTA    HL821233  24.555   5.303   3.507
    1XTA    HL921234  24.556   5.388   3.359
    1XTA   HL1021235  24.417   5.578   3.438
    1XTA   HL1121236  24.330   5.428   3.431
    1XTA   HL1221237  24.246   5.520   3.618
    1XTA   HL1321238  24.410   5.576   3.679
    1XTA   HL1421239  24.470   5.323   3.722
    1XTA   HL1521240  24.327   5.377   3.806
    1XTA   HL1621241  24.365   5.087   3.649
    1XTA   HL1721242  24.317   5.138   3.817
    1XTA   HL1821243  24.058   5.147   3.859
    1XTA   HL1921244  23.944   5.091   3.734
    1XTA   HL2021245  23.995   5.313   3.612
    1XTA   HL2121246  24.083   5.364   3.755
    1XTA   HL2221247  23.903   5.340   3.771
    1XTA   HL2321248  25.854   5.433   3.878
    1XTA   HL2421249  25.879   5.574   3.769
    1XTA   HL2521250  26.034   5.308   3.787
    1XTA   HL2621251  26.030   5.392   3.647
    1XTA   HL2721252  26.100   5.549   3.902
    1XTA   HL2821253  26.235   5.473   3.813
    1XTA   HL2921254  26.189   5.629   3.618
    1XTA   HL3021255  26.055   5.684   3.707
    1XTA   HL3121256  26.199   5.762   3.892
    1XTA   HL3221257  26.332   5.710   3.796
    1XTA   HL3321258  26.165   5.933   3.677
    1XTA   HL3421259  26.305   5.956   3.767
    1XTA   HL3521260  26.436   6.001   3.578
    1XTA   HL3621261  26.290   5.999   3.461
    1XTA   HL3721262  26.417   5.992   3.225
    1XTA   HL3821263  26.592   5.953   3.224
    1XTA   HL3921264  26.626   6.146   3.394
    1XTA   HL4021265  26.451   6.191   3.395
    1XTA   HL4121266  26.559   6.211   3.252
    1XTA    CO821267  24.146   4.936   3.733
    1XTA    CO921268  24.126   5.064   3.528
    1XTA    OA621269  24.229   4.867   3.695
    1XTA   HL4221270  24.061   4.880   3.695
    1XTA   HL4321271  24.138   4.938   3.846
    1XTA   HL4421272  26.350   5.759   3.281
    1XTA   HL4521273  26.413   5.671   3.459
    1XTA   CO1021274  26.442   5.755   3.345
    1XTA   CO1121275  26.615   5.865   3.472
    1XTA    OA721276  26.663   5.936   3.541
    1XTA   HL4621277  26.611   5.773   3.525
    1XTA   HL4721278  26.689   5.852   3.386
    1XTA   HL4821279  24.152   5.184   3.458
    1XTA   HL4921280  24.181   4.990   3.477
    1XTA     NT21281  25.701   3.957   0.635
    1XTA    CN121282  25.737   4.054   0.723
    1XTA     C121283  25.629   4.134   0.771
    1XTA     C221284  25.646   4.238   0.867
    1XTA     C321285  25.776   4.251   0.924
    1XTA     C421286  25.882   4.164   0.887
    1XTA     C521287  25.863   4.065   0.786
    1XTA    CN221288  25.649   3.838   0.689
    1XTA     C621289  25.738   3.739   0.734
    1XTA     C721290  25.688   3.616   0.781
    1XTA     C821291  25.546   3.595   0.775
    1XTA     C921292  25.453   3.693   0.727
    1XTA    C1021293  25.512   3.816   0.687
    1XTA    CN321294  25.749   3.958   0.508
    1XTA    C1121295  25.877   4.005   0.480
    1XTA    C1221296  25.929   3.998   0.351
    1XTA    C1321297  25.848   3.953   0.247
    1XTA    C1421298  25.718   3.904   0.268
    1XTA    C1521299  25.670   3.897   0.404
    1XTA     H121300  25.529   4.116   0.735
    1XTA     H221301  25.565   4.305   0.903
    1XTA     H321302  25.976   4.181   0.937
    1XTA     H421303  25.952   3.999   0.764
    1XTA     H521304  25.847   3.765   0.735
    1XTA     H621305  25.760   3.555   0.828
    1XTA     H721306  25.356   3.669   0.730
    1XTA     H821307  25.455   3.897   0.648
    1XTA     H921308  25.938   4.041   0.562
    1XTA    H1021309  26.036   4.024   0.335
    1XTA    H1121310  25.648   3.871   0.194
    1XTA    H1221311  25.583   3.849   0.427
    1XTA    OA121312  25.801   4.337   1.034
    1XTA    CO121313  25.722   4.451   1.038
    1XTA    OA221314  25.483   3.484   0.813
    1XTA    CO221315  25.563   3.381   0.859
    1XTA    CL121316  25.478   3.266   0.916
    1XTA    CL221317  25.410   3.293   1.052
    1XTA    CL321318  25.332   3.422   1.049
    1XTA    CL421319  25.217   3.432   0.953
    1XTA    CO321320  25.177   3.581   0.937
    1XTA    OA321321  25.083   3.619   1.033
    1XTA    CO421322  25.137   3.697   1.142
    1XTA    CT121323  25.040   3.694   1.261
    1XTA    CL521324  24.931   3.803   1.240
    1XTA    CL621325  24.846   3.802   1.112
    1XTA    OA421326  25.890   3.948   0.118
    1XTA    CO521327  26.024   3.983   0.082
    1XTA    CL721328  26.043   4.145   0.076
    1XTA    CL821329  26.187   4.193   0.043
    1XTA    CL921330  26.292   4.175   0.158
    1XTA   CL1021331  26.303   4.303   0.248
    1XTA    CO621332  26.427   4.291   0.334
    1XTA    OA521333  26.447   4.155   0.383
    1XTA    CO721334  26.578   4.119   0.357
    1XTA    CT221335  26.612   3.981   0.393
    1XTA   CL1121336  26.745   3.961   0.333
    1XTA   CL1221337  26.863   4.036   0.397
    1XTA    HL121338  25.712   4.491   0.935
    1XTA    HL221339  25.617   4.427   1.070
    1XTA    HL321340  25.749   4.535   1.105
    1XTA    HL421341  25.642   3.342   0.791
    1XTA    HL521342  25.622   3.420   0.945
    1XTA    HL621343  25.547   3.173   0.938
    1XTA    HL721344  25.405   3.237   0.845
    1XTA    HL821345  25.489   3.310   1.123
    1XTA    HL921346  25.355   3.219   1.094
    1XTA   HL1021347  25.292   3.418   1.145
    1XTA   HL1121348  25.396   3.511   1.044
    1XTA   HL1221349  25.133   3.375   0.987
    1XTA   HL1321350  25.237   3.380   0.861
    1XTA   HL1421351  25.265   3.653   0.915
    1XTA   HL1521352  25.116   3.589   0.847
    1XTA   HL1621353  25.227   3.638   1.168
    1XTA   HL1721354  25.164   3.791   1.094
    1XTA   HL1821355  24.982   3.897   1.234
    1XTA   HL1921356  24.867   3.815   1.323
    1XTA   HL2021357  24.919   3.786   1.032
    1XTA   HL2121358  24.790   3.898   1.119
    1XTA   HL2221359  24.770   3.722   1.110
    1XTA   HL2321360  26.054   3.943  -0.015
    1XTA   HL2421361  26.097   3.936   0.151
    1XTA   HL2521362  25.971   4.185   0.006
    1XTA   HL2621363  26.008   4.181   0.169
    1XTA   HL2721364  26.221   4.151  -0.049
    1XTA   HL2821365  26.180   4.297   0.016
    1XTA   HL2921366  26.278   4.086   0.218
    1XTA   HL3021367  26.381   4.167   0.112
    1XTA   HL3121368  26.296   4.389   0.190
    1XTA   HL3221369  26.217   4.317   0.312
    1XTA   HL3321370  26.516   4.327   0.282
    1XTA   HL3421371  26.416   4.361   0.423
    1XTA   HL3521372  26.653   4.177   0.409
    1XTA   HL3621373  26.600   4.133   0.253
    1XTA   HL3721374  26.747   3.987   0.229
    1XTA   HL3821375  26.767   3.853   0.353
    1XTA   HL3921376  26.848   4.147   0.404
    1XTA   HL4021377  26.961   4.024   0.343
    1XTA   HL4121378  26.893   3.990   0.492
    1XTA    CO821379  25.128   3.721   1.389
    1XTA    CO921380  24.977   3.558   1.274
    1XTA    OA621381  25.178   3.820   1.377
    1XTA   HL4221382  25.202   3.651   1.409
    1XTA   HL4321383  25.064   3.718   1.477
    1XTA   HL4421384  26.375   3.929   0.339
    1XTA   HL4521385  26.515   3.784   0.370
    1XTA   CO1021386  26.511   3.881   0.326
    1XTA   CO1121387  26.611   3.969   0.545
    1XTA    OA721388  26.515   3.963   0.598
    1XTA   HL4621389  26.640   3.872   0.569
    1XTA   HL4721390  26.689   4.028   0.592
    1XTA   HL4821391  24.886   3.546   1.164
    1XTA   HL4921392  25.057   3.483   1.256
    1XTA     NT21393  25.272   2.019   2.909
    1XTA    CN121394  25.392   2.032   2.976
    1XTA     C121395  25.481   1.918   2.995
    1XTA     C221396  25.600   1.930   3.058
    1XTA     C321397  25.660   2.054   3.082
    1XTA     C421398  25.579   2.171   3.061
    1XTA     C521399  25.446   2.161   3.008
    1XTA    CN221400  25.257   1.963   2.788
    1XTA     C621401  25.141   1.891   2.758
    1XTA     C721402  25.121   1.844   2.628
    1XTA     C821403  25.226   1.854   2.527
    1XTA     C921404  25.348   1.908   2.565
    1XTA    C1021405  25.366   1.969   2.693
    1XTA    CN321406  25.167   2.070   2.976
    1XTA    C1121407  25.110   1.997   3.083
    1XTA    C1221408  24.988   2.039   3.139
    1XTA    C1321409  24.923   2.157   3.092
    1XTA    C1421410  24.992   2.235   2.999
    1XTA    C1521411  25.113   2.195   2.933
    1XTA     H121412  25.448   1.827   2.954
    1XTA     H221413  25.661   1.842   3.070
    1XTA     H321414  25.609   2.269   3.099
    1XTA     H421415  25.383   2.250   3.003
    1XTA     H521416  25.059   1.877   2.824
    1XTA     H621417  25.026   1.790   2.611
    1XTA     H721418  25.429   1.894   2.497
    1XTA     H821419  25.460   2.021   2.713
    1XTA     H921420  25.163   1.901   3.103
    1XTA    H1021421  24.936   1.977   3.203
    1XTA    H1121422  24.946   2.332   2.976
    1XTA    H1221423  25.156   2.258   2.853
    1XTA    OA121424  25.790   2.052   3.136
    1XTA    CO121425  25.847   2.176   3.140
    1XTA    OA221426  25.217   1.801   2.402
    1XTA    CO221427  25.095   1.744   2.359
    1XTA    CL121428  25.003   1.839   2.287
    1XTA    CL221429  24.888   1.763   2.215
    1XTA    CL321430  24.799   1.846   2.124
    1XTA    CL421431  24.748   1.971   2.198
    1XTA    CO321432  24.609   2.013   2.135
    1XTA    OA321433  24.572   2.142   2.160
    1XTA    CO421434  24.539   2.167   2.295
    1XTA    CT121435  24.517   2.321   2.310
    1XTA    CL521436  24.398   2.360   2.226
    1XTA    CL621437  24.348   2.510   2.257
    1XTA    OA421438  24.797   2.199   3.126
    1XTA    CO521439  24.739   2.123   3.234
    1XTA    CL721440  24.602   2.173   3.272
    1XTA    CL821441  24.497   2.137   3.167
    1XTA    CL921442  24.442   1.997   3.186
    1XTA   CL1021443  24.336   1.966   3.075
    1XTA    CO621444  24.253   1.842   3.083
    1XTA    OA521445  24.330   1.720   3.086
    1XTA    CO721446  24.250   1.600   3.089
    1XTA    CT221447  24.342   1.475   3.086
    1XTA   CL1121448  24.396   1.436   3.232
    1XTA   CL1221449  24.499   1.539   3.287
    1XTA    HL121450  25.951   2.160   3.175
    1XTA    HL221451  25.845   2.217   3.039
    1XTA    HL321452  25.798   2.251   3.205
    1XTA    HL421453  25.131   1.661   2.300
    1XTA    HL521454  25.042   1.687   2.436
    1XTA    HL621455  25.058   1.907   2.218
    1XTA    HL721456  24.970   1.907   2.369
    1XTA    HL821457  24.821   1.705   2.280
    1XTA    HL921458  24.934   1.685   2.149
    1XTA   HL1021459  24.855   1.883   2.044
    1XTA   HL1121460  24.725   1.784   2.075
    1XTA   HL1221461  24.820   2.050   2.186
    1XTA   HL1321462  24.728   1.951   2.304
    1XTA   HL1421463  24.623   1.987   2.028
    1XTA   HL1521464  24.539   1.941   2.175
    1XTA   HL1621465  24.447   2.118   2.317
    1XTA   HL1721466  24.616   2.136   2.369
    1XTA   HL1821467  24.312   2.297   2.253
    1XTA   HL1921468  24.412   2.339   2.119
    1XTA   HL2021469  24.430   2.581   2.264
    1XTA   HL2121470  24.281   2.501   2.348
    1XTA   HL2221471  24.277   2.549   2.179
    1XTA   HL2321472  24.793   2.134   3.332
    1XTA   HL2421473  24.735   2.016   3.205
    1XTA   HL2521474  24.577   2.134   3.378
    1XTA   HL2621475  24.596   2.283   3.271
    1XTA   HL2721476  24.414   2.207   3.185
    1XTA   HL2821477  24.539   2.159   3.068
    1XTA   HL2921478  24.524   1.924   3.182
    1XTA   HL3021479  24.406   1.981   3.289
    1XTA   HL3121480  24.267   2.052   3.070
    1XTA   HL3221481  24.385   1.964   2.973
    1XTA   HL3321482  24.194   1.824   3.171
    1XTA   HL3421483  24.194   1.841   2.993
    1XTA   HL3521484  24.185   1.606   3.004
    1XTA   HL3621485  24.179   1.595   3.178
    1XTA   HL3721486  24.440   1.343   3.217
    1XTA   HL3821487  24.314   1.414   3.299
    1XTA   HL3921488  24.532   1.501   3.382
    1XTA   HL4021489  24.455   1.635   3.294
    1XTA   HL4121490  24.579   1.551   3.220
    1XTA    CO821491  24.647   2.390   2.276
    1XTA    CO921492  24.490   2.349   2.461
    1XTA    OA621493  24.390   2.325   2.492
    1XTA   HL4221494  24.673   2.367   2.174
    1XTA   HL4321495  24.639   2.528   2.288
    1XTA   HL4421496  24.427   1.554   2.910
    1XTA   HL4521497  24.536   1.474   3.006
    1XTA   CO1021498  24.435   1.475   2.984
    1XTA   CO1121499  24.277   1.349   3.030
    1XTA    OA721500  24.406   1.374   2.951
    1XTA   HL4621501  24.275   1.235   3.113
    1XTA   HL4721502  24.182   1.360   2.977
    1XTA   HL4821503  24.517   2.455   2.482
    1XTA   HL4921504  24.562   2.292   2.513
    1XTA     NT21505  28.199   4.270   1.333
    1XTA    CN121506  28.240   4.206   1.438
    1XTA     C121507  28.381   4.192   1.466
    1XTA     C221508  28.423   4.122   1.582
    1XTA     C321509  28.329   4.073   1.672
    1XTA     C421510  28.193   4.087   1.644
    1XTA     C521511  28.153   4.157   1.528
    1XTA    CN221512  28.189   4.208   1.212
    1XTA     C621513  28.083   4.116   1.188
    1XTA     C721514  28.079   4.051   1.066
    1XTA     C821515  28.158   4.090   0.958
    1XTA     C921516  28.260   4.183   0.983
    1XTA    C1021517  28.275   4.246   1.104
    1XTA    CN321518  28.138   4.396   1.356
    1XTA    C1121519  28.211   4.508   1.412
    1XTA    C1221520  28.146   4.640   1.418
    1XTA    C1321521  28.023   4.662   1.365
    1XTA    C1421522  27.955   4.555   1.311
    1XTA    C1521523  28.009   4.428   1.302
    1XTA     H121524  28.455   4.217   1.393
    1XTA     H221525  28.525   4.108   1.599
    1XTA     H321526  28.117   4.045   1.715
    1XTA     H421527  28.045   4.171   1.506
    1XTA     H521528  28.005   4.094   1.265
    1XTA     H621529  28.003   3.980   1.041
    1XTA     H721530  28.317   4.213   0.895
    1XTA     H821531  28.351   4.315   1.128
    1XTA     H921532  28.312   4.501   1.447
    1XTA    H1021533  28.207   4.718   1.448
    1XTA    H1121534  27.856   4.569   1.259
    1XTA    H1221535  27.956   4.350   1.262
    1XTA    OA121536  28.386   4.012   1.778
    1XTA    CO121537  28.298   3.956   1.868
    1XTA    OA221538  28.145   4.055   0.825
    1XTA    CO221539  28.022   4.080   0.761
    1XTA    CL121540  27.922   3.952   0.750
    1XTA    CL221541  27.990   3.841   0.675
    1XTA    CL321542  27.961   3.846   0.528
    1XTA    CL421543  28.052   3.744   0.448
    1XTA    CO321544  28.034   3.755   0.302
    1XTA    OA321545  28.082   3.881   0.258
    1XTA    CO421546  28.128   3.874   0.126
    1XTA    CT121547  28.243   3.975   0.099
    1XTA    CL521548  28.353   3.967   0.216
    1XTA    CL621549  28.392   3.830   0.263
    1XTA    OA421550  27.975   4.790   1.347
    1XTA    CO521551  27.889   4.817   1.237
    1XTA    CL721552  27.857   4.964   1.232
    1XTA    CL821553  27.753   4.982   1.119
    1XTA    CL921554  27.665   5.110   1.126
    1XTA   CL1021555  27.558   5.124   1.012
    1XTA    CO621556  27.454   5.010   1.023
    1XTA    OA521557  27.361   5.023   0.916
    1XTA    CO721558  27.253   4.932   0.923
    1XTA    CT221559  27.128   5.001   0.870
    1XTA   CL1121560  26.999   4.939   0.911
    1XTA   CL1221561  26.876   5.034   0.915
    1XTA    HL121562  28.256   3.857   1.839
    1XTA    HL221563  28.345   3.933   1.959
    1XTA    HL321564  28.225   4.024   1.892
    1XTA    HL421565  27.970   4.160   0.811
    1XTA    HL521566  28.063   4.107   0.662
    1XTA    HL621567  27.835   3.991   0.712
    1XTA    HL721568  27.900   3.921   0.856
    1XTA    HL821569  27.963   3.743   0.711
    1XTA    HL921570  28.099   3.844   0.690
    1XTA   HL1021571  27.861   3.831   0.510
    1XTA   HL1121572  27.987   3.941   0.486
    1XTA   HL1221573  28.030   3.648   0.483
    1XTA   HL1321574  28.153   3.763   0.478
    1XTA   HL1421575  28.077   3.665   0.248
    1XTA   HL1521576  27.924   3.759   0.289
    1XTA   HL1621577  28.157   3.777   0.090
    1XTA   HL1721578  28.042   3.905   0.060
    1XTA   HL1821579  28.315   4.023   0.309
    1XTA   HL1921580  28.442   4.025   0.181
    1XTA   HL2021581  28.490   3.841   0.319
    1XTA   HL2121582  28.408   3.758   0.181
    1XTA   HL2221583  28.325   3.787   0.344
    1XTA   HL2321584  27.795   4.759   1.249
    1XTA   HL2421585  27.937   4.787   1.148
    1XTA   HL2521586  27.805   4.993   1.318
    1XTA   HL2621587  27.948   5.024   1.218
    1XTA   HL2721588  27.789   4.982   1.017
    1XTA   HL2821589  27.684   4.892   1.130
    1XTA   HL2921590  27.625   5.116   1.224
    1XTA   HL3021591  27.736   5.189   1.122
    1XTA   HL3121592  27.516   5.224   1.020
    1XTA   HL3221593  27.606   5.113   0.911
    1XTA   HL3321594  27.473   4.901   1.019
    1XTA   HL3421595  27.403   5.022   1.123
    1XTA   HL3521596  27.239   4.886   1.018
    1XTA   HL3621597  27.277   4.854   0.853
    1XTA   HL3721598  27.006   4.892   1.012
    1XTA   HL3821599  26.977   4.844   0.860
    1XTA   HL3921600  26.877   5.112   0.977
    1XTA   HL4021601  26.786   4.982   0.937
    1XTA   HL4121602  26.857   5.073   0.813
    1XTA    CO821603  28.192   4.116   0.088
    1XTA    CO921604  28.311   3.941  -0.043
    1XTA    OA621605  28.414   4.029  -0.064
    1XTA   HL4221606  28.191   4.139  -0.015
    1XTA   HL4321607  28.086   4.118   0.109
    1XTA   HL4421608  27.044   5.065   0.691
    1XTA   HL4521609  27.214   5.059   0.682
    1XTA   CO1021610  27.130   5.008   0.719
    1XTA   CO1121611  27.124   5.150   0.923
    1XTA    OA721612  27.126   4.878   0.668
    1XTA   HL4621613  27.037   5.214   0.884
    1XTA   HL4721614  27.212   5.196   0.887
    1XTA   HL4821615  28.243   3.936  -0.130
    1XTA   HL4921616  28.338   3.840  -0.030
    1XTA     NT21617  27.933   0.354  -1.416
    1XTA    CN121618  27.961   0.477  -1.370
    1XTA     C121619  28.065   0.511  -1.286
    1XTA     C221620  28.103   0.645  -1.268
    1XTA     C321621  28.036   0.757  -1.327
    1XTA     C421622  27.923   0.720  -1.398
    1XTA     C521623  27.883   0.586  -1.418
    1XTA    CN221624  27.847   0.283  -1.343
    1XTA     C621625  27.720   0.265  -1.396
    1XTA     C721626  27.620   0.208  -1.311
    1XTA     C821627  27.653   0.155  -1.186
    1XTA     C921628  27.791   0.150  -1.142
    1XTA    C1021629  27.881   0.221  -1.218
    1XTA    CN321630  28.012   0.293  -1.510
    1XTA    C1121631  27.970   0.269  -1.639
    1XTA    C1221632  28.048   0.198  -1.732
    1XTA    C1321633  28.179   0.163  -1.699
    1XTA    C1421634  28.226   0.180  -1.568
    1XTA    C1521635  28.141   0.244  -1.479
    1XTA     H121636  28.135   0.442  -1.240
    1XTA     H221637  28.197   0.657  -1.223
    1XTA     H321638  27.863   0.803  -1.439
    1XTA     H421639  27.793   0.584  -1.473
    1XTA     H521640  27.695   0.304  -1.491
    1XTA     H621641  27.520   0.199  -1.365
    1XTA     H721642  27.819   0.105  -1.051
    1XTA     H821643  27.976   0.238  -1.175
    1XTA     H921644  27.880   0.311  -1.685
    1XTA    H1021645  28.019   0.175  -1.832
    1XTA    H1121646  28.325   0.142  -1.534
    1XTA    H1221647  28.175   0.259  -1.380
    1XTA    OA121648  28.090   0.883  -1.325
    1XTA    CO121649  28.027   0.992  -1.389
    1XTA    OA221650  27.569   0.072  -1.112
    1XTA    CO221651  27.435   0.110  -1.099
    1XTA    CL121652  27.379   0.016  -0.992
    1XTA    CL221653  27.228   0.019  -0.979
    1XTA    CL321654  27.142  -0.007  -1.105
    1XTA    CL421655  27.157  -0.149  -1.162
    1XTA    CO321656  27.086  -0.159  -1.295
    1XTA    OA321657  27.155  -0.066  -1.386
    1XTA    CO421658  27.060   0.004  -1.462
    1XTA    CT121659  27.125   0.085  -1.574
    1XTA    CL521660  27.024   0.171  -1.654
    1XTA    CL621661  26.917   0.249  -1.590
    1XTA    OA421662  28.248   0.116  -1.805
    1XTA    CO521663  28.372   0.052  -1.781
    1XTA    CL721664  28.341  -0.091  -1.736
    1XTA    CL821665  28.230  -0.158  -1.819
    1XTA    CL921666  28.211  -0.305  -1.781
    1XTA   CL1021667  28.300  -0.403  -1.859
    1XTA    CO621668  28.257  -0.551  -1.841
    1XTA    OA521669  28.127  -0.589  -1.894
    1XTA    CO721670  28.123  -0.591  -2.040
    1XTA    CT221671  27.981  -0.630  -2.084
    1XTA   CL1121672  27.961  -0.775  -2.028
    1XTA   CL1221673  27.824  -0.825  -2.064
    1XTA    HL121674  27.991   0.972  -1.492
    1XTA    HL221675  27.934   1.023  -1.342
    1XTA    HL321676  28.092   1.078  -1.401
    1XTA    HL421677  27.425   0.210  -1.058
    1XTA    HL521678  27.373   0.106  -1.190
    1XTA    HL621679  27.417   0.029  -0.890
    1XTA    HL721680  27.395  -0.081  -1.030
    1XTA    HL821681  27.191   0.109  -0.929
    1XTA    HL921682  27.199  -0.049  -0.901
    1XTA   HL1021683  27.034   0.002  -1.084
    1XTA   HL1121684  27.167   0.068  -1.180
    1XTA   HL1221685  27.115  -0.232  -1.100
    1XTA   HL1321686  27.259  -0.178  -1.186
    1XTA   HL1421687  27.087  -0.254  -1.338
    1XTA   HL1521688  26.987  -0.131  -1.276
    1XTA   HL1621689  26.985  -0.064  -1.512
    1XTA   HL1721690  27.003   0.071  -1.392
    1XTA   HL1821691  26.974   0.101  -1.723
    1XTA   HL1921692  27.084   0.231  -1.723
    1XTA   HL2021693  26.840   0.185  -1.541
    1XTA   HL2121694  26.876   0.315  -1.665
    1XTA   HL2221695  26.966   0.308  -1.519
    1XTA   HL2321696  28.425   0.119  -1.712
    1XTA   HL2421697  28.436   0.042  -1.871
    1XTA   HL2521698  28.424  -0.161  -1.729
    1XTA   HL2621699  28.304  -0.091  -1.629
    1XTA   HL2721700  28.134  -0.101  -1.801
    1XTA   HL2821701  28.262  -0.153  -1.925
    1XTA   HL2921702  28.223  -0.325  -1.676
    1XTA   HL3021703  28.107  -0.329  -1.807
    1XTA   HL3121704  28.304  -0.389  -1.965
    1XTA   HL3221705  28.407  -0.392  -1.826
    1XTA   HL3321706  28.332  -0.617  -1.890
    1XTA   HL3421707  28.259  -0.585  -1.736
    1XTA   HL3521708  28.203  -0.647  -2.088
    1XTA   HL3621709  28.143  -0.493  -2.071
    1XTA   HL3721710  27.972  -0.783  -1.921
    1XTA   HL3821711  28.035  -0.843  -2.072
    1XTA   HL3921712  27.812  -0.933  -2.072
    1XTA   HL4021713  27.797  -0.780  -2.161
    1XTA   HL4121714  27.754  -0.784  -1.989
    1XTA    CO821715  27.193  -0.012  -1.674
    1XTA    CO921716  27.245   0.167  -1.524
    1XTA    OA621717  27.226   0.251  -1.450
    1XTA   HL4221718  27.111  -0.086  -1.698
    1XTA   HL4321719  27.215   0.053  -1.792
    1XTA   HL4421720  27.890  -0.641  -2.287
    1XTA   HL4521721  28.013  -0.519  -2.267
    1XTA   CO1021722  27.980  -0.625  -2.239
    1XTA   CO1121723  27.888  -0.519  -2.021
    1XTA    OA721724  28.073  -0.711  -2.291
    1XTA   HL4621725  27.783  -0.546  -2.034
    1XTA   HL4721726  27.908  -0.504  -1.915
    1XTA   HL4821727  27.302   0.200  -1.611
    1XTA   HL4921728  27.309   0.101  -1.465
    1XTA     NT21729  26.509  -1.472   2.157
    1XTA    CN121730  26.542  -1.540   2.270
    1XTA     C121731  26.513  -1.675   2.290
    1XTA     C221732  26.549  -1.738   2.413
    1XTA     C321733  26.637  -1.675   2.506
    1XTA     C421734  26.671  -1.538   2.486
    1XTA     C521735  26.622  -1.477   2.373
    1XTA    CN221736  26.602  -1.435   2.066
    1XTA     C621737  26.651  -1.532   1.976
    1XTA     C721738  26.751  -1.494   1.882
    1XTA     C821739  26.808  -1.368   1.887
    1XTA     C921740  26.760  -1.269   1.971
    1XTA    C1021741  26.658  -1.307   2.060
    1XTA    CN321742  26.382  -1.427   2.142
    1XTA    C1121743  26.300  -1.475   2.037
    1XTA    C1221744  26.171  -1.430   2.026
    1XTA    C1321745  26.109  -1.336   2.111
    1XTA    C1421746  26.195  -1.279   2.211
    1XTA    C1521747  26.328  -1.327   2.228
    1XTA     H121748  26.461  -1.738   2.221
    1XTA     H221749  26.524  -1.841   2.426
    1XTA     H321750  26.731  -1.478   2.551
    1XTA     H421751  26.643  -1.371   2.354
    1XTA     H521752  26.618  -1.634   1.983
    1XTA     H621753  26.798  -1.562   1.814
    1XTA     H721754  26.821  -1.181   1.972
    1XTA     H821755  26.611  -1.227   2.129
    1XTA     H921756  26.330  -1.558   1.980
    1XTA    H1021757  26.118  -1.480   1.946
    1XTA    H1121758  26.144  -1.216   2.278
    1XTA    H1221759  26.391  -1.283   2.306
    1XTA    OA121760  26.671  -1.741   2.620
    1XTA    CO121761  26.802  -1.712   2.669
    1XTA    OA221762  26.907  -1.321   1.803
    1XTA    CO221763  27.012  -1.421   1.771
    1XTA    CL121764  27.151  -1.358   1.745
    1XTA    CL221765  27.269  -1.458   1.726
    1XTA    CL321766  27.397  -1.415   1.782
    1XTA    CL421767  27.394  -1.446   1.934
    1XTA    CO321768  27.517  -1.385   2.006
    1XTA    OA321769  27.483  -1.248   1.996
    1XTA    CO421770  27.573  -1.165   2.067
    1XTA    CT121771  27.549  -1.025   2.012
    1XTA    CL521772  27.655  -0.932   2.075
    1XTA    CL621773  27.649  -0.775   2.045
    1XTA    OA421774  25.986  -1.277   2.084
    1XTA    CO521775  25.920  -1.328   1.975
    1XTA    CL721776  25.804  -1.233   1.937
    1XTA    CL821777  25.733  -1.188   2.059
    1XTA    CL921778  25.664  -1.295   2.138
    1XTA   CL1021779  25.599  -1.239   2.268
    1XTA    CO621780  25.505  -1.329   2.348
    1XTA    OA521781  25.398  -1.364   2.268
    1XTA    CO721782  25.308  -1.451   2.336
    1XTA    CT221783  25.181  -1.464   2.250
    1XTA   CL1121784  25.196  -1.549   2.124
    1XTA   CL1221785  25.328  -1.531   2.049
    1XTA    HL121786  26.796  -1.612   2.710
    1XTA    HL221787  26.842  -1.768   2.753
    1XTA    HL321788  26.872  -1.705   2.590
    1XTA    HL421789  27.029  -1.481   1.864
    1XTA    HL521790  26.976  -1.487   1.693
    1XTA    HL621791  27.174  -1.287   1.824
    1XTA    HL721792  27.154  -1.305   1.654
    1XTA    HL821793  27.296  -1.479   1.628
    1XTA    HL921794  27.242  -1.559   1.760
    1XTA   HL1021795  27.461  -1.487   1.738
    1XTA   HL1121796  27.420  -1.313   1.754
    1XTA   HL1221797  27.396  -1.553   1.954
    1XTA   HL1321798  27.313  -1.398   1.980
    1XTA   HL1421799  27.509  -1.425   2.107
    1XTA   HL1521800  27.604  -1.423   1.944
    1XTA   HL1621801  27.538  -1.176   2.171
    1XTA   HL1721802  27.678  -1.197   2.064
    1XTA   HL1821803  27.751  -0.966   2.042
    1XTA   HL1921804  27.674  -0.948   2.188
    1XTA   HL2021805  27.574  -0.711   2.088
    1XTA   HL2121806  27.659  -0.754   1.937
    1XTA   HL2221807  27.740  -0.730   2.099
    1XTA   HL2321808  25.883  -1.430   1.997
    1XTA   HL2421809  25.985  -1.346   1.889
    1XTA   HL2521810  25.854  -1.157   1.875
    1XTA   HL2621811  25.744  -1.290   1.866
    1XTA   HL2721812  25.806  -1.127   2.115
    1XTA   HL2821813  25.660  -1.114   2.037
    1XTA   HL2921814  25.595  -1.354   2.079
    1XTA   HL3021815  25.736  -1.370   2.169
    1XTA   HL3121816  25.678  -1.207   2.329
    1XTA   HL3221817  25.552  -1.144   2.240
    1XTA   HL3321818  25.560  -1.421   2.385
    1XTA   HL3421819  25.473  -1.279   2.437
    1XTA   HL3521820  25.291  -1.419   2.443
    1XTA   HL3621821  25.352  -1.551   2.337
    1XTA   HL3721822  25.111  -1.524   2.052
    1XTA   HL3821823  25.186  -1.653   2.145
    1XTA   HL3921824  25.353  -1.420   2.038
    1XTA   HL4021825  25.329  -1.570   1.942
    1XTA   HL4121826  25.404  -1.581   2.112
    1XTA    CO821827  27.401  -0.977   2.048
    1XTA    CO921828  27.575  -1.034   1.853
    1XTA    OA621829  27.386  -0.952   2.155
    1XTA   HL4221830  27.325  -1.051   2.014
    1XTA   HL4321831  27.382  -0.880   1.984
    1XTA   HL4421832  25.175  -1.261   2.265
    1XTA   HL4521833  25.080  -1.318   2.137
    1XTA   CO1021834  25.110  -1.341   2.230
    1XTA   CO1121835  25.055  -1.510   2.332
    1XTA    OA721836  25.018  -1.367   2.297
    1XTA   HL4621837  24.969  -1.608   2.276
    1XTA   HL4721838  25.079  -1.531   2.432
    1XTA   HL4821839  27.569  -0.902   1.804
    1XTA   HL4921840  27.492  -1.083   1.803
    1XTA     NT21841  28.191  -2.636   2.488
    1XTA    CN121842  28.170  -2.555   2.599
    1XTA     C121843  28.043  -2.541   2.667
    1XTA     C221844  28.023  -2.456   2.778
    1XTA     C321845  28.138  -2.398   2.835
    1XTA     C421846  28.264  -2.409   2.766
    1XTA     C521847  28.282  -2.490   2.653
    1XTA    CN221848  28.192  -2.576   2.365
    1XTA     C621849  28.298  -2.592   2.277
    1XTA     C721850  28.292  -2.524   2.150
    1XTA     C821851  28.173  -2.452   2.116
    1XTA     C921852  28.066  -2.444   2.203
    1XTA    C1021853  28.074  -2.504   2.328
    1XTA    CN321854  28.162  -2.767   2.505
    1XTA    C1121855  28.262  -2.854   2.547
    1XTA    C1221856  28.235  -2.991   2.559
    1XTA    C1321857  28.115  -3.048   2.514
    1XTA    C1421858  28.018  -2.958   2.468
    1XTA    C1521859  28.036  -2.820   2.464
    1XTA     H121860  27.958  -2.591   2.630
    1XTA     H221861  27.936  -2.458   2.833
    1XTA     H321862  28.352  -2.353   2.803
    1XTA     H421863  28.372  -2.517   2.606
    1XTA     H521864  28.385  -2.654   2.305
    1XTA     H621865  28.371  -2.541   2.085
    1XTA     H721866  27.986  -2.385   2.176
    1XTA     H821867  27.989  -2.499   2.393
    1XTA     H921868  28.357  -2.804   2.577
    1XTA    H1021869  28.302  -3.062   2.601
    1XTA    H1121870  27.923  -2.998   2.448
    1XTA    H1221871  27.961  -2.747   2.434
    1XTA    OA121872  28.140  -2.326   2.950
    1XTA    CO121873  28.004  -2.277   2.998
    1XTA    OA221874  28.160  -2.368   2.004
    1XTA    CO221875  28.279  -2.365   1.929
    1XTA    CL121876  28.250  -2.270   1.820
    1XTA    CL221877  28.358  -2.276   1.711
    1XTA    CL321878  28.347  -2.159   1.610
    1XTA    CL421879  28.470  -2.157   1.514
    1XTA    CO321880  28.484  -2.039   1.418
    1XTA    OA321881  28.514  -1.923   1.489
    1XTA    CO421882  28.472  -1.798   1.427
    1XTA    CT121883  28.512  -1.675   1.505
    1XTA    CL521884  28.659  -1.636   1.502
    1XTA    CL621885  28.762  -1.748   1.548
    1XTA    OA421886  28.086  -3.184   2.518
    1XTA    CO521887  28.195  -3.281   2.521
    1XTA    CL721888  28.295  -3.267   2.395
    1XTA    CL821889  28.384  -3.388   2.380
    1XTA    CL921890  28.481  -3.366   2.265
    1XTA   CL1021891  28.595  -3.470   2.255
    1XTA    CO621892  28.710  -3.449   2.359
    1XTA    OA521893  28.804  -3.379   2.288
    1XTA    CO721894  28.803  -3.241   2.307
    1XTA    CT221895  28.910  -3.188   2.212
    1XTA   CL1121896  28.886  -3.235   2.062
    1XTA   CL1221897  28.753  -3.183   1.999
    1XTA    HL121898  27.941  -2.239   2.917
    1XTA    HL221899  27.947  -2.354   3.048
    1XTA    HL321900  28.034  -2.200   3.063
    1XTA    HL421901  28.375  -2.346   1.982
    1XTA    HL521902  28.293  -2.468   1.887
    1XTA    HL621903  28.226  -2.168   1.857
    1XTA    HL721904  28.154  -2.312   1.775
    1XTA    HL821905  28.348  -2.370   1.657
    1XTA    HL921906  28.463  -2.271   1.756
    1XTA   HL1021907  28.256  -2.157   1.552
    1XTA   HL1121908  28.358  -2.064   1.661
    1XTA   HL1221909  28.474  -2.260   1.462
    1XTA   HL1321910  28.558  -2.151   1.577
    1XTA   HL1421911  28.572  -2.050   1.352
    1XTA   HL1521912  28.386  -2.027   1.371
    1XTA   HL1621913  28.512  -1.794   1.328
    1XTA   HL1721914  28.365  -1.800   1.414
    1XTA   HL1821915  28.670  -1.543   1.563
    1XTA   HL1921916  28.674  -1.615   1.394
    1XTA   HL2021917  28.756  -1.801   1.644
    1XTA   HL2121918  28.870  -1.712   1.545
    1XTA   HL2221919  28.762  -1.822   1.463
    1XTA   HL2321920  28.151  -3.380   2.517
    1XTA   HL2421921  28.260  -3.267   2.607
    1XTA   HL2521922  28.250  -3.253   2.298
    1XTA   HL2621923  28.361  -3.181   2.416
    1XTA   HL2721924  28.444  -3.420   2.469
    1XTA   HL2821925  28.315  -3.468   2.350
    1XTA   HL2921926  28.419  -3.369   2.176
    1XTA   HL3021927  28.502  -3.260   2.260
    1XTA   HL3121928  28.552  -3.572   2.275
    1XTA   HL3221929  28.630  -3.483   2.153
    1XTA   HL3321930  28.682  -3.401   2.453
    1XTA   HL3421931  28.749  -3.547   2.392
    1XTA   HL3521932  28.814  -3.211   2.412
    1XTA   HL3621933  28.710  -3.205   2.276
    1XTA   HL3721934  28.878  -3.340   2.059
    1XTA   HL3821935  28.965  -3.204   1.996
    1XTA   HL3921936  28.760  -3.075   1.989
    1XTA   HL4021937  28.659  -3.201   2.056
    1XTA   HL4121938  28.734  -3.221   1.901
    1XTA    CO821939  28.460  -1.689   1.648
    1XTA    CO921940  28.436  -1.560   1.441
    1XTA    OA621941  28.315  -1.683   1.674
    1XTA   HL4221942  28.496  -1.605   1.705
    1XTA   HL4321943  28.492  -1.781   1.696
    1XTA   HL4421944  29.034  -3.258   2.359
    1XTA   HL4521945  29.113  -3.245   2.192
    1XTA   CO1021946  29.040  -3.198   2.265
    1XTA   CO1121947  28.930  -3.046   2.216
    1XTA    OA721948  29.066  -3.091   2.271
    1XTA   HL4621949  28.923  -2.986   2.094
    1XTA   HL4721950  28.880  -2.986   2.293
    1XTA   HL4821951  28.435  -1.572   1.326
    1XTA   HL4921952  28.335  -1.549   1.472
    1XTA     NT21953  27.822  -0.647   5.198
    1XTA    CN121954  27.707  -0.588   5.236
    1XTA     C121955  27.629  -0.512   5.143
    1XTA     C221956  27.511  -0.456   5.178
    1XTA     C321957  27.465  -0.472   5.312
    1XTA     C421958  27.542  -0.542   5.407
    1XTA     C521959  27.664  -0.601   5.367
    1XTA    CN221960  27.813  -0.779   5.177
    1XTA     C621961  27.761  -0.815   5.055
    1XTA     C721962  27.744  -0.950   5.023
    1XTA     C821963  27.763  -1.049   5.125
    1XTA     C921964  27.826  -1.016   5.245
    1XTA    C1021965  27.858  -0.876   5.271
    1XTA    CN321966  27.943  -0.602   5.227
    1XTA    C1121967  27.968  -0.524   5.343
    1XTA    C1221968  28.094  -0.474   5.362
    1XTA    C1321969  28.198  -0.493   5.271
    1XTA    C1421970  28.180  -0.577   5.163
    1XTA    C1521971  28.053  -0.628   5.140
    1XTA     H121972  27.672  -0.498   5.049
    1XTA     H221973  27.468  -0.402   5.102
    1XTA     H321974  27.516  -0.568   5.511
    1XTA     H421975  27.727  -0.669   5.431
    1XTA     H521976  27.738  -0.729   4.990
    1XTA     H621977  27.693  -0.977   4.929
    1XTA     H721978  27.849  -1.100   5.306
    1XTA     H821979  27.891  -0.844   5.370
    1XTA     H921980  27.892  -0.506   5.419
    1XTA    H1021981  28.102  -0.414   5.452
    1XTA    H1121982  28.269  -0.588   5.099
    1XTA    H1221983  28.044  -0.704   5.063
    1XTA    OA121984  27.342  -0.419   5.355
    1XTA    CO121985  27.232  -0.415   5.263
    1XTA    OA221986  27.731  -1.180   5.089
    1XTA    CO221987  27.598  -1.195   5.067
    1XTA    CL121988  27.595  -1.316   4.973
    1XTA    CL221989  27.626  -1.265   4.836
    1XTA    CL321990  27.614  -1.375   4.723
    1XTA    CL421991  27.735  -1.478   4.737
    1XTA    CO321992  27.873  -1.420   4.705
    1XTA    OA321993  27.986  -1.496   4.739
    1XTA    CO421994  28.017  -1.493   4.879
    1XTA    CT121995  28.148  -1.572   4.915
    1XTA    CL521996  28.120  -1.722   4.902
    1XTA    CL621997  27.982  -1.770   4.940
    1XTA    OA421998  28.319  -0.442   5.299
    1XTA    CO521999  28.353  -0.404   5.429
    1XTA    CL722000  28.491  -0.346   5.441
    1XTA    CL822001  28.533  -0.317   5.592
    1XTA    CL922002  28.447  -0.209   5.645
    1XTA   CL1022003  28.523  -0.087   5.610
    1XTA    CO622004  28.435   0.046   5.612
    1XTA    OA522005  28.355   0.041   5.497
    1XTA    CO722006  28.233   0.112   5.508
    1XTA    CT222007  28.151   0.098   5.379
    1XTA   CL1122008  28.200   0.214   5.289
    1XTA   CL1222009  28.150   0.222   5.143
    1XTA    HL122010  27.253  -0.339   5.184
    1XTA    HL222011  27.227  -0.511   5.207
    1XTA    HL322012  27.135  -0.379   5.307
    1XTA    HL422013  27.537  -1.202   5.160
    1XTA    HL522014  27.555  -1.116   5.003
    1XTA    HL622015  27.498  -1.358   4.967
    1XTA    HL722016  27.652  -1.403   5.008
    1XTA    HL822017  27.719  -1.212   4.833
    1XTA    HL922018  27.558  -1.176   4.816
    1XTA   HL1022019  27.521  -1.435   4.735
    1XTA   HL1122020  27.614  -1.330   4.621
    1XTA   HL1222021  27.712  -1.563   4.674
    1XTA   HL1322022  27.739  -1.513   4.837
    1XTA   HL1422023  27.868  -1.421   4.596
    1XTA   HL1522024  27.880  -1.323   4.743
    1XTA   HL1622025  28.025  -1.384   4.896
    1XTA   HL1722026  27.927  -1.531   4.929
    1XTA   HL1822027  28.193  -1.790   4.946
    1XTA   HL1922028  28.127  -1.747   4.793
    1XTA   HL2022029  27.983  -1.880   4.920
    1XTA   HL2122030  27.900  -1.735   4.877
    1XTA   HL2222031  27.966  -1.764   5.045
    1XTA   HL2322032  28.355  -0.476   5.502
    1XTA   HL2422033  28.279  -0.331   5.461
    1XTA   HL2522034  28.551  -0.426   5.406
    1XTA   HL2622035  28.503  -0.263   5.374
    1XTA   HL2722036  28.530  -0.412   5.646
    1XTA   HL2822037  28.632  -0.293   5.575
    1XTA   HL2922038  28.345  -0.206   5.604
    1XTA   HL3022039  28.447  -0.218   5.755
    1XTA   HL3122040  28.602  -0.066   5.668
    1XTA   HL3222041  28.564  -0.090   5.509
    1XTA   HL3322042  28.358   0.052   5.697
    1XTA   HL3422043  28.494   0.140   5.608
    1XTA   HL3522044  28.268   0.210   5.530
    1XTA   HL3622045  28.183   0.081   5.602
    1XTA   HL3722046  28.305   0.204   5.287
    1XTA   HL3822047  28.189   0.312   5.341
    1XTA   HL3922048  28.192   0.146   5.083
    1XTA   HL4022049  28.174   0.326   5.103
    1XTA   HL4122050  28.042   0.218   5.148
    1XTA    CO822051  28.171  -1.529   5.062
    1XTA    CO922052  28.269  -1.539   4.828
    1XTA    OA622053  28.380  -1.630   4.828
    1XTA   HL4222054  28.110  -1.596   5.126
    1XTA   HL4322055  28.264  -1.570   5.093
    1XTA   HL4422056  27.953   0.047   5.463
    1XTA   HL4522057  27.947   0.121   5.304
    1XTA   CO1022058  27.997   0.124   5.397
    1XTA   CO1122059  28.158  -0.040   5.324
    1XTA    OA722060  28.072  -0.052   5.212
    1XTA   HL4622061  28.264  -0.076   5.306
    1XTA   HL4722062  28.122  -0.107   5.401
    1XTA   HL4822063  28.312  -1.444   4.852
    1XTA   HL4922064  28.240  -1.537   4.724
    1XTA     NT22065  28.101  -1.597   0.506
    1XTA    CN122066  28.180  -1.495   0.471
    1XTA     C122067  28.220  -1.404   0.572
    1XTA     C222068  28.309  -1.300   0.533
    1XTA     C322069  28.336  -1.279   0.395
    1XTA     C422070  28.276  -1.355   0.296
    1XTA     C522071  28.208  -1.470   0.334
    1XTA    CN222072  28.161  -1.709   0.542
    1XTA     C622073  28.163  -1.743   0.677
    1XTA     C722074  28.241  -1.853   0.721
    1XTA     C822075  28.289  -1.944   0.621
    1XTA     C922076  28.278  -1.912   0.482
    1XTA    C1022077  28.223  -1.790   0.441
    1XTA    CN322078  27.969  -1.600   0.490
    1XTA    C1122079  27.882  -1.568   0.594
    1XTA    C1222080  27.742  -1.568   0.575
    1XTA    C1322081  27.687  -1.601   0.450
    1XTA    C1422082  27.770  -1.614   0.344
    1XTA    C1522083  27.907  -1.627   0.364
    1XTA     H122084  28.202  -1.429   0.671
    1XTA     H222085  28.341  -1.236   0.608
    1XTA     H322086  28.286  -1.353   0.185
    1XTA     H422087  28.152  -1.540   0.266
    1XTA     H522088  28.112  -1.675   0.753
    1XTA     H622089  28.251  -1.874   0.825
    1XTA     H722090  28.295  -1.987   0.406
    1XTA     H822091  28.215  -1.769   0.330
    1XTA     H922092  27.936  -1.546   0.686
    1XTA    H1022093  27.683  -1.533   0.657
    1XTA    H1122094  27.735  -1.629   0.245
    1XTA    H1222095  27.965  -1.636   0.272
    1XTA    OA122096  28.417  -1.177   0.352
    1XTA    CO122097  28.527  -1.145   0.441
    1XTA    OA222098  28.338  -2.067   0.655
    1XTA    CO222099  28.340  -2.110   0.790
    1XTA    CL122100  28.337  -2.261   0.799
    1XTA    CL222101  28.191  -2.310   0.785
    1XTA    CL322102  28.188  -2.459   0.742
    1XTA    CL422103  28.046  -2.509   0.708
    1XTA    CO322104  28.048  -2.595   0.582
    1XTA    OA322105  28.042  -2.501   0.473
    1XTA    CO422106  28.076  -2.551   0.351
    1XTA    CT122107  28.081  -2.437   0.248
    1XTA    CL522108  28.132  -2.493   0.111
    1XTA    CL622109  28.262  -2.581   0.109
    1XTA    OA422110  27.549  -1.590   0.441
    1XTA    CO522111  27.488  -1.676   0.342
    1XTA    CL722112  27.528  -1.817   0.347
    1XTA    CL822113  27.469  -1.899   0.236
    1XTA    CL922114  27.466  -2.045   0.268
    1XTA   CL1022115  27.426  -2.135   0.152
    1XTA    CO622116  27.459  -2.284   0.184
    1XTA    OA522117  27.436  -2.349   0.057
    1XTA    CO722118  27.555  -2.347  -0.026
    1XTA    CT222119  27.570  -2.476  -0.105
    1XTA   CL1122120  27.547  -2.601  -0.015
    1XTA   CL1222121  27.650  -2.619   0.096
    1XTA    HL122122  28.566  -1.243   0.477
    1XTA    HL222123  28.600  -1.086   0.386
    1XTA    HL322124  28.497  -1.095   0.534
    1XTA    HL422125  28.442  -2.070   0.828
    1XTA    HL522126  28.276  -2.065   0.874
    1XTA    HL622127  28.398  -2.302   0.877
    1XTA    HL722128  28.394  -2.290   0.711
    1XTA    HL822129  28.142  -2.245   0.709
    1XTA    HL922130  28.131  -2.306   0.875
    1XTA   HL1022131  28.255  -2.477   0.660
    1XTA   HL1122132  28.223  -2.527   0.823
    1XTA   HL1222133  27.980  -2.426   0.686
    1XTA   HL1322134  28.007  -2.580   0.775
    1XTA   HL1422135  28.144  -2.641   0.581
    1XTA   HL1522136  27.972  -2.669   0.579
    1XTA   HL1622137  28.166  -2.601   0.354
    1XTA   HL1722138  28.000  -2.628   0.317
    1XTA   HL1822139  28.144  -2.411   0.045
    1XTA   HL1922140  28.040  -2.548   0.062
    1XTA   HL2022141  28.268  -2.663   0.183
    1XTA   HL2122142  28.340  -2.514   0.129
    1XTA   HL2222143  28.269  -2.624   0.006
    1XTA   HL2322144  27.498  -1.640   0.245
    1XTA   HL2422145  27.380  -1.677   0.374
    1XTA   HL2522146  27.637  -1.828   0.346
    1XTA   HL2622147  27.485  -1.855   0.444
    1XTA   HL2722148  27.367  -1.867   0.201
    1XTA   HL2822149  27.533  -1.882   0.145
    1XTA   HL2922150  27.573  -2.068   0.289
    1XTA   HL3022151  27.417  -2.068   0.365
    1XTA   HL3122152  27.317  -2.135   0.129
    1XTA   HL3222153  27.480  -2.103   0.067
    1XTA   HL3322154  27.561  -2.294   0.229
    1XTA   HL3422155  27.397  -2.328   0.255
    1XTA   HL3522156  27.649  -2.336   0.023
    1XTA   HL3622157  27.555  -2.263  -0.099
    1XTA   HL3722158  27.542  -2.694  -0.074
    1XTA   HL3822159  27.452  -2.594   0.035
    1XTA   HL3922160  27.660  -2.538   0.162
    1XTA   HL4022161  27.755  -2.639   0.055
    1XTA   HL4122162  27.625  -2.703   0.164
    1XTA    CO822163  28.177  -2.327   0.292
    1XTA    CO922164  27.935  -2.374   0.237
    1XTA    OA622165  28.298  -2.382   0.331
    1XTA   HL4222166  28.135  -2.266   0.369
    1XTA   HL4322167  28.185  -2.251   0.203
    1XTA   HL4422168  27.776  -2.497  -0.099
    1XTA   HL4522169  27.721  -2.586  -0.235
    1XTA   CO1022170  27.707  -2.494  -0.177
    1XTA   CO1122171  27.458  -2.462  -0.210
    1XTA    OA722172  27.736  -2.384  -0.266
    1XTA   HL4622173  27.378  -2.414  -0.162
    1XTA   HL4722174  27.480  -2.379  -0.278
    1XTA   HL4822175  27.887  -2.372   0.334
    1XTA   HL4922176  27.872  -2.431   0.167
    1XTA     NT22177  27.795  -0.297   7.862
    1XTA    CN122178  27.719  -0.309   7.977
    1XTA     C122179  27.577  -0.322   7.972
    1XTA     C222180  27.503  -0.349   8.086
    1XTA     C322181  27.569  -0.384   8.205
    1XTA     C422182  27.710  -0.368   8.218
    1XTA     C522183  27.787  -0.336   8.103
    1XTA    CN222184  27.800  -0.186   7.787
    1XTA     C622185  27.715  -0.183   7.675
    1XTA     C722186  27.723  -0.076   7.591
    1XTA     C822187  27.790   0.043   7.621
    1XTA     C922188  27.874   0.037   7.735
    1XTA    C1022189  27.883  -0.078   7.815
    1XTA    CN322190  27.826  -0.423   7.810
    1XTA    C1122191  27.745  -0.516   7.749
    1XTA    C1222192  27.794  -0.637   7.698
    1XTA    C1322193  27.934  -0.668   7.702
    1XTA    C1422194  28.018  -0.565   7.750
    1XTA    C1522195  27.967  -0.446   7.803
    1XTA     H122196  27.526  -0.308   7.875
    1XTA     H222197  27.393  -0.354   8.079
    1XTA     H322198  27.770  -0.374   8.305
    1XTA     H422199  27.893  -0.337   8.109
    1XTA     H522200  27.656  -0.275   7.651
    1XTA     H622201  27.655  -0.067   7.511
    1XTA     H722202  27.941   0.125   7.764
    1XTA     H822203  27.948  -0.075   7.898
    1XTA     H922204  27.640  -0.490   7.735
    1XTA    H1022205  27.724  -0.709   7.649
    1XTA    H1122206  28.125  -0.579   7.765
    1XTA    H1222207  28.037  -0.375   7.835
    1XTA    OA122208  27.497  -0.433   8.310
    1XTA    CO122209  27.520  -0.568   8.326
    1XTA    OA222210  27.789   0.147   7.531
    1XTA    CO222211  27.832   0.274   7.578
    1XTA    CL122212  27.815   0.370   7.463
    1XTA    CL222213  27.669   0.408   7.440
    1XTA    CL322214  27.657   0.513   7.330
    1XTA    CL422215  27.527   0.509   7.253
    1XTA    CO322216  27.496   0.617   7.157
    1XTA    OA322217  27.366   0.603   7.100
    1XTA    CO422218  27.372   0.489   7.009
    1XTA    CT122219  27.249   0.504   6.922
    1XTA    CL522220  27.118   0.506   7.007
    1XTA    CL622221  27.099   0.397   7.113
    1XTA    OA422222  27.985  -0.783   7.649
    1XTA    CO522223  27.909  -0.894   7.682
    1XTA    CL722224  27.957  -1.022   7.613
    1XTA    CL822225  27.853  -1.135   7.618
    1XTA    CL922226  27.728  -1.116   7.534
    1XTA   CL1022227  27.627  -1.223   7.560
    1XTA    CO622228  27.647  -1.344   7.470
    1XTA    OA522229  27.748  -1.429   7.527
    1XTA    CO722230  27.759  -1.550   7.448
    1XTA    CT222231  27.900  -1.616   7.469
    1XTA   CL1122232  28.010  -1.507   7.428
    1XTA   CL1222233  28.160  -1.541   7.419
    1XTA    HL122234  27.493  -0.617   8.228
    1XTA    HL222235  27.622  -0.591   8.354
    1XTA    HL322236  27.453  -0.608   8.404
    1XTA    HL422237  27.782   0.292   7.673
    1XTA    HL522238  27.937   0.253   7.588
    1XTA    HL622239  27.854   0.320   7.372
    1XTA    HL722240  27.867   0.458   7.486
    1XTA    HL822241  27.616   0.433   7.530
    1XTA    HL922242  27.628   0.306   7.404
    1XTA   HL1022243  27.673   0.608   7.383
    1XTA   HL1122244  27.749   0.513   7.268
    1XTA   HL1222245  27.445   0.508   7.329
    1XTA   HL1322246  27.522   0.416   7.208
    1XTA   HL1422247  27.498   0.723   7.189
    1XTA   HL1522248  27.571   0.612   7.077
    1XTA   HL1622249  27.465   0.495   6.953
    1XTA   HL1722250  27.380   0.387   7.050
    1XTA   HL1822251  27.032   0.511   6.941
    1XTA   HL1922252  27.118   0.600   7.060
    1XTA   HL2022253  27.014   0.341   7.072
    1XTA   HL2122254  27.065   0.433   7.210
    1XTA   HL2222255  27.189   0.341   7.124
    1XTA   HL2322256  27.810  -0.874   7.649
    1XTA   HL2422257  27.901  -0.894   7.793
    1XTA   HL2522258  27.972  -0.993   7.508
    1XTA   HL2622259  28.052  -1.052   7.656
    1XTA   HL2722260  27.908  -1.222   7.588
    1XTA   HL2822261  27.831  -1.152   7.722
    1XTA   HL2922262  27.687  -1.018   7.548
    1XTA   HL3022263  27.747  -1.117   7.430
    1XTA   HL3122264  27.614  -1.245   7.663
    1XTA   HL3222265  27.525  -1.189   7.527
    1XTA   HL3322266  27.551  -1.399   7.450
    1XTA   HL3422267  27.675  -1.308   7.367
    1XTA   HL3522268  27.733  -1.520   7.346
    1XTA   HL3622269  27.676  -1.611   7.477
    1XTA   HL3722270  28.007  -1.424   7.495
    1XTA   HL3822271  27.985  -1.465   7.337
    1XTA   HL3922272  28.211  -1.450   7.391
    1XTA   HL4022273  28.170  -1.612   7.338
    1XTA   HL4122274  28.191  -1.583   7.515
    1XTA    CO822275  27.237   0.387   6.823
    1XTA    CO922276  27.260   0.628   6.839
    1XTA    OA622277  27.184   0.622   6.764
    1XTA   HL4222278  27.326   0.385   6.757
    1XTA   HL4322279  27.128   0.397   6.743
    1XTA   HL4422280  27.884  -1.688   7.278
    1XTA   HL4522281  27.830  -1.802   7.394
    1XTA   CO1022282  27.912  -1.735   7.373
    1XTA   CO1122283  27.906  -1.658   7.613
    1XTA    OA722284  27.871  -1.793   7.632
    1XTA   HL4622285  28.010  -1.639   7.645
    1XTA   HL4722286  27.844  -1.587   7.675
    1XTA   HL4822287  27.360   0.626   6.792
    1XTA   HL4922288  27.279   0.713   6.894
    1XTA     NT22289  28.144   0.291   5.920
    1XTA    CN122290  28.114   0.168   5.880
    1XTA     C122291  27.995   0.151   5.805
    1XTA     C222292  27.969   0.018   5.762
    1XTA     C322293  28.059  -0.090   5.789
    1XTA     C422294  28.178  -0.062   5.858
    1XTA     C522295  28.206   0.064   5.903
    1XTA    CN222296  28.235   0.364   5.852
    1XTA     C622297  28.235   0.364   5.710
    1XTA     C722298  28.327   0.441   5.638
    1XTA     C822299  28.421   0.520   5.698
    1XTA     C922300  28.427   0.525   5.839
    1XTA    C1022301  28.332   0.449   5.910
    1XTA    CN322302  28.053   0.351   5.998
    1XTA    C1122303  27.953   0.445   5.955
    1XTA    C1222304  27.845   0.470   6.047
    1XTA    C1322305  27.870   0.442   6.184
    1XTA    C1422306  27.977   0.358   6.226
    1XTA    C1522307  28.064   0.303   6.130
    1XTA     H122308  27.924   0.238   5.788
    1XTA     H222309  27.880   0.003   5.705
    1XTA     H322310  28.244  -0.146   5.875
    1XTA     H422311  28.299   0.075   5.953
    1XTA     H522312  28.155   0.326   5.662
    1XTA     H622313  28.333   0.447   5.533
    1XTA     H722314  28.508   0.578   5.882
    1XTA     H822315  28.348   0.432   6.016
    1XTA     H922316  27.948   0.477   5.855
    1XTA    H1022317  27.768   0.529   6.002
    1XTA    H1122318  27.992   0.341   6.332
    1XTA    H1222319  28.133   0.225   6.159
    1XTA    OA122320  28.027  -0.213   5.737
    1XTA    CO122321  28.075  -0.327   5.807
    1XTA    OA222322  28.515   0.597   5.627
    1XTA    CO222323  28.493   0.647   5.500
    1XTA    CL122324  28.588   0.584   5.407
    1XTA    CL222325  28.624   0.435   5.441
    1XTA    CL322326  28.716   0.378   5.331
    1XTA    CL422327  28.859   0.364   5.378
    1XTA    CO322328  28.934   0.497   5.364
    1XTA    OA322329  29.054   0.485   5.439
    1XTA    CO422330  29.034   0.495   5.579
    1XTA    CT122331  29.119   0.610   5.630
    1XTA    CL522332  29.076   0.741   5.549
    1XTA    CL622333  28.939   0.794   5.587
    1XTA    OA422334  27.778   0.493   6.278
    1XTA    CO522335  27.818   0.512   6.410
    1XTA    CL722336  27.714   0.603   6.479
    1XTA    CL822337  27.562   0.575   6.458
    1XTA    CL922338  27.513   0.469   6.554
    1XTA   CL1022339  27.427   0.376   6.474
    1XTA    CO622340  27.307   0.454   6.418
    1XTA    OA522341  27.231   0.488   6.532
    1XTA    CO722342  27.115   0.553   6.493
    1XTA    CT222343  27.118   0.703   6.534
    1XTA   CL1122344  26.970   0.743   6.538
    1XTA   CL1222345  26.887   0.735   6.408
    1XTA    HL122346  28.177  -0.341   5.775
    1XTA    HL222347  28.073  -0.310   5.914
    1XTA    HL322348  28.028  -0.418   5.784
    1XTA    HL422349  28.389   0.654   5.461
    1XTA    HL522350  28.501   0.751   5.514
    1XTA    HL622351  28.677   0.647   5.417
    1XTA    HL722352  28.550   0.601   5.309
    1XTA    HL822353  28.538   0.364   5.453
    1XTA    HL922354  28.668   0.425   5.538
    1XTA   HL1022355  28.680   0.277   5.310
    1XTA   HL1122356  28.704   0.438   5.242
    1XTA   HL1222357  28.915   0.283   5.339
    1XTA   HL1322358  28.865   0.335   5.475
    1XTA   HL1422359  28.961   0.517   5.268
    1XTA   HL1522360  28.867   0.580   5.396
    1XTA   HL1622361  28.932   0.509   5.606
    1XTA   HL1722362  29.055   0.402   5.626
    1XTA   HL1822363  29.086   0.731   5.436
    1XTA   HL1922364  29.149   0.816   5.576
    1XTA   HL2022365  28.864   0.717   5.574
    1XTA   HL2122366  28.916   0.884   5.531
    1XTA   HL2222367  28.944   0.826   5.690
    1XTA   HL2322368  27.909   0.564   6.418
    1XTA   HL2422369  27.833   0.411   6.443
    1XTA   HL2522370  27.737   0.616   6.583
    1XTA   HL2622371  27.723   0.699   6.431
    1XTA   HL2722372  27.502   0.671   6.464
    1XTA   HL2822373  27.549   0.537   6.360
    1XTA   HL2922374  27.593   0.415   6.601
    1XTA   HL3022375  27.451   0.511   6.635
    1XTA   HL3122376  27.491   0.332   6.402
    1XTA   HL3222377  27.385   0.282   6.530
    1XTA   HL3322378  27.325   0.544   6.363
    1XTA   HL3422379  27.256   0.387   6.349
    1XTA   HL3522380  27.033   0.510   6.559
    1XTA   HL3622381  27.080   0.544   6.394
    1XTA   HL3722382  26.961   0.836   6.593
    1XTA   HL3822383  26.912   0.680   6.604
    1XTA   HL3922384  26.884   0.626   6.360
    1XTA   HL4022385  26.911   0.797   6.322
    1XTA   HL4122386  26.782   0.756   6.439
    1XTA    CO822387  29.279   0.599   5.615
    1XTA    CO922388  29.080   0.614   5.784
    1XTA    OA622389  29.136   0.506   5.839
    1XTA   HL4222390  29.317   0.682   5.674
    1XTA   HL4322391  29.315   0.512   5.666
    1XTA   HL4422392  27.303   0.749   6.436
    1XTA   HL4522393  27.156   0.743   6.321
    1XTA   CO1022394  27.195   0.776   6.422
    1XTA   CO1122395  27.190   0.728   6.671
    1XTA    OA722396  27.181   0.889   6.425
    1XTA   HL4622397  27.143   0.846   6.728
    1XTA   HL4722398  27.298   0.751   6.652
    1XTA   HL4822399  28.977   0.605   5.803
    1XTA   HL4922400  29.119   0.704   5.827
    1XTA     NT22401  30.277  -1.365   0.596
    1XTA    CN122402  30.148  -1.345   0.560
    1XTA     C122403  30.037  -1.393   0.633
    1XTA     C222404  29.911  -1.389   0.577
    1XTA     C322405  29.886  -1.338   0.449
    1XTA     C422406  29.992  -1.274   0.379
    1XTA     C522407  30.126  -1.277   0.437
    1XTA    CN222408  30.340  -1.478   0.555
    1XTA     C622409  30.483  -1.485   0.551
    1XTA     C722410  30.552  -1.609   0.531
    1XTA     C822411  30.486  -1.729   0.537
    1XTA     C922412  30.345  -1.725   0.521
    1XTA    C1022413  30.271  -1.601   0.539
    1XTA    CN322414  30.335  -1.288   0.690
    1XTA    C1122415  30.403  -1.168   0.659
    1XTA    C1222416  30.436  -1.077   0.760
    1XTA    C1322417  30.420  -1.111   0.893
    1XTA    C1422418  30.366  -1.238   0.931
    1XTA    C1522419  30.316  -1.323   0.826
    1XTA     H122420  30.046  -1.444   0.730
    1XTA     H222421  29.824  -1.444   0.623
    1XTA     H322422  29.960  -1.221   0.287
    1XTA     H422423  30.199  -1.222   0.383
    1XTA     H522424  30.545  -1.398   0.570
    1XTA     H622425  30.661  -1.605   0.526
    1XTA     H722426  30.286  -1.814   0.528
    1XTA     H822427  30.166  -1.603   0.552
    1XTA     H922428  30.412  -1.143   0.556
    1XTA    H1022429  30.486  -0.981   0.736
    1XTA    H1122430  30.363  -1.271   1.033
    1XTA    H1222431  30.265  -1.418   0.849
    1XTA    OA122432  29.757  -1.351   0.403
    1XTA    CO122433  29.721  -1.262   0.297
    1XTA    OA222434  30.549  -1.856   0.517
    1XTA    CO222435  30.691  -1.861   0.501
    1XTA    CL122436  30.744  -1.991   0.566
    1XTA    CL222437  30.898  -2.014   0.560
    1XTA    CL322438  30.980  -1.902   0.627
    1XTA    CL422439  30.935  -1.901   0.777
    1XTA    CO322440  31.010  -1.793   0.860
    1XTA    OA322441  30.990  -1.822   0.997
    1XTA    CO422442  31.056  -1.730   1.088
    1XTA    CT122443  31.020  -1.761   1.233
    1XTA    CL522444  31.058  -1.902   1.277
    1XTA    CL622445  30.986  -2.008   1.200
    1XTA    OA422446  30.482  -1.033   0.989
    1XTA    CO522447  30.411  -1.010   1.114
    1XTA    CL722448  30.491  -1.024   1.239
    1XTA    CL822449  30.555  -1.167   1.261
    1XTA    CL922450  30.632  -1.190   1.392
    1XTA   CL1022451  30.745  -1.290   1.399
    1XTA    CO622452  30.702  -1.436   1.393
    1XTA    OA522453  30.580  -1.459   1.462
    1XTA    CO722454  30.498  -1.558   1.389
    1XTA    CT222455  30.358  -1.568   1.461
    1XTA   CL1122456  30.275  -1.672   1.383
    1XTA   CL1222457  30.137  -1.707   1.448
    1XTA    HL122458  29.615  -1.259   0.288
    1XTA    HL222459  29.754  -1.158   0.307
    1XTA    HL322460  29.771  -1.287   0.203
    1XTA    HL422461  30.726  -1.850   0.400
    1XTA    HL522462  30.740  -1.787   0.559
    1XTA    HL622463  30.699  -2.075   0.516
    1XTA    HL722464  30.721  -2.000   0.670
    1XTA    HL822465  30.930  -2.009   0.455
    1XTA    HL922466  30.909  -2.116   0.592
    1XTA   HL1022467  31.084  -1.922   0.608
    1XTA   HL1122468  30.965  -1.806   0.586
    1XTA   HL1222469  30.946  -2.000   0.825
    1XTA   HL1322470  30.827  -1.877   0.799
    1XTA   HL1422471  31.118  -1.794   0.829
    1XTA   HL1522472  30.969  -1.696   0.835
    1XTA   HL1622473  31.167  -1.740   1.076
    1XTA   HL1722474  31.028  -1.632   1.066
    1XTA   HL1822475  31.040  -1.921   1.382
    1XTA   HL1922476  31.172  -1.925   1.262
    1XTA   HL2022477  30.883  -1.972   1.171
    1XTA   HL2122478  30.986  -2.103   1.249
    1XTA   HL2222479  31.043  -2.021   1.107
    1XTA   HL2322480  30.331  -1.074   1.117
    1XTA   HL2422481  30.365  -0.905   1.113
    1XTA   HL2522482  30.569  -0.946   1.259
    1XTA   HL2622483  30.411  -1.005   1.315
    1XTA   HL2722484  30.483  -1.248   1.242
    1XTA   HL2822485  30.626  -1.180   1.186
    1XTA   HL2922486  30.686  -1.102   1.423
    1XTA   HL3022487  30.559  -1.218   1.475
    1XTA   HL3122488  30.827  -1.273   1.330
    1XTA   HL3222489  30.785  -1.266   1.493
    1XTA   HL3322490  30.703  -1.457   1.289
    1XTA   HL3422491  30.777  -1.485   1.455
    1XTA   HL3522492  30.542  -1.658   1.397
    1XTA   HL3622493  30.485  -1.541   1.281
    1XTA   HL3722494  30.338  -1.761   1.377
    1XTA   HL3822495  30.265  -1.628   1.279
    1XTA   HL3922496  30.065  -1.627   1.461
    1XTA   HL4022497  30.152  -1.751   1.542
    1XTA   HL4122498  30.089  -1.784   1.392
    1XTA    CO822499  30.876  -1.714   1.259
    1XTA    CO922500  31.077  -1.660   1.333
    1XTA    OA622501  30.938  -1.613   1.344
    1XTA   HL4222502  30.820  -1.775   1.333
    1XTA   HL4322503  30.812  -1.684   1.169
    1XTA   HL4422504  30.210  -1.428   1.531
    1XTA   HL4522505  30.355  -1.362   1.501
    1XTA   CO1022506  30.287  -1.434   1.462
    1XTA   CO1122507  30.370  -1.617   1.609
    1XTA    OA722508  30.265  -1.383   1.326
    1XTA   HL4622509  30.273  -1.630   1.650
    1XTA   HL4722510  30.436  -1.542   1.662
    1XTA   HL4822511  31.142  -1.598   1.277
    1XTA   HL4922512  31.125  -1.696   1.423
    1XTA     NT22513  31.459   0.471  -1.075
    1XTA    CN122514  31.579   0.420  -1.108
    1XTA     C122515  31.695   0.482  -1.060
    1XTA     C222516  31.825   0.441  -1.098
    1XTA     C322517  31.831   0.336  -1.194
    1XTA     C422518  31.710   0.275  -1.246
    1XTA     C522519  31.584   0.310  -1.203
    1XTA    CN222520  31.366   0.378  -1.047
    1XTA     C622521  31.361   0.326  -0.916
    1XTA     C722522  31.262   0.228  -0.887
    1XTA     C822523  31.169   0.187  -0.980
    1XTA     C922524  31.173   0.239  -1.115
    1XTA    C1022525  31.273   0.336  -1.141
    1XTA    CN322526  31.431   0.599  -1.072
    1XTA    C1122527  31.438   0.675  -0.954
    1XTA    C1222528  31.397   0.810  -0.940
    1XTA    C1322529  31.325   0.867  -1.052
    1XTA    C1422530  31.319   0.794  -1.180
    1XTA    C1522531  31.367   0.663  -1.186
    1XTA     H122532  31.683   0.557  -0.991
    1XTA     H222533  31.916   0.482  -1.060
    1XTA     H322534  31.725   0.188  -1.303
    1XTA     H422535  31.503   0.253  -1.234
    1XTA     H522536  31.432   0.356  -0.833
    1XTA     H622537  31.269   0.177  -0.787
    1XTA     H722538  31.092   0.210  -1.183
    1XTA     H822539  31.274   0.388  -1.237
    1XTA     H922540  31.485   0.622  -0.873
    1XTA    H1022541  31.411   0.868  -0.853
    1XTA    H1122542  31.269   0.823  -1.271
    1XTA    H1222543  31.356   0.615  -1.279
    1XTA    OA122544  31.949   0.293  -1.250
    1XTA    CO122545  32.066   0.353  -1.212
    1XTA    OA222546  31.076   0.090  -0.964
    1XTA    CO222547  31.058   0.031  -0.840
    1XTA    CL122548  30.932  -0.055  -0.843
    1XTA    CL222549  30.806   0.018  -0.881
    1XTA    CL322550  30.686  -0.073  -0.873
    1XTA    CL422551  30.649  -0.130  -1.014
    1XTA    CO322552  30.518  -0.204  -1.009
    1XTA    OA322553  30.549  -0.315  -0.929
    1XTA    CO422554  30.612  -0.421  -0.996
    1XTA    CT122555  30.696  -0.504  -0.891
    1XTA    CL522556  30.751  -0.403  -0.778
    1XTA    CL622557  30.817  -0.477  -0.655
    1XTA    OA422558  31.257   0.986  -1.047
    1XTA    CO522559  31.213   1.020  -0.916
    1XTA    CL722560  31.108   1.132  -0.927
    1XTA    CL822561  31.041   1.162  -0.796
    1XTA    CL922562  30.926   1.262  -0.810
    1XTA   CL1022563  30.888   1.332  -0.685
    1XTA    CO622564  30.802   1.260  -0.580
    1XTA    OA522565  30.675   1.236  -0.642
    1XTA    CO722566  30.578   1.158  -0.569
    1XTA    CT222567  30.466   1.140  -0.669
    1XTA   CL1122568  30.367   1.043  -0.602
    1XTA   CL1222569  30.238   0.998  -0.669
    1XTA    HL122570  32.075   0.448  -1.265
    1XTA    HL222571  32.074   0.358  -1.103
    1XTA    HL322572  32.150   0.292  -1.243
    1XTA    HL422573  31.141  -0.022  -0.806
    1XTA    HL522574  31.046   0.114  -0.767
    1XTA    HL622575  30.939  -0.097  -0.747
    1XTA    HL722576  30.948  -0.144  -0.895
    1XTA    HL822577  30.802   0.058  -0.979
    1XTA    HL922578  30.793   0.110  -0.831
    1XTA   HL1022579  30.715  -0.161  -0.820
    1XTA   HL1122580  30.597  -0.017  -0.842
    1XTA   HL1222581  30.731  -0.185  -1.058
    1XTA   HL1322582  30.635  -0.047  -1.074
    1XTA   HL1422583  30.430  -0.147  -0.986
    1XTA   HL1522584  30.489  -0.223  -1.108
    1XTA   HL1622585  30.542  -0.469  -1.061
    1XTA   HL1722586  30.680  -0.371  -1.059
    1XTA   HL1822587  30.665  -0.347  -0.736
    1XTA   HL1922588  30.822  -0.331  -0.820
    1XTA   HL2022589  30.753  -0.512  -0.573
    1XTA   HL2122590  30.894  -0.413  -0.607
    1XTA   HL2222591  30.876  -0.558  -0.698
    1XTA   HL2322592  31.304   1.048  -0.868
    1XTA   HL2422593  31.181   0.930  -0.869
    1XTA   HL2522594  31.162   1.215  -0.973
    1XTA   HL2622595  31.027   1.112  -1.000
    1XTA   HL2722596  31.008   1.062  -0.747
    1XTA   HL2822597  31.106   1.199  -0.724
    1XTA   HL2922598  30.957   1.348  -0.872
    1XTA   HL3022599  30.834   1.213  -0.849
    1XTA   HL3122600  30.975   1.379  -0.627
    1XTA   HL3222601  30.834   1.423  -0.713
    1XTA   HL3322602  30.849   1.164  -0.552
    1XTA   HL3422603  30.804   1.319  -0.491
    1XTA   HL3522604  30.546   1.215  -0.483
    1XTA   HL3622605  30.622   1.067  -0.533
    1XTA   HL3722606  30.355   1.085  -0.506
    1XTA   HL3822607  30.424   0.956  -0.579
    1XTA   HL3922608  30.182   1.082  -0.682
    1XTA   HL4022609  30.178   0.932  -0.611
    1XTA   HL4122610  30.254   0.937  -0.762
    1XTA    CO822611  30.809  -0.581  -0.945
    1XTA    CO922612  30.605  -0.611  -0.823
    1XTA    OA622613  30.920  -0.504  -0.967
    1XTA   HL4222614  30.779  -0.620  -1.049
    1XTA   HL4322615  30.840  -0.671  -0.884
    1XTA   HL4422616  30.443   1.077  -0.879
    1XTA   HL4522617  30.595   1.135  -0.844
    1XTA   CO1022618  30.521   1.078  -0.800
    1XTA   CO1122619  30.391   1.273  -0.698
    1XTA    OA722620  30.551   0.973  -0.782
    1XTA   HL4622621  30.338   1.329  -0.573
    1XTA   HL4722622  30.303   1.245  -0.752
    1XTA   HL4822623  30.523  -0.547  -0.783
    1XTA   HL4922624  30.655  -0.655  -0.736
    1XTA     NT22625  27.877  -1.411   1.068
    1XTA    CN122626  27.798  -1.322   1.005
    1XTA     C122627  27.750  -1.349   0.881
    1XTA     C222628  27.666  -1.253   0.824
    1XTA     C322629  27.624  -1.139   0.894
    1XTA     C422630  27.669  -1.125   1.026
    1XTA     C522631  27.757  -1.212   1.081
    1XTA    CN222632  27.822  -1.489   1.166
    1XTA     C622633  27.840  -1.458   1.297
    1XTA     C722634  27.781  -1.537   1.397
    1XTA     C822635  27.715  -1.661   1.363
    1XTA     C922636  27.706  -1.699   1.229
    1XTA    C1022637  27.757  -1.613   1.130
    1XTA    CN322638  28.011  -1.400   1.061
    1XTA    C1122639  28.076  -1.491   0.980
    1XTA    C1222640  28.216  -1.488   0.974
    1XTA    C1322641  28.289  -1.411   1.069
    1XTA    C1422642  28.224  -1.317   1.150
    1XTA    C1522643  28.086  -1.317   1.147
    1XTA     H122644  27.766  -1.445   0.827
    1XTA     H222645  27.627  -1.265   0.729
    1XTA     H322646  27.626  -1.035   1.080
    1XTA     H422647  27.784  -1.198   1.183
    1XTA     H522648  27.886  -1.370   1.321
    1XTA     H622649  27.789  -1.505   1.506
    1XTA     H722650  27.676  -1.800   1.207
    1XTA     H822651  27.754  -1.638   1.025
    1XTA     H922652  28.029  -1.547   0.907
    1XTA    H1022653  28.264  -1.553   0.906
    1XTA    H1122654  28.280  -1.253   1.218
    1XTA    H1222655  28.032  -1.254   1.219
    1XTA    OA122656  27.530  -1.043   0.860
    1XTA    CO122657  27.510  -1.030   0.727
    1XTA    OA222658  27.644  -1.737   1.448
    1XTA    CO222659  27.590  -1.671   1.556
    1XTA    CL122660  27.486  -1.751   1.635
    1XTA    CL222661  27.549  -1.892   1.678
    1XTA    CL322662  27.666  -1.866   1.786
    1XTA    CL422663  27.729  -2.000   1.841
    1XTA    CO322664  27.846  -2.058   1.757
    1XTA    OA322665  27.919  -1.942   1.710
    1XTA    CO422666  28.061  -1.950   1.725
    1XTA    CT122667  28.113  -1.805   1.719
    1XTA    CL522668  28.046  -1.728   1.601
    1XTA    CL622669  28.040  -1.802   1.464
    1XTA    OA422670  28.423  -1.423   1.080
    1XTA    CO522671  28.499  -1.479   0.975
    1XTA    CL722672  28.520  -1.366   0.871
    1XTA    CL822673  28.577  -1.238   0.925
    1XTA    CL922674  28.722  -1.246   0.977
    1XTA   CL1022675  28.774  -1.114   1.034
    1XTA    CO622676  28.683  -1.060   1.150
    1XTA    OA522677  28.679  -1.152   1.264
    1XTA    CO722678  28.583  -1.119   1.362
    1XTA    CT222679  28.570  -1.226   1.470
    1XTA   CL1122680  28.488  -1.173   1.584
    1XTA   CL1222681  28.356  -1.095   1.542
    1XTA    HL122682  27.438  -1.112   0.698
    1XTA    HL222683  27.460  -0.930   0.709
    1XTA    HL322684  27.601  -1.033   0.666
    1XTA    HL422685  27.683  -1.656   1.612
    1XTA    HL522686  27.548  -1.570   1.527
    1XTA    HL622687  27.397  -1.757   1.568
    1XTA    HL722688  27.450  -1.703   1.728
    1XTA    HL822689  27.594  -1.939   1.593
    1XTA    HL922690  27.480  -1.951   1.722
    1XTA   HL1022691  27.741  -1.798   1.749
    1XTA   HL1122692  27.633  -1.807   1.866
    1XTA   HL1222693  27.651  -2.073   1.852
    1XTA   HL1322694  27.762  -1.973   1.940
    1XTA   HL1422695  27.918  -2.115   1.819
    1XTA   HL1522696  27.810  -2.112   1.669
    1XTA   HL1622697  28.093  -2.007   1.815
    1XTA   HL1722698  28.099  -2.013   1.642
    1XTA   HL1822699  28.090  -1.634   1.593
    1XTA   HL1922700  27.942  -1.694   1.632
    1XTA   HL2022701  28.015  -1.724   1.385
    1XTA   HL2122702  27.979  -1.881   1.484
    1XTA   HL2222703  28.141  -1.842   1.443
    1XTA   HL2322704  28.450  -1.563   0.927
    1XTA   HL2422705  28.594  -1.524   1.017
    1XTA   HL2522706  28.582  -1.406   0.795
    1XTA   HL2622707  28.431  -1.342   0.814
    1XTA   HL2722708  28.581  -1.162   0.848
    1XTA   HL2822709  28.512  -1.217   1.014
    1XTA   HL2922710  28.734  -1.316   1.061
    1XTA   HL3022711  28.786  -1.278   0.899
    1XTA   HL3122712  28.880  -1.125   1.065
    1XTA   HL3222713  28.776  -1.033   0.956
    1XTA   HL3322714  28.742  -0.974   1.184
    1XTA   HL3422715  28.577  -1.028   1.118
    1XTA   HL3522716  28.487  -1.099   1.314
    1XTA   HL3622717  28.627  -1.025   1.394
    1XTA   HL3722718  28.547  -1.100   1.643
    1XTA   HL3822719  28.463  -1.239   1.662
    1XTA   HL3922720  28.301  -1.077   1.636
    1XTA   HL4022721  28.302  -1.154   1.468
    1XTA   HL4122722  28.378  -0.998   1.494
    1XTA    CO822723  28.265  -1.810   1.697
    1XTA    CO922724  28.074  -1.737   1.853
    1XTA    OA622725  28.101  -1.632   1.851
    1XTA   HL4222726  28.314  -1.847   1.788
    1XTA   HL4322727  28.292  -1.897   1.593
    1XTA   HL4422728  28.779  -1.364   1.446
    1XTA   HL4522729  28.690  -1.325   1.620
    1XTA   CO1022730  28.704  -1.277   1.525
    1XTA   CO1122731  28.500  -1.358   1.412
    1XTA    OA722732  28.483  -1.432   1.488
    1XTA   HL4622733  28.407  -1.341   1.366
    1XTA   HL4722734  28.570  -1.392   1.331
    1XTA   HL4822735  28.128  -1.791   1.930
    1XTA   HL4922736  27.970  -1.753   1.876
    1XTA     NT22737  30.772   0.327   6.281
    1XTA    CN122738  30.793   0.350   6.409
    1XTA     C122739  30.899   0.434   6.445
    1XTA     C222740  30.921   0.457   6.584
    1XTA     C322741  30.842   0.391   6.687
    1XTA     C422742  30.740   0.307   6.646
    1XTA     C522743  30.712   0.286   6.509
    1XTA    CN222744  30.662   0.351   6.211
    1XTA     C622745  30.651   0.464   6.129
    1XTA     C722746  30.528   0.471   6.053
    1XTA     C822747  30.424   0.376   6.066
    1XTA     C922748  30.447   0.258   6.146
    1XTA    C1022749  30.563   0.258   6.224
    1XTA    CN322750  30.871   0.280   6.204
    1XTA    C1122751  30.952   0.366   6.127
    1XTA    C1222752  31.056   0.317   6.058
    1XTA    C1322753  31.096   0.177   6.056
    1XTA    C1422754  31.033   0.100   6.160
    1XTA    C1522755  30.931   0.158   6.235
    1XTA     H122756  30.964   0.477   6.373
    1XTA     H222757  31.005   0.526   6.613
    1XTA     H322758  30.687   0.247   6.720
    1XTA     H422759  30.633   0.217   6.475
    1XTA     H522760  30.721   0.544   6.132
    1XTA     H622761  30.505   0.553   5.991
    1XTA     H722762  30.375   0.174   6.155
    1XTA     H822763  30.584   0.173   6.285
    1XTA     H922764  30.935   0.473   6.118
    1XTA    H1022765  31.106   0.389   5.994
    1XTA    H1122766  31.058  -0.005   6.181
    1XTA    H1222767  30.881   0.098   6.307
    1XTA    OA122768  30.860   0.401   6.828
    1XTA    CO122769  30.990   0.378   6.875
    1XTA    OA222770  30.307   0.391   5.989
    1XTA    CO222771  30.189   0.315   6.029
    1XTA    CL122772  30.058   0.371   5.968
    1XTA    CL222773  30.000   0.498   6.024
    1XTA    CL322774  29.885   0.561   5.941
    1XTA    CL422775  29.867   0.710   5.981
    1XTA    CO322776  29.762   0.777   5.893
    1XTA    OA322777  29.701   0.884   5.960
    1XTA    CO422778  29.620   0.957   5.863
    1XTA    CT122779  29.513   1.055   5.914
    1XTA    CL522780  29.413   0.988   6.007
    1XTA    CL622781  29.331   0.871   5.939
    1XTA    OA422782  31.198   0.127   5.988
    1XTA    CO522783  31.275   0.218   5.910
    1XTA    CL722784  31.407   0.147   5.861
    1XTA    CL822785  31.499   0.125   5.977
    1XTA    CL922786  31.593   0.248   5.999
    1XTA   CL1022787  31.728   0.206   6.049
    1XTA    CO622788  31.857   0.289   6.023
    1XTA    OA522789  31.915   0.229   5.915
    1XTA    CO722790  32.047   0.267   5.876
    1XTA    CT222791  32.116   0.179   5.765
    1XTA   CL1122792  32.034   0.199   5.639
    1XTA   CL1222793  32.076   0.143   5.502
    1XTA    HL122794  30.990   0.380   6.986
    1XTA    HL222795  31.034   0.281   6.842
    1XTA    HL322796  31.049   0.455   6.837
    1XTA    HL422797  30.209   0.221   5.994
    1XTA    HL522798  30.178   0.313   6.138
    1XTA    HL622799  29.978   0.297   5.977
    1XTA    HL722800  30.086   0.391   5.861
    1XTA    HL822801  30.082   0.578   6.024
    1XTA    HL922802  29.978   0.491   6.132
    1XTA   HL1022803  29.897   0.544   5.835
    1XTA   HL1122804  29.789   0.510   5.963
    1XTA   HL1222805  29.960   0.766   5.974
    1XTA   HL1322806  29.829   0.714   6.084
    1XTA   HL1422807  29.800   0.812   5.793
    1XTA   HL1522808  29.690   0.699   5.862
    1XTA   HL1622809  29.696   1.019   5.814
    1XTA   HL1722810  29.585   0.872   5.806
    1XTA   HL1822811  29.344   1.066   6.040
    1XTA   HL1922812  29.473   0.953   6.090
    1XTA   HL2022813  29.271   0.808   5.999
    1XTA   HL2122814  29.404   0.800   5.897
    1XTA   HL2222815  29.263   0.909   5.869
    1XTA   HL2322816  31.298   0.311   5.962
    1XTA   HL2422817  31.206   0.248   5.828
    1XTA   HL2522818  31.383   0.069   5.797
    1XTA   HL2622819  31.454   0.211   5.791
    1XTA   HL2722820  31.448   0.090   6.058
    1XTA   HL2822821  31.553   0.028   5.950
    1XTA   HL2922822  31.604   0.291   5.894
    1XTA   HL3022823  31.548   0.331   6.050
    1XTA   HL3122824  31.721   0.203   6.156
    1XTA   HL3222825  31.736   0.101   6.024
    1XTA   HL3322826  31.840   0.395   6.011
    1XTA   HL3422827  31.932   0.268   6.106
    1XTA   HL3522828  32.109   0.260   5.964
    1XTA   HL3622829  32.065   0.370   5.849
    1XTA   HL3722830  32.036   0.304   5.621
    1XTA   HL3822831  31.928   0.168   5.660
    1XTA   HL3922832  31.998   0.166   5.429
    1XTA   HL4022833  32.087   0.037   5.519
    1XTA   HL4122834  32.167   0.196   5.464
    1XTA    CO822835  29.433   1.123   5.801
    1XTA    CO922836  29.595   1.152   5.994
    1XTA    OA622837  29.504   1.146   5.717
    1XTA   HL4222838  29.400   1.221   5.842
    1XTA   HL4322839  29.345   1.067   5.765
    1XTA   HL4422840  32.164   0.035   5.907
    1XTA   HL4522841  32.008   0.004   5.825
    1XTA   CO1022842  32.113   0.031   5.809
    1XTA   CO1122843  32.262   0.220   5.749
    1XTA    OA722844  32.160  -0.040   5.738
    1XTA   HL4622845  32.313   0.208   5.881
    1XTA   HL4722846  32.304   0.143   5.685
    1XTA   HL4822847  29.673   1.209   5.894
    1XTA   HL4922848  29.654   1.092   6.059
    1XTA     NT22849  24.597   3.807   2.920
    1XTA    CN122850  24.476   3.847   2.886
    1XTA     C122851  24.360   3.772   2.881
    1XTA     C222852  24.230   3.822   2.857
    1XTA     C322853  24.207   3.963   2.854
    1XTA     C422854  24.324   4.040   2.854
    1XTA     C522855  24.454   3.983   2.870
    1XTA    CN222856  24.632   3.787   3.050
    1XTA     C622857  24.586   3.869   3.157
    1XTA     C722858  24.603   3.834   3.288
    1XTA     C822859  24.675   3.713   3.317
    1XTA     C922860  24.720   3.628   3.218
    1XTA    C1022861  24.695   3.663   3.085
    1XTA    CN322862  24.692   3.815   2.822
    1XTA    C1122863  24.807   3.909   2.829
    1XTA    C1222864  24.896   3.935   2.724
    1XTA    C1322865  24.883   3.852   2.616
    1XTA    C1422866  24.770   3.767   2.601
    1XTA    C1522867  24.671   3.755   2.700
    1XTA     H122868  24.370   3.667   2.910
    1XTA     H222869  24.149   3.756   2.860
    1XTA     H322870  24.317   4.147   2.852
    1XTA     H422871  24.533   4.057   2.858
    1XTA     H522872  24.514   3.947   3.138
    1XTA     H622873  24.562   3.899   3.364
    1XTA     H722874  24.772   3.541   3.239
    1XTA     H822875  24.727   3.602   3.002
    1XTA     H922876  24.804   3.960   2.927
    1XTA    H1022877  24.984   4.001   2.741
    1XTA    H1122878  24.757   3.704   2.514
    1XTA    H1222879  24.586   3.691   2.681
    1XTA    OA122880  24.081   4.007   2.836
    1XTA    CO122881  23.982   3.941   2.910
    1XTA    OA222882  24.698   3.667   3.438
    1XTA    CO222883  24.663   3.740   3.549
    1XTA    CL122884  24.728   3.665   3.662
    1XTA    CL222885  24.673   3.702   3.801
    1XTA    CL322886  24.709   3.845   3.858
    1XTA    CL422887  24.645   3.877   3.994
    1XTA    CO322888  24.624   4.028   4.030
    1XTA    OA322889  24.564   4.090   3.918
    1XTA    CO422890  24.437   4.054   3.879
    1XTA    CT122891  24.386   4.144   3.763
    1XTA    CL522892  24.463   4.114   3.630
    1XTA    CL622893  24.605   4.163   3.620
    1XTA    OA422894  24.964   3.863   2.506
    1XTA    CO522895  25.103   3.915   2.521
    1XTA    CL722896  25.124   4.065   2.499
    1XTA    CL822897  25.265   4.124   2.523
    1XTA    CL922898  25.260   4.266   2.475
    1XTA   CL1022899  25.408   4.309   2.479
    1XTA    CO622900  25.427   4.457   2.447
    1XTA    OA522901  25.360   4.532   2.543
    1XTA    CO722902  25.381   4.672   2.524
    1XTA    CT222903  25.297   4.741   2.639
    1XTA   CL1122904  25.147   4.737   2.610
    1XTA   CL1222905  25.084   4.606   2.657
    1XTA    HL122906  23.957   3.841   2.870
    1XTA    HL222907  24.007   3.917   3.012
    1XTA    HL322908  23.893   3.997   2.905
    1XTA    HL422909  24.698   3.847   3.549
    1XTA    HL522910  24.553   3.744   3.559
    1XTA    HL622911  24.837   3.677   3.680
    1XTA    HL722912  24.715   3.561   3.653
    1XTA    HL822913  24.711   3.630   3.873
    1XTA    HL922914  24.561   3.691   3.808
    1XTA   HL1022915  24.812   3.860   3.851
    1XTA   HL1122916  24.661   3.918   3.790
    1XTA   HL1222917  24.715   3.842   4.066
    1XTA   HL1322918  24.550   3.819   4.005
    1XTA   HL1422919  24.559   4.043   4.114
    1XTA   HL1522920  24.724   4.064   4.061
    1XTA   HL1622921  24.426   3.951   3.845
    1XTA   HL1722922  24.366   4.068   3.964
    1XTA   HL1822923  24.416   4.174   3.557
    1XTA   HL1922924  24.464   4.002   3.608
    1XTA   HL2022925  24.598   4.268   3.599
    1XTA   HL2122926  24.663   4.131   3.540
    1XTA   HL2222927  24.673   4.154   3.708
    1XTA   HL2322928  25.170   3.862   2.458
    1XTA   HL2422929  25.152   3.892   2.618
    1XTA   HL2522930  25.083   4.082   2.399
    1XTA   HL2622931  25.053   4.129   2.556
    1XTA   HL2722932  25.302   4.128   2.627
    1XTA   HL2822933  25.333   4.075   2.453
    1XTA   HL2922934  25.220   4.282   2.375
    1XTA   HL3022935  25.214   4.341   2.542
    1XTA   HL3122936  25.445   4.290   2.575
    1XTA   HL3222937  25.463   4.247   2.401
    1XTA   HL3322938  25.534   4.491   2.430
    1XTA   HL3422939  25.399   4.486   2.348
    1XTA   HL3522940  25.354   4.712   2.418
    1XTA   HL3622941  25.483   4.709   2.552
    1XTA   HL3722942  25.124   4.741   2.504
    1XTA   HL3822943  25.096   4.821   2.654
    1XTA   HL3922944  24.978   4.602   2.625
    1XTA   HL4022945  25.082   4.604   2.767
    1XTA   HL4122946  25.139   4.511   2.637
    1XTA    CO822947  24.395   4.288   3.796
    1XTA    CO922948  24.237   4.110   3.732
    1XTA    OA622949  24.146   4.167   3.823
    1XTA   HL4222950  24.496   4.316   3.824
    1XTA   HL4322951  24.330   4.302   3.891
    1XTA   HL4422952  25.276   4.945   2.703
    1XTA   HL4522953  25.437   4.905   2.653
    1XTA   CO1022954  25.335   4.887   2.625
    1XTA   CO1122955  25.339   4.712   2.780
    1XTA    OA722956  25.265   4.782   2.880
    1XTA   HL4622957  25.323   4.608   2.806
    1XTA   HL4722958  25.444   4.722   2.785
    1XTA   HL4822959  24.226   4.004   3.740
    1XTA   HL4922960  24.206   4.141   3.632
    1XTA     NT22961  28.185  -2.597   4.934
    1XTA    CN122962  28.154  -2.720   4.896
    1XTA     C122963  28.117  -2.813   4.996
    1XTA     C222964  28.080  -2.937   4.958
    1XTA     C322965  28.081  -2.979   4.821
    1XTA     C422966  28.115  -2.884   4.722
    1XTA     C522967  28.145  -2.758   4.765
    1XTA    CN222968  28.301  -2.572   5.000
    1XTA     C622969  28.314  -2.471   5.093
    1XTA     C722970  28.437  -2.444   5.158
    1XTA     C822971  28.551  -2.527   5.127
    1XTA     C922972  28.533  -2.631   5.037
    1XTA    C1022973  28.414  -2.651   4.969
    1XTA    CN322974  28.128  -2.493   4.867
    1XTA    C1122975  28.010  -2.445   4.918
    1XTA    C1222976  27.945  -2.331   4.855
    1XTA    C1322977  28.004  -2.274   4.733
    1XTA    C1422978  28.128  -2.328   4.690
    1XTA    C1522979  28.193  -2.428   4.761
    1XTA     H122980  28.122  -2.784   5.101
    1XTA     H222981  28.065  -3.018   5.032
    1XTA     H322982  28.113  -2.905   4.619
    1XTA     H422983  28.157  -2.685   4.690
    1XTA     H522984  28.220  -2.428   5.131
    1XTA     H622985  28.440  -2.362   5.238
    1XTA     H722986  28.615  -2.694   5.008
    1XTA     H822987  28.412  -2.725   4.895
    1XTA     H922988  27.973  -2.483   5.012
    1XTA    H1022989  27.854  -2.301   4.906
    1XTA    H1122990  28.184  -2.281   4.611
    1XTA    H1222991  28.285  -2.470   4.729
    1XTA    OA122992  28.055  -3.108   4.798
    1XTA    CO122993  28.069  -3.155   4.660
    1XTA    OA222994  28.670  -2.529   5.198
    1XTA    CO222995  28.689  -2.406   5.261
    1XTA    CL122996  28.828  -2.413   5.319
    1XTA    CL222997  28.884  -2.291   5.388
    1XTA    CL322998  29.017  -2.332   5.452
    1XTA    CL422999  29.014  -2.440   5.566
    1XTA    CO323000  29.159  -2.480   5.593
    1XTA    OA323001  29.159  -2.579   5.685
    1XTA    CO423002  29.281  -2.614   5.738
    1XTA    CT123003  29.289  -2.755   5.795
    1XTA    CL523004  29.405  -2.759   5.894
    1XTA    CL623005  29.553  -2.780   5.829
    1XTA    OA423006  27.949  -2.180   4.651
    1XTA    CO523007  27.828  -2.117   4.686
    1XTA    CL723008  27.800  -2.022   4.568
    1XTA    CL823009  27.909  -1.937   4.501
    1XTA    CL923010  27.961  -1.820   4.596
    1XTA   CL1023011  28.085  -1.754   4.555
    1XTA    CO623012  28.215  -1.841   4.549
    1XTA    OA523013  28.325  -1.749   4.557
    1XTA    CO723014  28.435  -1.814   4.608
    1XTA    CT223015  28.542  -1.707   4.642
    1XTA   CL1123016  28.598  -1.635   4.515
    1XTA   CL1223017  28.706  -1.522   4.524
    1XTA    HL123018  28.174  -3.154   4.639
    1XTA    HL223019  28.027  -3.258   4.647
    1XTA    HL323020  28.006  -3.104   4.583
    1XTA    HL423021  28.684  -2.317   5.192
    1XTA    HL523022  28.619  -2.393   5.338
    1XTA    HL623023  28.905  -2.443   5.254
    1XTA    HL723024  28.816  -2.501   5.384
    1XTA    HL823025  28.814  -2.277   5.462
    1XTA    HL923026  28.887  -2.222   5.303
    1XTA   HL1023027  29.085  -2.389   5.376
    1XTA   HL1123028  29.074  -2.246   5.483
    1XTA   HL1223029  28.960  -2.532   5.542
    1XTA   HL1323030  28.966  -2.402   5.658
    1XTA   HL1423031  29.209  -2.520   5.503
    1XTA   HL1523032  29.221  -2.392   5.613
    1XTA   HL1623033  29.365  -2.630   5.665
    1XTA   HL1723034  29.304  -2.550   5.822
    1XTA   HL1823035  29.384  -2.837   5.971
    1XTA   HL1923036  29.402  -2.678   5.969
    1XTA   HL2023037  29.583  -2.890   5.824
    1XTA   HL2123038  29.630  -2.742   5.897
    1XTA   HL2223039  29.556  -2.746   5.729
    1XTA   HL2323040  27.841  -2.065   4.776
    1XTA   HL2423041  27.747  -2.190   4.697
    1XTA   HL2523042  27.746  -2.081   4.494
    1XTA   HL2623043  27.726  -1.947   4.602
    1XTA   HL2723044  27.990  -2.010   4.478
    1XTA   HL2823045  27.877  -1.883   4.412
    1XTA   HL2923046  27.877  -1.757   4.626
    1XTA   HL3023047  27.980  -1.875   4.693
    1XTA   HL3123048  28.077  -1.720   4.452
    1XTA   HL3223049  28.101  -1.664   4.612
    1XTA   HL3323050  28.216  -1.910   4.627
    1XTA   HL3423051  28.219  -1.892   4.453
    1XTA   HL3523052  28.478  -1.893   4.536
    1XTA   HL3623053  28.414  -1.861   4.706
    1XTA   HL3723054  28.517  -1.585   4.453
    1XTA   HL3823055  28.631  -1.712   4.446
    1XTA   HL3923056  28.797  -1.578   4.552
    1XTA   HL4023057  28.692  -1.451   4.608
    1XTA   HL4123058  28.714  -1.467   4.432
    1XTA    CO823059  29.282  -2.869   5.688
    1XTA    CO923060  29.160  -2.780   5.878
    1XTA    OA623061  29.214  -2.866   5.601
    1XTA   HL4223062  29.276  -2.962   5.742
    1XTA   HL4323063  29.380  -2.872   5.641
    1XTA   HL4423064  28.729  -1.699   4.737
    1XTA   HL4523065  28.621  -1.818   4.808
    1XTA   CO1023066  28.653  -1.773   4.718
    1XTA   CO1123067  28.476  -1.597   4.727
    1XTA    OA723068  28.715  -1.869   4.627
    1XTA   HL4623069  28.426  -1.530   4.649
    1XTA   HL4723070  28.552  -1.537   4.773
    1XTA   HL4823071  29.045  -2.778   5.793
    1XTA   HL4923072  29.165  -2.873   5.934
    1XTA     NT23073  26.385  -0.084   6.551
    1XTA    CN123074  26.270  -0.015   6.567
    1XTA     C123075  26.220   0.030   6.690
    1XTA     C223076  26.088   0.087   6.698
    1XTA     C323077  26.020   0.137   6.593
    1XTA     C423078  26.070   0.097   6.463
    1XTA     C523079  26.191   0.027   6.452
    1XTA    CN223080  26.487  -0.015   6.498
    1XTA     C623081  26.533   0.093   6.570
    1XTA     C723082  26.641   0.165   6.528
    1XTA     C823083  26.706   0.128   6.409
    1XTA     C923084  26.641   0.035   6.320
    1XTA    C1023085  26.536  -0.049   6.371
    1XTA    CN323086  26.410  -0.200   6.622
    1XTA    C1123087  26.303  -0.276   6.674
    1XTA    C1223088  26.321  -0.398   6.738
    1XTA    C1323089  26.449  -0.443   6.773
    1XTA    C1423090  26.562  -0.375   6.726
    1XTA    C1523091  26.540  -0.255   6.653
    1XTA     H123092  26.269   0.029   6.782
    1XTA     H223093  26.058   0.108   6.801
    1XTA     H323094  26.019   0.128   6.378
    1XTA     H423095  26.225  -0.009   6.357
    1XTA     H523096  26.478   0.119   6.664
    1XTA     H623097  26.676   0.250   6.589
    1XTA     H723098  26.677   0.027   6.220
    1XTA     H823099  26.485  -0.130   6.315
    1XTA     H923100  26.202  -0.253   6.645
    1XTA    H1023101  26.233  -0.449   6.764
    1XTA    H1123102  26.665  -0.405   6.750
    1XTA    H1223103  26.628  -0.195   6.623
    1XTA    OA123104  25.911   0.213   6.624
    1XTA    CO123105  25.851   0.291   6.521
    1XTA    OA223106  26.821   0.188   6.370
    1XTA    CO223107  26.915   0.097   6.302
    1XTA    CL123108  27.062   0.156   6.291
    1XTA    CL223109  27.168   0.048   6.271
    1XTA    CL323110  27.315   0.102   6.265
    1XTA    CL423111  27.419  -0.011   6.257
    1XTA    CO323112  27.564   0.032   6.297
    1XTA    OA323113  27.654  -0.080   6.259
    1XTA    CO423114  27.790  -0.057   6.283
    1XTA    CT123115  27.870  -0.170   6.217
    1XTA    CL523116  28.019  -0.157   6.249
    1XTA    CL623117  28.080  -0.013   6.245
    1XTA    OA423118  26.457  -0.559   6.836
    1XTA    CO523119  26.588  -0.608   6.868
    1XTA    CL723120  26.580  -0.707   6.987
    1XTA    CL823121  26.527  -0.849   6.952
    1XTA    CL923122  26.490  -0.927   7.078
    1XTA   CL1023123  26.368  -0.856   7.149
    1XTA    CO623124  26.248  -0.834   7.054
    1XTA    OA523125  26.157  -0.738   7.110
    1XTA    CO723126  26.153  -0.608   7.058
    1XTA    CT223127  26.067  -0.510   7.138
    1XTA   CL1123128  26.126  -0.470   7.277
    1XTA   CL1223129  26.264  -0.398   7.273
    1XTA    HL123130  25.928   0.323   6.450
    1XTA    HL223131  25.779   0.227   6.473
    1XTA    HL323132  25.809   0.380   6.564
    1XTA    HL423133  26.920   0.000   6.358
    1XTA    HL523134  26.877   0.069   6.207
    1XTA    HL623135  27.084   0.219   6.374
    1XTA    HL723136  27.063   0.219   6.203
    1XTA    HL823137  27.144  -0.006   6.179
    1XTA    HL923138  27.170  -0.024   6.358
    1XTA   HL1023139  27.322   0.170   6.174
    1XTA   HL1123140  27.329   0.168   6.350
    1XTA   HL1223141  27.429  -0.055   6.156
    1XTA   HL1323142  27.384  -0.082   6.331
    1XTA   HL1423143  27.591   0.122   6.239
    1XTA   HL1523144  27.572   0.051   6.402
    1XTA   HL1623145  27.823   0.036   6.239
    1XTA   HL1723146  27.808  -0.054   6.391
    1XTA   HL1823147  28.077  -0.218   6.176
    1XTA   HL1923148  28.044  -0.207   6.343
    1XTA   HL2023149  28.055   0.039   6.344
    1XTA   HL2123150  28.056   0.035   6.153
    1XTA   HL2223151  28.191  -0.020   6.244
    1XTA   HL2323152  26.656  -0.531   6.892
    1XTA   HL2423153  26.642  -0.658   6.789
    1XTA   HL2523154  26.683  -0.719   7.018
    1XTA   HL2623155  26.521  -0.663   7.065
    1XTA   HL2723156  26.442  -0.841   6.878
    1XTA   HL2823157  26.604  -0.900   6.899
    1XTA   HL2923158  26.462  -1.020   7.044
    1XTA   HL3023159  26.582  -0.932   7.135
    1XTA   HL3123160  26.340  -0.910   7.236
    1XTA   HL3223161  26.413  -0.763   7.187
    1XTA   HL3323162  26.271  -0.800   6.955
    1XTA   HL3423163  26.188  -0.924   7.046
    1XTA   HL3523164  26.129  -0.610   6.951
    1XTA   HL3623165  26.253  -0.568   7.071
    1XTA   HL3723166  26.149  -0.562   7.340
    1XTA   HL3823167  26.053  -0.398   7.324
    1XTA   HL3923168  26.336  -0.470   7.236
    1XTA   HL4023169  26.301  -0.375   7.374
    1XTA   HL4123170  26.267  -0.306   7.217
    1XTA    CO823171  27.857  -0.167   6.067
    1XTA    CO923172  27.821  -0.306   6.258
    1XTA    OA623173  27.913  -0.398   6.226
    1XTA   HL4223174  27.873  -0.068   6.025
    1XTA   HL4323175  27.940  -0.213   6.020
    1XTA   HL4423176  25.888  -0.560   7.055
    1XTA   HL4523177  25.905  -0.676   7.167
    1XTA   CO1023178  25.925  -0.572   7.156
    1XTA   CO1123179  26.053  -0.369   7.063
    1XTA    OA723180  25.857  -0.519   7.234
    1XTA   HL4623181  25.998  -0.264   7.148
    1XTA   HL4723182  26.156  -0.352   7.033
    1XTA   HL4823183  27.722  -0.322   6.221
    1XTA   HL4923184  27.804  -0.293   6.361
    1XTA     NT23185  27.755   0.736   8.095
    1XTA    CN123186  27.644   0.804   8.055
    1XTA     C123187  27.515   0.793   8.110
    1XTA     C223188  27.409   0.865   8.062
    1XTA     C323189  27.429   0.956   7.957
    1XTA     C423190  27.554   0.973   7.897
    1XTA     C523191  27.657   0.890   7.942
    1XTA    CN223192  27.824   0.653   8.014
    1XTA     C623193  27.778   0.529   7.981
    1XTA     C723194  27.860   0.441   7.911
    1XTA     C823195  27.978   0.484   7.848
    1XTA     C923196  28.022   0.613   7.873
    1XTA    C1023197  27.947   0.694   7.961
    1XTA    CN323198  27.814   0.763   8.216
    1XTA    C1123199  27.836   0.658   8.307
    1XTA    C1223200  27.911   0.685   8.421
    1XTA    C1323201  27.980   0.805   8.438
    1XTA    C1423202  27.955   0.910   8.343
    1XTA    C1523203  27.862   0.892   8.243
    1XTA     H123204  27.496   0.744   8.203
    1XTA     H223205  27.316   0.867   8.117
    1XTA     H323206  27.563   1.035   7.810
    1XTA     H423207  27.752   0.904   7.888
    1XTA     H523208  27.686   0.495   8.024
    1XTA     H623209  27.827   0.341   7.879
    1XTA     H723210  28.109   0.655   7.836
    1XTA     H823211  27.979   0.795   7.997
    1XTA     H923212  27.810   0.559   8.275
    1XTA    H1023213  27.923   0.601   8.491
    1XTA    H1123214  27.995   1.011   8.366
    1XTA    H1223215  27.835   0.973   8.171
    1XTA    OA123216  27.331   1.042   7.917
    1XTA    CO123217  27.193   1.029   7.957
    1XTA    OA223218  28.049   0.400   7.769
    1XTA    CO223219  28.167   0.442   7.705
    1XTA    CL123220  28.234   0.320   7.629
    1XTA    CL223221  28.364   0.343   7.549
    1XTA    CL323222  28.345   0.458   7.438
    1XTA    CL423223  28.482   0.496   7.383
    1XTA    CO323224  28.500   0.650   7.374
    1XTA    OA323225  28.480   0.707   7.499
    1XTA    CO423226  28.469   0.855   7.492
    1XTA    CT123227  28.329   0.901   7.461
    1XTA    CL523228  28.289   0.890   7.310
    1XTA    CL623229  28.397   0.943   7.216
    1XTA    OA423230  28.061   0.831   8.543
    1XTA    CO523231  28.050   0.758   8.668
    1XTA    CL723232  28.154   0.826   8.767
    1XTA    CL823233  28.137   0.806   8.923
    1XTA    CL923234  28.215   0.913   8.990
    1XTA   CL1023235  28.176   0.930   9.137
    1XTA    CO623236  28.263   1.034   9.212
    1XTA    OA523237  28.394   1.006   9.185
    1XTA    CO723238  28.484   1.065   9.274
    1XTA    CT223239  28.622   1.000   9.244
    1XTA   CL1123240  28.642   0.847   9.268
    1XTA   CL1223241  28.573   0.788   9.396
    1XTA    HL123242  27.145   1.133   7.971
    1XTA    HL223243  27.146   0.985   7.869
    1XTA    HL323244  27.185   0.986   8.057
    1XTA    HL423245  28.144   0.530   7.652
    1XTA    HL523246  28.248   0.476   7.775
    1XTA    HL623247  28.161   0.273   7.562
    1XTA    HL723248  28.258   0.245   7.705
    1XTA    HL823249  28.393   0.255   7.493
    1XTA    HL923250  28.439   0.375   7.622
    1XTA   HL1023251  28.253   0.445   7.381
    1XTA   HL1123252  28.319   0.540   7.499
    1XTA   HL1223253  28.498   0.451   7.281
    1XTA   HL1323254  28.561   0.456   7.450
    1XTA   HL1423255  28.599   0.685   7.342
    1XTA   HL1523256  28.419   0.683   7.307
    1XTA   HL1623257  28.501   0.892   7.590
    1XTA   HL1723258  28.542   0.892   7.421
    1XTA   HL1823259  28.210   0.960   7.291
    1XTA   HL1923260  28.254   0.787   7.288
    1XTA   HL2023261  28.359   0.944   7.116
    1XTA   HL2123262  28.481   0.874   7.219
    1XTA   HL2223263  28.424   1.040   7.242
    1XTA   HL2323264  28.076   0.657   8.631
    1XTA   HL2423265  27.961   0.764   8.719
    1XTA   HL2523266  28.256   0.799   8.748
    1XTA   HL2623267  28.152   0.935   8.755
    1XTA   HL2723268  28.033   0.826   8.947
    1XTA   HL2823269  28.165   0.703   8.963
    1XTA   HL2923270  28.326   0.905   8.981
    1XTA   HL3023271  28.192   1.006   8.949
    1XTA   HL3123272  28.070   0.950   9.159
    1XTA   HL3223273  28.200   0.840   9.192
    1XTA   HL3323274  28.240   1.141   9.191
    1XTA   HL3423275  28.247   1.022   9.317
    1XTA   HL3523276  28.446   1.036   9.369
    1XTA   HL3623277  28.492   1.174   9.271
    1XTA   HL3723278  28.747   0.823   9.271
    1XTA   HL3823279  28.583   0.809   9.180
    1XTA   HL3923280  28.466   0.801   9.398
    1XTA   HL4023281  28.603   0.837   9.489
    1XTA   HL4123282  28.584   0.681   9.406
    1XTA    CO823283  28.330   1.055   7.501
    1XTA    CO923284  28.218   0.831   7.546
    1XTA    OA623285  28.102   0.909   7.547
    1XTA   HL4223286  28.250   1.119   7.468
    1XTA   HL4323287  28.322   1.056   7.609
    1XTA   HL4423288  28.718   1.028   9.437
    1XTA   HL4523289  28.822   1.021   9.313
    1XTA   CO1023290  28.730   1.058   9.339
    1XTA   CO1123291  28.652   1.052   9.105
    1XTA    OA723292  28.734   1.201   9.332
    1XTA   HL4623293  28.572   1.010   9.042
    1XTA   HL4723294  28.647   1.157   9.094
    1XTA   HL4823295  28.245   0.825   7.661
    1XTA   HL4923296  28.217   0.728   7.511
    1XTA     NT23297  28.333  -1.120  -0.337
    1XTA    CN123298  28.439  -1.075  -0.411
    1XTA     C123299  28.433  -1.052  -0.548
    1XTA     C223300  28.554  -1.029  -0.618
    1XTA     C323301  28.679  -1.034  -0.555
    1XTA     C423302  28.682  -1.062  -0.421
    1XTA     C523303  28.566  -1.088  -0.349
    1XTA    CN223304  28.291  -1.253  -0.342
    1XTA     C623305  28.207  -1.298  -0.442
    1XTA     C723306  28.172  -1.434  -0.450
    1XTA     C823307  28.215  -1.525  -0.349
    1XTA     C923308  28.307  -1.478  -0.249
    1XTA    C1023309  28.339  -1.340  -0.242
    1XTA    CN323310  28.249  -1.020  -0.282
    1XTA    C1123311  28.194  -0.929  -0.365
    1XTA    C1223312  28.123  -0.814  -0.315
    1XTA    C1323313  28.085  -0.805  -0.177
    1XTA    C1423314  28.141  -0.900  -0.093
    1XTA    C1523315  28.233  -1.003  -0.143
    1XTA     H123316  28.335  -1.047  -0.600
    1XTA     H223317  28.552  -1.011  -0.729
    1XTA     H323318  28.770  -1.065  -0.362
    1XTA     H423319  28.574  -1.106  -0.246
    1XTA     H523320  28.179  -1.225  -0.519
    1XTA     H623321  28.108  -1.462  -0.529
    1XTA     H723322  28.350  -1.548  -0.179
    1XTA     H823323  28.400  -1.295  -0.162
    1XTA     H923324  28.198  -0.948  -0.470
    1XTA    H1023325  28.089  -0.742  -0.382
    1XTA    H1123326  28.127  -0.893   0.011
    1XTA    H1223327  28.286  -1.073  -0.081
    1XTA    OA123328  28.797  -1.010  -0.620
    1XTA    CO123329  28.810  -1.083  -0.740
    1XTA    OA223330  28.163  -1.656  -0.351
    1XTA    CO223331  28.254  -1.756  -0.329
    1XTA    CL123332  28.193  -1.897  -0.338
    1XTA    CL223333  28.291  -2.018  -0.347
    1XTA    CL323334  28.207  -2.151  -0.338
    1XTA    CL423335  28.237  -2.222  -0.205
    1XTA    CO323336  28.214  -2.137  -0.073
    1XTA    OA323337  28.075  -2.113  -0.061
    1XTA    CO423338  28.036  -2.033   0.050
    1XTA    CT123339  27.885  -2.035   0.084
    1XTA    CL523340  27.858  -1.950   0.215
    1XTA    CL623341  27.960  -1.961   0.332
    1XTA    OA423342  28.010  -0.704  -0.116
    1XTA    CO523343  27.897  -0.662  -0.193
    1XTA    CL723344  27.783  -0.767  -0.186
    1XTA    CL823345  27.681  -0.744  -0.292
    1XTA    CL923346  27.592  -0.870  -0.307
    1XTA   CL1023347  27.491  -0.860  -0.419
    1XTA    CO623348  27.396  -0.985  -0.420
    1XTA    OA523349  27.337  -0.982  -0.291
    1XTA    CO723350  27.210  -1.057  -0.270
    1XTA    CT223351  27.180  -1.066  -0.122
    1XTA   CL1123352  27.166  -0.925  -0.066
    1XTA   CL1223353  27.285  -0.838  -0.049
    1XTA    HL123354  28.776  -1.186  -0.727
    1XTA    HL223355  28.749  -1.033  -0.812
    1XTA    HL323356  28.921  -1.094  -0.762
    1XTA    HL423357  28.329  -1.745  -0.408
    1XTA    HL523358  28.308  -1.746  -0.235
    1XTA    HL623359  28.129  -1.905  -0.424
    1XTA    HL723360  28.135  -1.904  -0.248
    1XTA    HL823361  28.364  -2.027  -0.270
    1XTA    HL923362  28.355  -2.021  -0.438
    1XTA   HL1023363  28.111  -2.109  -0.359
    1XTA   HL1123364  28.228  -2.219  -0.419
    1XTA   HL1223365  28.343  -2.254  -0.209
    1XTA   HL1323366  28.173  -2.307  -0.204
    1XTA   HL1423367  28.253  -2.189   0.013
    1XTA   HL1523368  28.271  -2.043  -0.072
    1XTA   HL1623369  28.092  -2.047   0.141
    1XTA   HL1723370  28.069  -1.937   0.013
    1XTA   HL1823371  27.759  -1.992   0.247
    1XTA   HL1923372  27.853  -1.847   0.190
    1XTA   HL2023373  27.923  -1.917   0.425
    1XTA   HL2123374  28.054  -1.928   0.300
    1XTA   HL2223375  27.958  -2.068   0.368
    1XTA   HL2323376  27.914  -0.633  -0.300
    1XTA   HL2423377  27.851  -0.586  -0.134
    1XTA   HL2523378  27.823  -0.860  -0.186
    1XTA   HL2623379  27.745  -0.762  -0.086
    1XTA   HL2723380  27.622  -0.658  -0.272
    1XTA   HL2823381  27.730  -0.723  -0.387
    1XTA   HL2923382  27.656  -0.954  -0.340
    1XTA   HL3023383  27.547  -0.900  -0.206
    1XTA   HL3123384  27.434  -0.769  -0.414
    1XTA   HL3223385  27.552  -0.854  -0.509
    1XTA   HL3323386  27.311  -0.972  -0.486
    1XTA   HL3423387  27.441  -1.079  -0.444
    1XTA   HL3523388  27.218  -1.158  -0.306
    1XTA   HL3623389  27.127  -1.014  -0.323
    1XTA   HL3723390  27.102  -0.922   0.019
    1XTA   HL3823391  27.105  -0.876  -0.135
    1XTA   HL3923392  27.259  -0.755   0.018
    1XTA   HL4023393  27.327  -0.803  -0.144
    1XTA   HL4123394  27.371  -0.879   0.001
    1XTA    CO823395  27.856  -2.187   0.106
    1XTA    CO923396  27.804  -1.989  -0.038
    1XTA    OA623397  27.952  -2.242   0.192
    1XTA   HL4223398  27.852  -2.239   0.012
    1XTA   HL4323399  27.759  -2.198   0.156
    1XTA   HL4423400  27.390  -1.092  -0.085
    1XTA   HL4523401  27.284  -1.110   0.054
    1XTA   CO1023402  27.292  -1.135  -0.049
    1XTA   CO1123403  27.046  -1.146  -0.104
    1XTA    OA723404  27.306  -1.278  -0.061
    1XTA   HL4623405  27.050  -1.239  -0.155
    1XTA   HL4723406  27.031  -1.171  -0.003
    1XTA   HL4823407  27.824  -2.065  -0.116
    1XTA   HL4923408  27.698  -1.990  -0.012
    1XTA     NT23409  31.583   1.441   2.787
    1XTA    CN123410  31.527   1.563   2.788
    1XTA     C123411  31.389   1.568   2.801
    1XTA     C223412  31.322   1.692   2.796
    1XTA     C323413  31.401   1.808   2.774
    1XTA     C423414  31.539   1.799   2.752
    1XTA     C523415  31.603   1.677   2.758
    1XTA    CN223416  31.560   1.355   2.683
    1XTA     C623417  31.590   1.397   2.553
    1XTA     C723418  31.579   1.310   2.448
    1XTA     C823419  31.533   1.183   2.467
    1XTA     C923420  31.489   1.143   2.597
    1XTA    C1023421  31.502   1.230   2.706
    1XTA    CN323422  31.647   1.389   2.897
    1XTA    C1123423  31.772   1.326   2.882
    1XTA    C1223424  31.839   1.284   2.999
    1XTA    C1323425  31.763   1.274   3.120
    1XTA    C1423426  31.634   1.331   3.131
    1XTA    C1523427  31.585   1.396   3.019
    1XTA     H123428  31.344   1.475   2.826
    1XTA     H223429  31.214   1.695   2.803
    1XTA     H323430  31.596   1.879   2.722
    1XTA     H423431  31.712   1.668   2.743
    1XTA     H523432  31.640   1.490   2.536
    1XTA     H623433  31.604   1.347   2.353
    1XTA     H723434  31.469   1.039   2.626
    1XTA     H823435  31.485   1.200   2.807
    1XTA     H923436  31.804   1.317   2.786
    1XTA    H1023437  31.938   1.241   2.989
    1XTA    H1123438  31.595   1.329   3.225
    1XTA    H1223439  31.500   1.464   3.028
    1XTA    OA123440  31.344   1.932   2.772
    1XTA    CO123441  31.201   1.942   2.763
    1XTA    OA223442  31.532   1.099   2.355
    1XTA    CO223443  31.551   0.959   2.382
    1XTA    CL123444  31.572   0.879   2.252
    1XTA    CL223445  31.644   0.743   2.276
    1XTA    CL323446  31.707   0.696   2.148
    1XTA    CL423447  31.777   0.559   2.156
    1XTA    CO323448  31.910   0.577   2.233
    1XTA    OA323449  31.987   0.466   2.187
    1XTA    CO423450  31.942   0.347   2.254
    1XTA    CT123451  31.997   0.214   2.194
    1XTA    CL523452  32.142   0.193   2.247
    1XTA    CL623453  32.242   0.277   2.182
    1XTA    OA423454  31.815   1.219   3.234
    1XTA    CO523455  31.948   1.184   3.235
    1XTA    CL723456  31.987   1.147   3.374
    1XTA    CL823457  32.039   1.260   3.471
    1XTA    CL923458  31.919   1.358   3.498
    1XTA   CL1023459  31.947   1.489   3.425
    1XTA    CO623460  31.835   1.586   3.430
    1XTA    OA523461  31.875   1.710   3.378
    1XTA    CO723462  31.764   1.796   3.334
    1XTA    CT223463  31.815   1.929   3.279
    1XTA   CL1123464  31.910   1.913   3.160
    1XTA   CL1223465  31.873   1.834   3.035
    1XTA    HL123466  31.150   1.917   2.863
    1XTA    HL223467  31.182   2.055   2.739
    1XTA    HL323468  31.172   1.870   2.688
    1XTA    HL423469  31.640   0.961   2.445
    1XTA    HL523470  31.468   0.927   2.445
    1XTA    HL623471  31.633   0.930   2.179
    1XTA    HL723472  31.488   0.867   2.188
    1XTA    HL823473  31.569   0.679   2.312
    1XTA    HL923474  31.714   0.747   2.356
    1XTA   HL1023475  31.634   0.687   2.070
    1XTA   HL1123476  31.783   0.780   2.125
    1XTA   HL1223477  31.795   0.512   2.063
    1XTA   HL1323478  31.702   0.498   2.214
    1XTA   HL1423479  31.951   0.673   2.204
    1XTA   HL1523480  31.904   0.584   2.337
    1XTA   HL1623481  31.959   0.351   2.360
    1XTA   HL1723482  31.833   0.334   2.246
    1XTA   HL1823483  32.171   0.087   2.235
    1XTA   HL1923484  32.138   0.213   2.358
    1XTA   HL2023485  32.339   0.260   2.229
    1XTA   HL2123486  32.221   0.380   2.200
    1XTA   HL2223487  32.243   0.265   2.071
    1XTA   HL2323488  32.012   1.263   3.195
    1XTA   HL2423489  31.973   1.093   3.175
    1XTA   HL2523490  31.908   1.099   3.428
    1XTA   HL2623491  32.057   1.064   3.380
    1XTA   HL2723492  32.067   1.211   3.563
    1XTA   HL2823493  32.127   1.306   3.444
    1XTA   HL2923494  31.821   1.325   3.464
    1XTA   HL3023495  31.920   1.369   3.610
    1XTA   HL3123496  32.035   1.528   3.474
    1XTA   HL3223497  31.965   1.481   3.321
    1XTA   HL3323498  31.743   1.541   3.388
    1XTA   HL3423499  31.822   1.619   3.528
    1XTA   HL3523500  31.698   1.804   3.414
    1XTA   HL3623501  31.704   1.734   3.264
    1XTA   HL3723502  32.010   1.876   3.189
    1XTA   HL3823503  31.945   2.012   3.131
    1XTA   HL3923504  31.857   1.731   3.059
    1XTA   HL4023505  31.945   1.844   2.956
    1XTA   HL4123506  31.784   1.864   2.987
    1XTA    CO823507  31.990   0.190   2.041
    1XTA    CO923508  31.922   0.105   2.271
    1XTA    OA623509  31.869   0.151   1.981
    1XTA   HL4223510  32.057   0.103   2.033
    1XTA   HL4323511  32.039   0.268   1.988
    1XTA   HL4423512  31.966   2.094   3.341
    1XTA   HL4523513  31.968   1.946   3.430
    1XTA   CO1023514  31.884   2.004   3.398
    1XTA   CO1123515  31.694   2.019   3.249
    1XTA    OA723516  31.712   2.122   3.202
    1XTA   HL4623517  31.621   1.966   3.180
    1XTA   HL4723518  31.641   2.017   3.341
    1XTA   HL4823519  31.814   0.101   2.253
    1XTA   HL4923520  31.952   0.010   2.231
    1XTA     NT23521  29.650  -0.854   2.553
    1XTA    CN123522  29.629  -0.930   2.669
    1XTA     C123523  29.502  -0.930   2.733
    1XTA     C223524  29.472  -1.006   2.851
    1XTA     C323525  29.565  -1.100   2.890
    1XTA     C423526  29.683  -1.113   2.817
    1XTA     C523527  29.718  -1.028   2.706
    1XTA    CN223528  29.605  -0.909   2.436
    1XTA     C623529  29.472  -0.887   2.387
    1XTA     C723530  29.432  -0.964   2.272
    1XTA     C823531  29.514  -1.065   2.210
    1XTA     C923532  29.639  -1.081   2.266
    1XTA    C1023533  29.686  -0.998   2.369
    1XTA    CN323534  29.753  -0.760   2.554
    1XTA    C1123535  29.746  -0.666   2.661
    1XTA    C1223536  29.848  -0.575   2.676
    1XTA    C1323537  29.960  -0.567   2.588
    1XTA    C1423538  29.965  -0.654   2.475
    1XTA    C1523539  29.867  -0.755   2.464
    1XTA     H123540  29.428  -0.864   2.704
    1XTA     H223541  29.378  -0.986   2.892
    1XTA     H323542  29.751  -1.187   2.854
    1XTA     H423543  29.814  -1.040   2.654
    1XTA     H523544  29.408  -0.821   2.438
    1XTA     H623545  29.329  -0.957   2.242
    1XTA     H723546  29.702  -1.161   2.218
    1XTA     H823547  29.787  -1.012   2.405
    1XTA     H923548  29.662  -0.674   2.722
    1XTA    H1023549  29.862  -0.500   2.760
    1XTA    H1123550  30.052  -0.647   2.405
    1XTA    H1223551  29.877  -0.831   2.389
    1XTA    OA123552  29.535  -1.183   2.994
    1XTA    CO123553  29.481  -1.101   3.101
    1XTA    OA223554  29.482  -1.150   2.103
    1XTA    CO223555  29.347  -1.160   2.070
    1XTA    CL123556  29.331  -1.265   1.959
    1XTA    CL223557  29.182  -1.302   1.930
    1XTA    CL323558  29.081  -1.321   2.040
    1XTA    CL423559  29.132  -1.418   2.144
    1XTA    CO323560  29.064  -1.403   2.281
    1XTA    OA323561  29.115  -1.290   2.347
    1XTA    CO423562  29.068  -1.284   2.487
    1XTA    CT123563  29.122  -1.151   2.554
    1XTA    CL523564  29.092  -1.022   2.470
    1XTA    CL623565  28.945  -0.986   2.439
    1XTA    OA423566  30.066  -0.481   2.624
    1XTA    CO523567  30.159  -0.456   2.520
    1XTA    CL723568  30.258  -0.348   2.569
    1XTA    CL823569  30.348  -0.311   2.446
    1XTA    CL923570  30.429  -0.180   2.471
    1XTA   CL1023571  30.512  -0.145   2.347
    1XTA    CO623572  30.611  -0.258   2.323
    1XTA    OA523573  30.717  -0.233   2.226
    1XTA    CO723574  30.683  -0.248   2.089
    1XTA    CT223575  30.797  -0.205   1.989
    1XTA   CL1123576  30.883  -0.326   1.942
    1XTA   CL1223577  30.937  -0.415   2.057
    1XTA    HL123578  29.548  -1.017   3.127
    1XTA    HL223579  29.392  -1.061   3.072
    1XTA    HL323580  29.467  -1.161   3.189
    1XTA    HL423581  29.286  -1.187   2.147
    1XTA    HL523582  29.308  -1.062   2.027
    1XTA    HL623583  29.394  -1.345   1.987
    1XTA    HL723584  29.380  -1.232   1.869
    1XTA    HL823585  29.178  -1.394   1.875
    1XTA    HL923586  29.155  -1.223   1.861
    1XTA   HL1023587  29.064  -1.230   2.090
    1XTA   HL1123588  28.980  -1.339   2.004
    1XTA   HL1223589  29.238  -1.424   2.164
    1XTA   HL1323590  29.107  -1.524   2.116
    1XTA   HL1423591  28.955  -1.380   2.276
    1XTA   HL1523592  29.081  -1.487   2.343
    1XTA   HL1623593  28.962  -1.290   2.481
    1XTA   HL1723594  29.102  -1.377   2.543
    1XTA   HL1823595  29.138  -1.041   2.376
    1XTA   HL1923596  29.135  -0.938   2.513
    1XTA   HL2023597  28.875  -0.986   2.524
    1XTA   HL2123598  28.897  -1.055   2.365
    1XTA   HL2223599  28.935  -0.898   2.391
    1XTA   HL2323600  30.100  -0.417   2.436
    1XTA   HL2423601  30.211  -0.551   2.498
    1XTA   HL2523602  30.196  -0.271   2.609
    1XTA   HL2623603  30.310  -0.398   2.652
    1XTA   HL2723604  30.412  -0.393   2.414
    1XTA   HL2823605  30.274  -0.288   2.370
    1XTA   HL2923606  30.355  -0.102   2.481
    1XTA   HL3023607  30.495  -0.183   2.559
    1XTA   HL3123608  30.440  -0.139   2.265
    1XTA   HL3223609  30.554  -0.050   2.365
    1XTA   HL3323610  30.654  -0.274   2.414
    1XTA   HL3423611  30.553  -0.344   2.295
    1XTA   HL3523612  30.595  -0.186   2.082
    1XTA   HL3623613  30.662  -0.346   2.063
    1XTA   HL3723614  30.971  -0.290   1.882
    1XTA   HL3823615  30.821  -0.386   1.869
    1XTA   HL3923616  31.010  -0.381   2.127
    1XTA   HL4023617  30.970  -0.512   2.014
    1XTA   HL4123618  30.849  -0.448   2.119
    1XTA    CO823619  29.278  -1.162   2.566
    1XTA    CO923620  29.063  -1.132   2.692
    1XTA    OA623621  29.316  -1.263   2.592
    1XTA   HL4223622  29.309  -1.084   2.637
    1XTA   HL4323623  29.326  -1.132   2.472
    1XTA   HL4423624  30.830  -0.008   2.091
    1XTA   HL4523625  30.952  -0.133   2.183
    1XTA   CO1023626  30.888  -0.099   2.065
    1XTA   CO1123627  30.727  -0.144   1.869
    1XTA    OA723628  30.669  -0.056   1.895
    1XTA   HL4623629  30.800  -0.118   1.789
    1XTA   HL4723630  30.667  -0.232   1.841
    1XTA   HL4823631  29.126  -1.029   2.758
    1XTA   HL4923632  28.954  -1.113   2.677
    1XTA     NT23633  27.086  -0.498   1.004
    1XTA    CN123634  27.092  -0.434   0.886
    1XTA     C123635  27.179  -0.321   0.874
    1XTA     C223636  27.197  -0.254   0.750
    1XTA     C323637  27.128  -0.304   0.640
    1XTA     C423638  27.051  -0.418   0.652
    1XTA     C523639  27.026  -0.488   0.771
    1XTA    CN223640  26.984  -0.479   1.080
    1XTA     C623641  26.981  -0.366   1.160
    1XTA     C723642  26.864  -0.345   1.246
    1XTA     C823643  26.758  -0.433   1.246
    1XTA     C923644  26.757  -0.538   1.156
    1XTA    C1023645  26.876  -0.564   1.078
    1XTA    CN323646  27.189  -0.567   1.058
    1XTA    C1123647  27.240  -0.679   0.992
    1XTA    C1223648  27.352  -0.754   1.040
    1XTA    C1323649  27.406  -0.713   1.163
    1XTA    C1423650  27.346  -0.609   1.232
    1XTA    C1523651  27.247  -0.531   1.178
    1XTA     H123652  27.230  -0.275   0.951
    1XTA     H223653  27.270  -0.169   0.743
    1XTA     H323654  26.992  -0.461   0.574
    1XTA     H423655  26.961  -0.577   0.779
    1XTA     H523656  27.067  -0.298   1.162
    1XTA     H623657  26.858  -0.271   1.316
    1XTA     H723658  26.675  -0.604   1.144
    1XTA     H823659  26.862  -0.653   1.023
    1XTA     H923660  27.188  -0.715   0.906
    1XTA    H1023661  27.398  -0.825   0.976
    1XTA    H1123662  27.384  -0.581   1.326
    1XTA    H1223663  27.205  -0.445   1.233
    1XTA    OA123664  27.146  -0.256   0.510
    1XTA    CO123665  27.272  -0.212   0.473
    1XTA    OA223666  26.647  -0.409   1.328
    1XTA    CO223667  26.616  -0.516   1.414
    1XTA    CL123668  26.700  -0.495   1.535
    1XTA    CL223669  26.669  -0.606   1.636
    1XTA    CL323670  26.721  -0.566   1.770
    1XTA    CL423671  26.701  -0.685   1.859
    1XTA    CO323672  26.700  -0.656   2.009
    1XTA    OA323673  26.650  -0.776   2.073
    1XTA    CO423674  26.504  -0.772   2.083
    1XTA    CT123675  26.455  -0.917   2.118
    1XTA    CL523676  26.525  -0.971   2.242
    1XTA    CL623677  26.676  -0.999   2.227
    1XTA    OA423678  27.524  -0.777   1.218
    1XTA    CO523679  27.592  -0.714   1.322
    1XTA    CL723680  27.540  -0.759   1.463
    1XTA    CL823681  27.621  -0.698   1.578
    1XTA    CL923682  27.570  -0.561   1.618
    1XTA   CL1023683  27.647  -0.485   1.716
    1XTA    CO623684  27.592  -0.343   1.751
    1XTA    OA523685  27.673  -0.300   1.859
    1XTA    CO723686  27.645  -0.163   1.881
    1XTA    CT223687  27.715  -0.112   2.011
    1XTA   CL1123688  27.872  -0.142   2.006
    1XTA   CL1223689  27.948  -0.111   2.146
    1XTA    HL123690  27.315  -0.126   0.514
    1XTA    HL223691  27.333  -0.301   0.499
    1XTA    HL323692  27.283  -0.205   0.366
    1XTA    HL423693  26.515  -0.524   1.447
    1XTA    HL523694  26.649  -0.611   1.373
    1XTA    HL623695  26.674  -0.399   1.581
    1XTA    HL723696  26.808  -0.486   1.514
    1XTA    HL823697  26.707  -0.702   1.594
    1XTA    HL923698  26.566  -0.623   1.641
    1XTA   HL1023699  26.820  -0.526   1.768
    1XTA   HL1123700  26.667  -0.472   1.800
    1XTA   HL1223701  26.779  -0.753   1.845
    1XTA   HL1323702  26.617  -0.745   1.822
    1XTA   HL1423703  26.800  -0.627   2.044
    1XTA   HL1523704  26.626  -0.575   2.038
    1XTA   HL1623705  26.465  -0.702   2.157
    1XTA   HL1723706  26.464  -0.745   1.987
    1XTA   HL1823707  26.472  -1.063   2.277
    1XTA   HL1923708  26.509  -0.914   2.333
    1XTA   HL2023709  26.730  -0.914   2.263
    1XTA   HL2123710  26.721  -1.018   2.127
    1XTA   HL2223711  26.689  -1.082   2.302
    1XTA   HL2323712  27.587  -0.608   1.304
    1XTA   HL2423713  27.695  -0.748   1.312
    1XTA   HL2523714  27.433  -0.735   1.480
    1XTA   HL2623715  27.559  -0.864   1.479
    1XTA   HL2723716  27.635  -0.775   1.656
    1XTA   HL2823717  27.720  -0.681   1.552
    1XTA   HL2923718  27.560  -0.505   1.530
    1XTA   HL3023719  27.466  -0.561   1.650
    1XTA   HL3123720  27.651  -0.536   1.811
    1XTA   HL3223721  27.751  -0.469   1.683
    1XTA   HL3323722  27.622  -0.281   1.673
    1XTA   HL3423723  27.481  -0.340   1.760
    1XTA   HL3523724  27.540  -0.146   1.907
    1XTA   HL3623725  27.678  -0.101   1.794
    1XTA   HL3723726  27.925  -0.100   1.923
    1XTA   HL3823727  27.879  -0.254   2.002
    1XTA   HL3923728  28.050  -0.142   2.132
    1XTA   HL4023729  27.929  -0.165   2.238
    1XTA   HL4123730  27.938  -0.003   2.164
    1XTA    CO823731  26.473  -1.007   1.999
    1XTA    CO923732  26.307  -0.905   2.146
    1XTA    OA623733  26.411  -0.952   1.880
    1XTA   HL4223734  26.428  -1.106   2.008
    1XTA   HL4323735  26.586  -1.015   1.977
    1XTA   HL4423736  27.673  -0.128   2.225
    1XTA   HL4523737  27.703  -0.276   2.149
    1XTA   CO1023738  27.652  -0.184   2.133
    1XTA   CO1123739  27.683   0.040   2.015
    1XTA    OA723740  27.551   0.049   2.045
    1XTA   HL4623741  27.745   0.090   2.092
    1XTA   HL4723742  27.701   0.078   1.911
    1XTA   HL4823743  26.255  -0.853   2.064
    1XTA   HL4923744  26.274  -1.011   2.162
    1XTA     NT23745  28.905   0.115  10.310
    1XTA    CN123746  28.811   0.014  10.316
    1XTA     C123747  28.754  -0.026  10.436
    1XTA     C223748  28.663  -0.132  10.436
    1XTA     C323749  28.647  -0.211  10.322
    1XTA     C423750  28.701  -0.167  10.199
    1XTA     C523751  28.778  -0.053  10.195
    1XTA    CN223752  28.895   0.228  10.235
    1XTA     C623753  28.843   0.344  10.292
    1XTA     C723754  28.846   0.465  10.224
    1XTA     C823755  28.895   0.465  10.086
    1XTA     C923756  28.951   0.348  10.035
    1XTA    C1023757  28.958   0.230  10.112
    1XTA    CN323758  29.019   0.092  10.379
    1XTA    C1123759  29.120   0.005  10.337
    1XTA    C1223760  29.217  -0.035  10.432
    1XTA    C1323761  29.218   0.019  10.563
    1XTA    C1423762  29.131   0.120  10.592
    1XTA    C1523763  29.032   0.158  10.500
    1XTA     H123764  28.780   0.028  10.531
    1XTA     H223765  28.609  -0.149  10.527
    1XTA     H323766  28.660  -0.213  10.111
    1XTA     H423767  28.811  -0.015  10.102
    1XTA     H523768  28.804   0.336  10.385
    1XTA     H623769  28.810   0.547  10.275
    1XTA     H723770  28.991   0.351   9.932
    1XTA     H823771  29.007   0.146  10.063
    1XTA     H923772  29.123  -0.046  10.239
    1XTA    H1023773  29.294  -0.110  10.405
    1XTA    H1123774  29.129   0.170  10.691
    1XTA    H1223775  28.955   0.220  10.534
    1XTA    OA123776  28.570  -0.328  10.325
    1XTA    CO123777  28.549  -0.381  10.454
    1XTA    OA223778  28.886   0.571  10.002
    1XTA    CO223779  28.867   0.690  10.070
    1XTA    CL123780  28.866   0.794   9.959
    1XTA    CL223781  28.818   0.935  10.011
    1XTA    CL323782  28.834   1.030   9.903
    1XTA    CL423783  28.805   1.169   9.947
    1XTA    CO323784  28.872   1.266   9.853
    1XTA    OA323785  28.805   1.274   9.728
    1XTA    CO423786  28.846   1.375   9.644
    1XTA    CT123787  28.766   1.373   9.509
    1XTA    CL523788  28.623   1.330   9.530
    1XTA    CL623789  28.548   1.433   9.623
    1XTA    OA423790  29.292  -0.024  10.666
    1XTA    CO523791  29.338  -0.158  10.666
    1XTA    CL723792  29.409  -0.174  10.805
    1XTA    CL823793  29.314  -0.152  10.923
    1XTA    CL923794  29.397  -0.109  11.046
    1XTA   CL1023795  29.395   0.046  11.059
    1XTA    CO623796  29.428   0.125  10.933
    1XTA    OA523797  29.452   0.261  10.954
    1XTA    CO723798  29.483   0.329  10.830
    1XTA    CT223799  29.630   0.380  10.836
    1XTA   CL1123800  29.737   0.266  10.849
    1XTA   CL1223801  29.733   0.166  10.736
    1XTA    HL123802  28.489  -0.315  10.517
    1XTA    HL223803  28.490  -0.477  10.455
    1XTA    HL323804  28.641  -0.398  10.514
    1XTA    HL423805  28.774   0.691  10.122
    1XTA    HL523806  28.940   0.713  10.149
    1XTA    HL623807  28.809   0.767   9.872
    1XTA    HL723808  28.970   0.797   9.924
    1XTA    HL823809  28.880   0.964  10.101
    1XTA    HL923810  28.717   0.921  10.047
    1XTA   HL1023811  28.931   1.031   9.872
    1XTA   HL1123812  28.780   1.004   9.812
    1XTA   HL1223813  28.838   1.181  10.052
    1XTA   HL1323814  28.697   1.178   9.941
    1XTA   HL1423815  28.867   1.361   9.900
    1XTA   HL1523816  28.980   1.250   9.844
    1XTA   HL1623817  28.822   1.469   9.702
    1XTA   HL1723818  28.949   1.379   9.626
    1XTA   HL1823819  28.630   1.236   9.579
    1XTA   HL1923820  28.568   1.304   9.440
    1XTA   HL2023821  28.600   1.447   9.718
    1XTA   HL2123822  28.443   1.396   9.636
    1XTA   HL2223823  28.538   1.527   9.570
    1XTA   HL2323824  29.411  -0.174  10.583
    1XTA   HL2423825  29.251  -0.223  10.636
    1XTA   HL2523826  29.450  -0.275  10.805
    1XTA   HL2623827  29.493  -0.111  10.803
    1XTA   HL2723828  29.242  -0.076  10.895
    1XTA   HL2823829  29.264  -0.244  10.950
    1XTA   HL2923830  29.355  -0.152  11.139
    1XTA   HL3023831  29.498  -0.146  11.042
    1XTA   HL3123832  29.301   0.066  11.088
    1XTA   HL3223833  29.467   0.072  11.132
    1XTA   HL3323834  29.518   0.081  10.897
    1XTA   HL3423835  29.359   0.114  10.851
    1XTA   HL3523836  29.413   0.414  10.825
    1XTA   HL3623837  29.473   0.270  10.740
    1XTA   HL3723838  29.724   0.219  10.945
    1XTA   HL3823839  29.835   0.316  10.849
    1XTA   HL3923840  29.825   0.110  10.733
    1XTA   HL4023841  29.717   0.202  10.637
    1XTA   HL4123842  29.654   0.086  10.755
    1XTA    CO823843  28.828   1.248   9.426
    1XTA    CO923844  28.776   1.501   9.425
    1XTA    OA623845  28.882   1.524   9.414
    1XTA   HL4223846  28.861   1.167   9.494
    1XTA   HL4323847  28.953   1.273   9.358
    1XTA   HL4423848  29.555   0.545  10.945
    1XTA   HL4523849  29.687   0.451  11.030
    1XTA   CO1023850  29.648   0.488  10.935
    1XTA   CO1123851  29.662   0.491  10.733
    1XTA    OA723852  29.720   0.548  10.865
    1XTA   HL4623853  29.760   0.467  10.634
    1XTA   HL4723854  29.589   0.549  10.693
    1XTA   HL4823855  28.708   1.583   9.467
    1XTA   HL4923856  28.724   1.473   9.332
    1XTA     NT23857  32.389   1.632   5.562
    1XTA    CN123858  32.392   1.516   5.492
    1XTA     C123859  32.361   1.392   5.547
    1XTA     C223860  32.373   1.274   5.475
    1XTA     C323861  32.421   1.272   5.345
    1XTA     C423862  32.453   1.402   5.294
    1XTA     C523863  32.453   1.524   5.365
    1XTA    CN223864  32.273   1.701   5.568
    1XTA     C623865  32.282   1.846   5.564
    1XTA     C723866  32.170   1.927   5.571
    1XTA     C823867  32.043   1.869   5.587
    1XTA     C923868  32.037   1.733   5.580
    1XTA    C1023869  32.145   1.646   5.583
    1XTA    CN323870  32.492   1.653   5.651
    1XTA    C1123871  32.618   1.671   5.601
    1XTA    C1223872  32.725   1.700   5.690
    1XTA    C1323873  32.706   1.704   5.824
    1XTA    C1423874  32.578   1.687   5.877
    1XTA    C1523875  32.464   1.663   5.791
    1XTA     H123876  32.313   1.388   5.648
    1XTA     H223877  32.331   1.182   5.525
    1XTA     H323878  32.490   1.412   5.197
    1XTA     H423879  32.491   1.617   5.341
    1XTA     H523880  32.383   1.890   5.563
    1XTA     H623881  32.182   2.035   5.567
    1XTA     H723882  31.939   1.687   5.591
    1XTA     H823883  32.131   1.544   5.603
    1XTA     H923884  32.639   1.659   5.498
    1XTA    H1023885  32.826   1.696   5.652
    1XTA    H1123886  32.575   1.699   5.984
    1XTA    H1223887  32.365   1.651   5.836
    1XTA    OA123888  32.419   1.152   5.274
    1XTA    CO123889  32.457   1.161   5.141
    1XTA    OA223890  31.927   1.937   5.589
    1XTA    CO223891  31.932   2.075   5.601
    1XTA    CL123892  31.777   2.108   5.601
    1XTA    CL223893  31.698   2.024   5.707
    1XTA    CL323894  31.549   2.047   5.708
    1XTA    CL423895  31.478   1.944   5.799
    1XTA    CO323896  31.322   1.974   5.813
    1XTA    OA323897  31.289   2.090   5.887
    1XTA    CO423898  31.278   2.061   6.032
    1XTA    CT123899  31.228   2.179   6.122
    1XTA    CL523900  31.244   2.147   6.277
    1XTA    CL623901  31.165   2.021   6.324
    1XTA    OA423902  32.806   1.734   5.913
    1XTA    CO523903  32.921   1.655   5.898
    1XTA    CL723904  33.002   1.682   6.020
    1XTA    CL823905  32.929   1.653   6.156
    1XTA    CL923906  32.875   1.508   6.161
    1XTA   CL1023907  32.805   1.497   6.293
    1XTA    CO623908  32.680   1.581   6.291
    1XTA    OA523909  32.617   1.558   6.410
    1XTA    CO723910  32.510   1.657   6.419
    1XTA    CT223911  32.460   1.658   6.562
    1XTA   CL1123912  32.336   1.748   6.569
    1XTA   CL1223913  32.250   1.752   6.695
    1XTA    HL123914  32.559   1.198   5.141
    1XTA    HL223915  32.471   1.064   5.100
    1XTA    HL323916  32.389   1.224   5.078
    1XTA    HL423917  31.963   2.120   5.697
    1XTA    HL523918  31.994   2.132   5.534
    1XTA    HL623919  31.719   2.091   5.510
    1XTA    HL723920  31.772   2.213   5.620
    1XTA    HL823921  31.733   2.042   5.817
    1XTA    HL923922  31.715   1.919   5.679
    1XTA   HL1023923  31.535   2.152   5.735
    1XTA   HL1123924  31.506   2.030   5.604
    1XTA   HL1223925  31.526   1.941   5.899
    1XTA   HL1323926  31.494   1.843   5.749
    1XTA   HL1423927  31.285   1.980   5.715
    1XTA   HL1523928  31.266   1.889   5.867
    1XTA   HL1623929  31.208   1.978   6.036
    1XTA   HL1723930  31.378   2.035   6.064
    1XTA   HL1823931  31.199   2.222   6.348
    1XTA   HL1923932  31.350   2.139   6.301
    1XTA   HL2023933  31.060   2.045   6.319
    1XTA   HL2123934  31.186   1.991   6.428
    1XTA   HL2223935  31.185   1.934   6.260
    1XTA   HL2323936  32.984   1.689   5.823
    1XTA   HL2423937  32.906   1.545   5.892
    1XTA   HL2523938  33.088   1.614   6.009
    1XTA   HL2623939  33.046   1.782   6.013
    1XTA   HL2723940  33.004   1.656   6.237
    1XTA   HL2823941  32.864   1.742   6.173
    1XTA   HL2923942  32.801   1.501   6.081
    1XTA   HL3023943  32.958   1.440   6.142
    1XTA   HL3123944  32.784   1.396   6.323
    1XTA   HL3223945  32.877   1.533   6.361
    1XTA   HL3323946  32.705   1.686   6.268
    1XTA   HL3423947  32.615   1.543   6.213
    1XTA   HL3523948  32.430   1.617   6.357
    1XTA   HL3623949  32.549   1.759   6.404
    1XTA   HL3723950  32.272   1.735   6.486
    1XTA   HL3823951  32.374   1.848   6.561
    1XTA   HL3923952  32.288   1.811   6.777
    1XTA   HL4023953  32.226   1.654   6.724
    1XTA   HL4123954  32.152   1.793   6.673
    1XTA    CO823955  31.082   2.217   6.095
    1XTA    CO923956  31.311   2.309   6.090
    1XTA    OA623957  31.043   2.338   6.152
    1XTA   HL4223958  31.031   2.128   6.123
    1XTA   HL4323959  31.062   2.225   5.984
    1XTA   HL4423960  32.546   1.711   6.762
    1XTA   HL4523961  32.656   1.654   6.645
    1XTA   CO1023962  32.569   1.708   6.654
    1XTA   CO1123963  32.423   1.516   6.605
    1XTA    OA723964  32.620   1.833   6.621
    1XTA   HL4623965  32.515   1.453   6.594
    1XTA   HL4723966  32.410   1.507   6.717
    1XTA   HL4823967  31.274   2.356   6.000
    1XTA   HL4923968  31.290   2.371   6.174
    1XTA     NT23969  25.766   2.141   5.048
    1XTA    CN123970  25.716   2.259   5.087
    1XTA     C123971  25.699   2.297   5.226
    1XTA     C223972  25.655   2.425   5.258
    1XTA     C323973  25.634   2.518   5.154
    1XTA     C423974  25.636   2.479   5.021
    1XTA     C523975  25.667   2.350   4.990
    1XTA    CN223976  25.701   2.067   4.962
    1XTA     C623977  25.562   2.050   4.985
    1XTA     C723978  25.485   1.971   4.898
    1XTA     C823979  25.549   1.898   4.800
    1XTA     C923980  25.686   1.912   4.784
    1XTA    C1023981  25.764   1.996   4.861
    1XTA    CN323982  25.893   2.114   5.088
    1XTA    C1123983  25.928   1.994   5.162
    1XTA    C1223984  26.060   1.972   5.194
    1XTA    C1323985  26.156   2.071   5.157
    1XTA    C1423986  26.127   2.180   5.077
    1XTA    C1523987  25.993   2.204   5.047
    1XTA     H123988  25.732   2.241   5.313
    1XTA     H223989  25.641   2.449   5.362
    1XTA     H323990  25.618   2.549   4.936
    1XTA     H423991  25.669   2.325   4.881
    1XTA     H523992  25.512   2.112   5.053
    1XTA     H623993  25.382   1.957   4.902
    1XTA     H723994  25.739   1.867   4.707
    1XTA     H823995  25.870   2.011   4.834
    1XTA     H923996  25.838   1.935   5.185
    1XTA    H1023997  26.100   1.893   5.250
    1XTA    H1123998  26.190   2.266   5.050
    1XTA    H1223999  25.963   2.284   4.984
    1XTA    OA124000  25.579   2.639   5.176
    1XTA    CO124001  25.595   2.704   5.308
    1XTA    OA224002  25.472   1.807   4.728
    1XTA    CO224003  25.533   1.734   4.618
    1XTA    CL124004  25.449   1.611   4.586
    1XTA    CL224005  25.389   1.543   4.707
    1XTA    CL324006  25.468   1.417   4.724
    1XTA    CL424007  25.400   1.317   4.812
    1XTA    CO324008  25.385   1.362   4.957
    1XTA    OA324009  25.293   1.270   5.017
    1XTA    CO424010  25.296   1.284   5.156
    1XTA    CT124011  25.198   1.185   5.213
    1XTA    CL524012  25.227   1.043   5.157
    1XTA    CL624013  25.360   0.986   5.205
    1XTA    OA424014  26.289   2.061   5.206
    1XTA    CO524015  26.305   2.005   5.336
    1XTA    CL724016  26.397   2.105   5.405
    1XTA    CL824017  26.439   2.048   5.544
    1XTA    CL924018  26.510   2.145   5.638
    1XTA   CL1024019  26.404   2.242   5.702
    1XTA    CO624020  26.456   2.374   5.758
    1XTA    OA524021  26.566   2.349   5.847
    1XTA    CO724022  26.652   2.462   5.857
    1XTA    CT224023  26.791   2.424   5.910
    1XTA   CL1124024  26.790   2.392   6.062
    1XTA   CL1224025  26.659   2.318   6.110
    1XTA    HL124026  25.688   2.705   5.355
    1XTA    HL224027  25.583   2.809   5.279
    1XTA    HL324028  25.507   2.676   5.374
    1XTA    HL424029  25.538   1.799   4.525
    1XTA    HL524030  25.635   1.695   4.636
    1XTA    HL624031  25.509   1.545   4.520
    1XTA    HL724032  25.355   1.630   4.525
    1XTA    HL824033  25.285   1.517   4.683
    1XTA    HL924034  25.399   1.596   4.802
    1XTA   HL1024035  25.481   1.380   4.627
    1XTA   HL1124036  25.569   1.443   4.767
    1XTA   HL1224037  25.457   1.228   4.803
    1XTA   HL1324038  25.297   1.293   4.786
    1XTA   HL1424039  25.481   1.358   5.004
    1XTA   HL1524040  25.334   1.455   4.965
    1XTA   HL1624041  25.391   1.256   5.202
    1XTA   HL1724042  25.278   1.388   5.191
    1XTA   HL1824043  25.217   1.043   5.047
    1XTA   HL1924044  25.147   0.981   5.198
    1XTA   HL2024045  25.449   1.026   5.152
    1XTA   HL2124046  25.363   0.882   5.196
    1XTA   HL2224047  25.373   0.992   5.312
    1XTA   HL2324048  26.340   1.898   5.334
    1XTA   HL2424049  26.215   2.006   5.397
    1XTA   HL2524050  26.490   2.122   5.343
    1XTA   HL2624051  26.343   2.196   5.404
    1XTA   HL2724052  26.352   2.012   5.602
    1XTA   HL2824053  26.497   1.962   5.513
    1XTA   HL2924054  26.563   2.090   5.718
    1XTA   HL3024055  26.583   2.203   5.587
    1XTA   HL3124056  26.320   2.265   5.637
    1XTA   HL3224057  26.369   2.186   5.787
    1XTA   HL3324058  26.489   2.439   5.674
    1XTA   HL3424059  26.377   2.416   5.818
    1XTA   HL3524060  26.598   2.528   5.915
    1XTA   HL3624061  26.659   2.498   5.755
    1XTA   HL3724062  26.803   2.483   6.120
    1XTA   HL3824063  26.877   2.339   6.078
    1XTA   HL3924064  26.569   2.374   6.093
    1XTA   HL4024065  26.663   2.281   6.212
    1XTA   HL4124066  26.648   2.227   6.038
    1XTA    CO824067  25.057   1.237   5.182
    1XTA    CO924068  25.222   1.181   5.373
    1XTA    OA624069  25.033   1.233   5.075
    1XTA   HL4224070  25.052   1.339   5.216
    1XTA   HL4324071  24.990   1.174   5.242
    1XTA   HL4424072  26.988   2.528   5.956
    1XTA   HL4524073  26.925   2.558   5.784
    1XTA   CO1024074  26.896   2.540   5.894
    1XTA   CO1124075  26.853   2.314   5.822
    1XTA    OA724076  26.854   2.636   5.935
    1XTA   HL4624077  26.939   2.235   5.900
    1XTA   HL4724078  26.769   2.255   5.778
    1XTA   HL4824079  25.360   1.175   5.394
    1XTA   HL4924080  25.205   1.279   5.417
    1XTA     NT24081  28.826   3.098   4.215
    1XTA    CN124082  28.817   3.210   4.138
    1XTA     C124083  28.935   3.284   4.092
    1XTA     C224084  28.917   3.394   4.007
    1XTA     C324085  28.790   3.436   3.956
    1XTA     C424086  28.676   3.362   3.997
    1XTA     C524087  28.692   3.252   4.087
    1XTA    CN224088  28.906   2.993   4.181
    1XTA     C624089  28.856   2.896   4.088
    1XTA     C724090  28.933   2.785   4.049
    1XTA     C824091  29.064   2.770   4.100
    1XTA     C924092  29.118   2.869   4.193
    1XTA    C1024093  29.034   2.977   4.231
    1XTA    CN324094  28.748   3.066   4.322
    1XTA    C1124095  28.612   3.020   4.309
    1XTA    C1224096  28.534   2.991   4.427
    1XTA    C1324097  28.589   3.020   4.553
    1XTA    C1424098  28.723   3.074   4.559
    1XTA    C1524099  28.801   3.096   4.447
    1XTA     H124100  29.029   3.265   4.144
    1XTA     H224101  29.002   3.449   3.984
    1XTA     H324102  28.583   3.386   3.964
    1XTA     H424103  28.596   3.206   4.118
    1XTA     H524104  28.764   2.918   4.040
    1XTA     H624105  28.896   2.717   3.977
    1XTA     H724106  29.217   2.865   4.235
    1XTA     H824107  29.077   3.055   4.284
    1XTA     H924108  28.570   2.998   4.212
    1XTA    H1024109  28.439   2.944   4.420
    1XTA    H1124110  28.765   3.094   4.654
    1XTA    H1224111  28.897   3.149   4.465
    1XTA    OA124112  28.784   3.545   3.868
    1XTA    CO124113  28.655   3.582   3.809
    1XTA    OA224114  29.138   2.669   4.049
    1XTA    CO224115  29.278   2.702   4.037
    1XTA    CL124116  29.353   2.569   3.999
    1XTA    CL224117  29.499   2.598   3.985
    1XTA    CL324118  29.584   2.639   4.109
    1XTA    CL424119  29.582   2.534   4.220
    1XTA    CO324120  29.669   2.566   4.342
    1XTA    OA324121  29.801   2.580   4.292
    1XTA    CO424122  29.901   2.599   4.388
    1XTA    CT124123  30.041   2.646   4.344
    1XTA    CL524124  30.108   2.534   4.262
    1XTA    CL624125  30.018   2.466   4.152
    1XTA    OA424126  28.526   2.995   4.670
    1XTA    CO524127  28.388   2.945   4.659
    1XTA    CL724128  28.394   2.793   4.649
    1XTA    CL824129  28.470   2.726   4.770
    1XTA    CL924130  28.466   2.575   4.760
    1XTA   CL1024131  28.545   2.518   4.639
    1XTA    CO624132  28.698   2.538   4.650
    1XTA    OA524133  28.755   2.489   4.771
    1XTA    CO724134  28.742   2.348   4.782
    1XTA    CT224135  28.876   2.292   4.838
    1XTA   CL1124136  28.849   2.144   4.881
    1XTA   CL1224137  28.775   2.123   5.018
    1XTA    HL124138  28.579   3.625   3.881
    1XTA    HL224139  28.669   3.635   3.720
    1XTA    HL324140  28.612   3.491   3.763
    1XTA    HL424141  29.291   2.763   3.946
    1XTA    HL524142  29.325   2.750   4.126
    1XTA    HL624143  29.320   2.525   3.910
    1XTA    HL724144  29.357   2.501   4.082
    1XTA    HL824145  29.518   2.681   3.922
    1XTA    HL924146  29.547   2.517   3.929
    1XTA   HL1024147  29.689   2.649   4.082
    1XTA   HL1124148  29.557   2.734   4.155
    1XTA   HL1224149  29.620   2.440   4.185
    1XTA   HL1324150  29.482   2.504   4.258
    1XTA   HL1424151  29.643   2.670   4.376
    1XTA   HL1524152  29.664   2.507   4.433
    1XTA   HL1624153  29.861   2.663   4.473
    1XTA   HL1724154  29.921   2.510   4.443
    1XTA   HL1824155  30.143   2.465   4.343
    1XTA   HL1924156  30.192   2.575   4.215
    1XTA   HL2024157  30.079   2.399   4.086
    1XTA   HL2124158  29.993   2.535   4.078
    1XTA   HL2224159  29.928   2.417   4.188
    1XTA   HL2324160  28.329   3.008   4.587
    1XTA   HL2424161  28.340   2.963   4.756
    1XTA   HL2524162  28.293   2.747   4.644
    1XTA   HL2624163  28.436   2.773   4.558
    1XTA   HL2724164  28.570   2.764   4.771
    1XTA   HL2824165  28.434   2.760   4.872
    1XTA   HL2924166  28.513   2.528   4.848
    1XTA   HL3024167  28.358   2.541   4.751
    1XTA   HL3124168  28.524   2.415   4.644
    1XTA   HL3224169  28.511   2.560   4.545
    1XTA   HL3324170  28.760   2.491   4.573
    1XTA   HL3424171  28.720   2.648   4.649
    1XTA   HL3524172  28.723   2.301   4.683
    1XTA   HL3624173  28.661   2.328   4.858
    1XTA   HL3724174  28.948   2.088   4.895
    1XTA   HL3824175  28.792   2.103   4.798
    1XTA   HL3924176  28.835   2.162   5.112
    1XTA   HL4024177  28.757   2.016   5.018
    1XTA   HL4124178  28.675   2.166   5.021
    1XTA    CO824179  30.114   2.673   4.475
    1XTA    CO924180  30.028   2.773   4.265
    1XTA    OA624181  29.993   2.863   4.321
    1XTA   HL4224182  30.213   2.704   4.441
    1XTA   HL4324183  30.047   2.764   4.558
    1XTA   HL4424184  29.019   2.305   4.999
    1XTA   HL4524185  28.863   2.362   5.025
    1XTA   CO1024186  28.941   2.361   4.955
    1XTA   CO1124187  28.986   2.287   4.729
    1XTA    OA724188  28.952   2.203   4.619
    1XTA   HL4624189  28.997   2.384   4.683
    1XTA   HL4724190  29.079   2.248   4.767
    1XTA   HL4824191  29.980   2.748   4.166
    1XTA   HL4924192  30.132   2.811   4.247
    1XTA     NT24193  28.094   3.222   0.152
    1XTA    CN124194  28.180   3.244   0.053
    1XTA     C124195  28.263   3.145   0.001
    1XTA     C224196  28.356   3.174  -0.103
    1XTA     C324197  28.354   3.301  -0.167
    1XTA     C424198  28.265   3.395  -0.118
    1XTA     C524199  28.180   3.371  -0.008
    1XTA    CN224200  28.136   3.234   0.282
    1XTA     C624201  28.151   3.120   0.364
    1XTA     C724202  28.173   3.140   0.502
    1XTA     C824203  28.199   3.267   0.564
    1XTA     C924204  28.176   3.377   0.482
    1XTA    C1024205  28.151   3.363   0.341
    1XTA    CN324206  27.956   3.219   0.130
    1XTA    C1124207  27.874   3.325   0.179
    1XTA    C1224208  27.737   3.325   0.141
    1XTA    C1324209  27.680   3.215   0.067
    1XTA    C1424210  27.766   3.115   0.027
    1XTA    C1524211  27.905   3.119   0.052
    1XTA     H124212  28.255   3.042   0.043
    1XTA     H224213  28.427   3.096  -0.137
    1XTA     H324214  28.270   3.488  -0.160
    1XTA     H424215  28.121   3.452   0.025
    1XTA     H524216  28.139   3.020   0.329
    1XTA     H624217  28.189   3.043   0.556
    1XTA     H724218  28.188   3.474   0.529
    1XTA     H824219  28.139   3.444   0.270
    1XTA     H924220  27.920   3.403   0.238
    1XTA    H1024221  27.679   3.405   0.187
    1XTA    H1124222  27.732   3.030  -0.033
    1XTA    H1224223  27.976   3.046   0.011
    1XTA    OA124224  28.422   3.320  -0.281
    1XTA    CO124225  28.523   3.235  -0.308
    1XTA    OA224226  28.233   3.280   0.698
    1XTA    CO224227  28.232   3.408   0.762
    1XTA    CL124228  28.345   3.500   0.715
    1XTA    CL224229  28.338   3.642   0.775
    1XTA    CL324230  28.458   3.721   0.721
    1XTA    CL424231  28.453   3.787   0.583
    1XTA    CO324232  28.572   3.867   0.559
    1XTA    OA324233  28.664   3.781   0.486
    1XTA    CO424234  28.799   3.825   0.510
    1XTA    CT124235  28.897   3.739   0.430
    1XTA    CL524236  28.896   3.769   0.285
    1XTA    CL624237  28.757   3.750   0.226
    1XTA    OA424238  27.547   3.201   0.040
    1XTA    CO524239  27.465   3.273   0.132
    1XTA    CL724240  27.333   3.203   0.153
    1XTA    CL824241  27.252   3.250   0.277
    1XTA    CL924242  27.257   3.405   0.307
    1XTA   CL1024243  27.176   3.453   0.424
    1XTA    CO624244  27.214   3.394   0.560
    1XTA    OA524245  27.129   3.278   0.565
    1XTA    CO724246  27.185   3.173   0.635
    1XTA    CT224247  27.087   3.050   0.640
    1XTA   CL1124248  27.000   3.055   0.766
    1XTA   CL1224249  26.919   3.180   0.799
    1XTA    HL124250  28.490   3.136  -0.318
    1XTA    HL224251  28.562   3.260  -0.409
    1XTA    HL324252  28.610   3.236  -0.245
    1XTA    HL424253  28.137   3.463   0.759
    1XTA    HL524254  28.248   3.400   0.865
    1XTA    HL624255  28.351   3.521   0.605
    1XTA    HL724256  28.445   3.449   0.741
    1XTA    HL824257  28.345   3.620   0.882
    1XTA    HL924258  28.241   3.684   0.745
    1XTA   HL1024259  28.472   3.804   0.790
    1XTA   HL1124260  28.552   3.660   0.731
    1XTA   HL1224261  28.364   3.844   0.573
    1XTA   HL1324262  28.451   3.711   0.504
    1XTA   HL1424263  28.544   3.949   0.495
    1XTA   HL1524264  28.618   3.908   0.655
    1XTA   HL1624265  28.808   3.931   0.473
    1XTA   HL1724266  28.825   3.820   0.620
    1XTA   HL1824267  28.972   3.710   0.234
    1XTA   HL1924268  28.928   3.873   0.252
    1XTA   HL2024269  28.694   3.675   0.264
    1XTA   HL2124270  28.773   3.737   0.115
    1XTA   HL2224271  28.694   3.841   0.236
    1XTA   HL2324272  27.457   3.376   0.114
    1XTA   HL2424273  27.505   3.267   0.233
    1XTA   HL2524274  27.271   3.224   0.074
    1XTA   HL2624275  27.353   3.095   0.159
    1XTA   HL2724276  27.146   3.241   0.257
    1XTA   HL2824277  27.281   3.194   0.367
    1XTA   HL2924278  27.362   3.429   0.326
    1XTA   HL3024279  27.230   3.462   0.216
    1XTA   HL3124280  27.186   3.567   0.426
    1XTA   HL3224281  27.072   3.442   0.414
    1XTA   HL3324282  27.314   3.353   0.556
    1XTA   HL3424283  27.204   3.458   0.647
    1XTA   HL3524284  27.218   3.193   0.738
    1XTA   HL3624285  27.273   3.149   0.585
    1XTA   HL3724286  27.060   3.014   0.844
    1XTA   HL3824287  26.919   2.978   0.761
    1XTA   HL3924288  26.983   3.267   0.785
    1XTA   HL4024289  26.867   3.184   0.894
    1XTA   HL4124290  26.837   3.195   0.722
    1XTA    CO824291  28.861   3.589   0.456
    1XTA    CO924292  29.037   3.769   0.485
    1XTA    OA624293  28.944   3.499   0.378
    1XTA   HL4224294  28.755   3.567   0.422
    1XTA   HL4324295  28.865   3.561   0.561
    1XTA   HL4424296  27.235   2.905   0.719
    1XTA   HL4524297  27.087   2.833   0.670
    1XTA   CO1024298  27.162   2.912   0.638
    1XTA   CO1124299  26.992   3.048   0.517
    1XTA    OA724300  27.208   2.881   0.514
    1XTA   HL4624301  27.052   3.044   0.426
    1XTA   HL4724302  26.946   3.146   0.505
    1XTA   HL4824303  29.028   3.860   0.535
    1XTA   HL4924304  29.055   3.697   0.572
    1XTA     NT24305  29.233   0.750   0.143
    1XTA    CN124306  29.304   0.756   0.263
    1XTA     C124307  29.330   0.881   0.321
    1XTA     C224308  29.382   0.886   0.449
    1XTA     C324309  29.417   0.772   0.524
    1XTA     C424310  29.397   0.645   0.458
    1XTA     C524311  29.342   0.632   0.328
    1XTA    CN224312  29.273   0.665   0.041
    1XTA     C624313  29.401   0.685  -0.012
    1XTA     C724314  29.442   0.600  -0.119
    1XTA     C824315  29.361   0.508  -0.184
    1XTA     C924316  29.237   0.488  -0.125
    1XTA    C1024317  29.196   0.564  -0.012
    1XTA    CN324318  29.109   0.799   0.161
    1XTA    C1124319  29.017   0.702   0.209
    1XTA    C1224320  28.879   0.741   0.214
    1XTA    C1324321  28.842   0.871   0.192
    1XTA    C1424322  28.939   0.964   0.155
    1XTA    C1524323  29.074   0.934   0.138
    1XTA     H124324  29.303   0.974   0.271
    1XTA     H224325  29.394   0.985   0.500
    1XTA     H324326  29.434   0.550   0.511
    1XTA     H424327  29.322   0.543   0.281
    1XTA     H524328  29.468   0.762   0.029
    1XTA     H624329  29.543   0.624  -0.153
    1XTA     H724330  29.177   0.415  -0.167
    1XTA     H824331  29.096   0.557   0.033
    1XTA     H924332  29.051   0.601   0.236
    1XTA    H1024333  28.801   0.672   0.237
    1XTA    H1124334  28.905   1.065   0.127
    1XTA    H1224335  29.149   1.003   0.103
    1XTA    OA124336  29.471   0.785   0.648
    1XTA    CO124337  29.488   0.663   0.716
    1XTA    OA224338  29.409   0.433  -0.291
    1XTA    CO224339  29.527   0.467  -0.354
    1XTA    CL124340  29.575   0.354  -0.452
    1XTA    CL224341  29.502   0.329  -0.578
    1XTA    CL324342  29.592   0.281  -0.699
    1XTA    CL424343  29.669   0.151  -0.694
    1XTA    CO324344  29.573   0.043  -0.735
    1XTA    OA324345  29.613  -0.093  -0.711
    1XTA    CO424346  29.568  -0.155  -0.600
    1XTA    CT124347  29.626  -0.300  -0.564
    1XTA    CL524348  29.632  -0.385  -0.694
    1XTA    CL624349  29.691  -0.529  -0.665
    1XTA    OA424350  28.711   0.913   0.211
    1XTA    CO524351  28.603   0.832   0.258
    1XTA    CL724352  28.551   0.767   0.137
    1XTA    CL824353  28.467   0.640   0.172
    1XTA    CL924354  28.369   0.589   0.061
    1XTA   CL1024355  28.444   0.496  -0.026
    1XTA    CO624356  28.356   0.470  -0.149
    1XTA    OA524357  28.392   0.563  -0.238
    1XTA    CO724358  28.486   0.521  -0.335
    1XTA    CT224359  28.547   0.644  -0.406
    1XTA   CL1124360  28.426   0.737  -0.452
    1XTA   CL1224361  28.455   0.888  -0.443
    1XTA    HL124362  29.509   0.685   0.819
    1XTA    HL224363  29.395   0.602   0.715
    1XTA    HL324364  29.567   0.603   0.673
    1XTA    HL424365  29.514   0.561  -0.410
    1XTA    HL524366  29.605   0.493  -0.289
    1XTA    HL624367  29.589   0.258  -0.402
    1XTA    HL724368  29.673   0.390  -0.471
    1XTA    HL824369  29.460   0.417  -0.623
    1XTA    HL924370  29.427   0.255  -0.555
    1XTA   HL1024371  29.527   0.286  -0.790
    1XTA   HL1124372  29.668   0.359  -0.712
    1XTA   HL1224373  29.714   0.115  -0.598
    1XTA   HL1324374  29.756   0.158  -0.760
    1XTA   HL1424375  29.481   0.061  -0.682
    1XTA   HL1524376  29.530   0.056  -0.840
    1XTA   HL1624377  29.575  -0.089  -0.513
    1XTA   HL1724378  29.464  -0.172  -0.604
    1XTA   HL1824379  29.691  -0.340  -0.775
    1XTA   HL1924380  29.529  -0.385  -0.724
    1XTA   HL2024381  29.618  -0.593  -0.610
    1XTA   HL2124382  29.780  -0.525  -0.611
    1XTA   HL2224383  29.702  -0.579  -0.766
    1XTA   HL2324384  28.531   0.892   0.308
    1XTA   HL2424385  28.649   0.760   0.327
    1XTA   HL2524386  28.501   0.845   0.077
    1XTA   HL2624387  28.629   0.725   0.067
    1XTA   HL2724388  28.537   0.562   0.198
    1XTA   HL2824389  28.409   0.670   0.265
    1XTA   HL2924390  28.295   0.534   0.111
    1XTA   HL3024391  28.318   0.673   0.012
    1XTA   HL3124392  28.544   0.534  -0.048
    1XTA   HL3224393  28.468   0.405   0.031
    1XTA   HL3324394  28.375   0.368  -0.183
    1XTA   HL3424395  28.243   0.480  -0.137
    1XTA   HL3524396  28.439   0.453  -0.406
    1XTA   HL3624397  28.566   0.454  -0.297
    1XTA   HL3724398  28.333   0.712  -0.402
    1XTA   HL3824399  28.411   0.712  -0.554
    1XTA   HL3924400  28.463   0.923  -0.330
    1XTA   HL4024401  28.371   0.946  -0.482
    1XTA   HL4124402  28.542   0.921  -0.491
    1XTA    CO824403  29.540  -0.368  -0.457
    1XTA    CO924404  29.764  -0.285  -0.495
    1XTA    OA624405  29.400  -0.360  -0.480
    1XTA   HL4224406  29.564  -0.321  -0.363
    1XTA   HL4324407  29.566  -0.471  -0.444
    1XTA   HL4424408  28.688   0.721  -0.582
    1XTA   HL4524409  28.563   0.559  -0.616
    1XTA   CO1024410  28.626   0.600  -0.535
    1XTA   CO1124411  28.640   0.705  -0.299
    1XTA    OA724412  28.715   0.773  -0.344
    1XTA   HL4624413  28.576   0.751  -0.223
    1XTA   HL4724414  28.699   0.641  -0.238
    1XTA   HL4824415  29.758  -0.215  -0.417
    1XTA   HL4924416  29.786  -0.381  -0.445
    1XTA     NT24417  28.878  -0.484   2.549
    1XTA    CN124418  28.960  -0.557   2.622
    1XTA     C124419  28.910  -0.663   2.697
    1XTA     C224420  29.002  -0.739   2.770
    1XTA     C324421  29.141  -0.712   2.771
    1XTA     C424422  29.186  -0.602   2.696
    1XTA     C524423  29.099  -0.524   2.620
    1XTA    CN224424  28.784  -0.540   2.471
    1XTA     C624425  28.824  -0.598   2.349
    1XTA     C724426  28.729  -0.668   2.271
    1XTA     C824427  28.592  -0.661   2.303
    1XTA     C924428  28.553  -0.599   2.428
    1XTA    C1024429  28.650  -0.539   2.511
    1XTA    CN324430  28.867  -0.348   2.563
    1XTA    C1124431  28.943  -0.263   2.481
    1XTA    C1224432  28.941  -0.127   2.508
    1XTA    C1324433  28.856  -0.070   2.603
    1XTA    C1424434  28.782  -0.157   2.685
    1XTA    C1524435  28.778  -0.297   2.663
    1XTA     H124436  28.797  -0.680   2.700
    1XTA     H224437  28.966  -0.802   2.856
    1XTA     H324438  29.294  -0.587   2.701
    1XTA     H424439  29.127  -0.443   2.561
    1XTA     H524440  28.926  -0.598   2.324
    1XTA     H624441  28.761  -0.713   2.176
    1XTA     H724442  28.448  -0.599   2.465
    1XTA     H824443  28.624  -0.512   2.604
    1XTA     H924444  29.007  -0.300   2.405
    1XTA    H1024445  29.000  -0.064   2.442
    1XTA    H1124446  28.717  -0.114   2.761
    1XTA    H1224447  28.725  -0.365   2.725
    1XTA    OA124448  29.226  -0.777   2.857
    1XTA    CO124449  29.335  -0.702   2.904
    1XTA    OA224450  28.509  -0.728   2.214
    1XTA    CO224451  28.375  -0.745   2.258
    1XTA    CL124452  28.295  -0.834   2.155
    1XTA    CL224453  28.227  -0.759   2.049
    1XTA    CL324454  28.181  -0.842   1.931
    1XTA    CL424455  28.145  -0.745   1.818
    1XTA    CO324456  28.119  -0.821   1.687
    1XTA    OA324457  27.995  -0.881   1.676
    1XTA    CO424458  28.006  -1.019   1.667
    1XTA    CT124459  27.868  -1.080   1.669
    1XTA    CL524460  27.789  -1.039   1.545
    1XTA    CL624461  27.848  -1.061   1.401
    1XTA    OA424462  28.850   0.063   2.637
    1XTA    CO524463  28.964   0.142   2.607
    1XTA    CL724464  28.942   0.262   2.695
    1XTA    CL824465  28.958   0.242   2.844
    1XTA    CL924466  29.052   0.355   2.898
    1XTA   CL1024467  29.097   0.337   3.042
    1XTA    CO624468  29.192   0.220   3.071
    1XTA    OA524469  29.243   0.235   3.199
    1XTA    CO724470  29.306   0.116   3.240
    1XTA    CT224471  29.306   0.113   3.395
    1XTA   CL1124472  29.288   0.246   3.480
    1XTA   CL1224473  29.358   0.367   3.443
    1XTA    HL124474  29.315  -0.595   2.924
    1XTA    HL224475  29.402  -0.737   2.987
    1XTA    HL324476  29.413  -0.708   2.826
    1XTA    HL424477  28.371  -0.800   2.352
    1XTA    HL524478  28.332  -0.649   2.276
    1XTA    HL624479  28.213  -0.876   2.214
    1XTA    HL724480  28.361  -0.912   2.123
    1XTA    HL824481  28.288  -0.673   2.011
    1XTA    HL924482  28.132  -0.724   2.092
    1XTA   HL1024483  28.265  -0.897   1.895
    1XTA   HL1124484  28.102  -0.906   1.957
    1XTA   HL1224485  28.237  -0.694   1.797
    1XTA   HL1324486  28.064  -0.675   1.830
    1XTA   HL1424487  28.102  -0.742   1.616
    1XTA   HL1524488  28.194  -0.887   1.647
    1XTA   HL1624489  28.058  -1.064   1.581
    1XTA   HL1724490  28.055  -1.049   1.768
    1XTA   HL1824491  27.749  -0.944   1.564
    1XTA   HL1924492  27.689  -1.089   1.550
    1XTA   HL2024493  27.907  -0.973   1.370
    1XTA   HL2124494  27.761  -1.046   1.332
    1XTA   HL2224495  27.914  -1.149   1.390
    1XTA   HL2324496  28.962   0.171   2.499
    1XTA   HL2424497  29.056   0.096   2.632
    1XTA   HL2524498  29.012   0.345   2.678
    1XTA   HL2624499  28.840   0.307   2.671
    1XTA   HL2724500  28.862   0.225   2.894
    1XTA   HL2824501  29.000   0.145   2.864
    1XTA   HL2924502  29.138   0.365   2.842
    1XTA   HL3024503  28.994   0.445   2.888
    1XTA   HL3124504  29.148   0.426   3.072
    1XTA   HL3224505  29.012   0.327   3.100
    1XTA   HL3324506  29.138   0.132   3.053
    1XTA   HL3424507  29.283   0.233   3.012
    1XTA   HL3524508  29.398   0.087   3.190
    1XTA   HL3624509  29.244   0.031   3.217
    1XTA   HL3724510  29.293   0.210   3.580
    1XTA   HL3824511  29.185   0.271   3.480
    1XTA   HL3924512  29.311   0.404   3.347
    1XTA   HL4024513  29.459   0.348   3.417
    1XTA   HL4124514  29.343   0.445   3.515
    1XTA    CO824515  27.792  -1.037   1.802
    1XTA    CO924516  27.876  -1.237   1.669
    1XTA    OA624517  27.695  -1.096   1.807
    1XTA   HL4224518  27.787  -0.927   1.805
    1XTA   HL4324519  27.847  -1.063   1.890
    1XTA   HL4424520  29.533   0.108   3.406
    1XTA   HL4524521  29.461   0.055   3.577
    1XTA   CO1024522  29.443   0.047   3.438
    1XTA   CO1124523  29.194   0.010   3.442
    1XTA    OA724524  29.097   0.058   3.423
    1XTA   HL4624525  29.210  -0.093   3.404
    1XTA   HL4724526  29.199   0.004   3.554
    1XTA   HL4824527  27.742  -1.280   1.696
    1XTA   HL4924528  27.914  -1.281   1.578
    1XTA     NT24529  28.734   1.291   6.714
    1XTA    CN124530  28.722   1.382   6.619
    1XTA     C124531  28.834   1.428   6.553
    1XTA     C224532  28.816   1.525   6.446
    1XTA     C324533  28.689   1.562   6.406
    1XTA     C424534  28.580   1.514   6.475
    1XTA     C524535  28.594   1.416   6.574
    1XTA    CN224536  28.662   1.177   6.713
    1XTA     C624537  28.568   1.148   6.816
    1XTA     C724538  28.501   1.022   6.817
    1XTA     C824539  28.528   0.928   6.714
    1XTA     C924540  28.625   0.957   6.622
    1XTA    C1024541  28.700   1.075   6.623
    1XTA    CN324542  28.814   1.308   6.815
    1XTA    C1124543  28.917   1.216   6.834
    1XTA    C1224544  29.010   1.232   6.941
    1XTA    C1324545  28.992   1.338   7.028
    1XTA    C1424546  28.892   1.440   7.007
    1XTA    C1524547  28.801   1.419   6.899
    1XTA     H124548  28.936   1.403   6.577
    1XTA     H224549  28.905   1.566   6.395
    1XTA     H324550  28.479   1.543   6.442
    1XTA     H424551  28.505   1.385   6.628
    1XTA     H524552  28.550   1.222   6.893
    1XTA     H624553  28.426   0.996   6.895
    1XTA     H724554  28.660   0.876   6.566
    1XTA     H824555  28.782   1.099   6.562
    1XTA     H924556  28.928   1.139   6.754
    1XTA    H1024557  29.102   1.172   6.960
    1XTA    H1124558  28.879   1.528   7.071
    1XTA    H1224559  28.726   1.494   6.899
    1XTA    OA124560  28.684   1.650   6.302
    1XTA    CO124561  28.559   1.670   6.236
    1XTA    OA224562  28.466   0.807   6.702
    1XTA    CO224563  28.322   0.820   6.690
    1XTA    CL124564  28.270   0.694   6.610
    1XTA    CL224565  28.115   0.669   6.624
    1XTA    CL324566  28.026   0.792   6.593
    1XTA    CL424567  28.036   0.841   6.446
    1XTA    CO324568  27.925   0.948   6.420
    1XTA    OA324569  27.935   0.945   6.282
    1XTA    CO424570  27.823   1.010   6.218
    1XTA    CT124571  27.864   1.033   6.069
    1XTA    CL524572  27.997   1.101   6.058
    1XTA    CL624573  28.026   1.166   5.915
    1XTA    OA424574  29.084   1.356   7.128
    1XTA    CO524575  29.036   1.424   7.241
    1XTA    CL724576  29.149   1.414   7.354
    1XTA    CL824577  29.185   1.268   7.379
    1XTA    CL924578  29.310   1.259   7.461
    1XTA   CL1024579  29.340   1.109   7.477
    1XTA    CO624580  29.397   1.042   7.346
    1XTA    OA524581  29.461   0.919   7.379
    1XTA    CO724582  29.548   0.881   7.276
    1XTA    CT224583  29.642   0.775   7.319
    1XTA   CL1124584  29.589   0.634   7.301
    1XTA   CL1224585  29.509   0.567   7.412
    1XTA    HL124586  28.525   1.577   6.181
    1XTA    HL224587  28.490   1.703   6.315
    1XTA    HL324588  28.560   1.748   6.156
    1XTA    HL424589  28.283   0.828   6.795
    1XTA    HL524590  28.279   0.906   6.640
    1XTA    HL624591  28.319   0.609   6.654
    1XTA    HL724592  28.303   0.702   6.504
    1XTA    HL824593  28.098   0.640   6.727
    1XTA    HL924594  28.080   0.587   6.564
    1XTA   HL1024595  27.924   0.771   6.622
    1XTA   HL1124596  28.039   0.869   6.663
    1XTA   HL1224597  28.007   0.754   6.395
    1XTA   HL1324598  28.138   0.867   6.429
    1XTA   HL1424599  27.825   0.923   6.461
    1XTA   HL1524600  27.958   1.042   6.459
    1XTA   HL1624601  27.718   0.969   6.227
    1XTA   HL1724602  27.824   1.106   6.255
    1XTA   HL1824603  28.071   1.023   6.070
    1XTA   HL1924604  28.006   1.183   6.134
    1XTA   HL2024605  27.997   1.271   5.937
    1XTA   HL2124606  27.966   1.128   5.831
    1XTA   HL2224607  28.130   1.154   5.887
    1XTA   HL2324608  28.943   1.369   7.268
    1XTA   HL2424609  29.014   1.526   7.222
    1XTA   HL2524610  29.239   1.468   7.334
    1XTA   HL2624611  29.112   1.456   7.447
    1XTA   HL2724612  29.098   1.214   7.424
    1XTA   HL2824613  29.194   1.217   7.287
    1XTA   HL2924614  29.382   1.307   7.399
    1XTA   HL3024615  29.303   1.308   7.560
    1XTA   HL3124616  29.422   1.096   7.546
    1XTA   HL3224617  29.254   1.056   7.520
    1XTA   HL3324618  29.317   1.023   7.282
    1XTA   HL3424619  29.470   1.112   7.299
    1XTA   HL3524620  29.608   0.966   7.245
    1XTA   HL3624621  29.493   0.834   7.198
    1XTA   HL3724622  29.679   0.581   7.289
    1XTA   HL3824623  29.536   0.637   7.204
    1XTA   HL3924624  29.566   0.574   7.507
    1XTA   HL4024625  29.498   0.458   7.382
    1XTA   HL4124626  29.412   0.613   7.424
    1XTA    CO824627  27.747   1.122   6.006
    1XTA    CO924628  27.860   0.904   5.982
    1XTA    OA624629  27.899   0.918   5.877
    1XTA   HL4224630  27.764   1.224   6.022
    1XTA   HL4324631  27.750   1.113   5.870
    1XTA   HL4424632  29.600   0.815   7.536
    1XTA   HL4524633  29.712   0.911   7.461
    1XTA   CO1024634  29.682   0.811   7.466
    1XTA   CO1124635  29.775   0.784   7.246
    1XTA    OA724636  29.777   0.721   7.120
    1XTA   HL4624637  29.800   0.883   7.230
    1XTA   HL4724638  29.859   0.737   7.304
    1XTA   HL4824639  27.760   0.865   5.966
    1XTA   HL4924640  27.916   0.825   6.044
    1XTA     NT24641  30.800   0.905   5.526
    1XTA    CN124642  30.787   0.874   5.392
    1XTA     C124643  30.777   0.979   5.302
    1XTA     C224644  30.759   0.963   5.162
    1XTA     C324645  30.721   0.832   5.119
    1XTA     C424646  30.746   0.723   5.207
    1XTA     C524647  30.780   0.740   5.341
    1XTA    CN224648  30.694   0.887   5.604
    1XTA     C624649  30.566   0.931   5.563
    1XTA     C724650  30.449   0.899   5.633
    1XTA     C824651  30.455   0.846   5.763
    1XTA     C924652  30.582   0.810   5.811
    1XTA    C1024653  30.698   0.824   5.729
    1XTA    CN324654  30.916   0.963   5.570
    1XTA    C1124655  31.024   0.880   5.613
    1XTA    C1224656  31.142   0.938   5.665
    1XTA    C1324657  31.156   1.076   5.678
    1XTA    C1424658  31.047   1.160   5.642
    1XTA    C1524659  30.928   1.098   5.599
    1XTA     H124660  30.773   1.078   5.338
    1XTA     H224661  30.753   1.047   5.093
    1XTA     H324662  30.743   0.616   5.175
    1XTA     H424663  30.789   0.656   5.404
    1XTA     H524664  30.552   0.986   5.471
    1XTA     H624665  30.355   0.942   5.593
    1XTA     H724666  30.582   0.779   5.909
    1XTA     H824667  30.797   0.789   5.766
    1XTA     H924668  31.021   0.776   5.626
    1XTA    H1024669  31.219   0.870   5.700
    1XTA    H1124670  31.047   1.269   5.639
    1XTA    H1224671  30.843   1.158   5.557
    1XTA    OA124672  30.682   0.804   4.992
    1XTA    CO124673  30.646   0.909   4.908
    1XTA    OA224674  30.353   0.829   5.847
    1XTA    CO224675  30.223   0.790   5.800
    1XTA    CL124676  30.130   0.909   5.805
    1XTA    CL224677  30.135   0.995   5.933
    1XTA    CL324678  30.028   1.101   5.936
    1XTA    CL424679  30.059   1.223   5.854
    1XTA    CO324680  29.967   1.341   5.891
    1XTA    OA324681  30.010   1.461   5.832
    1XTA    CO424682  29.933   1.571   5.884
    1XTA    CT124683  29.994   1.715   5.867
    1XTA    CL524684  30.036   1.733   5.726
    1XTA    CL624685  30.114   1.862   5.711
    1XTA    OA424686  31.274   1.125   5.726
    1XTA    CO524687  31.354   1.188   5.622
    1XTA    CL724688  31.502   1.140   5.633
    1XTA    CL824689  31.515   0.987   5.621
    1XTA    CL924690  31.499   0.937   5.480
    1XTA   CL1024691  31.491   0.785   5.465
    1XTA    CO624692  31.519   0.745   5.318
    1XTA    OA524693  31.561   0.609   5.318
    1XTA    CO724694  31.581   0.564   5.185
    1XTA    CT224695  31.596   0.412   5.196
    1XTA   CL1124696  31.687   0.372   5.315
    1XTA   CL1224697  31.701   0.225   5.345
    1XTA    HL124698  30.729   0.948   4.855
    1XTA    HL224699  30.590   0.850   4.834
    1XTA    HL324700  30.582   0.985   4.950
    1XTA    HL424701  30.235   0.770   5.693
    1XTA    HL524702  30.193   0.700   5.855
    1XTA    HL624703  30.023   0.877   5.785
    1XTA    HL724704  30.174   0.970   5.722
    1XTA    HL824705  30.231   1.040   5.951
    1XTA    HL924706  30.114   0.926   6.019
    1XTA   HL1024707  29.929   1.062   5.915
    1XTA   HL1124708  30.010   1.139   6.033
    1XTA   HL1224709  30.050   1.199   5.741
    1XTA   HL1324710  30.164   1.254   5.881
    1XTA   HL1424711  29.867   1.325   5.857
    1XTA   HL1524712  29.958   1.333   5.996
    1XTA   HL1624713  29.833   1.558   5.835
    1XTA   HL1724714  29.917   1.550   5.986
    1XTA   HL1824715  29.958   1.725   5.653
    1XTA   HL1924716  30.110   1.661   5.698
    1XTA   HL2024717  30.222   1.861   5.720
    1XTA   HL2124718  30.097   1.942   5.780
    1XTA   HL2224719  30.101   1.906   5.613
    1XTA   HL2324720  31.343   1.299   5.618
    1XTA   HL2424721  31.327   1.158   5.514
    1XTA   HL2524722  31.574   1.197   5.577
    1XTA   HL2624723  31.531   1.163   5.737
    1XTA   HL2724724  31.611   0.957   5.660
    1XTA   HL2824725  31.444   0.940   5.681
    1XTA   HL2924726  31.409   0.991   5.442
    1XTA   HL3024727  31.590   0.972   5.419
    1XTA   HL3124728  31.559   0.728   5.539
    1XTA   HL3224729  31.386   0.756   5.504
    1XTA   HL3324730  31.428   0.767   5.256
    1XTA   HL3424731  31.601   0.803   5.274
    1XTA   HL3524732  31.674   0.611   5.144
    1XTA   HL3624733  31.498   0.589   5.122
    1XTA   HL3724734  31.649   0.429   5.401
    1XTA   HL3824735  31.784   0.426   5.292
    1XTA   HL3924736  31.756   0.181   5.257
    1XTA   HL4024737  31.610   0.168   5.348
    1XTA   HL4124738  31.773   0.209   5.423
    1XTA    CO824739  30.120   1.729   5.969
    1XTA    CO924740  29.877   1.806   5.918
    1XTA    OA624741  30.221   1.722   5.926
    1XTA   HL4224742  30.105   1.669   6.060
    1XTA   HL4324743  30.123   1.835   6.005
    1XTA   HL4424744  31.655   0.248   5.061
    1XTA   HL4524745  31.560   0.375   4.990
    1XTA   CO1024746  31.640   0.351   5.060
    1XTA   CO1124747  31.458   0.353   5.224
    1XTA    OA724748  31.728   0.404   5.020
    1XTA   HL4624749  31.356   0.433   5.159
    1XTA   HL4724750  31.423   0.348   5.329
    1XTA   HL4824751  29.753   1.748   5.873
    1XTA   HL4924752  29.879   1.819   6.033
    1XTA     NT24753  29.619   1.197   4.617
    1XTA    CN124754  29.542   1.184   4.508
    1XTA     C124755  29.443   1.088   4.500
    1XTA     C224756  29.381   1.065   4.380
    1XTA     C324757  29.401   1.143   4.268
    1XTA     C424758  29.496   1.244   4.276
    1XTA     C524759  29.577   1.259   4.393
    1XTA    CN224760  29.737   1.130   4.627
    1XTA     C624761  29.734   0.991   4.593
    1XTA     C724762  29.855   0.919   4.620
    1XTA     C824763  29.970   0.982   4.674
    1XTA     C924764  29.971   1.123   4.696
    1XTA    C1024765  29.846   1.190   4.690
    1XTA    CN324766  29.591   1.297   4.706
    1XTA    C1124767  29.527   1.263   4.830
    1XTA    C1224768  29.513   1.362   4.929
    1XTA    C1324769  29.538   1.500   4.896
    1XTA    C1424770  29.590   1.532   4.763
    1XTA    C1524771  29.629   1.427   4.677
    1XTA     H124772  29.408   1.040   4.590
    1XTA     H224773  29.317   0.976   4.369
    1XTA     H324774  29.515   1.310   4.192
    1XTA     H424775  29.671   1.324   4.396
    1XTA     H524776  29.648   0.939   4.556
    1XTA     H624777  29.863   0.817   4.601
    1XTA     H724778  30.060   1.179   4.726
    1XTA     H824779  29.837   1.292   4.736
    1XTA     H924780  29.496   1.161   4.851
    1XTA    H1024781  29.456   1.356   5.024
    1XTA    H1124782  29.614   1.634   4.738
    1XTA    H1224783  29.683   1.459   4.586
    1XTA    OA124784  29.348   1.117   4.139
    1XTA    CO124785  29.240   1.021   4.134
    1XTA    OA224786  30.081   0.904   4.697
    1XTA    CO224787  30.207   0.958   4.741
    1XTA    CL124788  30.205   1.021   4.884
    1XTA    CL224789  30.271   0.919   4.987
    1XTA    CL324790  30.225   0.955   5.131
    1XTA    CL424791  30.305   1.078   5.178
    1XTA    CO324792  30.245   1.143   5.303
    1XTA    OA324793  30.098   1.158   5.314
    1XTA    CO424794  30.027   1.243   5.219
    1XTA    CT124795  29.870   1.203   5.220
    1XTA    CL524796  29.793   1.324   5.169
    1XTA    CL624797  29.836   1.365   5.026
    1XTA    OA424798  29.523   1.596   5.003
    1XTA    CO524799  29.541   1.728   4.970
    1XTA    CL724800  29.558   1.801   5.107
    1XTA    CL824801  29.577   1.954   5.091
    1XTA    CL924802  29.616   2.029   5.219
    1XTA   CL1024803  29.519   2.011   5.334
    1XTA    CO624804  29.541   2.102   5.458
    1XTA    OA524805  29.636   2.058   5.544
    1XTA    CO724806  29.645   2.139   5.650
    1XTA    CT224807  29.782   2.112   5.729
    1XTA   CL1124808  29.898   2.163   5.650
    1XTA   CL1224809  29.910   2.129   5.503
    1XTA    HL124810  29.215   1.007   4.031
    1XTA    HL224811  29.269   0.925   4.173
    1XTA    HL324812  29.158   1.056   4.193
    1XTA    HL424813  30.274   0.871   4.746
    1XTA    HL524814  30.250   1.028   4.669
    1XTA    HL624815  30.097   1.021   4.900
    1XTA    HL724816  30.240   1.126   4.883
    1XTA    HL824817  30.380   0.911   4.971
    1XTA    HL924818  30.223   0.820   4.955
    1XTA   HL1024819  30.114   0.962   5.122
    1XTA   HL1124820  30.239   0.872   5.200
    1XTA   HL1224821  30.316   1.157   5.106
    1XTA   HL1324822  30.405   1.052   5.204
    1XTA   HL1424823  30.274   1.088   5.392
    1XTA   HL1524824  30.292   1.241   5.312
    1XTA   HL1624825  30.046   1.346   5.232
    1XTA   HL1724826  30.057   1.204   5.116
    1XTA   HL1824827  29.794   1.414   5.227
    1XTA   HL1924828  29.689   1.296   5.169
    1XTA   HL2024829  29.794   1.291   4.960
    1XTA   HL2124830  29.944   1.380   5.021
    1XTA   HL2224831  29.792   1.463   5.010
    1XTA   HL2324832  29.463   1.761   4.915
    1XTA   HL2424833  29.641   1.741   4.916
    1XTA   HL2524834  29.469   1.787   5.166
    1XTA   HL2624835  29.648   1.761   5.159
    1XTA   HL2724836  29.650   1.959   5.010
    1XTA   HL2824837  29.484   2.000   5.056
    1XTA   HL2924838  29.705   1.986   5.249
    1XTA   HL3024839  29.648   2.132   5.198
    1XTA   HL3124840  29.421   2.029   5.286
    1XTA   HL3224841  29.524   1.907   5.374
    1XTA   HL3324842  29.576   2.200   5.422
    1XTA   HL3424843  29.445   2.127   5.496
    1XTA   HL3524844  29.552   2.128   5.708
    1XTA   HL3624845  29.657   2.247   5.630
    1XTA   HL3724846  29.996   2.127   5.693
    1XTA   HL3824847  29.894   2.276   5.661
    1XTA   HL3924848  30.001   2.165   5.461
    1XTA   HL4024849  29.824   2.169   5.440
    1XTA   HL4124850  29.903   2.024   5.481
    1XTA    CO824851  29.840   1.167   5.372
    1XTA    CO924852  29.833   1.076   5.139
    1XTA    OA624853  29.695   1.039   5.120
    1XTA   HL4224854  29.899   1.086   5.412
    1XTA   HL4324855  29.886   1.248   5.425
    1XTA   HL4424856  29.697   1.924   5.789
    1XTA   HL4524857  29.812   1.912   5.660
    1XTA   CO1024858  29.795   1.965   5.754
    1XTA   CO1124859  29.781   2.181   5.865
    1XTA    OA724860  29.884   1.933   5.862
    1XTA   HL4624861  29.881   2.176   5.915
    1XTA   HL4724862  29.774   2.291   5.853
    1XTA   HL4824863  29.882   0.990   5.183
    1XTA   HL4924864  29.878   1.082   5.038
    1XTA     NT24865  28.961   1.428  10.571
    1XTA    CN124866  28.966   1.435  10.706
    1XTA     C124867  28.898   1.332  10.775
    1XTA     C224868  28.894   1.339  10.915
    1XTA     C324869  28.946   1.453  10.985
    1XTA     C424870  29.005   1.554  10.914
    1XTA     C524871  29.018   1.542  10.774
    1XTA    CN224872  28.876   1.513  10.509
    1XTA     C624873  28.926   1.633  10.454
    1XTA     C724874  28.848   1.716  10.385
    1XTA     C824875  28.710   1.687  10.371
    1XTA     C924876  28.656   1.571  10.428
    1XTA    C1024877  28.740   1.479  10.495
    1XTA    CN324878  29.061   1.363  10.500
    1XTA    C1124879  29.040   1.236  10.458
    1XTA    C1224880  29.138   1.165  10.387
    1XTA    C1324881  29.267   1.224  10.356
    1XTA    C1424882  29.289   1.353  10.398
    1XTA    C1524883  29.185   1.425  10.461
    1XTA     H124884  28.874   1.250  10.710
    1XTA     H224885  28.840   1.261  10.954
    1XTA     H324886  29.048   1.629  10.975
    1XTA     H424887  29.055   1.621  10.718
    1XTA     H524888  29.029   1.658  10.462
    1XTA     H624889  28.885   1.815  10.343
    1XTA     H724890  28.551   1.541  10.424
    1XTA     H824891  28.689   1.382  10.519
    1XTA     H924892  28.948   1.185  10.478
    1XTA    H1024893  29.125   1.071  10.354
    1XTA    H1124894  29.388   1.394  10.379
    1XTA    H1224895  29.206   1.524  10.482
    1XTA    OA124896  28.931   1.461  11.120
    1XTA    CO124897  28.983   1.350  11.186
    1XTA    OA224898  28.643   1.777  10.290
    1XTA    CO224899  28.505   1.762  10.283
    1XTA    CL124900  28.435   1.875  10.201
    1XTA    CL224901  28.423   2.014  10.264
    1XTA    CL324902  28.339   2.107  10.171
    1XTA    CL424903  28.370   2.255  10.186
    1XTA    CO324904  28.259   2.338  10.125
    1XTA    OA324905  28.302   2.465  10.086
    1XTA    CO424906  28.199   2.559  10.062
    1XTA    CT124907  28.111   2.551   9.941
    1XTA    CL524908  28.027   2.681   9.934
    1XTA    CL624909  27.968   2.719  10.065
    1XTA    OA424910  29.369   1.140  10.313
    1XTA    CO524911  29.385   1.033  10.404
    1XTA    CL724912  29.529   1.001  10.405
    1XTA    CL824913  29.611   1.122  10.446
    1XTA    CL924914  29.563   1.194  10.574
    1XTA   CL1024915  29.566   1.097  10.696
    1XTA    CO624916  29.704   1.061  10.755
    1XTA    OA524917  29.664   0.970  10.865
    1XTA    CO724918  29.783   0.928  10.931
    1XTA    CT224919  29.757   0.785  10.984
    1XTA   CL1124920  29.659   0.791  11.112
    1XTA   CL1224921  29.514   0.834  11.087
    1XTA    HL124922  28.962   1.251  11.150
    1XTA    HL224923  29.096   1.361  11.180
    1XTA    HL324924  28.950   1.351  11.291
    1XTA    HL424925  28.482   1.666  10.234
    1XTA    HL524926  28.455   1.745  10.379
    1XTA    HL624927  28.343   1.849  10.159
    1XTA    HL724928  28.505   1.881  10.110
    1XTA    HL824929  28.522   2.061  10.280
    1XTA    HL924930  28.383   2.006  10.364
    1XTA   HL1024931  28.382   2.082  10.072
    1XTA   HL1124932  28.231   2.086  10.178
    1XTA   HL1224933  28.466   2.281  10.153
    1XTA   HL1324934  28.373   2.279  10.289
    1XTA   HL1424935  28.212   2.284  10.050
    1XTA   HL1524936  28.181   2.343  10.199
    1XTA   HL1624937  28.138   2.555  10.147
    1XTA   HL1724938  28.268   2.649  10.065
    1XTA   HL1824939  27.953   2.674   9.859
    1XTA   HL1924940  28.093   2.761   9.891
    1XTA   HL2024941  28.033   2.778  10.124
    1XTA   HL2124942  27.942   2.631  10.117
    1XTA   HL2224943  27.874   2.781  10.053
    1XTA   HL2324944  29.325   0.948  10.367
    1XTA   HL2424945  29.343   1.062  10.503
    1XTA   HL2524946  29.544   0.926  10.477
    1XTA   HL2624947  29.572   0.972  10.311
    1XTA   HL2724948  29.714   1.092  10.463
    1XTA   HL2824949  29.607   1.186  10.360
    1XTA   HL2924950  29.627   1.283  10.585
    1XTA   HL3024951  29.467   1.241  10.575
    1XTA   HL3124952  29.511   1.137  10.776
    1XTA   HL3224953  29.514   1.004  10.673
    1XTA   HL3324954  29.777   1.022  10.681
    1XTA   HL3424955  29.748   1.149  10.807
    1XTA   HL3524956  29.790   0.992  11.018
    1XTA   HL3624957  29.863   0.936  10.860
    1XTA   HL3724958  29.700   0.857  11.185
    1XTA   HL3824959  29.654   0.698  11.166
    1XTA   HL3924960  29.499   0.938  11.062
    1XTA   HL4024961  29.459   0.816  11.178
    1XTA   HL4124962  29.464   0.777  11.011
    1XTA    CO824963  28.020   2.426   9.940
    1XTA    CO924964  28.194   2.539   9.813
    1XTA    OA624965  27.977   2.409  10.043
    1XTA   HL4224966  28.074   2.336   9.910
    1XTA   HL4324967  27.936   2.422   9.863
    1XTA   HL4424968  29.883   0.637  11.065
    1XTA   HL4524969  29.970   0.735  10.960
    1XTA   CO1024970  29.898   0.742  11.040
    1XTA   CO1124971  29.710   0.689  10.871
    1XTA    OA724972  29.942   0.798  11.126
    1XTA   HL4624973  29.791   0.722  10.758
    1XTA   HL4724974  29.610   0.727  10.853
    1XTA   HL4824975  28.114   2.542   9.696
    1XTA   HL4924976  28.261   2.623   9.803
    1XTA     NT24977  27.457   2.299   6.772
    1XTA    CN124978  27.336   2.288   6.712
    1XTA     C124979  27.319   2.357   6.584
    1XTA     C224980  27.202   2.355   6.514
    1XTA     C324981  27.094   2.283   6.570
    1XTA     C424982  27.110   2.209   6.688
    1XTA     C524983  27.228   2.217   6.765
    1XTA    CN224984  27.499   2.423   6.809
    1XTA     C624985  27.584   2.500   6.730
    1XTA     C724986  27.644   2.618   6.776
    1XTA     C824987  27.612   2.665   6.902
    1XTA     C924988  27.523   2.592   6.983
    1XTA    C1024989  27.467   2.472   6.941
    1XTA    CN324990  27.529   2.186   6.773
    1XTA    C1124991  27.581   2.131   6.653
    1XTA    C1224992  27.655   2.015   6.652
    1XTA    C1324993  27.689   1.959   6.780
    1XTA    C1424994  27.638   2.010   6.897
    1XTA    C1524995  27.557   2.125   6.896
    1XTA     H124996  27.399   2.412   6.541
    1XTA     H224997  27.208   2.416   6.423
    1XTA     H324998  27.030   2.144   6.734
    1XTA     H424999  27.231   2.176   6.866
    1XTA     H525000  27.625   2.467   6.631
    1XTA     H625001  27.728   2.657   6.718
    1XTA     H725002  27.492   2.626   7.079
    1XTA     H825003  27.418   2.406   7.003
    1XTA     H925004  27.563   2.180   6.558
    1XTA    H1025005  27.696   1.976   6.562
    1XTA    H1125006  27.662   1.961   6.999
    1XTA    H1225007  27.520   2.174   6.984
    1XTA    OA125008  26.967   2.291   6.520
    1XTA    CO125009  26.958   2.314   6.378
    1XTA    OA225010  27.663   2.787   6.940
    1XTA    CO225011  27.762   2.779   7.040
    1XTA    CL125012  27.899   2.754   6.977
    1XTA    CL225013  28.020   2.743   7.068
    1XTA    CL325014  28.058   2.863   7.162
    1XTA    CL425015  28.140   2.817   7.278
    1XTA    CO325016  28.182   2.936   7.367
    1XTA    OA325017  28.273   2.877   7.453
    1XTA    CO425018  28.207   2.805   7.559
    1XTA    CT125019  28.301   2.727   7.648
    1XTA    CL525020  28.390   2.824   7.724
    1XTA    CL625021  28.510   2.886   7.655
    1XTA    OA425022  27.781   1.860   6.798
    1XTA    CO525023  27.834   1.805   6.681
    1XTA    CL725024  27.916   1.686   6.716
    1XTA    CL825025  28.037   1.651   6.618
    1XTA    CL925026  28.161   1.744   6.629
    1XTA   CL1025027  28.273   1.742   6.521
    1XTA    CO625028  28.349   1.875   6.514
    1XTA    OA525029  28.390   1.920   6.638
    1XTA    CO725030  28.476   2.031   6.637
    1XTA    CT225031  28.501   2.053   6.782
    1XTA   CL1125032  28.551   1.932   6.861
    1XTA   CL1225033  28.596   1.958   7.010
    1XTA    HL125034  26.860   2.292   6.343
    1XTA    HL225035  26.987   2.410   6.369
    1XTA    HL325036  27.016   2.244   6.327
    1XTA    HL425037  27.754   2.867   7.109
    1XTA    HL525038  27.745   2.691   7.101
    1XTA    HL625039  27.929   2.822   6.898
    1XTA    HL725040  27.891   2.661   6.928
    1XTA    HL825041  28.096   2.729   7.000
    1XTA    HL925042  28.010   2.648   7.125
    1XTA   HL1025043  28.109   2.949   7.105
    1XTA   HL1125044  27.961   2.913   7.194
    1XTA   HL1225045  28.225   2.771   7.234
    1XTA   HL1325046  28.091   2.742   7.334
    1XTA   HL1425047  28.233   3.011   7.308
    1XTA   HL1525048  28.110   2.998   7.422
    1XTA   HL1625049  28.131   2.865   7.622
    1XTA   HL1725050  28.134   2.729   7.520
    1XTA   HL1825051  28.443   2.769   7.802
    1XTA   HL1925052  28.335   2.901   7.771
    1XTA   HL2025053  28.470   2.965   7.586
    1XTA   HL2125054  28.580   2.818   7.612
    1XTA   HL2225055  28.561   2.946   7.731
    1XTA   HL2325056  27.907   1.874   6.641
    1XTA   HL2425057  27.759   1.786   6.609
    1XTA   HL2525058  27.952   1.694   6.818
    1XTA   HL2625059  27.851   1.601   6.714
    1XTA   HL2725060  28.055   1.547   6.641
    1XTA   HL2825061  28.000   1.653   6.517
    1XTA   HL2925062  28.119   1.845   6.613
    1XTA   HL3025063  28.208   1.737   6.725
    1XTA   HL3125064  28.348   1.663   6.545
    1XTA   HL3225065  28.228   1.701   6.427
    1XTA   HL3325066  28.431   1.871   6.447
    1XTA   HL3425067  28.280   1.939   6.468
    1XTA   HL3525068  28.447   2.118   6.585
    1XTA   HL3625069  28.569   2.010   6.583
    1XTA   HL3725070  28.641   1.886   6.811
    1XTA   HL3825071  28.469   1.858   6.856
    1XTA   HL3925072  28.573   2.059   7.049
    1XTA   HL4025073  28.701   1.951   7.006
    1XTA   HL4125074  28.575   1.880   7.073
    1XTA    CO825075  28.384   2.627   7.570
    1XTA    CO925076  28.221   2.642   7.753
    1XTA    OA625077  28.328   2.543   7.520
    1XTA   HL4225078  28.456   2.584   7.647
    1XTA   HL4325079  28.430   2.683   7.490
    1XTA   HL4425080  28.357   2.038   6.938
    1XTA   HL4525081  28.249   2.074   6.777
    1XTA   CO1025082  28.367   2.093   6.847
    1XTA   CO1125083  28.610   2.168   6.790
    1XTA    OA725084  28.715   2.123   6.778
    1XTA   HL4625085  28.597   2.254   6.718
    1XTA   HL4725086  28.593   2.208   6.890
    1XTA   HL4825087  28.125   2.721   7.828
    1XTA   HL4925088  28.163   2.574   7.691
    1XTA     NT25089  25.748   5.019   1.128
    1XTA    CN125090  25.816   4.950   1.033
    1XTA     C125091  25.949   4.923   1.044
    1XTA     C225092  26.016   4.851   0.944
    1XTA     C325093  25.946   4.803   0.823
    1XTA     C425094  25.807   4.832   0.816
    1XTA     C525095  25.747   4.909   0.918
    1XTA    CN225096  25.721   4.945   1.241
    1XTA     C625097  25.811   4.957   1.343
    1XTA     C725098  25.790   4.880   1.464
    1XTA     C825099  25.673   4.797   1.473
    1XTA     C925100  25.590   4.784   1.363
    1XTA    C1025101  25.617   4.850   1.240
    1XTA    CN325102  25.727   5.152   1.117
    1XTA    C1125103  25.600   5.204   1.153
    1XTA    C1225104  25.573   5.346   1.138
    1XTA    C1325105  25.670   5.428   1.082
    1XTA    C1425106  25.797   5.381   1.045
    1XTA    C1525107  25.823   5.247   1.069
    1XTA     H125108  26.011   4.976   1.118
    1XTA     H225109  26.124   4.834   0.946
    1XTA     H325110  25.749   4.800   0.731
    1XTA     H425111  25.645   4.936   0.907
    1XTA     H525112  25.895   5.026   1.335
    1XTA     H625113  25.870   4.894   1.536
    1XTA     H725114  25.505   4.721   1.369
    1XTA     H825115  25.563   4.830   1.153
    1XTA     H925116  25.519   5.147   1.193
    1XTA    H1025117  25.477   5.383   1.165
    1XTA    H1125118  25.873   5.431   0.992
    1XTA    H1225119  25.923   5.212   1.050
    1XTA    OA125120  26.021   4.737   0.722
    1XTA    CO125121  25.951   4.684   0.620
    1XTA    OA225122  25.644   4.721   1.590
    1XTA    CO225123  25.741   4.718   1.692
    1XTA    CL125124  25.724   4.586   1.768
    1XTA    CL225125  25.782   4.463   1.696
    1XTA    CL325126  25.768   4.333   1.773
    1XTA    CL425127  25.836   4.212   1.700
    1XTA    CO325128  25.770   4.158   1.579
    1XTA    OA325129  25.862   4.086   1.500
    1XTA    CO425130  25.926   4.168   1.410
    1XTA    CT125131  26.054   4.110   1.331
    1XTA    CL525132  26.112   4.198   1.219
    1XTA    CL625133  26.129   4.350   1.259
    1XTA    OA425134  25.638   5.561   1.065
    1XTA    CO525135  25.711   5.629   0.960
    1XTA    CL725136  25.641   5.753   0.917
    1XTA    CL825137  25.697   5.826   0.796
    1XTA    CL925138  25.623   5.952   0.770
    1XTA   CL1025139  25.474   5.944   0.728
    1XTA    CO625140  25.404   6.080   0.755
    1XTA    OA525141  25.450   6.161   0.650
    1XTA    CO725142  25.422   6.293   0.677
    1XTA    CT225143  25.480   6.384   0.567
    1XTA   CL1125144  25.635   6.416   0.563
    1XTA   CL1225145  25.739   6.307   0.541
    1XTA    HL125146  25.874   4.618   0.660
    1XTA    HL225147  25.906   4.758   0.553
    1XTA    HL325148  26.022   4.628   0.554
    1XTA    HL425149  25.849   4.728   1.668
    1XTA    HL525150  25.718   4.798   1.762
    1XTA    HL625151  25.619   4.574   1.789
    1XTA    HL725152  25.772   4.596   1.871
    1XTA    HL825153  25.885   4.484   1.688
    1XTA    HL925154  25.742   4.448   1.588
    1XTA   HL1025155  25.813   4.339   1.871
    1XTA   HL1125156  25.665   4.319   1.788
    1XTA   HL1225157  25.849   4.134   1.781
    1XTA   HL1325158  25.939   4.240   1.689
    1XTA   HL1425159  25.687   4.092   1.600
    1XTA   HL1525160  25.726   4.242   1.511
    1XTA   HL1625161  25.859   4.188   1.329
    1XTA   HL1725162  25.945   4.259   1.456
    1XTA   HL1825163  26.051   4.183   1.127
    1XTA   HL1925164  26.205   4.151   1.187
    1XTA   HL2025165  26.179   4.401   1.177
    1XTA   HL2125166  26.187   4.378   1.343
    1XTA   HL2225167  26.030   4.401   1.265
    1XTA   HL2325168  25.729   5.577   0.869
    1XTA   HL2425169  25.807   5.659   0.989
    1XTA   HL2525170  25.548   5.714   0.892
    1XTA   HL2625171  25.629   5.821   0.994
    1XTA   HL2725172  25.804   5.844   0.807
    1XTA   HL2825173  25.683   5.771   0.709
    1XTA   HL2925174  25.652   6.021   0.846
    1XTA   HL3025175  25.661   5.996   0.682
    1XTA   HL3125176  25.469   5.917   0.621
    1XTA   HL3225177  25.418   5.863   0.775
    1XTA   HL3325178  25.296   6.072   0.757
    1XTA   HL3425179  25.420   6.116   0.852
    1XTA   HL3525180  25.474   6.323   0.766
    1XTA   HL3625181  25.319   6.310   0.699
    1XTA   HL3725182  25.657   6.482   0.645
    1XTA   HL3825183  25.655   6.479   0.477
    1XTA   HL3925184  25.789   6.288   0.635
    1XTA   HL4025185  25.809   6.327   0.455
    1XTA   HL4125186  25.698   6.211   0.525
    1XTA    CO825187  26.009   3.977   1.261
    1XTA    CO925188  26.163   4.075   1.437
    1XTA    OA625189  26.205   4.194   1.514
    1XTA   HL4225190  25.958   3.923   1.334
    1XTA   HL4325191  25.929   3.990   1.192
    1XTA   HL4425192  25.465   6.603   0.511
    1XTA   HL4525193  25.321   6.523   0.519
    1XTA   CO1025194  25.414   6.523   0.570
    1XTA   CO1125195  25.445   6.337   0.430
    1XTA    OA725196  25.399   6.564   0.673
    1XTA   HL4625197  25.448   6.446   0.338
    1XTA   HL4725198  25.340   6.313   0.439
    1XTA   HL4825199  26.251   4.022   1.390
    1XTA   HL4925200  26.120   4.003   1.511
    1XTA     NT25201  30.234   4.366   1.835
    1XTA    CN125202  30.360   4.405   1.871
    1XTA     C125203  30.442   4.332   1.959
    1XTA     C225204  30.574   4.376   1.988
    1XTA     C325205  30.628   4.494   1.930
    1XTA     C425206  30.545   4.561   1.835
    1XTA     C525207  30.413   4.517   1.805
    1XTA    CN225208  30.201   4.312   1.714
    1XTA     C625209  30.083   4.356   1.653
    1XTA     C725210  30.027   4.286   1.543
    1XTA     C825211  30.086   4.163   1.499
    1XTA     C925212  30.199   4.119   1.563
    1XTA    C1025213  30.260   4.190   1.669
    1XTA    CN325214  30.139   4.363   1.929
    1XTA    C1125215  30.080   4.241   1.960
    1XTA    C1225216  29.980   4.242   2.056
    1XTA    C1325217  29.934   4.354   2.120
    1XTA    C1425218  29.994   4.476   2.082
    1XTA    C1525219  30.094   4.483   1.985
    1XTA     H125220  30.415   4.242   2.004
    1XTA     H225221  30.630   4.314   2.055
    1XTA     H325222  30.576   4.651   1.789
    1XTA     H425223  30.358   4.572   1.729
    1XTA     H525224  30.030   4.432   1.699
    1XTA     H625225  29.940   4.320   1.490
    1XTA     H725226  30.237   4.017   1.540
    1XTA     H825227  30.334   4.138   1.727
    1XTA     H925228  30.115   4.151   1.912
    1XTA    H1025229  29.930   4.155   2.094
    1XTA    H1125230  29.942   4.564   2.116
    1XTA    H1225231  30.143   4.579   1.960
    1XTA    OA125232  30.756   4.531   1.955
    1XTA    CO125233  30.823   4.496   2.073
    1XTA    OA225234  30.017   4.094   1.403
    1XTA    CO225235  30.062   3.961   1.363
    1XTA    CL125236  29.967   3.893   1.260
    1XTA    CL225237  30.026   3.760   1.207
    1XTA    CL325238  29.976   3.634   1.277
    1XTA    CL425239  30.044   3.501   1.226
    1XTA    CO325240  29.982   3.388   1.305
    1XTA    OA325241  30.021   3.272   1.238
    1XTA    CO425242  29.934   3.171   1.280
    1XTA    CT125243  29.946   3.048   1.187
    1XTA    CL525244  29.868   2.928   1.237
    1XTA    CL625245  29.723   2.955   1.285
    1XTA    OA425246  29.822   4.345   2.206
    1XTA    CO525247  29.776   4.474   2.265
    1XTA    CL725248  29.638   4.437   2.320
    1XTA    CL825249  29.583   4.539   2.416
    1XTA    CL925250  29.477   4.635   2.365
    1XTA   CL1025251  29.352   4.561   2.317
    1XTA    CO625252  29.233   4.655   2.317
    1XTA    OA525253  29.213   4.700   2.446
    1XTA    CO725254  29.091   4.774   2.463
    1XTA    CT225255  29.089   4.835   2.608
    1XTA   CL1125256  28.954   4.903   2.643
    1XTA   CL1225257  28.841   4.808   2.665
    1XTA    HL125258  30.852   4.390   2.066
    1XTA    HL225259  30.907   4.558   2.101
    1XTA    HL325260  30.748   4.499   2.152
    1XTA    HL425261  30.164   3.959   1.321
    1XTA    HL525262  30.076   3.892   1.451
    1XTA    HL625263  29.943   3.966   1.184
    1XTA    HL725264  29.878   3.860   1.309
    1XTA    HL825265  30.137   3.756   1.221
    1XTA    HL925266  30.016   3.758   1.101
    1XTA   HL1025267  30.009   3.643   1.381
    1XTA   HL1125268  29.865   3.626   1.277
    1XTA   HL1225269  30.158   3.504   1.236
    1XTA   HL1325270  30.016   3.489   1.112
    1XTA   HL1425271  30.017   3.385   1.406
    1XTA   HL1525272  29.871   3.387   1.317
    1XTA   HL1625273  29.950   3.153   1.380
    1XTA   HL1725274  29.831   3.197   1.268
    1XTA   HL1825275  29.929   2.893   1.317
    1XTA   HL1925276  29.865   2.854   1.163
    1XTA   HL2025277  29.705   3.050   1.348
    1XTA   HL2125278  29.694   2.880   1.363
    1XTA   HL2225279  29.665   2.961   1.192
    1XTA   HL2325280  29.771   4.552   2.192
    1XTA   HL2425281  29.852   4.508   2.337
    1XTA   HL2525282  29.561   4.419   2.251
    1XTA   HL2625283  29.632   4.337   2.370
    1XTA   HL2725284  29.527   4.487   2.500
    1XTA   HL2825285  29.662   4.597   2.466
    1XTA   HL2925286  29.462   4.706   2.441
    1XTA   HL3025287  29.515   4.694   2.276
    1XTA   HL3125288  29.366   4.509   2.219
    1XTA   HL3225289  29.334   4.471   2.377
    1XTA   HL3325290  29.236   4.738   2.245
    1XTA   HL3425291  29.144   4.600   2.279
    1XTA   HL3525292  29.003   4.707   2.444
    1XTA   HL3625293  29.078   4.847   2.383
    1XTA   HL3725294  28.912   4.982   2.573
    1XTA   HL3825295  28.962   4.954   2.738
    1XTA   HL3925296  28.844   4.717   2.607
    1XTA   HL4025297  28.745   4.861   2.639
    1XTA   HL4125298  28.839   4.778   2.770
    1XTA    CO825299  30.099   3.009   1.182
    1XTA    CO925300  29.900   3.073   1.041
    1XTA    OA625301  29.795   3.104   1.047
    1XTA   HL4225302  30.146   3.081   1.113
    1XTA   HL4325303  30.163   3.010   1.308
    1XTA   HL4425304  29.312   4.891   2.557
    1XTA   HL4525305  29.226   4.948   2.720
    1XTA   CO1025306  29.194   4.943   2.614
    1XTA   CO1125307  29.119   4.720   2.705
    1XTA    OA725308  29.095   4.749   2.811
    1XTA   HL4625309  29.067   4.627   2.675
    1XTA   HL4725310  29.222   4.694   2.694
    1XTA   HL4825311  29.905   2.975   0.977
    1XTA   HL4925312  29.968   3.148   0.995
    1XTA     NT25313  28.206   2.312   0.478
    1XTA    CN125314  28.254   2.384   0.582
    1XTA     C125315  28.184   2.410   0.705
    1XTA     C225316  28.231   2.501   0.801
    1XTA     C325317  28.347   2.575   0.770
    1XTA     C425318  28.424   2.542   0.655
    1XTA     C525319  28.378   2.447   0.564
    1XTA    CN225320  28.238   2.181   0.469
    1XTA     C625321  28.132   2.090   0.473
    1XTA     C725322  28.149   1.948   0.473
    1XTA     C825323  28.286   1.905   0.471
    1XTA     C925324  28.393   1.999   0.488
    1XTA    C1025325  28.373   2.136   0.477
    1XTA    CN325326  28.147   2.377   0.375
    1XTA    C1125327  28.195   2.376   0.244
    1XTA    C1225328  28.121   2.447   0.144
    1XTA    C1325329  28.001   2.509   0.173
    1XTA    C1425330  27.955   2.517   0.304
    1XTA    C1525331  28.030   2.451   0.407
    1XTA     H125332  28.094   2.349   0.721
    1XTA     H225333  28.173   2.524   0.890
    1XTA     H325334  28.516   2.599   0.650
    1XTA     H425335  28.438   2.424   0.474
    1XTA     H525336  28.033   2.133   0.477
    1XTA     H625337  28.063   1.881   0.467
    1XTA     H725338  28.497   1.958   0.490
    1XTA     H825339  28.451   2.211   0.478
    1XTA     H925340  28.283   2.327   0.216
    1XTA    H1025341  28.163   2.456   0.045
    1XTA    H1125342  27.860   2.568   0.325
    1XTA    H1225343  28.005   2.453   0.515
    1XTA    OA125344  28.387   2.680   0.850
    1XTA    CO125345  28.297   2.790   0.847
    1XTA    OA225346  28.319   1.768   0.468
    1XTA    CO225347  28.210   1.676   0.474
    1XTA    CL125348  28.269   1.532   0.471
    1XTA    CL225349  28.167   1.421   0.490
    1XTA    CL325350  28.143   1.395   0.637
    1XTA    CL425351  28.027   1.301   0.668
    1XTA    CO325352  27.898   1.368   0.633
    1XTA    OA325353  27.880   1.476   0.729
    1XTA    CO425354  27.757   1.542   0.708
    1XTA    CT125355  27.708   1.605   0.836
    1XTA    CL525356  27.793   1.731   0.863
    1XTA    CL625357  27.914   1.702   0.963
    1XTA    OA425358  27.913   2.543   0.072
    1XTA    CO525359  27.943   2.487  -0.055
    1XTA    CL725360  27.825   2.477  -0.140
    1XTA    CL825361  27.725   2.373  -0.090
    1XTA    CL925362  27.597   2.363  -0.171
    1XTA   CL1025363  27.508   2.489  -0.179
    1XTA    CO625364  27.434   2.519  -0.045
    1XTA    OA525365  27.332   2.617  -0.065
    1XTA    CO725366  27.374   2.751  -0.097
    1XTA    CT225367  27.256   2.841  -0.098
    1XTA   CL1125368  27.155   2.813  -0.217
    1XTA   CL1225369  27.100   2.674  -0.228
    1XTA    HL125370  28.292   2.848   0.752
    1XTA    HL225371  28.201   2.757   0.891
    1XTA    HL325372  28.340   2.864   0.914
    1XTA    HL425373  28.151   1.700   0.563
    1XTA    HL525374  28.144   1.687   0.384
    1XTA    HL625375  28.353   1.520   0.542
    1XTA    HL725376  28.313   1.529   0.373
    1XTA    HL825377  28.203   1.328   0.441
    1XTA    HL925378  28.075   1.455   0.433
    1XTA   HL1025379  28.238   1.371   0.686
    1XTA   HL1125380  28.119   1.496   0.672
    1XTA   HL1225381  28.038   1.278   0.775
    1XTA   HL1325382  28.059   1.215   0.608
    1XTA   HL1425383  27.890   1.402   0.529
    1XTA   HL1525384  27.816   1.299   0.645
    1XTA   HL1625385  27.761   1.618   0.623
    1XTA   HL1725386  27.677   1.473   0.677
    1XTA   HL1825387  27.739   1.815   0.902
    1XTA   HL1925388  27.829   1.753   0.765
    1XTA   HL2025389  27.895   1.676   1.068
    1XTA   HL2125390  27.982   1.787   0.967
    1XTA   HL2225391  27.975   1.615   0.936
    1XTA   HL2325392  27.994   2.394  -0.060
    1XTA   HL2425393  28.021   2.541  -0.113
    1XTA   HL2525394  27.772   2.574  -0.141
    1XTA   HL2625395  27.850   2.445  -0.244
    1XTA   HL2725396  27.763   2.275  -0.073
    1XTA   HL2825397  27.701   2.398   0.009
    1XTA   HL2925398  27.602   2.324  -0.270
    1XTA   HL3025399  27.535   2.278  -0.127
    1XTA   HL3125400  27.560   2.582  -0.205
    1XTA   HL3225401  27.423   2.483  -0.245
    1XTA   HL3325402  27.393   2.428  -0.005
    1XTA   HL3425403  27.491   2.562   0.034
    1XTA   HL3525404  27.412   2.739  -0.190
    1XTA   HL3625405  27.438   2.792  -0.023
    1XTA   HL3725406  27.210   2.838  -0.310
    1XTA   HL3825407  27.063   2.875  -0.216
    1XTA   HL3925408  27.173   2.591  -0.247
    1XTA   HL4025409  27.030   2.668  -0.310
    1XTA   HL4125410  27.044   2.635  -0.144
    1XTA    CO825411  27.713   1.497   0.950
    1XTA    CO925412  27.554   1.647   0.827
    1XTA    OA625413  27.619   1.393   0.929
    1XTA   HL4225414  27.676   1.549   1.043
    1XTA   HL4325415  27.816   1.464   0.976
    1XTA   HL4425416  27.359   3.017  -0.033
    1XTA   HL4525417  27.394   2.969  -0.182
    1XTA   CO1025418  27.310   2.984  -0.121
    1XTA   CO1125419  27.183   2.841   0.044
    1XTA    OA725420  27.237   3.050  -0.166
    1XTA   HL4625421  27.085   2.743   0.063
    1XTA   HL4725422  27.144   2.936   0.053
    1XTA   HL4825423  27.537   1.739   0.889
    1XTA   HL4925424  27.547   1.693   0.731
    1XTA     NT25425  30.091   6.404   4.427
    1XTA    CN125426  29.968   6.459   4.406
    1XTA     C125427  29.943   6.535   4.289
    1XTA     C225428  29.824   6.603   4.282
    1XTA     C325429  29.724   6.599   4.382
    1XTA     C425430  29.740   6.514   4.492
    1XTA     C525431  29.868   6.450   4.507
    1XTA    CN225432  30.189   6.485   4.472
    1XTA     C625433  30.267   6.544   4.370
    1XTA     C725434  30.365   6.635   4.408
    1XTA     C825435  30.394   6.660   4.548
    1XTA     C925436  30.311   6.598   4.646
    1XTA    C1025437  30.207   6.514   4.608
    1XTA    CN325438  30.116   6.272   4.404
    1XTA    C1125439  30.084   6.175   4.500
    1XTA    C1225440  30.125   6.043   4.473
    1XTA    C1325441  30.181   6.009   4.345
    1XTA    C1425442  30.205   6.108   4.256
    1XTA    C1525443  30.181   6.243   4.284
    1XTA     H125444  30.015   6.535   4.205
    1XTA     H225445  29.812   6.663   4.187
    1XTA     H325446  29.659   6.516   4.561
    1XTA     H425447  29.891   6.392   4.597
    1XTA     H525448  30.243   6.516   4.270
    1XTA     H625449  30.437   6.676   4.333
    1XTA     H725450  30.328   6.618   4.749
    1XTA     H825451  30.148   6.474   4.690
    1XTA     H925452  30.054   6.200   4.597
    1XTA    H1025453  30.112   5.962   4.550
    1XTA    H1125454  30.249   6.079   4.169
    1XTA    H1225455  30.216   6.320   4.205
    1XTA    OA125456  29.617   6.680   4.387
    1XTA    CO125457  29.627   6.797   4.307
    1XTA    OA225458  30.477   6.763   4.578
    1XTA    CO225459  30.485   6.805   4.714
    1XTA    CL125460  30.567   6.930   4.716
    1XTA    CL225461  30.718   6.905   4.687
    1XTA    CL325462  30.811   6.890   4.810
    1XTA    CL425463  30.948   6.909   4.749
    1XTA    CO325464  31.058   6.886   4.855
    1XTA    OA325465  31.171   6.953   4.802
    1XTA    CO425466  31.277   6.954   4.893
    1XTA    CT125467  31.404   7.027   4.834
    1XTA    CL525468  31.514   7.047   4.943
    1XTA    CL625469  31.654   7.078   4.896
    1XTA    OA425470  30.224   5.882   4.315
    1XTA    CO525471  30.185   5.760   4.381
    1XTA    CL725472  30.038   5.729   4.339
    1XTA    CL825473  29.970   5.620   4.427
    1XTA    CL925474  29.835   5.587   4.374
    1XTA   CL1025475  29.832   5.493   4.253
    1XTA    CO625476  29.696   5.478   4.187
    1XTA    OA525477  29.651   5.592   4.124
    1XTA    CO725478  29.720   5.613   3.994
    1XTA    CT225479  29.705   5.762   3.955
    1XTA   CL1125480  29.798   5.847   4.046
    1XTA   CL1225481  29.807   5.996   4.004
    1XTA    HL125482  29.729   6.838   4.334
    1XTA    HL225483  29.633   6.767   4.200
    1XTA    HL325484  29.552   6.875   4.326
    1XTA    HL425485  30.384   6.821   4.747
    1XTA    HL525486  30.524   6.735   4.786
    1XTA    HL625487  30.545   6.980   4.815
    1XTA    HL725488  30.517   6.977   4.638
    1XTA    HL825489  30.759   6.993   4.632
    1XTA    HL925490  30.743   6.818   4.619
    1XTA   HL1025491  30.783   6.957   4.888
    1XTA   HL1125492  30.796   6.790   4.843
    1XTA   HL1225493  30.956   7.015   4.717
    1XTA   HL1325494  30.953   6.859   4.657
    1XTA   HL1425495  31.030   6.932   4.945
    1XTA   HL1525496  31.079   6.780   4.870
    1XTA   HL1625497  31.263   7.011   4.979
    1XTA   HL1725498  31.304   6.850   4.922
    1XTA   HL1825499  31.513   6.952   5.005
    1XTA   HL1925500  31.490   7.130   5.018
    1XTA   HL2025501  31.706   7.005   4.823
    1XTA   HL2125502  31.724   7.093   4.976
    1XTA   HL2225503  31.654   7.162   4.834
    1XTA   HL2325504  30.215   5.765   4.492
    1XTA   HL2425505  30.236   5.669   4.339
    1XTA   HL2525506  29.971   5.814   4.342
    1XTA   HL2625507  30.027   5.706   4.231
    1XTA   HL2725508  30.036   5.531   4.423
    1XTA   HL2825509  29.967   5.645   4.533
    1XTA   HL2925510  29.777   5.553   4.453
    1XTA   HL3025511  29.786   5.676   4.334
    1XTA   HL3125512  29.909   5.528   4.184
    1XTA   HL3225513  29.870   5.393   4.260
    1XTA   HL3325514  29.704   5.392   4.117
    1XTA   HL3425515  29.633   5.431   4.267
    1XTA   HL3525516  29.664   5.551   3.920
    1XTA   HL3625517  29.829   5.582   3.986
    1XTA   HL3725518  29.903   5.807   4.044
    1XTA   HL3825519  29.774   5.839   4.147
    1XTA   HL3925520  29.888   6.034   4.066
    1XTA   HL4025521  29.712   6.049   4.027
    1XTA   HL4125522  29.825   6.023   3.899
    1XTA    CO825523  31.354   7.166   4.789
    1XTA    CO925524  31.452   6.947   4.707
    1XTA    OA625525  31.337   7.232   4.875
    1XTA   HL4225526  31.266   7.163   4.723
    1XTA   HL4325527  31.452   7.200   4.747
    1XTA   HL4425528  29.510   5.789   4.107
    1XTA   HL4525529  29.504   5.723   3.901
    1XTA   CO1025530  29.555   5.800   3.970
    1XTA   CO1125531  29.754   5.770   3.808
    1XTA    OA725532  29.673   5.719   3.748
    1XTA   HL4625533  29.742   5.874   3.782
    1XTA   HL4725534  29.854   5.722   3.784
    1XTA   HL4825535  31.337   6.898   4.650
    1XTA   HL4925536  31.502   6.857   4.738
    1XTA     NT25537  27.886   2.989   7.804
    1XTA    CN125538  27.869   2.908   7.700
    1XTA     C125539  27.888   2.771   7.714
    1XTA     C225540  27.869   2.681   7.606
    1XTA     C325541  27.837   2.735   7.483
    1XTA     C425542  27.827   2.877   7.464
    1XTA     C525543  27.832   2.963   7.575
    1XTA    CN225544  27.966   2.960   7.906
    1XTA     C625545  28.110   2.973   7.894
    1XTA     C725546  28.194   2.921   7.998
    1XTA     C825547  28.139   2.862   8.117
    1XTA     C925548  28.000   2.852   8.129
    1XTA    C1025549  27.915   2.895   8.024
    1XTA    CN325550  27.803   3.097   7.819
    1XTA    C1125551  27.666   3.071   7.822
    1XTA    C1225552  27.573   3.179   7.837
    1XTA    C1325553  27.621   3.312   7.861
    1XTA    C1425554  27.763   3.335   7.862
    1XTA    C1525555  27.852   3.228   7.843
    1XTA     H125556  27.926   2.729   7.807
    1XTA     H225557  27.861   2.576   7.620
    1XTA     H325558  27.800   2.916   7.364
    1XTA     H425559  27.822   3.070   7.566
    1XTA     H525560  28.149   3.011   7.797
    1XTA     H625561  28.302   2.919   7.996
    1XTA     H725562  27.973   2.804   8.222
    1XTA     H825563  27.808   2.888   8.041
    1XTA     H925564  27.632   2.970   7.813
    1XTA    H1025565  27.468   3.140   7.838
    1XTA    H1125566  27.801   3.430   7.888
    1XTA    H1225567  27.960   3.248   7.839
    1XTA    OA125568  27.799   2.668   7.376
    1XTA    CO125569  27.861   2.543   7.355
    1XTA    OA225570  28.234   2.801   8.198
    1XTA    CO225571  28.193   2.784   8.330
    1XTA    CL125572  28.319   2.730   8.409
    1XTA    CL225573  28.299   2.755   8.562
    1XTA    CL325574  28.418   2.747   8.652
    1XTA    CL425575  28.524   2.847   8.631
    1XTA    CO325576  28.635   2.823   8.734
    1XTA    OA325577  28.687   2.695   8.710
    1XTA    CO425578  28.771   2.646   8.813
    1XTA    CT125579  28.888   2.556   8.750
    1XTA    CL525580  28.990   2.502   8.857
    1XTA    CL625581  28.954   2.376   8.936
    1XTA    OA425582  27.532   3.411   7.874
    1XTA    CO525583  27.556   3.501   7.975
    1XTA    CL725584  27.566   3.452   8.120
    1XTA    CL825585  27.590   3.559   8.227
    1XTA    CL925586  27.737   3.596   8.253
    1XTA   CL1025587  27.813   3.632   8.127
    1XTA    CO625588  27.957   3.665   8.159
    1XTA    OA525589  28.015   3.677   8.033
    1XTA    CO725590  28.140   3.732   8.043
    1XTA    CT225591  28.206   3.699   7.901
    1XTA   CL1125592  28.139   3.776   7.788
    1XTA   CL1225593  28.167   3.927   7.773
    1XTA    HL125594  27.807   2.478   7.423
    1XTA    HL225595  27.827   2.508   7.263
    1XTA    HL325596  27.964   2.547   7.375
    1XTA    HL425597  28.156   2.877   8.369
    1XTA    HL525598  28.109   2.716   8.331
    1XTA    HL625599  28.411   2.784   8.391
    1XTA    HL725600  28.336   2.620   8.385
    1XTA    HL825601  28.203   2.695   8.597
    1XTA    HL925602  28.275   2.859   8.573
    1XTA   HL1025603  28.380   2.758   8.755
    1XTA   HL1125604  28.461   2.646   8.642
    1XTA   HL1225605  28.470   2.942   8.656
    1XTA   HL1325606  28.565   2.840   8.528
    1XTA   HL1425607  28.708   2.904   8.724
    1XTA   HL1525608  28.599   2.825   8.838
    1XTA   HL1625609  28.816   2.728   8.872
    1XTA   HL1725610  28.713   2.583   8.878
    1XTA   HL1825611  28.991   2.589   8.932
    1XTA   HL1925612  29.097   2.509   8.820
    1XTA   HL2025613  29.014   2.362   9.024
    1XTA   HL2125614  28.965   2.297   8.872
    1XTA   HL2225615  28.856   2.373   8.976
    1XTA   HL2325616  27.471   3.568   7.964
    1XTA   HL2425617  27.637   3.563   7.944
    1XTA   HL2525618  27.475   3.413   8.155
    1XTA   HL2625619  27.643   3.376   8.128
    1XTA   HL2725620  27.530   3.644   8.206
    1XTA   HL2825621  27.569   3.508   8.321
    1XTA   HL2925622  27.731   3.682   8.316
    1XTA   HL3025623  27.789   3.511   8.299
    1XTA   HL3125624  27.814   3.553   8.058
    1XTA   HL3225625  27.764   3.723   8.085
    1XTA   HL3325626  27.966   3.748   8.226
    1XTA   HL3425627  27.995   3.574   8.202
    1XTA   HL3525628  28.204   3.684   8.116
    1XTA   HL3625629  28.137   3.835   8.061
    1XTA   HL3725630  28.037   3.752   7.804
    1XTA   HL3825631  28.168   3.729   7.692
    1XTA   HL3925632  28.077   3.974   7.743
    1XTA   HL4025633  28.241   3.947   7.695
    1XTA   HL4125634  28.195   3.970   7.867
    1XTA    CO825635  28.966   2.657   8.660
    1XTA    CO925636  28.820   2.449   8.671
    1XTA    OA625637  28.898   2.364   8.598
    1XTA   HL4225638  28.899   2.726   8.609
    1XTA   HL4325639  29.019   2.599   8.584
    1XTA   HL4425640  28.216   3.489   7.974
    1XTA   HL4525641  28.075   3.532   7.878
    1XTA   CO1025642  28.185   3.549   7.882
    1XTA   CO1125643  28.363   3.728   7.895
    1XTA    OA725644  28.244   3.501   7.759
    1XTA   HL4625645  28.395   3.728   7.790
    1XTA   HL4725646  28.418   3.649   7.942
    1XTA   HL4825647  28.742   2.494   8.607
    1XTA   HL4925648  28.771   2.387   8.740
    1XTA     NT25649  30.493   4.668   5.374
    1XTA    CN125650  30.432   4.643   5.487
    1XTA     C125651  30.437   4.517   5.554
    1XTA     C225652  30.378   4.503   5.679
    1XTA     C325653  30.306   4.611   5.735
    1XTA     C425654  30.292   4.734   5.666
    1XTA     C525655  30.364   4.751   5.546
    1XTA    CN225656  30.627   4.687   5.376
    1XTA     C625657  30.685   4.789   5.451
    1XTA     C725658  30.823   4.804   5.444
    1XTA     C825659  30.904   4.719   5.369
    1XTA     C925660  30.844   4.621   5.288
    1XTA    C1025661  30.709   4.601   5.298
    1XTA    CN325662  30.419   4.683   5.263
    1XTA    C1125663  30.437   4.806   5.189
    1XTA    C1225664  30.362   4.831   5.074
    1XTA    C1325665  30.254   4.746   5.048
    1XTA    C1425666  30.228   4.634   5.128
    1XTA    C1525667  30.315   4.594   5.233
    1XTA     H125668  30.485   4.429   5.507
    1XTA     H225669  30.408   4.414   5.735
    1XTA     H325670  30.237   4.819   5.711
    1XTA     H425671  30.354   4.845   5.496
    1XTA     H525672  30.623   4.863   5.499
    1XTA     H625673  30.864   4.887   5.502
    1XTA     H725674  30.904   4.554   5.229
    1XTA     H825675  30.652   4.535   5.232
    1XTA     H925676  30.514   4.878   5.224
    1XTA    H1025677  30.393   4.908   5.015
    1XTA    H1125678  30.143   4.565   5.111
    1XTA    H1225679  30.290   4.510   5.300
    1XTA    OA125680  30.248   4.603   5.861
    1XTA    CO125681  30.209   4.476   5.905
    1XTA    OA225682  31.037   4.727   5.358
    1XTA    CO225683  31.099   4.836   5.427
    1XTA    CL125684  31.245   4.844   5.395
    1XTA    CL225685  31.301   4.965   5.474
    1XTA    CL325686  31.454   4.971   5.485
    1XTA    CL425687  31.523   5.032   5.362
    1XTA    CO325688  31.545   4.931   5.249
    1XTA    OA325689  31.587   4.998   5.129
    1XTA    CO425690  31.626   4.895   5.029
    1XTA    CT125691  31.604   4.954   4.885
    1XTA    CL525692  31.657   4.845   4.792
    1XTA    CL625693  31.633   4.867   4.645
    1XTA    OA425694  30.167   4.768   4.943
    1XTA    CO525695  30.222   4.816   4.823
    1XTA    CL725696  30.123   4.761   4.718
    1XTA    CL825697  30.095   4.614   4.733
    1XTA    CL925698  30.004   4.562   4.623
    1XTA   CL1025699  29.849   4.602   4.640
    1XTA    CO625700  29.748   4.500   4.588
    1XTA    OA525701  29.767   4.359   4.614
    1XTA    CO725702  29.768   4.328   4.751
    1XTA    CT225703  29.707   4.189   4.787
    1XTA   CL1125704  29.826   4.088   4.768
    1XTA   CL1225705  29.883   4.075   4.625
    1XTA    HL125706  30.169   4.488   6.008
    1XTA    HL225707  30.127   4.441   5.844
    1XTA    HL325708  30.287   4.399   5.908
    1XTA    HL425709  31.067   4.936   5.393
    1XTA    HL525710  31.081   4.828   5.533
    1XTA    HL625711  31.255   4.860   5.285
    1XTA    HL725712  31.295   4.757   5.423
    1XTA    HL825713  31.262   4.955   5.573
    1XTA    HL925714  31.259   5.055   5.428
    1XTA   HL1025715  31.484   5.014   5.588
    1XTA   HL1125716  31.473   4.863   5.487
    1XTA   HL1225717  31.619   5.081   5.383
    1XTA   HL1325718  31.464   5.114   5.324
    1XTA   HL1425719  31.634   4.871   5.273
    1XTA   HL1525720  31.468   4.857   5.248
    1XTA   HL1625721  31.729   4.865   5.050
    1XTA   HL1725722  31.561   4.812   5.036
    1XTA   HL1825723  31.607   4.752   4.821
    1XTA   HL1925724  31.761   4.825   4.802
    1XTA   HL2025725  31.671   4.783   4.585
    1XTA   HL2125726  31.679   4.961   4.614
    1XTA   HL2225727  31.529   4.889   4.621
    1XTA   HL2325728  30.322   4.778   4.804
    1XTA   HL2425729  30.220   4.923   4.820
    1XTA   HL2525730  30.024   4.803   4.738
    1XTA   HL2625731  30.170   4.785   4.622
    1XTA   HL2725732  30.194   4.565   4.728
    1XTA   HL2825733  30.052   4.600   4.830
    1XTA   HL2925734  30.037   4.593   4.522
    1XTA   HL3025735  30.009   4.449   4.627
    1XTA   HL3125736  29.838   4.609   4.744
    1XTA   HL3225737  29.825   4.701   4.603
    1XTA   HL3325738  29.651   4.542   4.628
    1XTA   HL3425739  29.737   4.524   4.480
    1XTA   HL3525740  29.719   4.412   4.798
    1XTA   HL3625741  29.873   4.328   4.792
    1XTA   HL3725742  29.779   3.998   4.795
    1XTA   HL3825743  29.910   4.098   4.839
    1XTA   HL3925744  29.803   4.061   4.558
    1XTA   HL4025745  29.944   3.986   4.621
    1XTA   HL4125746  29.948   4.160   4.600
    1XTA    CO825747  31.673   5.086   4.873
    1XTA    CO925748  31.453   4.971   4.864
    1XTA    OA625749  31.784   5.083   4.880
    1XTA   HL4225750  31.632   5.152   4.951
    1XTA   HL4325751  31.647   5.132   4.780
    1XTA   HL4425752  29.619   4.160   4.590
    1XTA   HL4525753  29.553   4.051   4.712
    1XTA   CO1025754  29.589   4.152   4.694
    1XTA   CO1125755  29.670   4.189   4.935
    1XTA    OA725756  29.484   4.241   4.726
    1XTA   HL4625757  29.769   4.209   4.995
    1XTA   HL4725758  29.597   4.267   4.953
    1XTA   HL4825759  31.406   5.041   4.977
    1XTA   HL4925760  31.443   5.045   4.782
    1XTA     NT25761  27.627   6.954   7.063
    1XTA    CN125762  27.620   6.928   6.932
    1XTA     C125763  27.712   6.842   6.868
    1XTA     C225764  27.688   6.811   6.726
    1XTA     C325765  27.589   6.881   6.656
    1XTA     C425766  27.499   6.957   6.728
    1XTA     C525767  27.502   6.973   6.863
    1XTA    CN225768  27.541   6.892   7.145
    1XTA     C625769  27.428   6.959   7.206
    1XTA     C725770  27.329   6.891   7.280
    1XTA     C825771  27.346   6.746   7.299
    1XTA     C925772  27.462   6.678   7.250
    1XTA    C1025773  27.555   6.751   7.171
    1XTA    CN325774  27.723   7.035   7.113
    1XTA    C1125775  27.858   6.991   7.125
    1XTA    C1225776  27.961   7.078   7.168
    1XTA    C1325777  27.929   7.215   7.187
    1XTA    C1425778  27.795   7.263   7.165
    1XTA    C1525779  27.694   7.171   7.140
    1XTA     H125780  27.801   6.803   6.926
    1XTA     H225781  27.747   6.741   6.679
    1XTA     H325782  27.415   7.004   6.680
    1XTA     H425783  27.435   7.037   6.910
    1XTA     H525784  27.410   7.066   7.185
    1XTA     H625785  27.239   6.930   7.317
    1XTA     H725786  27.471   6.572   7.281
    1XTA     H825787  27.634   6.697   7.124
    1XTA     H925788  27.889   6.891   7.095
    1XTA    H1025789  28.068   7.049   7.169
    1XTA    H1125790  27.772   7.364   7.167
    1XTA    H1225791  27.597   7.214   7.122
    1XTA    OA125792  27.564   6.844   6.524
    1XTA    CO125793  27.662   6.762   6.452
    1XTA    OA225794  27.253   6.675   7.369
    1XTA    CO225795  27.267   6.688   7.507
    1XTA    CL125796  27.382   6.608   7.569
    1XTA    CL225797  27.376   6.468   7.516
    1XTA    CL325798  27.492   6.377   7.561
    1XTA    CL425799  27.605   6.370   7.455
    1XTA    CO325800  27.716   6.270   7.496
    1XTA    OA325801  27.802   6.275   7.386
    1XTA    CO425802  27.930   6.230   7.430
    1XTA    CT125803  28.033   6.266   7.317
    1XTA    CL525804  28.042   6.156   7.203
    1XTA    CL625805  27.908   6.136   7.130
    1XTA    OA425806  28.034   7.300   7.224
    1XTA    CO525807  27.992   7.427   7.260
    1XTA    CL725808  28.101   7.510   7.315
    1XTA    CL825809  28.074   7.665   7.318
    1XTA    CL925810  28.167   7.754   7.403
    1XTA   CL1025811  28.168   7.899   7.358
    1XTA    CO625812  28.048   7.984   7.392
    1XTA    OA525813  27.937   7.944   7.315
    1XTA    CO725814  27.829   8.033   7.323
    1XTA    CT225815  27.702   7.959   7.260
    1XTA   CL1125816  27.590   8.058   7.234
    1XTA   CL1225817  27.602   8.109   7.092
    1XTA    HL125818  27.763   6.793   6.431
    1XTA    HL225819  27.657   6.662   6.501
    1XTA    HL325820  27.627   6.735   6.354
    1XTA    HL425821  27.269   6.792   7.546
    1XTA    HL525822  27.170   6.653   7.538
    1XTA    HL625823  27.366   6.618   7.676
    1XTA    HL725824  27.478   6.656   7.535
    1XTA    HL825825  27.366   6.466   7.406
    1XTA    HL925826  27.287   6.419   7.560
    1XTA   HL1025827  27.530   6.421   7.655
    1XTA   HL1125828  27.454   6.284   7.581
    1XTA   HL1225829  27.657   6.466   7.441
    1XTA   HL1325830  27.573   6.354   7.353
    1XTA   HL1425831  27.760   6.296   7.584
    1XTA   HL1525832  27.693   6.167   7.517
    1XTA   HL1625833  27.965   6.285   7.519
    1XTA   HL1725834  27.926   6.118   7.445
    1XTA   HL1825835  28.069   6.064   7.255
    1XTA   HL1925836  28.117   6.182   7.129
    1XTA   HL2025837  27.848   6.076   7.196
    1XTA   HL2125838  27.930   6.078   7.037
    1XTA   HL2225839  27.852   6.229   7.111
    1XTA   HL2325840  27.919   7.428   7.339
    1XTA   HL2425841  27.941   7.475   7.171
    1XTA   HL2525842  28.141   7.463   7.407
    1XTA   HL2625843  28.189   7.502   7.244
    1XTA   HL2725844  28.085   7.685   7.213
    1XTA   HL2825845  27.970   7.684   7.350
    1XTA   HL2925846  28.156   7.736   7.510
    1XTA   HL3025847  28.269   7.717   7.374
    1XTA   HL3125848  28.253   7.939   7.410
    1XTA   HL3225849  28.171   7.906   7.246
    1XTA   HL3325850  28.030   7.975   7.494
    1XTA   HL3425851  28.045   8.091   7.380
    1XTA   HL3525852  27.859   8.119   7.264
    1XTA   HL3625853  27.803   8.072   7.423
    1XTA   HL3725854  27.605   8.139   7.305
    1XTA   HL3825855  27.488   8.018   7.250
    1XTA   HL3925856  27.581   8.027   7.016
    1XTA   HL4025857  27.693   8.142   7.059
    1XTA   HL4125858  27.533   8.190   7.072
    1XTA    CO825859  28.169   6.276   7.385
    1XTA    CO925860  28.008   6.408   7.246
    1XTA    OA625861  28.030   6.520   7.338
    1XTA   HL4225862  28.183   6.182   7.441
    1XTA   HL4325863  28.162   6.360   7.454
    1XTA   HL4425864  27.661   7.923   7.463
    1XTA   HL4525865  27.730   7.786   7.371
    1XTA   CO1025866  27.652   7.860   7.375
    1XTA   CO1125867  27.746   7.880   7.133
    1XTA    OA725868  27.634   7.808   7.067
    1XTA   HL4625869  27.794   7.949   7.064
    1XTA   HL4725870  27.820   7.803   7.166
    1XTA   HL4825871  27.916   6.413   7.187
    1XTA   HL4925872  28.080   6.428   7.171
    1XTA     NT25873  26.909   3.836   7.072
    1XTA    CN125874  26.802   3.898   7.132
    1XTA     C125875  26.749   4.015   7.079
    1XTA     C225876  26.630   4.066   7.131
    1XTA     C325877  26.564   4.004   7.241
    1XTA     C425878  26.629   3.898   7.302
    1XTA     C525879  26.740   3.833   7.241
    1XTA    CN225880  27.013   3.905   7.026
    1XTA     C625881  27.113   3.970   7.102
    1XTA     C725882  27.222   4.025   7.031
    1XTA     C825883  27.234   4.037   6.894
    1XTA     C925884  27.131   3.982   6.820
    1XTA    C1025885  27.026   3.914   6.882
    1XTA    CN325886  26.923   3.706   7.059
    1XTA    C1125887  26.826   3.634   6.994
    1XTA    C1225888  26.827   3.494   6.995
    1XTA    C1325889  26.930   3.421   7.053
    1XTA    C1425890  27.027   3.495   7.118
    1XTA    C1525891  27.024   3.638   7.126
    1XTA     H125892  26.787   4.048   6.989
    1XTA     H225893  26.580   4.149   7.089
    1XTA     H325894  26.593   3.860   7.395
    1XTA     H425895  26.780   3.737   7.282
    1XTA     H525896  27.105   3.980   7.208
    1XTA     H625897  27.307   4.069   7.080
    1XTA     H725898  27.126   4.000   6.711
    1XTA     H825899  26.946   3.874   6.830
    1XTA     H925900  26.748   3.686   6.939
    1XTA    H1025901  26.742   3.446   6.936
    1XTA    H1125902  27.109   3.443   7.164
    1XTA    H1225903  27.099   3.701   7.168
    1XTA    OA125904  26.440   4.037   7.284
    1XTA    CO125905  26.388   3.954   7.389
    1XTA    OA225906  27.343   4.103   6.843
    1XTA    CO225907  27.374   4.081   6.707
    1XTA    CL125908  27.519   4.092   6.684
    1XTA    CL225909  27.550   4.070   6.539
    1XTA    CL325910  27.696   4.108   6.501
    1XTA    CL425911  27.727   4.076   6.355
    1XTA    CO325912  27.664   4.173   6.252
    1XTA    OA325913  27.694   4.109   6.137
    1XTA    CO425914  27.647   4.178   6.025
    1XTA    CT125915  27.634   4.086   5.907
    1XTA    CL525916  27.570   3.953   5.949
    1XTA    CL625917  27.530   3.852   5.845
    1XTA    OA425918  26.917   3.288   7.053
    1XTA    CO525919  27.004   3.209   7.127
    1XTA    CL725920  26.962   3.061   7.134
    1XTA    CL825921  26.985   2.970   7.008
    1XTA    CL925922  26.922   2.835   7.023
    1XTA   CL1025923  26.769   2.848   7.024
    1XTA    CO625924  26.697   2.717   7.029
    1XTA    OA525925  26.729   2.634   6.918
    1XTA    CO725926  26.654   2.663   6.805
    1XTA    CT225927  26.728   2.611   6.679
    1XTA   CL1125928  26.641   2.603   6.551
    1XTA   CL1225929  26.711   2.578   6.417
    1XTA    HL125930  26.284   3.982   7.412
    1XTA    HL225931  26.374   3.850   7.360
    1XTA    HL325932  26.446   3.963   7.488
    1XTA    HL425933  27.341   3.980   6.670
    1XTA    HL525934  27.307   4.158   6.647
    1XTA    HL625935  27.566   4.019   6.746
    1XTA    HL725936  27.560   4.187   6.725
    1XTA    HL825937  27.486   4.127   6.468
    1XTA    HL925938  27.534   3.963   6.518
    1XTA   HL1025939  27.733   4.211   6.525
    1XTA   HL1125940  27.753   4.039   6.563
    1XTA   HL1225941  27.692   3.973   6.336
    1XTA   HL1325942  27.834   4.076   6.337
    1XTA   HL1425943  27.554   4.165   6.262
    1XTA   HL1525944  27.691   4.274   6.263
    1XTA   HL1625945  27.549   4.231   6.050
    1XTA   HL1725946  27.707   4.266   6.001
    1XTA   HL1825947  27.484   3.978   6.000
    1XTA   HL1925948  27.626   3.902   6.030
    1XTA   HL2025949  27.490   3.887   5.751
    1XTA   HL2125950  27.455   3.776   5.867
    1XTA   HL2225951  27.612   3.792   5.819
    1XTA   HL2325952  27.019   3.233   7.228
    1XTA   HL2425953  27.110   3.216   7.086
    1XTA   HL2525954  27.014   3.004   7.210
    1XTA   HL2625955  26.859   3.062   7.161
    1XTA   HL2725956  26.952   3.019   6.918
    1XTA   HL2825957  27.090   2.950   7.002
    1XTA   HL2925958  26.962   2.781   6.935
    1XTA   HL3025959  26.947   2.788   7.115
    1XTA   HL3125960  26.727   2.898   7.107
    1XTA   HL3225961  26.730   2.894   6.934
    1XTA   HL3325962  26.717   2.669   7.122
    1XTA   HL3425963  26.588   2.727   7.045
    1XTA   HL3525964  26.638   2.768   6.790
    1XTA   HL3625965  26.555   2.627   6.822
    1XTA   HL3725966  26.580   2.693   6.550
    1XTA   HL3825967  26.570   2.518   6.571
    1XTA   HL3925968  26.723   2.472   6.402
    1XTA   HL4025969  26.815   2.616   6.409
    1XTA   HL4125970  26.655   2.611   6.332
    1XTA    CO825971  27.780   4.062   5.858
    1XTA    CO925972  27.562   4.168   5.800
    1XTA    OA625973  27.790   4.012   5.726
    1XTA   HL4225974  27.830   3.995   5.930
    1XTA   HL4325975  27.839   4.159   5.869
    1XTA   HL4425976  26.855   2.441   6.645
    1XTA   HL4525977  26.836   2.472   6.807
    1XTA   CO1025978  26.782   2.474   6.714
    1XTA   CO1125979  26.849   2.705   6.655
    1XTA    OA725980  26.678   2.380   6.701
    1XTA   HL4625981  26.920   2.677   6.738
    1XTA   HL4725982  26.904   2.667   6.567
    1XTA   HL4825983  27.559   4.109   5.715
    1XTA   HL4925984  27.628   4.246   5.764
    1XTA     NT25985  27.576   5.108   4.781
    1XTA    CN125986  27.561   5.051   4.661
    1XTA     C125987  27.662   4.978   4.594
    1XTA     C225988  27.638   4.937   4.459
    1XTA     C325989  27.514   4.959   4.398
    1XTA     C425990  27.411   5.025   4.462
    1XTA     C525991  27.440   5.071   4.591
    1XTA    CN225992  27.602   5.233   4.794
    1XTA     C625993  27.521   5.323   4.863
    1XTA     C725994  27.546   5.465   4.857
    1XTA     C825995  27.654   5.516   4.790
    1XTA     C925996  27.743   5.429   4.723
    1XTA    C1025997  27.716   5.289   4.728
    1XTA    CN325998  27.530   5.041   4.888
    1XTA    C1125999  27.625   4.998   4.990
    1XTA    C1226000  27.576   4.943   5.106
    1XTA    C1326001  27.438   4.937   5.135
    1XTA    C1426002  27.350   4.994   5.047
    1XTA    C1526003  27.394   5.036   4.920
    1XTA     H126004  27.750   4.951   4.643
    1XTA     H226005  27.717   4.876   4.403
    1XTA     H326006  27.313   5.046   4.419
    1XTA     H426007  27.358   5.127   4.634
    1XTA     H526008  27.438   5.293   4.926
    1XTA     H626009  27.485   5.529   4.912
    1XTA     H726010  27.822   5.473   4.665
    1XTA     H826011  27.787   5.219   4.690
    1XTA     H926012  27.731   5.004   4.973
    1XTA    H1026013  27.647   4.916   5.181
    1XTA    H1126014  27.249   5.010   5.058
    1XTA    H1226015  27.327   5.063   4.848
    1XTA    OA126016  27.489   4.919   4.271
    1XTA    CO126017  27.598   4.921   4.174
    1XTA    OA226018  27.663   5.652   4.772
    1XTA    CO226019  27.742   5.700   4.667
    1XTA    CL126020  27.695   5.841   4.637
    1XTA    CL226021  27.567   5.845   4.543
    1XTA    CL326022  27.467   5.969   4.539
    1XTA    CL426023  27.386   5.977   4.663
    1XTA    CO326024  27.288   6.098   4.667
    1XTA    OA326025  27.229   6.103   4.797
    1XTA    CO426026  27.166   6.233   4.824
    1XTA    CT126027  27.070   6.250   4.945
    1XTA    CL526028  27.133   6.192   5.075
    1XTA    CL626029  27.263   6.259   5.110
    1XTA    OA426030  27.393   4.891   5.259
    1XTA    CO526031  27.469   4.781   5.312
    1XTA    CL726032  27.364   4.665   5.329
    1XTA    CL826033  27.308   4.619   5.192
    1XTA    CL926034  27.211   4.496   5.195
    1XTA   CL1026035  27.155   4.474   5.054
    1XTA    CO626036  27.262   4.424   4.955
    1XTA    OA526037  27.294   4.510   4.848
    1XTA    CO726038  27.372   4.446   4.739
    1XTA    CT226039  27.434   4.547   4.647
    1XTA   CL1126040  27.333   4.649   4.588
    1XTA   CL1226041  27.271   4.757   4.685
    1XTA    HL126042  27.653   5.014   4.160
    1XTA    HL226043  27.663   4.843   4.187
    1XTA    HL326044  27.555   4.896   4.083
    1XTA    HL426045  27.852   5.706   4.680
    1XTA    HL526046  27.719   5.643   4.580
    1XTA    HL626047  27.783   5.895   4.590
    1XTA    HL726048  27.668   5.887   4.735
    1XTA    HL826049  27.495   5.766   4.566
    1XTA    HL926050  27.603   5.827   4.441
    1XTA   HL1026051  27.524   6.062   4.528
    1XTA   HL1126052  27.402   5.976   4.449
    1XTA   HL1226053  27.453   5.967   4.753
    1XTA   HL1326054  27.335   5.877   4.657
    1XTA   HL1426055  27.348   6.184   4.649
    1XTA   HL1526056  27.213   6.087   4.593
    1XTA   HL1626057  27.248   6.304   4.834
    1XTA   HL1726058  27.102   6.248   4.731
    1XTA   HL1826059  27.152   6.079   5.069
    1XTA   HL1926060  27.065   6.207   5.154
    1XTA   HL2026061  27.252   6.369   5.125
    1XTA   HL2126062  27.345   6.238   5.042
    1XTA   HL2226063  27.296   6.230   5.209
    1XTA   HL2326064  27.517   4.807   5.410
    1XTA   HL2426065  27.550   4.743   5.249
    1XTA   HL2526066  27.414   4.581   5.382
    1XTA   HL2626067  27.276   4.703   5.378
    1XTA   HL2726068  27.255   4.710   5.168
    1XTA   HL2826069  27.392   4.605   5.121
    1XTA   HL2926070  27.263   4.410   5.232
    1XTA   HL3026071  27.129   4.526   5.266
    1XTA   HL3126072  27.080   4.396   5.064
    1XTA   HL3226073  27.103   4.560   5.018
    1XTA   HL3326074  27.352   4.388   5.002
    1XTA   HL3426075  27.217   4.345   4.899
    1XTA   HL3526076  27.311   4.375   4.676
    1XTA   HL3626077  27.452   4.374   4.777
    1XTA   HL3726078  27.250   4.590   4.537
    1XTA   HL3826079  27.388   4.690   4.508
    1XTA   HL3926080  27.222   4.713   4.772
    1XTA   HL4026081  27.207   4.826   4.628
    1XTA   HL4126082  27.346   4.821   4.727
    1XTA    CO826083  26.947   6.163   4.915
    1XTA    CO926084  27.018   6.387   4.967
    1XTA    OA626085  27.097   6.464   4.939
    1XTA   HL4226086  26.994   6.067   4.895
    1XTA   HL4326087  26.881   6.142   5.036
    1XTA   HL4426088  27.578   4.543   4.487
    1XTA   HL4526089  27.593   4.410   4.583
    1XTA   CO1026090  27.514   4.472   4.538
    1XTA   CO1126091  27.546   4.611   4.725
    1XTA    OA726092  27.451   4.413   4.474
    1XTA   HL4626093  27.495   4.687   4.831
    1XTA   HL4726094  27.589   4.693   4.665
    1XTA   HL4826095  26.995   6.394   5.075
    1XTA   HL4926096  26.923   6.419   4.908
    1XTA     NT26097  25.240   4.796  -0.305
    1XTA    CN126098  25.271   4.676  -0.263
    1XTA     C126099  25.246   4.622  -0.130
    1XTA     C226100  25.270   4.486  -0.103
    1XTA     C326101  25.308   4.394  -0.208
    1XTA     C426102  25.340   4.448  -0.330
    1XTA     C526103  25.320   4.589  -0.356
    1XTA    CN226104  25.118   4.815  -0.353
    1XTA     C626105  25.009   4.806  -0.260
    1XTA     C726106  24.881   4.845  -0.309
    1XTA     C826107  24.867   4.883  -0.439
    1XTA     C926108  24.973   4.888  -0.529
    1XTA    C1026109  25.105   4.856  -0.488
    1XTA    CN326110  25.311   4.903  -0.267
    1XTA    C1126111  25.395   4.961  -0.358
    1XTA    C1226112  25.458   5.082  -0.326
    1XTA    C1326113  25.464   5.130  -0.195
    1XTA    C1426114  25.384   5.068  -0.102
    1XTA    C1526115  25.302   4.958  -0.133
    1XTA     H126116  25.206   4.690  -0.057
    1XTA     H226117  25.265   4.442  -0.005
    1XTA     H326118  25.378   4.393  -0.412
    1XTA     H426119  25.353   4.623  -0.456
    1XTA     H526120  25.025   4.770  -0.157
    1XTA     H626121  24.793   4.858  -0.244
    1XTA     H726122  24.958   4.926  -0.628
    1XTA     H826123  25.192   4.876  -0.553
    1XTA     H926124  25.411   4.923  -0.459
    1XTA    H1026125  25.512   5.135  -0.401
    1XTA    H1126126  25.385   5.100   0.003
    1XTA    H1226127  25.244   4.911  -0.057
    1XTA    OA126128  25.307   4.257  -0.180
    1XTA    CO126129  25.313   4.170  -0.296
    1XTA    OA226130  24.736   4.921  -0.472
    1XTA    CO226131  24.686   4.876  -0.597
    1XTA    CL126132  24.535   4.909  -0.609
    1XTA    CL226133  24.510   5.062  -0.632
    1XTA    CL326134  24.592   5.120  -0.746
    1XTA    CL426135  24.544   5.265  -0.779
    1XTA    CO326136  24.632   5.320  -0.891
    1XTA    OA326137  24.600   5.255  -1.013
    1XTA    CO426138  24.704   5.283  -1.110
    1XTA    CT126139  24.681   5.218  -1.254
    1XTA    CL526140  24.540   5.257  -1.291
    1XTA    CL626141  24.519   5.296  -1.438
    1XTA    OA426142  25.550   5.228  -0.158
    1XTA    CO526143  25.576   5.336  -0.255
    1XTA    CL726144  25.628   5.452  -0.168
    1XTA    CL826145  25.528   5.569  -0.136
    1XTA    CL926146  25.432   5.536  -0.020
    1XTA   CL1026147  25.302   5.452  -0.047
    1XTA    CO626148  25.206   5.464   0.075
    1XTA    OA526149  25.148   5.598   0.078
    1XTA    CO726150  25.086   5.624   0.204
    1XTA    CT226151  24.934   5.578   0.207
    1XTA   CL1126152  24.860   5.611   0.071
    1XTA   CL1226153  24.702   5.604   0.078
    1XTA    HL126154  25.420   4.171  -0.326
    1XTA    HL226155  25.277   4.067  -0.289
    1XTA    HL326156  25.241   4.218  -0.362
    1XTA    HL426157  24.743   4.915  -0.682
    1XTA    HL526158  24.710   4.770  -0.591
    1XTA    HL626159  24.484   4.856  -0.533
    1XTA    HL726160  24.493   4.868  -0.699
    1XTA    HL826161  24.533   5.113  -0.538
    1XTA    HL926162  24.402   5.073  -0.658
    1XTA   HL1026163  24.695   5.124  -0.718
    1XTA   HL1126164  24.589   5.059  -0.839
    1XTA   HL1226165  24.555   5.328  -0.686
    1XTA   HL1326166  24.436   5.263  -0.798
    1XTA   HL1426167  24.611   5.430  -0.900
    1XTA   HL1526168  24.737   5.306  -0.873
    1XTA   HL1626169  24.709   5.393  -1.119
    1XTA   HL1726170  24.796   5.242  -1.065
    1XTA   HL1826171  24.492   5.339  -1.238
    1XTA   HL1926172  24.475   5.172  -1.276
    1XTA   HL2026173  24.408   5.296  -1.434
    1XTA   HL2126174  24.564   5.225  -1.505
    1XTA   HL2226175  24.561   5.396  -1.460
    1XTA   HL2326176  25.482   5.371  -0.288
    1XTA   HL2426177  25.642   5.295  -0.333
    1XTA   HL2526178  25.677   5.403  -0.078
    1XTA   HL2626179  25.710   5.497  -0.221
    1XTA   HL2726180  25.584   5.658  -0.112
    1XTA   HL2826181  25.469   5.608  -0.225
    1XTA   HL2926182  25.478   5.474   0.050
    1XTA   HL3026183  25.412   5.629   0.032
    1XTA   HL3126184  25.257   5.479  -0.142
    1XTA   HL3226185  25.334   5.346  -0.058
    1XTA   HL3326186  25.124   5.393   0.060
    1XTA   HL3426187  25.264   5.439   0.157
    1XTA   HL3526188  25.088   5.729   0.213
    1XTA   HL3626189  25.148   5.583   0.284
    1XTA   HL3726190  24.899   5.545  -0.006
    1XTA   HL3826191  24.882   5.713   0.039
    1XTA   HL3926192  24.654   5.648  -0.014
    1XTA   HL4026193  24.670   5.651   0.171
    1XTA   HL4126194  24.681   5.499   0.083
    1XTA    CO826195  24.696   5.068  -1.245
    1XTA    CO926196  24.789   5.282  -1.354
    1XTA    OA626197  24.673   4.995  -1.367
    1XTA   HL4226198  24.615   5.040  -1.183
    1XTA   HL4326199  24.781   5.022  -1.192
    1XTA   HL4426200  24.773   5.615   0.335
    1XTA   HL4526201  24.844   5.758   0.287
    1XTA   CO1026202  24.872   5.658   0.318
    1XTA   CO1126203  24.924   5.433   0.240
    1XTA    OA726204  24.794   5.390   0.277
    1XTA   HL4626205  24.952   5.375   0.153
    1XTA   HL4726206  24.997   5.422   0.325
    1XTA   HL4826207  24.780   5.238  -1.451
    1XTA   HL4926208  24.749   5.382  -1.367
    1XTA     NT26209  28.278   3.447   1.655
    1XTA    CN126210  28.333   3.326   1.663
    1XTA     C126211  28.472   3.307   1.651
    1XTA     C226212  28.529   3.177   1.668
    1XTA     C326213  28.448   3.074   1.709
    1XTA     C426214  28.313   3.092   1.719
    1XTA     C526215  28.249   3.214   1.692
    1XTA    CN226216  28.279   3.519   1.541
    1XTA     C626217  28.278   3.449   1.415
    1XTA     C726218  28.299   3.517   1.291
    1XTA     C826219  28.326   3.657   1.287
    1XTA     C926220  28.301   3.725   1.414
    1XTA    C1026221  28.283   3.661   1.538
    1XTA    CN326222  28.227   3.497   1.773
    1XTA    C1126223  28.310   3.552   1.877
    1XTA    C1226224  28.257   3.599   1.995
    1XTA    C1326225  28.124   3.605   2.026
    1XTA    C1426226  28.038   3.554   1.929
    1XTA    C1526227  28.084   3.502   1.802
    1XTA     H126228  28.526   3.390   1.611
    1XTA     H226229  28.637   3.166   1.657
    1XTA     H326230  28.256   3.000   1.737
    1XTA     H426231  28.143   3.220   1.708
    1XTA     H526232  28.258   3.338   1.413
    1XTA     H626233  28.313   3.462   1.198
    1XTA     H726234  28.302   3.831   1.427
    1XTA     H826235  28.271   3.730   1.616
    1XTA     H926236  28.410   3.566   1.854
    1XTA    H1026237  28.336   3.652   2.057
    1XTA    H1126238  27.931   3.564   1.934
    1XTA    H1226239  28.023   3.475   1.723
    1XTA    OA126240  28.505   2.953   1.744
    1XTA    CO126241  28.649   2.936   1.739
    1XTA    OA226242  28.342   3.727   1.171
    1XTA    CO226243  28.387   3.870   1.165
    1XTA    CL126244  28.532   3.907   1.212
    1XTA    CL226245  28.570   4.057   1.178
    1XTA    CL326246  28.705   4.116   1.233
    1XTA    CL426247  28.752   4.223   1.135
    1XTA    CO326248  28.700   4.361   1.165
    1XTA    OA326249  28.729   4.401   1.297
    1XTA    CO426250  28.765   4.534   1.314
    1XTA    CT126251  28.805   4.568   1.458
    1XTA    CL526252  28.869   4.712   1.461
    1XTA    CL626253  28.782   4.816   1.406
    1XTA    OA426254  28.065   3.648   2.146
    1XTA    CO526255  28.159   3.694   2.242
    1XTA    CL726256  28.092   3.675   2.377
    1XTA    CL826257  28.163   3.761   2.480
    1XTA    CL926258  28.160   3.912   2.469
    1XTA   CL1026259  28.032   3.967   2.537
    1XTA    CO626260  28.028   4.118   2.510
    1XTA    OA526261  27.917   4.169   2.589
    1XTA    CO726262  27.950   4.217   2.720
    1XTA    CT226263  27.825   4.269   2.801
    1XTA   CL1126264  27.713   4.164   2.773
    1XTA   CL1226265  27.587   4.210   2.851
    1XTA    HL126266  28.667   2.839   1.788
    1XTA    HL226267  28.680   2.943   1.634
    1XTA    HL326268  28.689   3.023   1.797
    1XTA    HL426269  28.371   3.920   1.071
    1XTA    HL526270  28.310   3.931   1.221
    1XTA    HL626271  28.599   3.837   1.152
    1XTA    HL726272  28.548   3.897   1.322
    1XTA    HL826273  28.484   4.122   1.204
    1XTA    HL926274  28.582   4.059   1.067
    1XTA   HL1026275  28.686   4.157   1.333
    1XTA   HL1126276  28.785   4.038   1.245
    1XTA   HL1226277  28.726   4.197   1.029
    1XTA   HL1326278  28.856   4.226   1.132
    1XTA   HL1426279  28.744   4.413   1.079
    1XTA   HL1526280  28.593   4.366   1.140
    1XTA   HL1626281  28.843   4.549   1.243
    1XTA   HL1726282  28.687   4.603   1.286
    1XTA   HL1826283  28.958   4.706   1.399
    1XTA   HL1926284  28.910   4.738   1.557
    1XTA   HL2026285  28.797   4.839   1.304
    1XTA   HL2126286  28.815   4.903   1.457
    1XTA   HL2226287  28.681   4.790   1.431
    1XTA   HL2326288  28.170   3.802   2.217
    1XTA   HL2426289  28.260   3.650   2.251
    1XTA   HL2526290  27.991   3.711   2.370
    1XTA   HL2626291  28.073   3.570   2.391
    1XTA   HL2726292  28.132   3.747   2.582
    1XTA   HL2826293  28.266   3.726   2.481
    1XTA   HL2926294  28.236   3.960   2.524
    1XTA   HL3026295  28.173   3.944   2.360
    1XTA   HL3126296  27.943   3.920   2.502
    1XTA   HL3226297  28.048   3.947   2.646
    1XTA   HL3326298  28.123   4.166   2.529
    1XTA   HL3426299  28.006   4.136   2.401
    1XTA   HL3526300  28.017   4.302   2.715
    1XTA   HL3626301  27.991   4.142   2.786
    1XTA   HL3726302  27.749   4.065   2.790
    1XTA   HL3826303  27.679   4.172   2.677
    1XTA   HL3926304  27.572   4.319   2.843
    1XTA   HL4026305  27.604   4.188   2.955
    1XTA   HL4126306  27.503   4.150   2.826
    1XTA    CO826307  28.911   4.463   1.499
    1XTA    CO926308  28.692   4.555   1.555
    1XTA    OA626309  28.702   4.582   1.693
    1XTA   HL4226310  28.945   4.488   1.594
    1XTA   HL4326311  28.863   4.366   1.502
    1XTA   HL4426312  27.721   4.479   2.850
    1XTA   HL4526313  27.735   4.404   2.664
    1XTA   CO1026314  27.796   4.410   2.752
    1XTA   CO1126315  27.870   4.275   2.944
    1XTA    OA726316  27.796   4.316   3.011
    1XTA   HL4626317  27.898   4.184   2.975
    1XTA   HL4726318  27.960   4.338   2.944
    1XTA   HL4826319  28.667   4.447   1.540
    1XTA   HL4926320  28.607   4.599   1.504
    1XTA     NT26321  33.535   3.225   2.927
    1XTA    CN126322  33.644   3.180   2.864
    1XTA     C126323  33.725   3.088   2.923
    1XTA     C226324  33.846   3.055   2.864
    1XTA     C326325  33.891   3.110   2.740
    1XTA     C426326  33.807   3.205   2.680
    1XTA     C526327  33.687   3.237   2.741
    1XTA    CN226328  33.437   3.135   2.947
    1XTA     C626329  33.367   3.079   2.837
    1XTA     C726330  33.261   2.986   2.872
    1XTA     C826331  33.231   2.949   3.002
    1XTA     C926332  33.307   3.005   3.104
    1XTA    C1026333  33.413   3.094   3.077
    1XTA    CN326334  33.520   3.350   2.959
    1XTA    C1126335  33.445   3.435   2.879
    1XTA    C1226336  33.429   3.571   2.906
    1XTA    C1326337  33.483   3.617   3.022
    1XTA    C1426338  33.564   3.535   3.103
    1XTA    C1526339  33.592   3.404   3.067
    1XTA     H126340  33.695   3.046   3.014
    1XTA     H226341  33.904   2.986   2.921
    1XTA     H326342  33.825   3.248   2.583
    1XTA     H426343  33.636   3.322   2.702
    1XTA     H526344  33.411   3.083   2.740
    1XTA     H626345  33.195   2.954   2.789
    1XTA     H726346  33.280   2.981   3.207
    1XTA     H826347  33.484   3.125   3.154
    1XTA     H926348  33.401   3.391   2.789
    1XTA    H1026349  33.378   3.630   2.830
    1XTA    H1126350  33.593   3.563   3.205
    1XTA    H1226351  33.656   3.339   3.126
    1XTA    OA126352  34.007   3.080   2.675
    1XTA    CO126353  34.086   2.965   2.722
    1XTA    OA226354  33.123   2.866   3.028
    1XTA    CO226355  33.035   2.914   3.133
    1XTA    CL126356  32.885   2.930   3.086
    1XTA    CL226357  32.818   2.787   3.064
    1XTA    CL326358  32.666   2.776   3.041
    1XTA    CL426359  32.609   2.647   3.080
    1XTA    CO326360  32.582   2.636   3.228
    1XTA    OA326361  32.486   2.535   3.255
    1XTA    CO426362  32.471   2.515   3.397
    1XTA    CT126363  32.379   2.397   3.424
    1XTA    CL526364  32.436   2.268   3.364
    1XTA    CL626365  32.571   2.229   3.420
    1XTA    OA426366  33.470   3.738   3.086
    1XTA    CO526367  33.376   3.819   3.027
    1XTA    CL726368  33.358   3.946   3.118
    1XTA    CL826369  33.305   3.907   3.261
    1XTA    CL926370  33.386   3.955   3.381
    1XTA   CL1026371  33.497   3.846   3.412
    1XTA    CO626372  33.451   3.743   3.516
    1XTA    OA526373  33.575   3.670   3.528
    1XTA    CO726374  33.566   3.548   3.600
    1XTA    CT226375  33.706   3.523   3.661
    1XTA   CL1126376  33.702   3.384   3.724
    1XTA   CL1226377  33.817   3.334   3.812
    1XTA    HL126378  34.125   2.997   2.821
    1XTA    HL226379  34.018   2.886   2.729
    1XTA    HL326380  34.182   2.944   2.673
    1XTA    HL426381  33.044   2.856   3.224
    1XTA    HL526382  33.061   3.013   3.159
    1XTA    HL626383  32.873   2.994   2.996
    1XTA    HL726384  32.841   2.985   3.173
    1XTA    HL826385  32.842   2.729   3.151
    1XTA    HL926386  32.868   2.722   2.989
    1XTA   HL1026387  32.614   2.863   3.075
    1XTA   HL1126388  32.654   2.788   2.932
    1XTA   HL1226389  32.667   2.567   3.049
    1XTA   HL1326390  32.514   2.649   3.020
    1XTA   HL1426391  32.673   2.617   3.275
    1XTA   HL1526392  32.539   2.734   3.260
    1XTA   HL1626393  32.573   2.507   3.445
    1XTA   HL1726394  32.434   2.611   3.434
    1XTA   HL1826395  32.445   2.268   3.259
    1XTA   HL1926396  32.359   2.189   3.385
    1XTA   HL2026397  32.581   2.228   3.524
    1XTA   HL2126398  32.650   2.298   3.384
    1XTA   HL2226399  32.607   2.132   3.388
    1XTA   HL2326400  33.284   3.770   2.996
    1XTA   HL2426401  33.419   3.857   2.943
    1XTA   HL2526402  33.458   3.995   3.134
    1XTA   HL2626403  33.283   4.019   3.083
    1XTA   HL2726404  33.211   3.962   3.273
    1XTA   HL2826405  33.283   3.803   3.260
    1XTA   HL2926406  33.432   4.055   3.367
    1XTA   HL3026407  33.324   3.966   3.464
    1XTA   HL3126408  33.507   3.782   3.325
    1XTA   HL3226409  33.591   3.889   3.433
    1XTA   HL3326410  33.420   3.784   3.612
    1XTA   HL3426411  33.376   3.680   3.466
    1XTA   HL3526412  33.538   3.466   3.529
    1XTA   HL3626413  33.481   3.554   3.673
    1XTA   HL3726414  33.685   3.312   3.646
    1XTA   HL3826415  33.605   3.376   3.784
    1XTA   HL3926416  33.913   3.326   3.755
    1XTA   HL4026417  33.805   3.235   3.858
    1XTA   HL4126418  33.836   3.391   3.899
    1XTA    CO826419  32.235   2.427   3.365
    1XTA    CO926420  32.366   2.390   3.582
    1XTA    OA626421  32.323   2.480   3.621
    1XTA   HL4226422  32.152   2.391   3.433
    1XTA   HL4326423  32.212   2.569   3.346
    1XTA   HL4426424  33.862   3.624   3.824
    1XTA   HL4526425  33.720   3.726   3.708
    1XTA   CO1026426  33.736   3.634   3.758
    1XTA   CO1126427  33.801   3.529   3.543
    1XTA    OA726428  33.903   3.505   3.578
    1XTA   HL4626429  33.776   3.450   3.468
    1XTA   HL4726430  33.792   3.631   3.496
    1XTA   HL4826431  32.459   2.377   3.636
    1XTA   HL4926432  32.302   2.308   3.608
    1XTA     NT26433  32.383   2.025   7.096
    1XTA    CN126434  32.474   2.103   7.163
    1XTA     C126435  32.577   2.166   7.086
    1XTA     C226436  32.672   2.245   7.151
    1XTA     C326437  32.691   2.227   7.296
    1XTA     C426438  32.595   2.157   7.371
    1XTA     C526439  32.485   2.106   7.300
    1XTA    CN226440  32.288   2.073   7.011
    1XTA     C626441  32.164   2.118   7.059
    1XTA     C726442  32.068   2.168   6.972
    1XTA     C826443  32.092   2.179   6.837
    1XTA     C926444  32.214   2.136   6.783
    1XTA    C1026445  32.303   2.069   6.867
    1XTA    CN326446  32.421   1.894   7.082
    1XTA    C1126447  32.323   1.801   7.043
    1XTA    C1226448  32.349   1.665   7.039
    1XTA    C1326449  32.482   1.619   7.059
    1XTA    C1426450  32.584   1.714   7.090
    1XTA    C1526451  32.547   1.846   7.105
    1XTA     H126452  32.584   2.172   6.970
    1XTA     H226453  32.741   2.302   7.094
    1XTA     H326454  32.616   2.123   7.473
    1XTA     H426455  32.403   2.054   7.354
    1XTA     H526456  32.150   2.127   7.170
    1XTA     H626457  31.970   2.195   7.010
    1XTA     H726458  32.238   2.153   6.679
    1XTA     H826459  32.404   2.043   6.833
    1XTA     H926460  32.220   1.826   7.020
    1XTA    H1026461  32.276   1.599   7.007
    1XTA    H1126462  32.683   1.675   7.109
    1XTA    H1226463  32.629   1.908   7.138
    1XTA    OA126464  32.790   2.290   7.367
    1XTA    CO126465  32.880   2.372   7.293
    1XTA    OA226466  31.995   2.231   6.755
    1XTA    CO226467  32.015   2.234   6.614
    1XTA    CL126468  31.986   2.103   6.559
    1XTA    CL226469  32.069   2.087   6.428
    1XTA    CL326470  32.008   1.970   6.344
    1XTA    CL426471  31.909   2.017   6.238
    1XTA    CO326472  31.769   2.065   6.288
    1XTA    OA326473  31.669   2.089   6.193
    1XTA    CO426474  31.714   2.175   6.083
    1XTA    CT126475  31.674   2.321   6.089
    1XTA    CL526476  31.759   2.408   6.186
    1XTA    CL626477  31.905   2.436   6.149
    1XTA    OA426478  32.520   1.488   7.039
    1XTA    CO526479  32.422   1.382   7.067
    1XTA    CL726480  32.326   1.341   6.950
    1XTA    CL826481  32.199   1.274   6.990
    1XTA    CL926482  32.116   1.349   7.095
    1XTA   CL1026483  31.983   1.296   7.118
    1XTA    CO626484  31.886   1.385   7.189
    1XTA    OA526485  31.932   1.427   7.321
    1XTA    CO726486  31.867   1.529   7.390
    1XTA    CT226487  31.957   1.543   7.517
    1XTA   CL1126488  31.908   1.652   7.612
    1XTA   CL1226489  31.783   1.620   7.682
    1XTA    HL126490  32.945   2.412   7.369
    1XTA    HL226491  32.936   2.307   7.230
    1XTA    HL326492  32.825   2.453   7.236
    1XTA    HL426493  31.947   2.308   6.575
    1XTA    HL526494  32.114   2.274   6.589
    1XTA    HL626495  31.882   2.082   6.548
    1XTA    HL726496  32.027   2.029   6.625
    1XTA    HL826497  32.173   2.069   6.457
    1XTA    HL926498  32.068   2.184   6.376
    1XTA   HL1026499  32.086   1.916   6.285
    1XTA   HL1126500  31.966   1.891   6.407
    1XTA   HL1226501  31.892   1.934   6.167
    1XTA   HL1326502  31.966   2.089   6.178
    1XTA   HL1426503  31.713   1.991   6.348
    1XTA   HL1526504  31.785   2.154   6.351
    1XTA   HL1626505  31.820   2.160   6.049
    1XTA   HL1726506  31.647   2.127   6.017
    1XTA   HL1826507  31.760   2.371   6.289
    1XTA   HL1926508  31.714   2.506   6.179
    1XTA   HL2026509  31.964   2.346   6.158
    1XTA   HL2126510  31.947   2.510   6.214
    1XTA   HL2226511  31.908   2.469   6.050
    1XTA   HL2326512  32.386   1.419   7.167
    1XTA   HL2426513  32.483   1.292   7.090
    1XTA   HL2526514  32.306   1.424   6.882
    1XTA   HL2626515  32.384   1.277   6.883
    1XTA   HL2726516  32.140   1.259   6.902
    1XTA   HL2826517  32.223   1.174   7.026
    1XTA   HL2926518  32.166   1.340   7.195
    1XTA   HL3026519  32.105   1.447   7.053
    1XTA   HL3126520  31.949   1.262   7.020
    1XTA   HL3226521  31.994   1.211   7.184
    1XTA   HL3326522  31.863   1.469   7.121
    1XTA   HL3426523  31.801   1.326   7.197
    1XTA   HL3526524  31.768   1.483   7.416
    1XTA   HL3626525  31.855   1.613   7.315
    1XTA   HL3726526  31.907   1.751   7.566
    1XTA   HL3826527  31.981   1.659   7.692
    1XTA   HL3926528  31.797   1.523   7.721
    1XTA   HL4026529  31.699   1.627   7.614
    1XTA   HL4126530  31.752   1.702   7.754
    1XTA    CO826531  31.531   2.347   6.130
    1XTA    CO926532  31.700   2.370   5.939
    1XTA    OA626533  31.451   2.303   6.061
    1XTA   HL4226534  31.498   2.451   6.140
    1XTA   HL4326535  31.510   2.305   6.230
    1XTA   HL4426536  32.137   1.532   7.379
    1XTA   HL4526537  32.091   1.693   7.419
    1XTA   CO1026538  32.096   1.594   7.460
    1XTA   CO1126539  31.979   1.413   7.590
    1XTA    OA726540  32.204   1.619   7.555
    1XTA   HL4626541  31.880   1.369   7.600
    1XTA   HL4726542  32.039   1.349   7.530
    1XTA   HL4826543  31.832   2.335   5.904
    1XTA   HL4926544  31.642   2.304   5.867
    1XTA     NT26545  28.860   4.254   5.879
    1XTA    CN126546  28.878   4.348   5.784
    1XTA     C126547  28.839   4.318   5.654
    1XTA     C226548  28.851   4.417   5.545
    1XTA     C326549  28.911   4.542   5.574
    1XTA     C426550  28.946   4.573   5.710
    1XTA     C526551  28.940   4.473   5.814
    1XTA    CN226552  28.956   4.154   5.888
    1XTA     C626553  29.063   4.177   5.974
    1XTA     C726554  29.167   4.084   5.992
    1XTA     C826555  29.151   3.957   5.927
    1XTA     C926556  29.033   3.929   5.850
    1XTA    C1026557  28.936   4.028   5.837
    1XTA    CN326558  28.745   4.257   5.949
    1XTA    C1126559  28.660   4.147   5.958
    1XTA    C1226560  28.546   4.149   6.041
    1XTA    C1326561  28.504   4.255   6.121
    1XTA    C1426562  28.581   4.375   6.102
    1XTA    C1526563  28.699   4.371   6.022
    1XTA     H126564  28.799   4.224   5.626
    1XTA     H226565  28.813   4.397   5.445
    1XTA     H326566  28.969   4.675   5.731
    1XTA     H426567  28.968   4.505   5.915
    1XTA     H526568  29.066   4.271   6.026
    1XTA     H626569  29.243   4.109   6.065
    1XTA     H726570  29.022   3.828   5.812
    1XTA     H826571  28.851   4.001   5.785
    1XTA     H926572  28.681   4.060   5.900
    1XTA    H1026573  28.501   4.059   6.065
    1XTA    H1126574  28.551   4.469   6.152
    1XTA    H1226575  28.752   4.458   6.004
    1XTA    OA126576  28.936   4.635   5.479
    1XTA    CO126577  28.841   4.637   5.376
    1XTA    OA226578  29.235   3.851   5.954
    1XTA    CO226579  29.361   3.878   6.018
    1XTA    CL126580  29.348   3.883   6.172
    1XTA    CL226581  29.470   3.952   6.238
    1XTA    CL326582  29.462   3.958   6.393
    1XTA    CL426583  29.409   4.091   6.452
    1XTA    CO326584  29.266   4.130   6.412
    1XTA    OA326585  29.227   4.265   6.434
    1XTA    CO426586  29.267   4.341   6.317
    1XTA    CT126587  29.220   4.495   6.323
    1XTA    CL526588  29.071   4.511   6.293
    1XTA    CL626589  28.973   4.436   6.392
    1XTA    OA426590  28.406   4.238   6.209
    1XTA    CO526591  28.412   4.326   6.318
    1XTA    CL726592  28.358   4.268   6.441
    1XTA    CL826593  28.425   4.134   6.476
    1XTA    CL926594  28.372   4.060   6.607
    1XTA   CL1026595  28.431   3.923   6.617
    1XTA    CO626596  28.378   3.833   6.737
    1XTA    OA526597  28.237   3.840   6.727
    1XTA    CO726598  28.177   3.712   6.718
    1XTA    CT226599  28.061   3.700   6.817
    1XTA   CL1126600  27.966   3.813   6.800
    1XTA   CL1226601  27.842   3.818   6.891
    1XTA    HL126602  28.742   4.666   5.406
    1XTA    HL226603  28.870   4.705   5.296
    1XTA    HL326604  28.833   4.542   5.325
    1XTA    HL426605  29.428   3.803   5.995
    1XTA    HL526606  29.416   3.966   5.981
    1XTA    HL626607  29.329   3.785   6.217
    1XTA    HL726608  29.266   3.948   6.185
    1XTA    HL826609  29.495   4.046   6.190
    1XTA    HL926610  29.558   3.891   6.222
    1XTA   HL1026611  29.412   3.862   6.421
    1XTA   HL1126612  29.564   3.954   6.441
    1XTA   HL1226613  29.474   4.174   6.431
    1XTA   HL1326614  29.398   4.088   6.555
    1XTA   HL1426615  29.240   4.115   6.307
    1XTA   HL1526616  29.190   4.088   6.474
    1XTA   HL1626617  29.377   4.338   6.298
    1XTA   HL1726618  29.205   4.304   6.228
    1XTA   HL1826619  29.049   4.473   6.190
    1XTA   HL1926620  29.039   4.614   6.285
    1XTA   HL2026621  28.873   4.455   6.371
    1XTA   HL2126622  28.994   4.475   6.489
    1XTA   HL2226623  29.008   4.337   6.404
    1XTA   HL2326624  28.355   4.425   6.308
    1XTA   HL2426625  28.519   4.349   6.325
    1XTA   HL2526626  28.358   4.332   6.522
    1XTA   HL2626627  28.253   4.262   6.426
    1XTA   HL2726628  28.419   4.067   6.392
    1XTA   HL2826629  28.532   4.152   6.490
    1XTA   HL2926630  28.390   4.113   6.698
    1XTA   HL3026631  28.265   4.060   6.590
    1XTA   HL3126632  28.411   3.869   6.526
    1XTA   HL3226633  28.535   3.939   6.625
    1XTA   HL3326634  28.421   3.732   6.736
    1XTA   HL3426635  28.402   3.883   6.831
    1XTA   HL3526636  28.257   3.639   6.747
    1XTA   HL3626637  28.138   3.676   6.620
    1XTA   HL3726638  27.922   3.811   6.701
    1XTA   HL3826639  28.028   3.902   6.794
    1XTA   HL3926640  27.812   3.923   6.885
    1XTA   HL4026641  27.864   3.789   6.995
    1XTA   HL4126642  27.761   3.756   6.853
    1XTA    CO826643  29.297   4.580   6.214
    1XTA    CO926644  29.248   4.555   6.465
    1XTA    OA626645  29.349   4.590   6.503
    1XTA   HL4226646  29.248   4.674   6.200
    1XTA   HL4326647  29.427   4.610   6.269
    1XTA   HL4426648  28.103   3.813   6.989
    1XTA   HL4526649  28.029   3.668   7.025
    1XTA   CO1026650  28.108   3.710   6.962
    1XTA   CO1126651  27.993   3.563   6.794
    1XTA    OA726652  27.924   3.558   6.668
    1XTA   HL4626653  28.069   3.483   6.783
    1XTA   HL4726654  27.920   3.537   6.870
    1XTA   HL4826655  29.200   4.492   6.538
    1XTA   HL4926656  29.193   4.654   6.469
    1XTA     NT26657  28.184   5.299   6.026
    1XTA    CN126658  28.219   5.175   6.066
    1XTA     C126659  28.114   5.081   6.074
    1XTA     C226660  28.136   4.942   6.092
    1XTA     C326661  28.270   4.900   6.112
    1XTA     C426662  28.374   4.990   6.097
    1XTA     C526663  28.353   5.131   6.075
    1XTA    CN226664  28.105   5.320   5.920
    1XTA     C626665  28.154   5.280   5.792
    1XTA     C726666  28.083   5.290   5.678
    1XTA     C826667  27.953   5.346   5.679
    1XTA     C926668  27.902   5.395   5.804
    1XTA    C1026669  27.976   5.379   5.922
    1XTA    CN326670  28.241   5.398   6.097
    1XTA    C1126671  28.239   5.405   6.235
    1XTA    C1226672  28.311   5.514   6.293
    1XTA    C1326673  28.382   5.616   6.225
    1XTA    C1426674  28.389   5.602   6.086
    1XTA    C1526675  28.321   5.490   6.025
    1XTA     H126676  28.007   5.105   6.075
    1XTA     H226677  28.050   4.880   6.092
    1XTA     H326678  28.479   4.970   6.097
    1XTA     H426679  28.445   5.201   6.052
    1XTA     H526680  28.249   5.237   5.781
    1XTA     H626681  28.139   5.248   5.596
    1XTA     H726682  27.808   5.448   5.797
    1XTA     H826683  27.945   5.421   6.011
    1XTA     H926684  28.195   5.334   6.308
    1XTA    H1026685  28.303   5.525   6.401
    1XTA    H1126686  28.447   5.665   6.026
    1XTA    H1226687  28.337   5.480   5.920
    1XTA    OA126688  28.305   4.769   6.137
    1XTA    CO126689  28.201   4.668   6.134
    1XTA    OA226690  27.878   5.357   5.564
    1XTA    CO226691  27.941   5.326   5.444
    1XTA    CL126692  27.943   5.176   5.420
    1XTA    CL226693  28.051   5.125   5.321
    1XTA    CL326694  28.053   4.970   5.314
    1XTA    CL426695  27.950   4.922   5.205
    1XTA    CO326696  27.974   4.775   5.180
    1XTA    OA326697  27.882   4.725   5.081
    1XTA    CO426698  27.913   4.586   5.055
    1XTA    CT126699  27.791   4.528   4.976
    1XTA    CL526700  27.819   4.386   4.925
    1XTA    CL626701  27.952   4.376   4.839
    1XTA    OA426702  28.462   5.712   6.286
    1XTA    CO526703  28.470   5.710   6.428
    1XTA    CL726704  28.594   5.770   6.482
    1XTA    CL826705  28.585   5.915   6.439
    1XTA    CL926706  28.712   6.001   6.428
    1XTA   CL1026707  28.670   6.153   6.455
    1XTA    CO626708  28.770   6.261   6.448
    1XTA    OA526709  28.827   6.271   6.322
    1XTA    CO726710  28.746   6.349   6.230
    1XTA    CT226711  28.804   6.325   6.089
    1XTA   CL1126712  28.797   6.171   6.055
    1XTA   CL1226713  28.662   6.100   6.061
    1XTA    HL126714  28.130   4.680   6.057
    1XTA    HL226715  28.243   4.573   6.100
    1XTA    HL326716  28.135   4.663   6.227
    1XTA    HL426717  27.886   5.375   5.365
    1XTA    HL526718  28.030   5.386   5.433
    1XTA    HL626719  27.851   5.144   5.374
    1XTA    HL726720  27.942   5.124   5.516
    1XTA    HL826721  28.151   5.154   5.358
    1XTA    HL926722  28.029   5.168   5.220
    1XTA   HL1026723  28.156   4.949   5.276
    1XTA   HL1126724  28.040   4.920   5.413
    1XTA   HL1226725  27.970   4.978   5.110
    1XTA   HL1326726  27.849   4.938   5.241
    1XTA   HL1426727  28.073   4.751   5.159
    1XTA   HL1526728  27.959   4.713   5.272
    1XTA   HL1626729  28.008   4.572   5.012
    1XTA   HL1726730  27.908   4.528   5.147
    1XTA   HL1826731  27.735   4.347   4.869
    1XTA   HL1926732  27.838   4.312   5.001
    1XTA   HL2026733  27.980   4.274   4.810
    1XTA   HL2126734  28.035   4.423   4.876
    1XTA   HL2226735  27.952   4.426   4.745
    1XTA   HL2326736  28.486   5.605   6.464
    1XTA   HL2426737  28.382   5.739   6.492
    1XTA   HL2526738  28.602   5.780   6.586
    1XTA   HL2626739  28.684   5.717   6.444
    1XTA   HL2726740  28.552   5.930   6.343
    1XTA   HL2826741  28.514   5.972   6.490
    1XTA   HL2926742  28.783   5.974   6.507
    1XTA   HL3026743  28.763   5.994   6.324
    1XTA   HL3126744  28.581   6.175   6.394
    1XTA   HL3226745  28.621   6.155   6.548
    1XTA   HL3326746  28.729   6.358   6.464
    1XTA   HL3426747  28.852   6.250   6.518
    1XTA   HL3526748  28.737   6.453   6.254
    1XTA   HL3626749  28.645   6.307   6.241
    1XTA   HL3726750  28.872   6.111   6.105
    1XTA   HL3826751  28.830   6.171   5.957
    1XTA   HL3926752  28.581   6.159   6.017
    1XTA   HL4026753  28.624   6.081   6.160
    1XTA   HL4126754  28.657   5.999   6.011
    1XTA    CO826755  27.748   4.612   4.851
    1XTA    CO926756  27.664   4.529   5.073
    1XTA    OA626757  27.660   4.538   4.768
    1XTA   HL4226758  27.828   4.646   4.785
    1XTA   HL4326759  27.699   4.705   4.884
    1XTA   HL4426760  28.986   6.362   5.975
    1XTA   HL4526761  28.942   6.498   6.085
    1XTA   CO1026762  28.949   6.388   6.072
    1XTA   CO1126763  28.719   6.404   5.980
    1XTA    OA726764  29.013   6.340   6.151
    1XTA   HL4626765  28.770   6.394   5.852
    1XTA   HL4726766  28.621   6.359   5.973
    1XTA   HL4826767  27.647   4.632   5.100
    1XTA   HL4926768  27.576   4.506   5.010
    1XTA     NT26769  28.363   7.218   6.891
    1XTA    CN126770  28.333   7.348   6.887
    1XTA     C126771  28.249   7.408   6.977
    1XTA     C226772  28.217   7.539   6.964
    1XTA     C326773  28.271   7.622   6.859
    1XTA     C426774  28.362   7.555   6.772
    1XTA     C526775  28.388   7.421   6.784
    1XTA    CN226776  28.273   7.114   6.878
    1XTA     C626777  28.272   7.021   6.987
    1XTA     C726778  28.181   6.915   6.982
    1XTA     C826779  28.100   6.892   6.870
    1XTA     C926780  28.107   6.983   6.759
    1XTA    C1026781  28.195   7.093   6.763
    1XTA    CN326782  28.492   7.191   6.889
    1XTA    C1126783  28.552   7.140   6.768
    1XTA    C1226784  28.684   7.105   6.765
    1XTA    C1326785  28.766   7.137   6.871
    1XTA    C1426786  28.712   7.194   6.989
    1XTA    C1526787  28.574   7.217   6.995
    1XTA     H126788  28.198   7.358   7.056
    1XTA     H226789  28.161   7.587   7.044
    1XTA     H326790  28.403   7.616   6.689
    1XTA     H426791  28.446   7.369   6.706
    1XTA     H526792  28.341   7.029   7.068
    1XTA     H626793  28.185   6.838   7.058
    1XTA     H726794  28.041   6.961   6.673
    1XTA     H826795  28.205   7.170   6.691
    1XTA     H926796  28.487   7.117   6.680
    1XTA    H1026797  28.734   7.072   6.672
    1XTA    H1126798  28.781   7.205   7.067
    1XTA    H1226799  28.532   7.258   7.086
    1XTA    OA126800  28.245   7.758   6.852
    1XTA    CO126801  28.123   7.803   6.892
    1XTA    OA226802  28.032   6.775   6.862
    1XTA    CO226803  28.004   6.720   6.731
    1XTA    CL126804  28.126   6.677   6.656
    1XTA    CL226805  28.228   6.595   6.731
    1XTA    CL326806  28.360   6.591   6.654
    1XTA    CL426807  28.479   6.593   6.749
    1XTA    CO326808  28.608   6.605   6.664
    1XTA    OA326809  28.708   6.614   6.763
    1XTA    CO426810  28.836   6.617   6.719
    1XTA    CT126811  28.930   6.605   6.839
    1XTA    CL526812  28.908   6.477   6.919
    1XTA    CL626813  28.903   6.343   6.840
    1XTA    OA426814  28.906   7.125   6.866
    1XTA    CO526815  28.968   7.132   6.740
    1XTA    CL726816  29.115   7.170   6.762
    1XTA    CL826817  29.196   7.063   6.833
    1XTA    CL926818  29.343   7.106   6.852
    1XTA   CL1026819  29.431   6.996   6.911
    1XTA    CO626820  29.416   6.982   7.062
    1XTA    OA526821  29.277   6.959   7.099
    1XTA    CO726822  29.254   6.821   7.134
    1XTA    CT226823  29.122   6.810   7.216
    1XTA   CL1126824  29.124   6.910   7.336
    1XTA   CL1226825  28.978   6.949   7.371
    1XTA    HL126826  28.032   7.749   6.851
    1XTA    HL226827  28.130   7.820   7.001
    1XTA    HL326828  28.130   7.906   6.854
    1XTA    HL426829  27.943   6.640   6.743
    1XTA    HL526830  27.949   6.796   6.683
    1XTA    HL626831  28.177   6.768   6.633
    1XTA    HL726832  28.082   6.645   6.566
    1XTA    HL826833  28.199   6.492   6.754
    1XTA    HL926834  28.246   6.652   6.820
    1XTA   HL1026835  28.367   6.499   6.598
    1XTA   HL1126836  28.361   6.670   6.578
    1XTA   HL1226837  28.479   6.507   6.807
    1XTA   HL1326838  28.485   6.692   6.799
    1XTA   HL1426839  28.617   6.516   6.598
    1XTA   HL1526840  28.612   6.696   6.604
    1XTA   HL1626841  28.861   6.523   6.657
    1XTA   HL1726842  28.842   6.701   6.650
    1XTA   HL1826843  28.812   6.483   6.967
    1XTA   HL1926844  28.976   6.468   7.002
    1XTA   HL2026845  29.000   6.318   6.791
    1XTA   HL2126846  28.830   6.343   6.759
    1XTA   HL2226847  28.871   6.263   6.918
    1XTA   HL2326848  28.929   7.217   6.684
    1XTA   HL2426849  28.952   7.033   6.696
    1XTA   HL2526850  29.161   7.189   6.662
    1XTA   HL2626851  29.127   7.267   6.813
    1XTA   HL2726852  29.149   7.053   6.928
    1XTA   HL2826853  29.186   6.965   6.789
    1XTA   HL2926854  29.389   7.148   6.758
    1XTA   HL3026855  29.331   7.190   6.921
    1XTA   HL3126856  29.410   6.901   6.862
    1XTA   HL3226857  29.541   7.015   6.911
    1XTA   HL3326858  29.467   6.897   7.105
    1XTA   HL3426859  29.460   7.067   7.122
    1XTA   HL3526860  29.332   6.769   7.188
    1XTA   HL3626861  29.240   6.762   7.048
    1XTA   HL3726862  29.183   6.998   7.304
    1XTA   HL3826863  29.173   6.885   7.428
    1XTA   HL3926864  28.997   7.036   7.439
    1XTA   HL4026865  28.916   6.869   7.410
    1XTA   HL4126866  28.928   7.004   7.290
    1XTA    CO826867  28.937   6.734   6.924
    1XTA    CO926868  29.069   6.600   6.772
    1XTA    OA626869  29.004   6.715   7.013
    1XTA   HL4226870  28.831   6.731   6.957
    1XTA   HL4326871  28.952   6.830   6.879
    1XTA   HL4426872  29.107   6.593   7.187
    1XTA   HL4526873  29.214   6.654   7.313
    1XTA   CO1026874  29.119   6.665   7.270
    1XTA   CO1126875  29.003   6.811   7.118
    1XTA    OA726876  29.046   6.644   7.352
    1XTA   HL4626877  29.005   6.934   7.055
    1XTA   HL4726878  28.914   6.788   7.174
    1XTA   HL4826879  29.167   6.592   6.878
    1XTA   HL4926880  29.070   6.511   6.719
    1XTA     NT26881  28.625   4.946  -0.239
    1XTA    CN126882  28.501   4.989  -0.232
    1XTA     C126883  28.444   5.054  -0.339
    1XTA     C226884  28.310   5.099  -0.342
    1XTA     C326885  28.226   5.080  -0.233
    1XTA     C426886  28.284   5.019  -0.117
    1XTA     C526887  28.422   4.975  -0.118
    1XTA    CN226888  28.720   5.040  -0.223
    1XTA     C626889  28.790   5.094  -0.330
    1XTA     C726890  28.865   5.212  -0.316
    1XTA     C826891  28.897   5.265  -0.193
    1XTA     C926892  28.835   5.202  -0.079
    1XTA    C1026893  28.749   5.091  -0.095
    1XTA    CN326894  28.647   4.812  -0.210
    1XTA    C1126895  28.679   4.772  -0.078
    1XTA    C1226896  28.693   4.639  -0.035
    1XTA    C1326897  28.670   4.534  -0.126
    1XTA    C1426898  28.644   4.574  -0.258
    1XTA    C1526899  28.633   4.707  -0.305
    1XTA     H126900  28.498   5.071  -0.430
    1XTA     H226901  28.268   5.148  -0.428
    1XTA     H326902  28.226   5.005  -0.028
    1XTA     H426903  28.463   4.926  -0.026
    1XTA     H526904  28.784   5.057  -0.434
    1XTA     H626905  28.901   5.256  -0.409
    1XTA     H726906  28.841   5.241   0.019
    1XTA     H826907  28.686   5.071  -0.008
    1XTA     H926908  28.693   4.852  -0.008
    1XTA    H1026909  28.718   4.620   0.069
    1XTA    H1126910  28.620   4.496  -0.329
    1XTA    H1226911  28.601   4.732  -0.411
    1XTA    OA126912  28.096   5.135  -0.232
    1XTA    CO126913  28.016   5.116  -0.117
    1XTA    OA226914  28.974   5.378  -0.181
    1XTA    CO226915  28.941   5.482  -0.266
    1XTA    CL126916  29.026   5.608  -0.230
    1XTA    CL226917  29.181   5.580  -0.241
    1XTA    CL326918  29.231   5.540  -0.379
    1XTA    CL426919  29.195   5.648  -0.484
    1XTA    CO326920  29.260   5.632  -0.624
    1XTA    OA326921  29.395   5.625  -0.598
    1XTA    CO426922  29.473   5.667  -0.707
    1XTA    CT126923  29.615   5.610  -0.680
    1XTA    CL526924  29.679   5.664  -0.540
    1XTA    CL626925  29.680   5.816  -0.519
    1XTA    OA426926  28.665   4.401  -0.088
    1XTA    CO526927  28.696   4.370   0.048
    1XTA    CL726928  28.707   4.215   0.061
    1XTA    CL826929  28.765   4.184   0.202
    1XTA    CL926930  28.915   4.215   0.210
    1XTA   CL1026931  28.978   4.190   0.345
    1XTA    CO626932  28.967   4.312   0.444
    1XTA    OA526933  28.837   4.327   0.501
    1XTA    CO726934  28.777   4.451   0.462
    1XTA    CT226935  28.659   4.470   0.567
    1XTA   CL1126936  28.707   4.423   0.710
    1XTA   CL1226937  28.825   4.499   0.780
    1XTA    HL126938  28.074   5.144  -0.029
    1XTA    HL226939  27.921   5.173  -0.122
    1XTA    HL326940  27.994   5.008  -0.100
    1XTA    HL426941  28.972   5.454  -0.366
    1XTA    HL526942  28.837   5.502  -0.261
    1XTA    HL626943  29.004   5.650  -0.132
    1XTA    HL726944  29.006   5.686  -0.302
    1XTA    HL826945  29.221   5.495  -0.182
    1XTA    HL926946  29.232   5.676  -0.225
    1XTA   HL1026947  29.338   5.556  -0.369
    1XTA   HL1126948  29.200   5.439  -0.418
    1XTA   HL1226949  29.224   5.746  -0.447
    1XTA   HL1326950  29.085   5.632  -0.507
    1XTA   HL1426951  29.232   5.536  -0.656
    1XTA   HL1526952  29.227   5.706  -0.700
    1XTA   HL1626953  29.432   5.628  -0.804
    1XTA   HL1726954  29.486   5.778  -0.725
    1XTA   HL1826955  29.781   5.617  -0.530
    1XTA   HL1926956  29.611   5.630  -0.463
    1XTA   HL2026957  29.661   5.865  -0.614
    1XTA   HL2126958  29.776   5.856  -0.488
    1XTA   HL2226959  29.602   5.845  -0.453
    1XTA   HL2326960  28.616   4.413   0.110
    1XTA   HL2426961  28.795   4.417   0.078
    1XTA   HL2526962  28.609   4.170   0.049
    1XTA   HL2626963  28.773   4.176  -0.023
    1XTA   HL2726964  28.721   4.250   0.276
    1XTA   HL2826965  28.739   4.085   0.232
    1XTA   HL2926966  28.971   4.161   0.132
    1XTA   HL3026967  28.942   4.314   0.177
    1XTA   HL3126968  28.938   4.100   0.391
    1XTA   HL3226969  29.084   4.180   0.309
    1XTA   HL3326970  29.051   4.295   0.516
    1XTA   HL3426971  28.999   4.405   0.395
    1XTA   HL3526972  28.750   4.439   0.355
    1XTA   HL3626973  28.847   4.531   0.469
    1XTA   HL3726974  28.728   4.312   0.716
    1XTA   HL3826975  28.624   4.442   0.776
    1XTA   HL3926976  28.807   4.604   0.770
    1XTA   HL4026977  28.921   4.463   0.752
    1XTA   HL4126978  28.820   4.473   0.881
    1XTA    CO826979  29.706   5.655  -0.799
    1XTA    CO926980  29.604   5.454  -0.683
    1XTA    OA626981  29.695   5.574  -0.915
    1XTA   HL4226982  29.808   5.656  -0.765
    1XTA   HL4326983  29.696   5.762  -0.835
    1XTA   HL4426984  28.565   4.282   0.514
    1XTA   HL4526985  28.467   4.400   0.594
    1XTA   CO1026986  28.539   4.388   0.513
    1XTA   CO1126987  28.619   4.617   0.576
    1XTA    OA726988  28.482   4.427   0.427
    1XTA   HL4626989  28.732   4.703   0.575
    1XTA   HL4726990  28.594   4.652   0.472
    1XTA   HL4826991  29.504   5.431  -0.637
    1XTA   HL4926992  29.590   5.432  -0.789
    1XTA     NT26993  27.159   2.028   6.137
    1XTA    CN126994  27.181   1.970   6.253
    1XTA     C126995  27.272   2.027   6.349
    1XTA     C226996  27.302   1.967   6.475
    1XTA     C326997  27.229   1.850   6.516
    1XTA     C426998  27.139   1.801   6.422
    1XTA     C526999  27.110   1.855   6.298
    1XTA    CN227000  27.047   2.007   6.063
    1XTA     C627001  27.055   1.954   5.932
    1XTA     C727002  26.928   1.918   5.871
    1XTA     C827003  26.806   1.946   5.935
    1XTA     C927004  26.804   2.002   6.064
    1XTA    C1027005  26.926   2.027   6.126
    1XTA    CN327006  27.249   2.108   6.076
    1XTA    C1127007  27.226   2.246   6.079
    1XTA    C1227008  27.332   2.330   6.030
    1XTA    C1327009  27.452   2.282   5.985
    1XTA    C1427010  27.474   2.145   5.989
    1XTA    C1527011  27.379   2.056   6.035
    1XTA     H127012  27.333   2.113   6.317
    1XTA     H227013  27.378   2.012   6.537
    1XTA     H327014  27.079   1.721   6.468
    1XTA     H427015  27.040   1.807   6.225
    1XTA     H527016  27.150   1.929   5.886
    1XTA     H627017  26.926   1.870   5.780
    1XTA     H727018  26.716   2.026   6.126
    1XTA     H827019  26.931   2.061   6.228
    1XTA     H927020  27.139   2.290   6.108
    1XTA    H1027021  27.305   2.435   6.015
    1XTA    H1127022  27.572   2.101   5.946
    1XTA    H1227023  27.411   1.949   6.025
    1XTA    OA127024  27.237   1.783   6.639
    1XTA    CO127025  27.323   1.830   6.742
    1XTA    OA227026  26.685   1.921   5.875
    1XTA    CO227027  26.679   1.809   5.783
    1XTA    CL127028  26.536   1.752   5.765
    1XTA    CL227029  26.543   1.652   5.655
    1XTA    CL327030  26.610   1.517   5.695
    1XTA    CL427031  26.685   1.461   5.572
    1XTA    CO327032  26.731   1.316   5.597
    1XTA    OA327033  26.816   1.282   5.492
    1XTA    CO427034  26.824   1.142   5.469
    1XTA    CT127035  26.921   1.113   5.353
    1XTA    CL527036  27.073   1.152   5.385
    1XTA    CL627037  27.121   1.296   5.350
    1XTA    OA427038  27.541   2.373   5.928
    1XTA    CO527039  27.657   2.333   5.860
    1XTA    CL727040  27.689   2.455   5.774
    1XTA    CL827041  27.588   2.474   5.659
    1XTA    CL927042  27.600   2.394   5.532
    1XTA   CL1027043  27.735   2.415   5.475
    1XTA    CO627044  27.747   2.335   5.348
    1XTA    OA527045  27.875   2.334   5.292
    1XTA    CO727046  27.907   2.444   5.205
    1XTA    CT227047  28.060   2.452   5.175
    1XTA   CL1127048  28.112   2.320   5.118
    1XTA   CL1227049  28.078   2.297   4.973
    1XTA    HL127050  27.316   1.762   6.823
    1XTA    HL227051  27.422   1.833   6.705
    1XTA    HL327052  27.305   1.927   6.782
    1XTA    HL427053  26.715   1.843   5.681
    1XTA    HL527054  26.750   1.731   5.817
    1XTA    HL627055  26.460   1.820   5.735
    1XTA    HL727056  26.501   1.712   5.861
    1XTA    HL827057  26.580   1.701   5.564
    1XTA    HL927058  26.445   1.631   5.617
    1XTA   HL1027059  26.686   1.528   5.770
    1XTA   HL1127060  26.540   1.445   5.729
    1XTA   HL1227061  26.765   1.532   5.535
    1XTA   HL1327062  26.628   1.457   5.476
    1XTA   HL1427063  26.790   1.308   5.686
    1XTA   HL1527064  26.645   1.251   5.590
    1XTA   HL1627065  26.861   1.101   5.559
    1XTA   HL1727066  26.731   1.095   5.451
    1XTA   HL1827067  27.147   1.083   5.347
    1XTA   HL1927068  27.081   1.160   5.493
    1XTA   HL2027069  27.129   1.324   5.246
    1XTA   HL2127070  27.228   1.303   5.378
    1XTA   HL2227071  27.062   1.368   5.402
    1XTA   HL2327072  27.635   2.251   5.796
    1XTA   HL2427073  27.736   2.297   5.928
    1XTA   HL2527074  27.695   2.544   5.837
    1XTA   HL2627075  27.789   2.435   5.733
    1XTA   HL2727076  27.485   2.485   5.684
    1XTA   HL2827077  27.612   2.576   5.629
    1XTA   HL2927078  27.580   2.289   5.548
    1XTA   HL3027079  27.525   2.420   5.467
    1XTA   HL3127080  27.739   2.525   5.463
    1XTA   HL3227081  27.812   2.378   5.546
    1XTA   HL3327082  27.721   2.233   5.376
    1XTA   HL3427083  27.663   2.373   5.283
    1XTA   HL3527084  27.888   2.542   5.251
    1XTA   HL3627085  27.841   2.429   5.115
    1XTA   HL3727086  28.081   2.241   5.184
    1XTA   HL3827087  28.218   2.313   5.126
    1XTA   HL3927088  28.111   2.195   4.945
    1XTA   HL4027089  28.148   2.362   4.919
    1XTA   HL4127090  27.974   2.315   4.948
    1XTA    CO827091  26.876   1.171   5.219
    1XTA    CO927092  26.929   0.961   5.344
    1XTA    OA627093  26.786   1.121   5.189
    1XTA   HL4227094  26.954   1.145   5.146
    1XTA   HL4327095  26.862   1.282   5.224
    1XTA   HL4427096  28.072   2.560   5.398
    1XTA   HL4527097  28.127   2.378   5.362
    1XTA   CO1027098  28.139   2.468   5.311
    1XTA   CO1127099  28.099   2.573   5.092
    1XTA    OA727100  28.039   2.577   5.004
    1XTA   HL4627101  28.110   2.660   5.152
    1XTA   HL4727102  28.198   2.563   5.066
    1XTA   HL4827103  26.933   0.907   5.478
    1XTA   HL4927104  26.829   0.931   5.325
    1XTA     NT27105  29.299   7.606   0.991
    1XTA    CN127106  29.295   7.621   1.129
    1XTA     C127107  29.420   7.641   1.189
    1XTA     C227108  29.423   7.671   1.326
    1XTA     C327109  29.300   7.690   1.399
    1XTA     C427110  29.179   7.674   1.339
    1XTA     C527111  29.176   7.642   1.203
    1XTA    CN227112  29.284   7.708   0.904
    1XTA     C627113  29.151   7.766   0.872
    1XTA     C727114  29.137   7.874   0.784
    1XTA     C827115  29.252   7.927   0.721
    1XTA     C927116  29.378   7.867   0.740
    1XTA    C1027117  29.395   7.760   0.831
    1XTA    CN327118  29.272   7.483   0.939
    1XTA    C1127119  29.367   7.382   0.922
    1XTA    C1227120  29.330   7.260   0.864
    1XTA    C1327121  29.196   7.231   0.833
    1XTA    C1427122  29.099   7.327   0.853
    1XTA    C1527123  29.136   7.446   0.912
    1XTA     H127124  29.518   7.647   1.134
    1XTA     H227125  29.521   7.669   1.373
    1XTA     H327126  29.083   7.672   1.391
    1XTA     H427127  29.084   7.622   1.142
    1XTA     H527128  29.065   7.721   0.909
    1XTA     H627129  29.036   7.908   0.761
    1XTA     H727130  29.461   7.903   0.676
    1XTA     H827131  29.493   7.719   0.851
    1XTA     H927132  29.475   7.406   0.935
    1XTA    H1027133  29.404   7.177   0.838
    1XTA    H1127134  28.995   7.308   0.822
    1XTA    H1227135  29.057   7.513   0.927
    1XTA    OA127136  29.304   7.702   1.534
    1XTA    CO127137  29.384   7.806   1.591
    1XTA    OA227138  29.247   8.036   0.636
    1XTA    CO227139  29.126   8.106   0.641
    1XTA    CL127140  29.147   8.245   0.578
    1XTA    CL227141  29.020   8.329   0.595
    1XTA    CL327142  28.906   8.294   0.489
    1XTA    CL427143  28.775   8.370   0.507
    1XTA    CO327144  28.683   8.311   0.612
    1XTA    OA327145  28.653   8.174   0.593
    1XTA    CO427146  28.545   8.134   0.687
    1XTA    CT127147  28.506   7.985   0.683
    1XTA    CL527148  28.625   7.901   0.735
    1XTA    CL627149  28.742   7.874   0.636
    1XTA    OA427150  29.157   7.106   0.790
    1XTA    CO527151  29.230   7.035   0.696
    1XTA    CL727152  29.204   7.095   0.550
    1XTA    CL827153  29.073   7.048   0.492
    1XTA    CL927154  29.013   7.148   0.393
    1XTA   CL1027155  28.895   7.080   0.325
    1XTA    CO627156  28.933   6.981   0.213
    1XTA    OA527157  28.854   6.862   0.224
    1XTA    CO727158  28.904   6.762   0.139
    1XTA    CT227159  28.800   6.638   0.146
    1XTA   CL1127160  28.656   6.691   0.106
    1XTA   CL1227161  28.536   6.603   0.134
    1XTA    HL127162  29.381   7.787   1.699
    1XTA    HL227163  29.491   7.801   1.578
    1XTA    HL327164  29.361   7.911   1.581
    1XTA    HL427165  29.060   8.043   0.579
    1XTA    HL527166  29.087   8.115   0.737
    1XTA    HL627167  29.194   8.251   0.477
    1XTA    HL727168  29.221   8.288   0.635
    1XTA    HL827169  29.054   8.433   0.582
    1XTA    HL927170  28.975   8.317   0.691
    1XTA   HL1027171  28.926   8.292   0.380
    1XTA   HL1127172  28.889   8.194   0.508
    1XTA   HL1227173  28.727   8.363   0.408
    1XTA   HL1327174  28.812   8.473   0.531
    1XTA   HL1427175  28.730   8.312   0.715
    1XTA   HL1527176  28.591   8.372   0.617
    1XTA   HL1627177  28.554   8.162   0.794
    1XTA   HL1727178  28.453   8.188   0.658
    1XTA   HL1827179  28.589   7.812   0.778
    1XTA   HL1927180  28.670   7.960   0.807
    1XTA   HL2027181  28.703   7.802   0.562
    1XTA   HL2127182  28.834   7.830   0.684
    1XTA   HL2227183  28.774   7.964   0.589
    1XTA   HL2327184  29.201   6.933   0.690
    1XTA   HL2427185  29.332   7.037   0.731
    1XTA   HL2527186  29.206   7.204   0.549
    1XTA   HL2627187  29.288   7.061   0.485
    1XTA   HL2727188  29.087   6.954   0.450
    1XTA   HL2827189  28.994   7.019   0.569
    1XTA   HL2927190  28.982   7.236   0.452
    1XTA   HL3027191  29.089   7.187   0.322
    1XTA   HL3127192  28.831   7.021   0.389
    1XTA   HL3227193  28.835   7.158   0.285
    1XTA   HL3327194  28.924   7.020   0.112
    1XTA   HL3427195  29.040   6.954   0.217
    1XTA   HL3527196  28.995   6.723   0.187
    1XTA   HL3627197  28.918   6.787   0.034
    1XTA   HL3727198  28.651   6.719  -0.001
    1XTA   HL3827199  28.651   6.778   0.167
    1XTA   HL3927200  28.527   6.520   0.063
    1XTA   HL4027201  28.448   6.663   0.132
    1XTA   HL4127202  28.524   6.552   0.236
    1XTA    CO827203  28.462   7.943   0.545
    1XTA    CO927204  28.383   7.963   0.772
    1XTA    OA627205  28.291   8.071   0.758
    1XTA   HL4227206  28.546   7.962   0.487
    1XTA   HL4327207  28.402   8.019   0.501
    1XTA   HL4427208  28.732   6.626   0.360
    1XTA   HL4527209  28.763   6.473   0.296
    1XTA   CO1027210  28.800   6.575   0.287
    1XTA   CO1127211  28.844   6.528   0.045
    1XTA    OA727212  28.925   6.583   0.350
    1XTA   HL4627213  28.862   6.581  -0.048
    1XTA   HL4727214  28.929   6.468   0.084
    1XTA   HL4827215  28.410   7.945   0.879
    1XTA   HL4927216  28.336   7.868   0.740
    1XTA     NT27217  28.887   6.099   3.007
    1XTA    CN127218  28.759   6.139   2.980
    1XTA     C127219  28.661   6.109   3.076
    1XTA     C227220  28.529   6.143   3.064
    1XTA     C327221  28.488   6.215   2.952
    1XTA     C427222  28.585   6.251   2.854
    1XTA     C527223  28.718   6.218   2.869
    1XTA    CN227224  28.931   5.969   3.003
    1XTA     C627225  29.012   5.913   3.103
    1XTA     C727226  29.051   5.773   3.094
    1XTA     C827227  29.013   5.699   2.981
    1XTA     C927228  28.935   5.757   2.882
    1XTA    C1027229  28.893   5.890   2.893
    1XTA    CN327230  28.988   6.190   2.990
    1XTA    C1127231  29.064   6.195   2.875
    1XTA    C1227232  29.175   6.280   2.871
    1XTA    C1327233  29.214   6.362   2.978
    1XTA    C1427234  29.134   6.360   3.095
    1XTA    C1527235  29.014   6.281   3.097
    1XTA     H127236  28.686   6.051   3.159
    1XTA     H227237  28.466   6.099   3.133
    1XTA     H327238  28.558   6.307   2.767
    1XTA     H427239  28.795   6.258   2.802
    1XTA     H527240  29.035   5.970   3.193
    1XTA     H627241  29.113   5.733   3.173
    1XTA     H727242  28.898   5.709   2.797
    1XTA     H827243  28.833   5.934   2.817
    1XTA     H927244  29.050   6.113   2.799
    1XTA    H1027245  29.236   6.269   2.781
    1XTA    H1127246  29.170   6.419   3.180
    1XTA    H1227247  28.955   6.271   3.189
    1XTA    OA127248  28.358   6.258   2.939
    1XTA    CO127249  28.276   6.278   3.054
    1XTA    OA227250  29.053   5.569   2.977
    1XTA    CO227251  28.977   5.476   2.905
    1XTA    CL127252  29.029   5.333   2.930
    1XTA    CL227253  29.004   5.298   3.077
    1XTA    CL327254  28.968   5.154   3.112
    1XTA    CL427255  28.842   5.097   3.055
    1XTA    CO327256  28.812   4.948   3.092
    1XTA    OA327257  28.910   4.879   3.019
    1XTA    CO427258  28.906   4.745   3.067
    1XTA    CT127259  29.048   4.674   3.054
    1XTA    CL527260  29.160   4.759   3.127
    1XTA    CL627261  29.172   4.741   3.284
    1XTA    OA427262  29.331   6.432   2.960
    1XTA    CO527263  29.408   6.475   3.069
    1XTA    CL727264  29.455   6.354   3.149
    1XTA    CL827265  29.472   6.370   3.296
    1XTA    CL927266  29.542   6.239   3.350
    1XTA   CL1027267  29.456   6.112   3.332
    1XTA    CO627268  29.349   6.101   3.439
    1XTA    OA527269  29.414   6.092   3.565
    1XTA    CO727270  29.329   6.077   3.668
    1XTA    CT227271  29.412   6.081   3.803
    1XTA   CL1127272  29.531   6.183   3.791
    1XTA   CL1227273  29.492   6.324   3.736
    1XTA    HL127274  28.175   6.319   3.017
    1XTA    HL227275  28.264   6.189   3.109
    1XTA    HL327276  28.307   6.352   3.127
    1XTA    HL427277  28.864   5.484   2.924
    1XTA    HL527278  29.004   5.497   2.805
    1XTA    HL627279  29.131   5.299   2.902
    1XTA    HL727280  28.964   5.266   2.867
    1XTA    HL827281  28.916   5.347   3.111
    1XTA    HL927282  29.093   5.326   3.136
    1XTA   HL1027283  29.054   5.100   3.070
    1XTA   HL1127284  28.966   5.137   3.218
    1XTA   HL1227285  28.836   5.114   2.952
    1XTA   HL1327286  28.761   5.165   3.090
    1XTA   HL1427287  28.833   4.938   3.200
    1XTA   HL1527288  28.714   4.912   3.060
    1XTA   HL1627289  28.864   4.728   3.166
    1XTA   HL1727290  28.833   4.707   2.999
    1XTA   HL1827291  29.137   4.863   3.118
    1XTA   HL1927292  29.259   4.738   3.086
    1XTA   HL2027293  29.254   4.804   3.325
    1XTA   HL2127294  29.204   4.641   3.312
    1XTA   HL2227295  29.070   4.761   3.329
    1XTA   HL2327296  29.335   6.527   3.127
    1XTA   HL2427297  29.494   6.536   3.028
    1XTA   HL2527298  29.388   6.266   3.135
    1XTA   HL2627299  29.542   6.322   3.100
    1XTA   HL2727300  29.533   6.458   3.308
    1XTA   HL2827301  29.373   6.383   3.347
    1XTA   HL2927302  29.634   6.214   3.295
    1XTA   HL3027303  29.566   6.246   3.454
    1XTA   HL3127304  29.403   6.110   3.234
    1XTA   HL3227305  29.521   6.020   3.332
    1XTA   HL3327306  29.280   6.187   3.442
    1XTA   HL3427307  29.293   6.005   3.425
    1XTA   HL3527308  29.272   5.980   3.644
    1XTA   HL3627309  29.257   6.165   3.665
    1XTA   HL3727310  29.608   6.141   3.726
    1XTA   HL3827311  29.585   6.206   3.874
    1XTA   HL3927312  29.574   6.389   3.751
    1XTA   HL4027313  29.405   6.361   3.785
    1XTA   HL4127314  29.462   6.333   3.631
    1XTA    CO827315  29.088   4.642   2.909
    1XTA    CO927316  29.035   4.529   3.116
    1XTA    OA627317  28.924   4.457   3.061
    1XTA   HL4227318  29.010   4.578   2.876
    1XTA   HL4327319  29.184   4.586   2.912
    1XTA   HL4427320  29.380   5.873   3.828
    1XTA   HL4527321  29.544   5.914   3.763
    1XTA   CO1027322  29.467   5.943   3.838
    1XTA   CO1127323  29.318   6.132   3.914
    1XTA    OA727324  29.518   5.937   3.941
    1XTA   HL4627325  29.237   6.022   3.955
    1XTA   HL4727326  29.253   6.195   3.853
    1XTA   HL4827327  29.018   4.544   3.231
    1XTA   HL4927328  29.134   4.475   3.100
    1XTA     NT27329  28.521   4.938   5.127
    1XTA    CN127330  28.480   4.826   5.066
    1XTA     C127331  28.349   4.822   5.022
    1XTA     C227332  28.307   4.700   4.972
    1XTA     C327333  28.391   4.580   4.947
    1XTA     C427334  28.524   4.593   4.989
    1XTA     C527335  28.570   4.714   5.051
    1XTA    CN227336  28.588   4.921   5.243
    1XTA     C627337  28.517   4.864   5.350
    1XTA     C727338  28.574   4.856   5.478
    1XTA     C827339  28.702   4.912   5.499
    1XTA     C927340  28.774   4.968   5.396
    1XTA    C1027341  28.714   4.978   5.272
    1XTA    CN327342  28.534   5.056   5.051
    1XTA    C1127343  28.640   5.081   4.967
    1XTA    C1227344  28.639   5.202   4.901
    1XTA    C1327345  28.541   5.305   4.922
    1XTA    C1427346  28.438   5.279   5.018
    1XTA    C1527347  28.429   5.150   5.068
    1XTA     H127348  28.273   4.900   5.035
    1XTA     H227349  28.203   4.692   4.948
    1XTA     H327350  28.596   4.513   4.989
    1XTA     H427351  28.673   4.731   5.076
    1XTA     H527352  28.420   4.820   5.330
    1XTA     H627353  28.528   4.807   5.562
    1XTA     H727354  28.867   5.021   5.405
    1XTA     H827355  28.777   5.028   5.199
    1XTA     H927356  28.726   5.016   4.955
    1XTA    H1027357  28.729   5.213   4.840
    1XTA    H1127358  28.374   5.351   5.047
    1XTA    H1227359  28.351   5.129   5.134
    1XTA    OA127360  28.342   4.463   4.901
    1XTA    CO127361  28.427   4.376   4.821
    1XTA    OA227362  28.753   4.895   5.623
    1XTA    CO227363  28.853   4.980   5.669
    1XTA    CL127364  28.873   4.972   5.823
    1XTA    CL227365  28.984   5.065   5.877
    1XTA    CL327366  28.981   5.078   6.031
    1XTA    CL427367  29.050   5.210   6.082
    1XTA    CO327368  29.198   5.207   6.058
    1XTA    OA327369  29.263   5.325   6.111
    1XTA    CO427370  29.253   5.338   6.248
    1XTA    CT127371  29.355   5.441   6.309
    1XTA    CL527372  29.503   5.413   6.284
    1XTA    CL627373  29.565   5.277   6.314
    1XTA    OA427374  28.546   5.426   4.858
    1XTA    CO527375  28.621   5.429   4.742
    1XTA    CL727376  28.762   5.475   4.772
    1XTA    CL827377  28.856   5.470   4.649
    1XTA    CL927378  29.002   5.518   4.676
    1XTA   CL1027379  29.089   5.471   4.561
    1XTA    CO627380  29.240   5.491   4.573
    1XTA    OA527381  29.270   5.627   4.544
    1XTA    CO727382  29.404   5.669   4.576
    1XTA    CT227383  29.426   5.820   4.553
    1XTA   CL1127384  29.345   5.928   4.628
    1XTA   CL1227385  29.378   5.931   4.775
    1XTA    HL127386  28.527   4.389   4.853
    1XTA    HL227387  28.421   4.269   4.837
    1XTA    HL327388  28.398   4.394   4.711
    1XTA    HL427389  28.946   4.952   5.614
    1XTA    HL527390  28.829   5.077   5.644
    1XTA    HL627391  28.886   4.868   5.852
    1XTA    HL727392  28.781   5.000   5.876
    1XTA    HL827393  28.983   5.163   5.826
    1XTA    HL927394  29.079   5.020   5.849
    1XTA   HL1027395  28.878   5.085   6.064
    1XTA   HL1127396  29.018   4.991   6.090
    1XTA   HL1227397  29.035   5.226   6.185
    1XTA   HL1327398  29.010   5.294   6.030
    1XTA   HL1427399  29.245   5.119   6.108
    1XTA   HL1527400  29.230   5.194   5.956
    1XTA   HL1627401  29.151   5.381   6.272
    1XTA   HL1727402  29.258   5.245   6.300
    1XTA   HL1827403  29.559   5.493   6.339
    1XTA   HL1927404  29.514   5.442   6.177
    1XTA   HL2027405  29.556   5.213   6.225
    1XTA   HL2127406  29.520   5.227   6.403
    1XTA   HL2227407  29.670   5.293   6.343
    1XTA   HL2327408  28.563   5.499   4.682
    1XTA   HL2427409  28.619   5.339   4.685
    1XTA   HL2527410  28.754   5.581   4.797
    1XTA   HL2627411  28.810   5.426   4.857
    1XTA   HL2727412  28.860   5.367   4.616
    1XTA   HL2827413  28.817   5.542   4.576
    1XTA   HL2927414  29.008   5.628   4.690
    1XTA   HL3027415  29.045   5.467   4.762
    1XTA   HL3127416  29.068   5.362   4.541
    1XTA   HL3227417  29.066   5.524   4.472
    1XTA   HL3327418  29.264   5.457   4.666
    1XTA   HL3427419  29.282   5.420   4.499
    1XTA   HL3527420  29.484   5.613   4.528
    1XTA   HL3627421  29.420   5.650   4.685
    1XTA   HL3727422  29.240   5.911   4.603
    1XTA   HL3827423  29.366   6.028   4.587
    1XTA   HL3927424  29.323   6.013   4.833
    1XTA   HL4027425  29.473   5.969   4.803
    1XTA   HL4127426  29.364   5.832   4.809
    1XTA    CO827427  29.327   5.444   6.463
    1XTA    CO927428  29.317   5.579   6.259
    1XTA    OA627429  29.189   5.632   6.290
    1XTA   HL4227430  29.307   5.343   6.484
    1XTA   HL4327431  29.230   5.494   6.481
    1XTA   HL4427432  29.450   5.774   4.332
    1XTA   HL4527433  29.297   5.856   4.382
    1XTA   CO1027434  29.409   5.848   4.403
    1XTA   CO1127435  29.573   5.844   4.574
    1XTA    OA727436  29.475   5.971   4.370
    1XTA   HL4627437  29.609   5.949   4.583
    1XTA   HL4727438  29.623   5.797   4.492
    1XTA   HL4827439  29.340   5.582   6.152
    1XTA   HL4927440  29.391   5.647   6.299
    1XTA     NT27441  28.357   3.794   3.449
    1XTA    CN127442  28.240   3.862   3.471
    1XTA     C127443  28.192   3.949   3.370
    1XTA     C227444  28.071   4.020   3.380
    1XTA     C327445  27.997   4.013   3.499
    1XTA     C427446  28.041   3.929   3.603
    1XTA     C527447  28.162   3.850   3.593
    1XTA    CN227448  28.465   3.871   3.480
    1XTA     C627449  28.491   3.906   3.617
    1XTA     C727450  28.610   3.982   3.644
    1XTA     C827451  28.701   4.005   3.539
    1XTA     C927452  28.670   3.973   3.406
    1XTA    C1027453  28.557   3.906   3.374
    1XTA    CN327454  28.363   3.658   3.437
    1XTA    C1127455  28.275   3.589   3.352
    1XTA    C1227456  28.288   3.445   3.335
    1XTA    C1327457  28.389   3.373   3.400
    1XTA    C1427458  28.484   3.448   3.473
    1XTA    C1527459  28.477   3.587   3.486
    1XTA     H127460  28.256   3.975   3.283
    1XTA     H227461  28.042   4.086   3.300
    1XTA     H327462  27.988   3.929   3.697
    1XTA     H427463  28.203   3.798   3.670
    1XTA     H527464  28.419   3.891   3.695
    1XTA     H627465  28.627   4.024   3.743
    1XTA     H727466  28.737   3.999   3.328
    1XTA     H827467  28.537   3.880   3.271
    1XTA     H927468  28.195   3.643   3.303
    1XTA    H1027469  28.222   3.390   3.276
    1XTA    H1127470  28.563   3.387   3.518
    1XTA    H1227471  28.557   3.638   3.547
    1XTA    OA127472  27.879   4.077   3.497
    1XTA    CO127473  27.831   4.114   3.624
    1XTA    OA227474  28.805   4.077   3.582
    1XTA    CO227475  28.866   4.157   3.478
    1XTA    CL127476  28.995   4.226   3.519
    1XTA    CL227477  29.103   4.129   3.559
    1XTA    CL327478  29.106   4.093   3.711
    1XTA    CL427479  29.226   4.008   3.752
    1XTA    CO327480  29.199   3.928   3.879
    1XTA    OA327481  29.289   3.822   3.909
    1XTA    CO427482  29.254   3.708   3.826
    1XTA    CT127483  29.353   3.595   3.848
    1XTA    CL527484  29.283   3.475   3.780
    1XTA    CL627485  29.318   3.470   3.626
    1XTA    OA427486  28.409   3.235   3.386
    1XTA    CO527487  28.420   3.162   3.507
    1XTA    CL727488  28.467   3.015   3.497
    1XTA    CL827489  28.463   2.950   3.632
    1XTA    CL927490  28.535   2.817   3.648
    1XTA   CL1027491  28.520   2.756   3.791
    1XTA    CO627492  28.549   2.605   3.804
    1XTA    OA527493  28.520   2.563   3.936
    1XTA    CO727494  28.630   2.592   4.018
    1XTA    CT227495  28.602   2.555   4.159
    1XTA   CL1127496  28.529   2.668   4.233
    1XTA   CL1227497  28.390   2.716   4.176
    1XTA    HL127498  27.735   4.164   3.610
    1XTA    HL227499  27.815   4.027   3.687
    1XTA    HL327500  27.897   4.190   3.668
    1XTA    HL427501  28.891   4.103   3.385
    1XTA    HL527502  28.795   4.235   3.445
    1XTA    HL627503  28.978   4.299   3.603
    1XTA    HL727504  29.029   4.280   3.430
    1XTA    HL827505  29.197   4.173   3.522
    1XTA    HL927506  29.077   4.035   3.521
    1XTA   HL1027507  29.107   4.183   3.778
    1XTA   HL1127508  29.011   4.046   3.736
    1XTA   HL1227509  29.308   4.073   3.754
    1XTA   HL1327510  29.261   3.943   3.668
    1XTA   HL1427511  29.167   3.995   3.964
    1XTA   HL1527512  29.104   3.884   3.860
    1XTA   HL1627513  29.152   3.692   3.865
    1XTA   HL1727514  29.247   3.747   3.727
    1XTA   HL1827515  29.171   3.486   3.794
    1XTA   HL1927516  29.315   3.380   3.818
    1XTA   HL2027517  29.419   3.436   3.619
    1XTA   HL2127518  29.330   3.569   3.577
    1XTA   HL2227519  29.251   3.397   3.576
    1XTA   HL2327520  28.326   3.153   3.559
    1XTA   HL2427521  28.493   3.209   3.572
    1XTA   HL2527522  28.402   2.954   3.431
    1XTA   HL2627523  28.573   3.015   3.461
    1XTA   HL2727524  28.498   3.023   3.704
    1XTA   HL2827525  28.358   2.931   3.653
    1XTA   HL2927526  28.493   2.746   3.574
    1XTA   HL3027527  28.641   2.823   3.622
    1XTA   HL3127528  28.580   2.818   3.858
    1XTA   HL3227529  28.421   2.787   3.827
    1XTA   HL3327530  28.486   2.545   3.738
    1XTA   HL3427531  28.652   2.572   3.780
    1XTA   HL3527532  28.667   2.697   4.029
    1XTA   HL3627533  28.721   2.547   3.989
    1XTA   HL3727534  28.593   2.753   4.249
    1XTA   HL3827535  28.505   2.632   4.332
    1XTA   HL3927536  28.393   2.768   4.073
    1XTA   HL4027537  28.337   2.789   4.235
    1XTA   HL4127538  28.328   2.624   4.164
    1XTA    CO827539  29.374   3.563   3.999
    1XTA    CO927540  29.496   3.631   3.794
    1XTA    OA627541  29.545   3.711   3.847
    1XTA   HL4227542  29.427   3.639   4.063
    1XTA   HL4327543  29.253   3.563   4.067
    1XTA   HL4427544  28.817   2.528   4.203
    1XTA   HL4527545  28.725   2.575   4.340
    1XTA   CO1027546  28.717   2.517   4.246
    1XTA   CO1127547  28.558   2.410   4.164
    1XTA    OA727548  28.660   2.384   4.259
    1XTA   HL4627549  28.453   2.401   4.207
    1XTA   HL4727550  28.577   2.347   4.076
    1XTA   HL4827551  29.498   3.647   3.689
    1XTA   HL4927552  29.548   3.541   3.795
    1XTA     NT27553  30.662   4.397   6.246
    1XTA    CN127554  30.717   4.427   6.130
    1XTA     C127555  30.660   4.522   6.040
    1XTA     C227556  30.712   4.532   5.903
    1XTA     C327557  30.817   4.447   5.869
    1XTA     C427558  30.883   4.368   5.963
    1XTA     C527559  30.835   4.359   6.095
    1XTA    CN227560  30.697   4.446   6.369
    1XTA     C627561  30.663   4.577   6.397
    1XTA     C727562  30.671   4.636   6.527
    1XTA     C827563  30.716   4.557   6.634
    1XTA     C927564  30.762   4.428   6.604
    1XTA    C1027565  30.752   4.374   6.475
    1XTA    CN327566  30.547   4.332   6.228
    1XTA    C1127567  30.545   4.207   6.153
    1XTA    C1227568  30.420   4.154   6.114
    1XTA    C1327569  30.299   4.211   6.160
    1XTA    C1427570  30.299   4.320   6.246
    1XTA    C1527571  30.424   4.382   6.272
    1XTA     H127572  30.588   4.586   6.094
    1XTA     H227573  30.658   4.597   5.835
    1XTA     H327574  30.968   4.308   5.938
    1XTA     H427575  30.886   4.295   6.166
    1XTA     H527576  30.643   4.650   6.315
    1XTA     H627577  30.650   4.741   6.541
    1XTA     H727578  30.804   4.366   6.680
    1XTA     H827579  30.791   4.278   6.470
    1XTA     H927580  30.628   4.159   6.105
    1XTA    H1027581  30.417   4.075   6.046
    1XTA    H1127582  30.207   4.360   6.287
    1XTA    H1227583  30.419   4.468   6.327
    1XTA    OA127584  30.855   4.433   5.734
    1XTA    CO127585  30.814   4.530   5.636
    1XTA    OA227586  30.716   4.591   6.766
    1XTA    CO227587  30.615   4.681   6.805
    1XTA    CL127588  30.651   4.800   6.894
    1XTA    CL227589  30.761   4.883   6.827
    1XTA    CL327590  30.702   4.991   6.736
    1XTA    CL427591  30.802   5.075   6.664
    1XTA    CO327592  30.737   5.209   6.627
    1XTA    OA327593  30.829   5.309   6.620
    1XTA    CO427594  30.903   5.309   6.504
    1XTA    CT127595  31.050   5.361   6.530
    1XTA    CL527596  31.129   5.250   6.600
    1XTA    CL627597  31.127   5.110   6.544
    1XTA    OA427598  30.186   4.150   6.116
    1XTA    CO527599  30.070   4.168   6.187
    1XTA    CL727600  29.967   4.066   6.138
    1XTA    CL827601  29.831   4.085   6.204
    1XTA    CL927602  29.821   4.110   6.348
    1XTA   CL1027603  29.783   4.254   6.390
    1XTA    CO627604  29.770   4.275   6.540
    1XTA    OA527605  29.720   4.410   6.545
    1XTA    CO727606  29.661   4.439   6.668
    1XTA    CT227607  29.545   4.536   6.638
    1XTA   CL1127608  29.583   4.682   6.598
    1XTA   CL1227609  29.676   4.693   6.473
    1XTA    HL127610  30.819   4.635   5.674
    1XTA    HL227611  30.876   4.519   5.550
    1XTA    HL327612  30.708   4.520   5.617
    1XTA    HL427613  30.563   4.721   6.724
    1XTA    HL527614  30.539   4.624   6.863
    1XTA    HL627615  30.690   4.762   6.986
    1XTA    HL727616  30.560   4.860   6.915
    1XTA    HL827617  30.818   4.809   6.772
    1XTA    HL927618  30.821   4.923   6.907
    1XTA   HL1027619  30.639   4.930   6.666
    1XTA   HL1127620  30.628   5.048   6.787
    1XTA   HL1227621  30.833   5.023   6.570
    1XTA   HL1327622  30.889   5.075   6.720
    1XTA   HL1427623  30.686   5.201   6.527
    1XTA   HL1527624  30.669   5.237   6.703
    1XTA   HL1627625  30.885   5.219   6.442
    1XTA   HL1727626  30.847   5.378   6.436
    1XTA   HL1827627  31.090   5.239   6.704
    1XTA   HL1927628  31.227   5.292   6.617
    1XTA   HL2027629  31.117   5.110   6.442
    1XTA   HL2127630  31.046   5.049   6.575
    1XTA   HL2227631  31.218   5.044   6.578
    1XTA   HL2327632  30.025   4.266   6.167
    1XTA   HL2427633  30.092   4.169   6.297
    1XTA   HL2527634  29.959   4.075   6.028
    1XTA   HL2627635  30.011   3.965   6.153
    1XTA   HL2727636  29.782   4.163   6.146
    1XTA   HL2827637  29.770   4.006   6.177
    1XTA   HL2927638  29.757   4.038   6.401
    1XTA   HL3027639  29.913   4.086   6.394
    1XTA   HL3127640  29.863   4.317   6.350
    1XTA   HL3227641  29.692   4.288   6.346
    1XTA   HL3327642  29.702   4.203   6.582
    1XTA   HL3427643  29.862   4.277   6.598
    1XTA   HL3527644  29.734   4.494   6.734
    1XTA   HL3627645  29.636   4.346   6.711
    1XTA   HL3727646  29.642   4.713   6.682
    1XTA   HL3827647  29.495   4.737   6.597
    1XTA   HL3927648  29.769   4.653   6.515
    1XTA   HL4027649  29.688   4.796   6.435
    1XTA   HL4127650  29.646   4.633   6.387
    1XTA    CO827651  31.057   5.492   6.613
    1XTA    CO927652  31.112   5.387   6.399
    1XTA    OA627653  31.180   5.542   6.648
    1XTA   HL4227654  31.009   5.486   6.712
    1XTA   HL4327655  31.009   5.572   6.559
    1XTA   HL4427656  29.509   4.588   6.851
    1XTA   HL4527657  29.363   4.598   6.760
    1XTA   CO1027658  29.455   4.540   6.769
    1XTA   CO1127659  29.449   4.492   6.527
    1XTA    OA727660  29.411   4.415   6.810
    1XTA   HL4627661  29.402   4.392   6.549
    1XTA   HL4727662  29.502   4.462   6.441
    1XTA   HL4827663  31.095   5.315   6.327
    1XTA   HL4927664  31.221   5.388   6.408
    1XTA     NT27665  28.060   1.626   5.390
    1XTA    CN127666  27.988   1.577   5.488
    1XTA     C127667  27.893   1.477   5.469
    1XTA     C227668  27.803   1.444   5.573
    1XTA     C327669  27.815   1.514   5.695
    1XTA     C427670  27.921   1.604   5.721
    1XTA     C527671  28.005   1.637   5.610
    1XTA    CN227672  28.192   1.621   5.398
    1XTA     C627673  28.264   1.499   5.411
    1XTA     C727674  28.395   1.488   5.447
    1XTA     C827675  28.470   1.605   5.451
    1XTA     C927676  28.405   1.731   5.440
    1XTA    C1027677  28.266   1.742   5.413
    1XTA    CN327678  27.998   1.699   5.291
    1XTA    C1127679  27.945   1.824   5.329
    1XTA    C1227680  27.893   1.911   5.235
    1XTA    C1327681  27.889   1.876   5.102
    1XTA    C1427682  27.946   1.755   5.062
    1XTA    C1527683  28.008   1.669   5.157
    1XTA     H127684  27.879   1.430   5.373
    1XTA     H227685  27.716   1.381   5.555
    1XTA     H327686  27.934   1.653   5.811
    1XTA     H427687  28.095   1.697   5.620
    1XTA     H527688  28.217   1.400   5.407
    1XTA     H627689  28.439   1.388   5.462
    1XTA     H727690  28.454   1.823   5.459
    1XTA     H827691  28.221   1.845   5.395
    1XTA     H927692  27.928   1.841   5.434
    1XTA    H1027693  27.855   2.003   5.278
    1XTA    H1127694  27.951   1.726   4.957
    1XTA    H1227695  28.054   1.574   5.123
    1XTA    OA127696  27.703   1.488   5.780
    1XTA    CO127697  27.669   1.585   5.874
    1XTA    OA227698  28.605   1.615   5.479
    1XTA    CO227699  28.683   1.501   5.477
    1XTA    CL127700  28.835   1.540   5.498
    1XTA    CL227701  28.866   1.547   5.651
    1XTA    CL327702  29.007   1.572   5.687
    1XTA    CL427703  29.105   1.448   5.677
    1XTA    CO327704  29.229   1.453   5.781
    1XTA    OA327705  29.184   1.480   5.919
    1XTA    CO427706  29.122   1.363   5.978
    1XTA    CT127707  29.069   1.408   6.113
    1XTA    CL527708  28.954   1.503   6.109
    1XTA    CL627709  28.817   1.450   6.050
    1XTA    OA427710  27.849   1.958   4.994
    1XTA    CO527711  27.764   2.065   5.020
    1XTA    CL727712  27.678   2.097   4.892
    1XTA    CL827713  27.582   2.218   4.908
    1XTA    CL927714  27.637   2.333   4.991
    1XTA   CL1027715  27.536   2.447   4.988
    1XTA    CO627716  27.605   2.584   5.010
    1XTA    OA527717  27.713   2.594   4.914
    1XTA    CO727718  27.805   2.704   4.928
    1XTA    CT227719  27.932   2.693   4.834
    1XTA   CL1127720  27.935   2.806   4.728
    1XTA   CL1227721  27.944   2.942   4.792
    1XTA    HL127722  27.630   1.674   5.824
    1XTA    HL227723  27.579   1.556   5.924
    1XTA    HL327724  27.747   1.613   5.942
    1XTA    HL427725  28.657   1.415   5.547
    1XTA    HL527726  28.665   1.445   5.382
    1XTA    HL627727  28.851   1.631   5.443
    1XTA    HL727728  28.900   1.465   5.450
    1XTA    HL827729  28.857   1.444   5.689
    1XTA    HL927730  28.797   1.609   5.714
    1XTA   HL1027731  29.049   1.649   5.622
    1XTA   HL1127732  28.999   1.608   5.793
    1XTA   HL1227733  29.141   1.434   5.576
    1XTA   HL1327734  29.050   1.359   5.696
    1XTA   HL1427735  29.279   1.356   5.786
    1XTA   HL1527736  29.295   1.531   5.750
    1XTA   HL1627737  29.040   1.317   5.911
    1XTA   HL1727738  29.199   1.287   5.990
    1XTA   HL1827739  28.971   1.593   6.054
    1XTA   HL1927740  28.942   1.532   6.211
    1XTA   HL2027741  28.738   1.527   6.035
    1XTA   HL2127742  28.766   1.383   6.123
    1XTA   HL2227743  28.825   1.395   5.958
    1XTA   HL2327744  27.837   2.134   5.058
    1XTA   HL2427745  27.700   2.038   5.102
    1XTA   HL2527746  27.747   2.107   4.814
    1XTA   HL2627747  27.626   2.009   4.859
    1XTA   HL2727748  27.563   2.247   4.803
    1XTA   HL2827749  27.485   2.192   4.958
    1XTA   HL2927750  27.664   2.306   5.089
    1XTA   HL3027751  27.732   2.367   4.943
    1XTA   HL3127752  27.490   2.443   4.893
    1XTA   HL3227753  27.455   2.421   5.059
    1XTA   HL3327754  27.538   2.667   5.008
    1XTA   HL3427755  27.655   2.601   5.106
    1XTA   HL3527756  27.842   2.726   5.022
    1XTA   HL3627757  27.745   2.789   4.897
    1XTA   HL3727758  27.832   2.802   4.683
    1XTA   HL3827759  28.007   2.786   4.647
    1XTA   HL3927760  28.024   2.952   4.871
    1XTA   HL4027761  27.848   2.963   4.842
    1XTA   HL4127762  27.954   3.027   4.725
    1XTA    CO827763  29.192   1.470   6.187
    1XTA    CO927764  29.018   1.283   6.195
    1XTA    OA627765  29.309   1.397   6.164
    1XTA   HL4227766  29.212   1.567   6.139
    1XTA   HL4327767  29.176   1.481   6.288
    1XTA   HL4427768  27.890   2.480   4.805
    1XTA   HL4527769  27.823   2.582   4.683
    1XTA   CO1027770  27.913   2.566   4.738
    1XTA   CO1127771  28.066   2.679   4.907
    1XTA    OA727772  28.006   2.551   4.677
    1XTA   HL4627773  28.118   2.799   4.960
    1XTA   HL4727774  28.142   2.635   4.842
    1XTA   HL4827775  28.923   1.314   6.247
    1XTA   HL4927776  28.981   1.211   6.127
    1XTA     NT27777  25.032  -0.816  -1.311
    1XTA    CN127778  24.915  -0.831  -1.388
    1XTA     C127779  24.908  -0.933  -1.491
    1XTA     C227780  24.792  -0.938  -1.569
    1XTA     C327781  24.679  -0.847  -1.544
    1XTA     C427782  24.690  -0.758  -1.437
    1XTA     C527783  24.807  -0.751  -1.358
    1XTA    CN227784  25.151  -0.827  -1.360
    1XTA     C627785  25.214  -0.949  -1.368
    1XTA     C727786  25.348  -0.958  -1.415
    1XTA     C827787  25.421  -0.843  -1.454
    1XTA     C927788  25.348  -0.722  -1.439
    1XTA    C1027789  25.218  -0.710  -1.395
    1XTA    CN327790  25.027  -0.807  -1.174
    1XTA    C1127791  24.988  -0.923  -1.098
    1XTA    C1227792  24.979  -0.915  -0.959
    1XTA    C1327793  24.995  -0.794  -0.893
    1XTA    C1427794  25.016  -0.677  -0.973
    1XTA    C1527795  25.038  -0.685  -1.113
    1XTA     H127796  24.991  -1.003  -1.507
    1XTA     H227797  24.796  -0.996  -1.663
    1XTA     H327798  24.601  -0.690  -1.436
    1XTA     H427799  24.813  -0.668  -1.284
    1XTA     H527800  25.151  -1.033  -1.338
    1XTA     H627801  25.396  -1.054  -1.406
    1XTA     H727802  25.405  -0.632  -1.465
    1XTA     H827803  25.164  -0.620  -1.386
    1XTA     H927804  24.970  -1.015  -1.150
    1XTA    H1027805  24.962  -1.000  -0.897
    1XTA    H1127806  25.012  -0.582  -0.925
    1XTA    H1227807  25.057  -0.599  -1.170
    1XTA    OA127808  24.568  -0.845  -1.623
    1XTA    CO127809  24.579  -0.910  -1.742
    1XTA    OA227810  25.556  -0.861  -1.487
    1XTA    CO227811  25.598  -0.794  -1.599
    1XTA    CL127812  25.744  -0.805  -1.574
    1XTA    CL227813  25.826  -0.735  -1.682
    1XTA    CL327814  25.973  -0.727  -1.646
    1XTA    CL427815  26.071  -0.757  -1.757
    1XTA    CO327816  26.217  -0.708  -1.725
    1XTA    OA327817  26.313  -0.775  -1.799
    1XTA    CO427818  26.442  -0.733  -1.773
    1XTA    CT127819  26.548  -0.815  -1.834
    1XTA    CL527820  26.557  -0.954  -1.769
    1XTA    CL627821  26.425  -1.029  -1.785
    1XTA    OA427822  24.991  -0.799  -0.758
    1XTA    CO527823  24.968  -0.684  -0.675
    1XTA    CL727824  24.928  -0.729  -0.534
    1XTA    CL827825  24.953  -0.628  -0.428
    1XTA    CL927826  24.904  -0.677  -0.291
    1XTA   CL1027827  24.996  -0.788  -0.233
    1XTA    CO627828  24.912  -0.851  -0.119
    1XTA    OA527829  24.858  -0.755  -0.026
    1XTA    CO727830  24.947  -0.688   0.055
    1XTA    CT227831  24.969  -0.735   0.204
    1XTA   CL1127832  24.837  -0.709   0.289
    1XTA   CL1227833  24.721  -0.798   0.256
    1XTA    HL127834  24.501  -0.879  -1.814
    1XTA    HL227835  24.670  -0.871  -1.789
    1XTA    HL327836  24.588  -1.019  -1.735
    1XTA    HL427837  25.566  -0.853  -1.691
    1XTA    HL527838  25.566  -0.690  -1.598
    1XTA    HL627839  25.786  -0.904  -1.550
    1XTA    HL727840  25.764  -0.749  -1.479
    1XTA    HL827841  25.783  -0.639  -1.700
    1XTA    HL927842  25.809  -0.784  -1.778
    1XTA   HL1027843  26.000  -0.621  -1.618
    1XTA   HL1127844  26.008  -0.799  -1.572
    1XTA   HL1227845  26.045  -0.715  -1.851
    1XTA   HL1327846  26.083  -0.870  -1.780
    1XTA   HL1427847  26.232  -0.601  -1.746
    1XTA   HL1527848  26.238  -0.729  -1.622
    1XTA   HL1627849  26.455  -0.630  -1.805
    1XTA   HL1727850  26.460  -0.740  -1.663
    1XTA   HL1827851  26.587  -0.955  -1.664
    1XTA   HL1927852  26.638  -1.006  -1.815
    1XTA   HL2027853  26.398  -1.046  -1.889
    1XTA   HL2127854  26.334  -0.989  -1.740
    1XTA   HL2227855  26.430  -1.129  -1.742
    1XTA   HL2327856  24.891  -0.614  -0.706
    1XTA   HL2427857  25.056  -0.616  -0.668
    1XTA   HL2527858  24.822  -0.757  -0.535
    1XTA   HL2627859  24.979  -0.823  -0.511
    1XTA   HL2727860  25.054  -0.616  -0.416
    1XTA   HL2827861  24.913  -0.534  -0.450
    1XTA   HL2927862  24.910  -0.592  -0.222
    1XTA   HL3027863  24.796  -0.712  -0.297
    1XTA   HL3127864  25.011  -0.866  -0.306
    1XTA   HL3227865  25.090  -0.749  -0.183
    1XTA   HL3327866  24.827  -0.899  -0.171
    1XTA   HL3427867  24.952  -0.939  -0.068
    1XTA   HL3527868  24.913  -0.592   0.053
    1XTA   HL3627869  25.040  -0.684  -0.000
    1XTA   HL3727870  24.796  -0.615   0.267
    1XTA   HL3827871  24.851  -0.710   0.396
    1XTA   HL3927872  24.679  -0.772   0.162
    1XTA   HL4027873  24.645  -0.786   0.327
    1XTA   HL4127874  24.739  -0.900   0.261
    1XTA    CO827875  26.676  -0.745  -1.828
    1XTA    CO927876  26.572  -0.799  -1.982
    1XTA    OA627877  26.715  -0.781  -1.925
    1XTA   HL4227878  26.727  -0.790  -1.739
    1XTA   HL4327879  26.673  -0.636  -1.820
    1XTA   HL4427880  25.113  -0.692   0.362
    1XTA   HL4527881  25.167  -0.655   0.195
    1XTA   CO1027882  25.086  -0.646   0.265
    1XTA   CO1127883  25.014  -0.881   0.196
    1XTA    OA727884  25.064  -0.536   0.279
    1XTA   HL4627885  24.995  -0.953   0.325
    1XTA   HL4727886  24.945  -0.926   0.131
    1XTA   HL4827887  26.519  -0.678  -2.032
    1XTA   HL4927888  26.545  -0.884  -2.037
    1XTA     NT27889  27.809   4.131   2.065
    1XTA    CN127890  27.923   4.191   2.105
    1XTA     C127891  27.906   4.325   2.155
    1XTA     C227892  28.019   4.398   2.210
    1XTA     C327893  28.144   4.340   2.224
    1XTA     C427894  28.160   4.210   2.175
    1XTA     C527895  28.049   4.135   2.120
    1XTA    CN227896  27.813   4.039   1.963
    1XTA     C627897  27.867   4.072   1.836
    1XTA     C727898  27.875   3.977   1.737
    1XTA     C827899  27.841   3.844   1.754
    1XTA     C927900  27.794   3.813   1.881
    1XTA    C1027901  27.765   3.908   1.980
    1XTA    CN327902  27.690   4.145   2.131
    1XTA    C1127903  27.590   4.234   2.087
    1XTA    C1227904  27.471   4.249   2.158
    1XTA    C1327905  27.455   4.188   2.281
    1XTA    C1427906  27.556   4.109   2.336
    1XTA    C1527907  27.669   4.084   2.257
    1XTA     H127908  27.808   4.371   2.155
    1XTA     H227909  27.996   4.500   2.240
    1XTA     H327910  28.255   4.164   2.174
    1XTA     H427911  28.061   4.033   2.099
    1XTA     H527912  27.917   4.167   1.825
    1XTA     H627913  27.918   4.008   1.643
    1XTA     H727914  27.774   3.705   1.902
    1XTA     H827915  27.710   3.888   2.074
    1XTA     H927916  27.601   4.299   2.000
    1XTA    H1027917  27.400   4.321   2.118
    1XTA    H1127918  27.532   4.065   2.424
    1XTA    H1227919  27.750   4.015   2.290
    1XTA    OA127920  28.258   4.404   2.263
    1XTA    CO127921  28.267   4.538   2.210
    1XTA    OA227922  27.854   3.740   1.659
    1XTA    CO227923  27.904   3.775   1.536
    1XTA    CL127924  27.907   3.646   1.446
    1XTA    CL227925  27.946   3.694   1.301
    1XTA    CL327926  27.908   3.588   1.197
    1XTA    CL427927  27.937   3.646   1.057
    1XTA    CO327928  27.914   3.537   0.944
    1XTA    OA327929  27.774   3.513   0.938
    1XTA    CO427930  27.703   3.579   0.837
    1XTA    CT127931  27.554   3.559   0.868
    1XTA    CL527932  27.484   3.609   0.749
    1XTA    CL627933  27.490   3.768   0.727
    1XTA    OA427934  27.339   4.220   2.353
    1XTA    CO527935  27.327   4.172   2.490
    1XTA    CL727936  27.206   4.253   2.542
    1XTA    CL827937  27.248   4.400   2.564
    1XTA    CL927938  27.312   4.417   2.704
    1XTA   CL1027939  27.323   4.561   2.750
    1XTA    CO627940  27.401   4.570   2.883
    1XTA    OA527941  27.418   4.708   2.924
    1XTA    CO727942  27.296   4.758   2.976
    1XTA    CT227943  27.292   4.911   2.997
    1XTA   CL1127944  27.347   4.972   2.864
    1XTA   CL1227945  27.309   5.122   2.853
    1XTA    HL127946  28.186   4.601   2.241
    1XTA    HL227947  28.352   4.596   2.243
    1XTA    HL327948  28.269   4.534   2.098
    1XTA    HL427949  27.832   3.844   1.502
    1XTA    HL527950  28.010   3.810   1.535
    1XTA    HL627951  27.806   3.607   1.440
    1XTA    HL727952  27.976   3.567   1.482
    1XTA    HL827953  28.055   3.705   1.305
    1XTA    HL927954  27.896   3.786   1.274
    1XTA   HL1027955  27.984   3.501   1.221
    1XTA   HL1127956  27.805   3.552   1.209
    1XTA   HL1227957  28.043   3.676   1.039
    1XTA   HL1327958  27.877   3.737   1.035
    1XTA   HL1427959  27.950   3.577   0.846
    1XTA   HL1527960  27.972   3.443   0.947
    1XTA   HL1627961  27.733   3.680   0.813
    1XTA   HL1727962  27.735   3.538   0.740
    1XTA   HL1827963  27.380   3.576   0.753
    1XTA   HL1927964  27.519   3.567   0.654
    1XTA   HL2027965  27.438   3.798   0.633
    1XTA   HL2127966  27.598   3.793   0.713
    1XTA   HL2227967  27.435   3.826   0.804
    1XTA   HL2327968  27.423   4.201   2.542
    1XTA   HL2427969  27.294   4.061   2.503
    1XTA   HL2527970  27.124   4.270   2.461
    1XTA   HL2627971  27.172   4.216   2.639
    1XTA   HL2727972  27.305   4.425   2.474
    1XTA   HL2827973  27.163   4.459   2.552
    1XTA   HL2927974  27.242   4.360   2.765
    1XTA   HL3027975  27.399   4.364   2.713
    1XTA   HL3127976  27.386   4.625   2.686
    1XTA   HL3227977  27.228   4.608   2.756
    1XTA   HL3327978  27.355   4.508   2.961
    1XTA   HL3427979  27.498   4.522   2.864
    1XTA   HL3527980  27.277   4.709   3.064
    1XTA   HL3627981  27.210   4.726   2.921
    1XTA   HL3727982  27.311   4.917   2.776
    1XTA   HL3827983  27.454   4.952   2.847
    1XTA   HL3927984  27.333   5.165   2.750
    1XTA   HL4027985  27.372   5.185   2.917
    1XTA   HL4127986  27.204   5.133   2.878
    1XTA    CO827987  27.503   3.632   0.992
    1XTA    CO927988  27.526   3.412   0.887
    1XTA    OA627989  27.388   3.372   0.853
    1XTA   HL4227990  27.557   3.600   1.075
    1XTA   HL4327991  27.511   3.743   0.986
    1XTA   HL4427992  27.327   5.075   3.141
    1XTA   HL4527993  27.323   4.918   3.214
    1XTA   CO1027994  27.357   4.970   3.123
    1XTA   CO1127995  27.139   4.935   3.009
    1XTA    OA727996  27.469   4.956   3.132
    1XTA   HL4627997  27.082   4.857   3.112
    1XTA   HL4727998  27.131   5.036   3.041
    1XTA   HL4827999  27.562   3.367   0.981
    1XTA   HL4928000  27.593   3.368   0.814
    1XTA     NT28001  23.659  -0.601   0.036
    1XTA    CN128002  23.551  -0.566   0.111
    1XTA     C128003  23.553  -0.621   0.238
    1XTA     C228004  23.458  -0.576   0.337
    1XTA     C328005  23.354  -0.490   0.300
    1XTA     C428006  23.349  -0.441   0.168
    1XTA     C528007  23.450  -0.478   0.072
    1XTA    CN228008  23.643  -0.682  -0.076
    1XTA     C628009  23.639  -0.820  -0.066
    1XTA     C728010  23.631  -0.900  -0.183
    1XTA     C828011  23.640  -0.838  -0.310
    1XTA     C928012  23.644  -0.699  -0.319
    1XTA    C1028013  23.646  -0.620  -0.199
    1XTA    CN328014  23.776  -0.536   0.057
    1XTA    C1128015  23.886  -0.614   0.089
    1XTA    C1228016  24.012  -0.556   0.109
    1XTA    C1328017  24.020  -0.410   0.106
    1XTA    C1428018  23.905  -0.334   0.073
    1XTA    C1528019  23.785  -0.398   0.044
    1XTA     H128020  23.611  -0.710   0.258
    1XTA     H228021  23.466  -0.620   0.436
    1XTA     H328022  23.265  -0.377   0.132
    1XTA     H428023  23.450  -0.437  -0.025
    1XTA     H528024  23.628  -0.860   0.033
    1XTA     H628025  23.622  -1.000  -0.194
    1XTA     H728026  23.656  -0.658  -0.415
    1XTA     H828027  23.655  -0.514  -0.219
    1XTA     H928028  23.874  -0.725   0.089
    1XTA    H1028029  24.104  -0.616   0.128
    1XTA    H1128030  23.917  -0.229   0.070
    1XTA    H1228031  23.699  -0.336   0.028
    1XTA    OA128032  23.257  -0.442   0.385
    1XTA    CO128033  23.255  -0.493   0.518
    1XTA    OA228034  23.640  -0.917  -0.421
    1XTA    CO228035  23.775  -0.955  -0.455
    1XTA    CL128036  23.790  -0.961  -0.605
    1XTA    CL228037  23.790  -0.825  -0.664
    1XTA    CL328038  23.843  -0.821  -0.806
    1XTA    CL428039  23.993  -0.840  -0.819
    1XTA    CO328040  24.041  -0.768  -0.943
    1XTA    OA328041  24.006  -0.857  -1.049
    1XTA    CO428042  24.028  -0.802  -1.182
    1XTA    CT128043  24.175  -0.817  -1.233
    1XTA    CL528044  24.271  -0.716  -1.162
    1XTA    CL628045  24.412  -0.709  -1.230
    1XTA    OA428046  24.131  -0.341   0.137
    1XTA    CO528047  24.257  -0.404   0.164
    1XTA    CL728048  24.348  -0.290   0.225
    1XTA    CL828049  24.490  -0.318   0.246
    1XTA    CL928050  24.561  -0.187   0.286
    1XTA   CL1028051  24.572  -0.084   0.175
    1XTA    CO628052  24.657   0.032   0.230
    1XTA    OA528053  24.588   0.088   0.335
    1XTA    CO728054  24.650   0.199   0.390
    1XTA    CT228055  24.588   0.228   0.527
    1XTA   CL1128056  24.682   0.319   0.611
    1XTA   CL1228057  24.728   0.451   0.555
    1XTA    HL128058  23.193  -0.428   0.576
    1XTA    HL228059  23.207  -0.594   0.511
    1XTA    HL328060  23.346  -0.490   0.576
    1XTA    HL428061  23.850  -0.894  -0.410
    1XTA    HL528062  23.797  -1.053  -0.404
    1XTA    HL628063  23.705  -1.014  -0.638
    1XTA    HL728064  23.880  -1.015  -0.635
    1XTA    HL828065  23.828  -0.751  -0.592
    1XTA    HL928066  23.691  -0.802  -0.659
    1XTA   HL1028067  23.802  -0.893  -0.868
    1XTA   HL1128068  23.815  -0.725  -0.846
    1XTA   HL1228069  24.026  -0.944  -0.824
    1XTA   HL1328070  24.030  -0.786  -0.732
    1XTA   HL1428071  23.995  -0.668  -0.957
    1XTA   HL1528072  24.146  -0.740  -0.939
    1XTA   HL1628073  23.960  -0.850  -1.257
    1XTA   HL1728074  23.999  -0.697  -1.182
    1XTA   HL1828075  24.288  -0.732  -1.054
    1XTA   HL1928076  24.223  -0.614  -1.172
    1XTA   HL2028077  24.478  -0.653  -1.163
    1XTA   HL2128078  24.401  -0.680  -1.334
    1XTA   HL2228079  24.462  -0.802  -1.236
    1XTA   HL2328080  24.301  -0.435   0.067
    1XTA   HL2428081  24.239  -0.485   0.235
    1XTA   HL2528082  24.344  -0.208   0.163
    1XTA   HL2628083  24.298  -0.253   0.314
    1XTA   HL2728084  24.508  -0.387   0.330
    1XTA   HL2828085  24.547  -0.362   0.158
    1XTA   HL2928086  24.522  -0.157   0.385
    1XTA   HL3028087  24.665  -0.210   0.319
    1XTA   HL3128088  24.613  -0.121   0.082
    1XTA   HL3228089  24.474  -0.041   0.134
    1XTA   HL3328090  24.753  -0.009   0.264
    1XTA   HL3428091  24.671   0.111   0.154
    1XTA   HL3528092  24.665   0.283   0.323
    1XTA   HL3628093  24.747   0.170   0.417
    1XTA   HL3728094  24.770   0.268   0.631
    1XTA   HL3828095  24.638   0.346   0.705
    1XTA   HL3928096  24.802   0.446   0.480
    1XTA   HL4028097  24.769   0.519   0.630
    1XTA   HL4128098  24.636   0.484   0.503
    1XTA    CO828099  24.174  -0.808  -1.387
    1XTA    CO928100  24.219  -0.956  -1.200
    1XTA    OA628101  24.324  -0.985  -1.211
    1XTA   HL4228102  24.276  -0.839  -1.413
    1XTA   HL4328103  24.078  -0.891  -1.456
    1XTA   HL4428104  24.476   0.046   0.561
    1XTA   HL4528105  24.521   0.125   0.708
    1XTA   CO1028106  24.557   0.099   0.606
    1XTA   CO1128107  24.450   0.294   0.512
    1XTA    OA728108  24.361   0.217   0.438
    1XTA   HL4628109  24.395   0.315   0.608
    1XTA   HL4728110  24.465   0.392   0.460
    1XTA   HL4828111  24.145  -1.028  -1.251
    1XTA   HL4928112  24.198  -0.957  -1.090
    1XTA     NT28113  30.320   5.628   3.901
    1XTA    CN128114  30.255   5.710   3.811
    1XTA     C128115  30.170   5.806   3.852
    1XTA     C228116  30.100   5.886   3.765
    1XTA     C328117  30.122   5.879   3.625
    1XTA     C428118  30.219   5.787   3.575
    1XTA     C528119  30.281   5.697   3.667
    1XTA    CN228120  30.248   5.540   3.982
    1XTA     C628121  30.286   5.508   4.110
    1XTA     C728122  30.216   5.408   4.182
    1XTA     C828123  30.105   5.337   4.135
    1XTA     C928124  30.065   5.370   4.005
    1XTA    C1028125  30.136   5.471   3.929
    1XTA    CN328126  30.454   5.618   3.911
    1XTA    C1128127  30.530   5.733   3.953
    1XTA    C1228128  30.669   5.720   3.971
    1XTA    C1328129  30.738   5.601   3.950
    1XTA    C1428130  30.663   5.485   3.916
    1XTA    C1528131  30.521   5.495   3.892
    1XTA     H128132  30.143   5.800   3.959
    1XTA     H228133  30.022   5.954   3.791
    1XTA     H328134  30.233   5.771   3.469
    1XTA     H428135  30.351   5.624   3.637
    1XTA     H528136  30.370   5.558   4.151
    1XTA     H628137  30.257   5.381   4.281
    1XTA     H728138  29.981   5.314   3.971
    1XTA     H828139  30.096   5.500   3.833
    1XTA     H928140  30.469   5.818   3.983
    1XTA    H1028141  30.719   5.806   4.019
    1XTA    H1128142  30.703   5.384   3.907
    1XTA    H1228143  30.451   5.411   3.864
    1XTA    OA128144  30.057   5.954   3.527
    1XTA    CO128145  29.965   6.051   3.576
    1XTA    OA228146  30.040   5.236   4.210
    1XTA    CO228147  30.074   5.229   4.343
    1XTA    CL128148  29.970   5.127   4.397
    1XTA    CL228149  29.988   5.115   4.550
    1XTA    CL328150  29.853   5.106   4.615
    1XTA    CL428151  29.790   5.242   4.647
    1XTA    CO328152  29.881   5.356   4.708
    1XTA    OA328153  29.795   5.459   4.754
    1XTA    CO428154  29.861   5.562   4.831
    1XTA    CT128155  29.769   5.688   4.835
    1XTA    CL528156  29.660   5.669   4.946
    1XTA    CL628157  29.580   5.539   4.930
    1XTA    OA428158  30.869   5.586   3.983
    1XTA    CO528159  30.927   5.458   4.004
    1XTA    CL728160  31.081   5.476   4.013
    1XTA    CL828161  31.156   5.353   4.069
    1XTA    CL928162  31.141   5.230   3.973
    1XTA   CL1028163  31.157   5.100   4.052
    1XTA    CO628164  31.120   4.975   3.972
    1XTA    OA528165  30.987   4.985   3.941
    1XTA    CO728166  30.938   4.894   3.845
    1XTA    CT228167  30.785   4.903   3.836
    1XTA   CL1128168  30.723   5.037   3.813
    1XTA   CL1228169  30.795   5.125   3.710
    1XTA    HL128170  29.878   6.012   3.628
    1XTA    HL228171  30.019   6.116   3.641
    1XTA    HL328172  29.934   6.116   3.492
    1XTA    HL428173  30.177   5.201   4.376
    1XTA    HL528174  30.047   5.321   4.404
    1XTA    HL628175  29.974   5.033   4.337
    1XTA    HL728176  29.870   5.179   4.375
    1XTA    HL828177  30.049   5.205   4.584
    1XTA    HL928178  30.049   5.031   4.571
    1XTA   HL1028179  29.784   5.044   4.554
    1XTA   HL1128180  29.862   5.053   4.715
    1XTA   HL1228181  29.718   5.217   4.728
    1XTA   HL1328182  29.723   5.272   4.570
    1XTA   HL1428183  29.936   5.305   4.783
    1XTA   HL1528184  29.951   5.393   4.635
    1XTA   HL1628185  29.867   5.512   4.930
    1XTA   HL1728186  29.956   5.583   4.785
    1XTA   HL1828187  29.598   5.759   4.961
    1XTA   HL1928188  29.706   5.677   5.042
    1XTA   HL2028189  29.526   5.542   4.838
    1XTA   HL2128190  29.503   5.511   5.002
    1XTA   HL2228191  29.645   5.449   4.938
    1XTA   HL2328192  30.896   5.375   3.941
    1XTA   HL2428193  30.884   5.426   4.097
    1XTA   HL2528194  31.125   5.512   3.917
    1XTA   HL2628195  31.084   5.557   4.081
    1XTA   HL2728196  31.255   5.365   4.099
    1XTA   HL2828197  31.106   5.319   4.162
    1XTA   HL2928198  31.038   5.230   3.931
    1XTA   HL3028199  31.204   5.235   3.889
    1XTA   HL3128200  31.265   5.090   4.088
    1XTA   HL3228201  31.093   5.105   4.135
    1XTA   HL3328202  31.192   4.974   3.886
    1XTA   HL3428203  31.143   4.889   4.035
    1XTA   HL3528204  30.973   4.793   3.865
    1XTA   HL3628205  30.978   4.920   3.748
    1XTA   HL3728206  30.720   5.088   3.904
    1XTA   HL3828207  30.619   5.028   3.790
    1XTA   HL3928208  30.756   5.228   3.720
    1XTA   HL4028209  30.783   5.094   3.611
    1XTA   HL4128210  30.904   5.144   3.737
    1XTA    CO828211  29.701   5.704   4.691
    1XTA    CO928212  29.847   5.815   4.845
    1XTA    OA628213  29.643   5.792   4.689
    1XTA   HL4228214  29.638   5.620   4.673
    1XTA   HL4328215  29.784   5.707   4.617
    1XTA   HL4428216  30.739   4.909   4.036
    1XTA   HL4528217  30.609   4.849   3.939
    1XTA   CO1028218  30.716   4.838   3.955
    1XTA   CO1128219  30.739   4.816   3.715
    1XTA    OA728220  30.745   4.732   3.986
    1XTA   HL4628221  30.608   4.819   3.685
    1XTA   HL4728222  30.739   4.713   3.741
    1XTA   HL4828223  29.947   5.804   4.938
    1XTA   HL4928224  29.892   5.836   4.742
    1XTA     NT28225  26.020   5.663   4.861
    1XTA    CN128226  25.899   5.669   4.802
    1XTA     C128227  25.891   5.658   4.667
    1XTA     C228228  25.763   5.653   4.608
    1XTA     C328229  25.645   5.675   4.693
    1XTA     C428230  25.662   5.696   4.833
    1XTA     C528231  25.791   5.693   4.886
    1XTA    CN228232  26.094   5.777   4.880
    1XTA     C628233  26.229   5.757   4.868
    1XTA     C728234  26.327   5.861   4.886
    1XTA     C828235  26.276   5.995   4.905
    1XTA     C928236  26.138   6.017   4.902
    1XTA    C1028237  26.046   5.909   4.886
    1XTA    CN328238  26.061   5.551   4.929
    1XTA    C1128239  26.116   5.438   4.856
    1XTA    C1228240  26.170   5.325   4.919
    1XTA    C1328241  26.161   5.313   5.061
    1XTA    C1428242  26.086   5.418   5.127
    1XTA    C1528243  26.043   5.535   5.066
    1XTA     H128244  25.976   5.642   4.601
    1XTA     H228245  25.747   5.638   4.499
    1XTA     H328246  25.572   5.710   4.897
    1XTA     H428247  25.799   5.696   4.991
    1XTA     H528248  26.256   5.657   4.848
    1XTA     H628249  26.430   5.843   4.865
    1XTA     H728250  26.089   6.114   4.915
    1XTA     H828251  25.942   5.931   4.877
    1XTA     H928252  26.135   5.453   4.757
    1XTA    H1028253  26.226   5.258   4.856
    1XTA    H1128254  26.049   5.413   5.225
    1XTA    H1228255  25.978   5.606   5.117
    1XTA    OA128256  25.520   5.664   4.631
    1XTA    CO128257  25.412   5.656   4.719
    1XTA    OA228258  26.373   6.098   4.903
    1XTA    CO228259  26.318   6.232   4.895
    1XTA    CL128260  26.433   6.332   4.898
    1XTA    CL228261  26.506   6.330   5.030
    1XTA    CL328262  26.614   6.436   5.030
    1XTA    CL428263  26.700   6.438   5.159
    1XTA    CO328264  26.773   6.569   5.189
    1XTA    OA328265  26.831   6.626   5.074
    1XTA    CO428266  26.934   6.716   5.113
    1XTA    CT128267  27.042   6.721   5.005
    1XTA    CL528268  27.145   6.829   5.048
    1XTA    CL628269  27.090   6.971   5.086
    1XTA    OA428270  26.204   5.201   5.131
    1XTA    CO528271  26.331   5.150   5.102
    1XTA    CL728272  26.316   5.032   5.011
    1XTA    CL828273  26.261   4.905   5.081
    1XTA    CL928274  26.213   4.794   4.989
    1XTA   CL1028275  26.157   4.670   5.060
    1XTA    CO628276  26.021   4.704   5.130
    1XTA    OA528277  25.979   4.592   5.205
    1XTA    CO728278  26.058   4.577   5.326
    1XTA    CT228279  25.979   4.597   5.462
    1XTA   CL1128280  25.860   4.498   5.473
    1XTA   CL1228281  25.896   4.354   5.493
    1XTA    HL128282  25.413   5.577   4.793
    1XTA    HL228283  25.411   5.755   4.773
    1XTA    HL328284  25.317   5.643   4.661
    1XTA    HL428285  26.262   6.243   4.796
    1XTA    HL528286  26.253   6.249   4.981
    1XTA    HL628287  26.380   6.423   4.895
    1XTA    HL728288  26.497   6.308   4.809
    1XTA    HL828289  26.564   6.239   5.042
    1XTA    HL928290  26.442   6.345   5.118
    1XTA   HL1028291  26.686   6.410   4.955
    1XTA   HL1128292  26.564   6.530   4.998
    1XTA   HL1228293  26.771   6.360   5.139
    1XTA   HL1328294  26.643   6.399   5.241
    1XTA   HL1428295  26.700   6.646   5.228
    1XTA   HL1528296  26.845   6.561   5.267
    1XTA   HL1628297  26.882   6.812   5.114
    1XTA   HL1728298  26.977   6.704   5.214
    1XTA   HL1828299  27.217   6.840   4.968
    1XTA   HL1928300  27.206   6.798   5.132
    1XTA   HL2028301  27.179   7.022   5.112
    1XTA   HL2128302  27.027   6.969   5.168
    1XTA   HL2228303  27.039   7.017   5.004
    1XTA   HL2328304  26.376   5.132   5.202
    1XTA   HL2428305  26.392   5.234   5.055
    1XTA   HL2528306  26.250   5.052   4.929
    1XTA   HL2628307  26.412   5.014   4.974
    1XTA   HL2728308  26.322   4.862   5.153
    1XTA   HL2828309  26.172   4.936   5.130
    1XTA   HL2928310  26.124   4.826   4.931
    1XTA   HL3028311  26.299   4.763   4.932
    1XTA   HL3128312  26.136   4.597   4.978
    1XTA   HL3228313  26.236   4.630   5.126
    1XTA   HL3328314  26.016   4.793   5.200
    1XTA   HL3428315  25.945   4.721   5.050
    1XTA   HL3528316  26.148   4.634   5.319
    1XTA   HL3628317  26.090   4.475   5.322
    1XTA   HL3728318  25.799   4.498   5.379
    1XTA   HL3828319  25.799   4.526   5.564
    1XTA   HL3928320  25.968   4.328   5.415
    1XTA   HL4028321  25.811   4.293   5.466
    1XTA   HL4128322  25.933   4.332   5.598
    1XTA    CO828323  26.983   6.738   4.859
    1XTA    CO928324  27.125   6.588   5.010
    1XTA    OA628325  26.913   6.867   4.841
    1XTA   HL4228326  26.918   6.654   4.837
    1XTA   HL4328327  27.062   6.715   4.790
    1XTA   HL4428328  25.909   4.783   5.384
    1XTA   HL4528329  25.828   4.742   5.539
    1XTA   CO1028330  25.925   4.745   5.486
    1XTA   CO1128331  26.071   4.566   5.585
    1XTA    OA728332  26.012   4.595   5.714
    1XTA   HL4628333  26.109   4.469   5.580
    1XTA   HL4728334  26.168   4.619   5.582
    1XTA   HL4828335  27.164   6.568   5.109
    1XTA   HL4928336  27.220   6.616   4.963
    1XTA     NT28337  29.119   5.038   6.633
    1XTA    CN128338  29.065   4.939   6.705
    1XTA     C128339  29.146   4.871   6.801
    1XTA     C228340  29.100   4.763   6.876
    1XTA     C328341  28.966   4.722   6.859
    1XTA     C428342  28.884   4.796   6.773
    1XTA     C528343  28.930   4.907   6.698
    1XTA    CN228344  29.194   4.998   6.534
    1XTA     C628345  29.137   4.942   6.423
    1XTA     C728346  29.211   4.906   6.307
    1XTA     C828347  29.353   4.914   6.306
    1XTA     C928348  29.412   4.958   6.430
    1XTA    C1028349  29.330   5.004   6.542
    1XTA    CN328350  29.098   5.163   6.664
    1XTA    C1128351  29.169   5.216   6.767
    1XTA    C1228352  29.143   5.350   6.809
    1XTA    C1328353  29.058   5.433   6.721
    1XTA    C1428354  29.000   5.377   6.606
    1XTA    C1528355  29.011   5.238   6.583
    1XTA     H128356  29.243   4.910   6.822
    1XTA     H228357  29.161   4.704   6.939
    1XTA     H328358  28.782   4.762   6.767
    1XTA     H428359  28.862   4.974   6.638
    1XTA     H528360  29.027   4.922   6.416
    1XTA     H628361  29.168   4.871   6.215
    1XTA     H728362  29.512   4.985   6.439
    1XTA     H828363  29.383   5.031   6.627
    1XTA     H928364  29.233   5.156   6.830
    1XTA    H1028365  29.198   5.403   6.879
    1XTA    H1128366  28.936   5.432   6.541
    1XTA    H1228367  28.958   5.193   6.499
    1XTA    OA128368  28.911   4.605   6.915
    1XTA    CO128369  28.881   4.619   7.054
    1XTA    OA228370  29.427   4.896   6.192
    1XTA    CO228371  29.568   4.905   6.206
    1XTA    CL128372  29.629   4.922   6.065
    1XTA    CL228373  29.596   5.048   5.990
    1XTA    CL328374  29.638   5.034   5.843
    1XTA    CL428375  29.616   5.177   5.778
    1XTA    CO328376  29.652   5.160   5.633
    1XTA    OA328377  29.651   5.288   5.573
    1XTA    CO428378  29.679   5.269   5.439
    1XTA    CT128379  29.710   5.401   5.368
    1XTA    CL528380  29.720   5.389   5.215
    1XTA    CL628381  29.805   5.276   5.173
    1XTA    OA428382  29.041   5.570   6.749
    1XTA    CO528383  28.939   5.635   6.678
    1XTA    CL728384  28.956   5.791   6.709
    1XTA    CL828385  29.071   5.859   6.631
    1XTA    CL928386  29.099   6.005   6.682
    1XTA   CL1028387  29.198   6.078   6.596
    1XTA    CO628388  29.181   6.232   6.611
    1XTA    OA528389  29.244   6.293   6.505
    1XTA    CO728390  29.160   6.325   6.395
    1XTA    CT228391  29.246   6.363   6.271
    1XTA   CL1128392  29.347   6.242   6.246
    1XTA   CL1228393  29.445   6.266   6.139
    1XTA    HL128394  28.802   4.690   7.065
    1XTA    HL228395  28.855   4.526   7.107
    1XTA    HL328396  28.962   4.653   7.111
    1XTA    HL428397  29.609   4.995   6.254
    1XTA    HL528398  29.602   4.812   6.238
    1XTA    HL628399  29.591   4.835   6.016
    1XTA    HL728400  29.729   4.920   6.088
    1XTA    HL828401  29.654   5.136   6.027
    1XTA    HL928402  29.483   5.064   5.993
    1XTA   HL1028403  29.742   5.008   5.842
    1XTA   HL1128404  29.579   4.963   5.785
    1XTA   HL1228405  29.686   5.242   5.830
    1XTA   HL1328406  29.513   5.203   5.789
    1XTA   HL1428407  29.755   5.116   5.627
    1XTA   HL1528408  29.582   5.098   5.585
    1XTA   HL1628409  29.769   5.206   5.441
    1XTA   HL1728410  29.597   5.222   5.390
    1XTA   HL1828411  29.758   5.475   5.168
    1XTA   HL1928412  29.614   5.371   5.172
    1XTA   HL2028413  29.906   5.292   5.212
    1XTA   HL2128414  29.799   5.276   5.071
    1XTA   HL2228415  29.765   5.184   5.205
    1XTA   HL2328416  28.838   5.599   6.709
    1XTA   HL2428417  28.959   5.619   6.577
    1XTA   HL2528418  28.859   5.832   6.674
    1XTA   HL2628419  28.965   5.813   6.813
    1XTA   HL2728420  29.156   5.794   6.644
    1XTA   HL2828421  29.047   5.854   6.527
    1XTA   HL2928422  29.002   6.051   6.678
    1XTA   HL3028423  29.127   6.009   6.784
    1XTA   HL3128424  29.294   6.046   6.628
    1XTA   HL3228425  29.202   6.059   6.491
    1XTA   HL3328426  29.078   6.257   6.608
    1XTA   HL3428427  29.226   6.274   6.702
    1XTA   HL3528428  29.097   6.414   6.413
    1XTA   HL3628429  29.098   6.237   6.382
    1XTA   HL3728430  29.285   6.156   6.244
    1XTA   HL3828431  29.408   6.230   6.337
    1XTA   HL3928432  29.407   6.285   6.036
    1XTA   HL4028433  29.511   6.180   6.138
    1XTA   HL4128434  29.513   6.347   6.173
    1XTA    CO828435  29.842   5.446   5.430
    1XTA    CO928436  29.590   5.491   5.399
    1XTA    OA628437  29.913   5.549   5.361
    1XTA   HL4228438  29.905   5.356   5.421
    1XTA   HL4328439  29.839   5.476   5.530
    1XTA   HL4428440  29.403   6.473   6.374
    1XTA   HL4528441  29.369   6.516   6.192
    1XTA   CO1028442  29.323   6.495   6.293
    1XTA   CO1128443  29.144   6.392   6.155
    1XTA    OA728444  29.243   6.597   6.342
    1XTA   HL4628445  29.190   6.345   6.067
    1XTA   HL4728446  29.142   6.504   6.150
    1XTA   HL4828447  29.595   5.589   5.342
    1XTA   HL4928448  29.593   5.528   5.505
    1XTA     NT28449  23.981   5.940   3.741
    1XTA    CN128450  23.931   6.044   3.817
    1XTA     C128451  23.972   6.181   3.795
    1XTA     C228452  23.915   6.279   3.877
    1XTA     C328453  23.832   6.260   3.985
    1XTA     C428454  23.776   6.124   3.995
    1XTA     C528455  23.833   6.018   3.914
    1XTA    CN228456  24.113   5.914   3.747
    1XTA     C628457  24.184   5.894   3.622
    1XTA     C728458  24.321   5.869   3.625
    1XTA     C828459  24.391   5.878   3.751
    1XTA     C928460  24.323   5.906   3.867
    1XTA    C1028461  24.183   5.923   3.869
    1XTA    CN328462  23.908   5.893   3.641
    1XTA    C1128463  23.858   5.987   3.545
    1XTA    C1228464  23.788   5.938   3.433
    1XTA    C1328465  23.756   5.801   3.421
    1XTA    C1428466  23.808   5.710   3.522
    1XTA    C1528467  23.883   5.755   3.629
    1XTA     H128468  24.025   6.206   3.712
    1XTA     H228469  23.951   6.385   3.861
    1XTA     H328470  23.708   6.109   4.071
    1XTA     H428471  23.814   5.910   3.931
    1XTA     H528472  24.128   5.872   3.532
    1XTA     H628473  24.383   5.852   3.536
    1XTA     H728474  24.372   5.905   3.963
    1XTA     H828475  24.127   5.938   3.961
    1XTA     H928476  23.855   6.092   3.578
    1XTA    H1028477  23.745   6.021   3.371
    1XTA    H1128478  23.790   5.603   3.509
    1XTA    H1228479  23.923   5.694   3.702
    1XTA    OA128480  23.796   6.373   4.050
    1XTA    CO128481  23.701   6.356   4.148
    1XTA    OA228482  24.531   5.873   3.747
    1XTA    CO228483  24.584   5.768   3.823
    1XTA    CL128484  24.735   5.791   3.861
    1XTA    CL228485  24.750   5.898   3.970
    1XTA    CL328486  24.727   5.862   4.118
    1XTA    CL428487  24.584   5.863   4.175
    1XTA    CO328488  24.530   6.002   4.190
    1XTA    OA328489  24.534   6.079   4.066
    1XTA    CO428490  24.518   6.218   4.085
    1XTA    CT128491  24.554   6.299   3.959
    1XTA    CL528492  24.490   6.237   3.828
    1XTA    CL628493  24.342   6.239   3.828
    1XTA    OA428494  23.684   5.760   3.305
    1XTA    CO528495  23.646   5.622   3.297
    1XTA    CL728496  23.609   5.588   3.150
    1XTA    CL828497  23.568   5.446   3.117
    1XTA    CL928498  23.674   5.333   3.135
    1XTA   CL1028499  23.601   5.189   3.119
    1XTA    CO628500  23.697   5.071   3.088
    1XTA    OA528501  23.786   5.052   3.197
    1XTA    CO728502  23.743   4.960   3.298
    1XTA    CT228503  23.797   5.009   3.431
    1XTA   CL1128504  23.772   4.893   3.523
    1XTA   CL1228505  23.640   4.867   3.579
    1XTA    HL128506  23.692   6.451   4.193
    1XTA    HL228507  23.604   6.321   4.103
    1XTA    HL328508  23.740   6.284   4.222
    1XTA    HL428509  24.527   5.745   3.911
    1XTA    HL528510  24.565   5.681   3.770
    1XTA    HL628511  24.788   5.822   3.776
    1XTA    HL728512  24.769   5.698   3.899
    1XTA    HL828513  24.685   5.980   3.951
    1XTA    HL928514  24.851   5.938   3.943
    1XTA   HL1028515  24.760   5.758   4.135
    1XTA   HL1128516  24.797   5.919   4.178
    1XTA   HL1228517  24.584   5.817   4.274
    1XTA   HL1328518  24.516   5.815   4.111
    1XTA   HL1428519  24.439   5.995   4.240
    1XTA   HL1528520  24.602   6.046   4.262
    1XTA   HL1628521  24.421   6.239   4.123
    1XTA   HL1728522  24.583   6.242   4.170
    1XTA   HL1828523  24.529   6.144   3.807
    1XTA   HL1928524  24.531   6.298   3.745
    1XTA   HL2028525  24.307   6.180   3.915
    1XTA   HL2128526  24.306   6.188   3.736
    1XTA   HL2228527  24.289   6.336   3.839
    1XTA   HL2328528  23.565   5.608   3.367
    1XTA   HL2428529  23.723   5.551   3.318
    1XTA   HL2528530  23.525   5.656   3.116
    1XTA   HL2628531  23.703   5.625   3.103
    1XTA   HL2728532  23.476   5.420   3.178
    1XTA   HL2828533  23.544   5.447   3.012
    1XTA   HL2928534  23.755   5.349   3.069
    1XTA   HL3028535  23.732   5.330   3.228
    1XTA   HL3128536  23.547   5.167   3.209
    1XTA   HL3228537  23.517   5.195   3.047
    1XTA   HL3328538  23.654   4.981   3.051
    1XTA   HL3428539  23.767   5.096   3.002
    1XTA   HL3528540  23.776   4.863   3.266
    1XTA   HL3628541  23.629   4.962   3.304
    1XTA   HL3728542  23.840   4.893   3.605
    1XTA   HL3828543  23.811   4.807   3.470
    1XTA   HL3928544  23.602   4.953   3.635
    1XTA   HL4028545  23.655   4.795   3.664
    1XTA   HL4128546  23.562   4.830   3.516
    1XTA    CO828547  24.711   6.300   3.951
    1XTA    CO928548  24.504   6.441   3.987
    1XTA    OA628549  24.525   6.516   3.869
    1XTA   HL4228550  24.726   6.203   3.903
    1XTA   HL4328551  24.719   6.384   3.870
    1XTA   HL4428552  23.758   5.216   3.406
    1XTA   HL4528553  23.790   5.175   3.589
    1XTA   CO1028554  23.729   5.139   3.473
    1XTA   CO1128555  23.951   5.041   3.409
    1XTA    OA728556  23.990   5.034   3.513
    1XTA   HL4628557  23.994   4.970   3.343
    1XTA   HL4728558  23.955   5.144   3.370
    1XTA   HL4828559  24.568   6.485   4.070
    1XTA   HL4928560  24.400   6.436   4.018
    1XTA     NT28561  29.415  -0.734   6.698
    1XTA    CN128562  29.470  -0.631   6.638
    1XTA     C128563  29.590  -0.642   6.568
    1XTA     C228564  29.635  -0.538   6.489
    1XTA     C328565  29.564  -0.412   6.490
    1XTA     C428566  29.451  -0.397   6.573
    1XTA     C528567  29.404  -0.512   6.650
    1XTA    CN228568  29.316  -0.795   6.630
    1XTA     C628569  29.182  -0.779   6.664
    1XTA     C728570  29.088  -0.845   6.584
    1XTA     C828571  29.122  -0.921   6.470
    1XTA     C928572  29.258  -0.935   6.438
    1XTA    C1028573  29.352  -0.873   6.520
    1XTA    CN328574  29.439  -0.767   6.829
    1XTA    C1128575  29.341  -0.737   6.928
    1XTA    C1228576  29.362  -0.767   7.056
    1XTA    C1328577  29.476  -0.846   7.088
    1XTA    C1428578  29.570  -0.878   6.995
    1XTA    C1528579  29.551  -0.842   6.862
    1XTA     H128580  29.645  -0.734   6.567
    1XTA     H228581  29.715  -0.557   6.420
    1XTA     H328582  29.387  -0.311   6.572
    1XTA     H428583  29.307  -0.509   6.705
    1XTA     H528584  29.152  -0.718   6.749
    1XTA     H628585  28.991  -0.837   6.618
    1XTA     H728586  29.289  -0.985   6.352
    1XTA     H828587  29.459  -0.874   6.495
    1XTA     H928588  29.257  -0.672   6.904
    1XTA    H1028589  29.301  -0.740   7.139
    1XTA    H1128590  29.667  -0.935   7.020
    1XTA    H1228591  29.620  -0.865   6.788
    1XTA    OA128592  29.623  -0.313   6.416
    1XTA    CO128593  29.557  -0.189   6.415
    1XTA    OA228594  29.023  -0.977   6.396
    1XTA    CO228595  29.039  -1.111   6.336
    1XTA    CL128596  28.899  -1.173   6.308
    1XTA    CL228597  28.810  -1.084   6.222
    1XTA    CL328598  28.811  -1.092   6.074
    1XTA    CL428599  28.933  -1.039   6.003
    1XTA    CO328600  28.943  -0.894   6.033
    1XTA    OA328601  29.072  -0.853   5.977
    1XTA    CO428602  29.095  -0.715   6.016
    1XTA    CT128603  29.238  -0.680   5.977
    1XTA    CL528604  29.335  -0.733   6.087
    1XTA    CL628605  29.485  -0.673   6.079
    1XTA    OA428606  29.486  -0.884   7.220
    1XTA    CO528607  29.357  -0.929   7.275
    1XTA    CL728608  29.388  -1.023   7.388
    1XTA    CL828609  29.267  -1.079   7.472
    1XTA    CL928610  29.231  -0.986   7.585
    1XTA   CL1028611  29.146  -0.866   7.542
    1XTA    CO628612  29.083  -0.798   7.668
    1XTA    OA528613  29.176  -0.702   7.718
    1XTA    CO728614  29.155  -0.661   7.856
    1XTA    CT228615  29.278  -0.586   7.912
    1XTA   CL1128616  29.386  -0.688   7.949
    1XTA   CL1228617  29.348  -0.802   8.042
    1XTA    HL128618  29.620  -0.120   6.349
    1XTA    HL228619  29.450  -0.210   6.391
    1XTA    HL328620  29.548  -0.161   6.519
    1XTA    HL428621  29.100  -1.102   6.247
    1XTA    HL528622  29.098  -1.182   6.396
    1XTA    HL628623  28.846  -1.189   6.406
    1XTA    HL728624  28.909  -1.276   6.268
    1XTA    HL828625  28.818  -0.986   6.261
    1XTA    HL928626  28.713  -1.101   6.253
    1XTA   HL1028627  28.797  -1.199   6.047
    1XTA   HL1128628  28.715  -1.043   6.050
    1XTA   HL1228629  28.913  -1.054   5.903
    1XTA   HL1328630  29.021  -1.102   6.027
    1XTA   HL1428631  28.862  -0.832   5.990
    1XTA   HL1528632  28.937  -0.877   6.133
    1XTA   HL1628633  29.027  -0.655   5.964
    1XTA   HL1728634  29.090  -0.699   6.119
    1XTA   HL1828635  29.340  -0.846   6.091
    1XTA   HL1928636  29.300  -0.692   6.184
    1XTA   HL2028637  29.533  -0.673   5.981
    1XTA   HL2128638  29.554  -0.728   6.143
    1XTA   HL2228639  29.482  -0.569   6.112
    1XTA   HL2328640  29.307  -0.991   7.198
    1XTA   HL2428641  29.295  -0.848   7.308
    1XTA   HL2528642  29.456  -1.101   7.349
    1XTA   HL2628643  29.445  -0.962   7.460
    1XTA   HL2728644  29.177  -1.099   7.417
    1XTA   HL2828645  29.295  -1.181   7.511
    1XTA   HL2928646  29.175  -1.042   7.655
    1XTA   HL3028647  29.314  -0.959   7.659
    1XTA   HL3128648  29.211  -0.801   7.483
    1XTA   HL3228649  29.068  -0.900   7.477
    1XTA   HL3328650  28.990  -0.745   7.640
    1XTA   HL3428651  29.054  -0.867   7.751
    1XTA   HL3528652  29.126  -0.740   7.922
    1XTA   HL3628653  29.078  -0.581   7.853
    1XTA   HL3728654  29.470  -0.634   7.983
    1XTA   HL3828655  29.419  -0.727   7.852
    1XTA   HL3928656  29.282  -0.871   7.994
    1XTA   HL4028657  29.310  -0.775   8.140
    1XTA   HL4128658  29.436  -0.864   8.050
    1XTA    CO828659  29.245  -0.529   5.975
    1XTA    CO928660  29.282  -0.734   5.837
    1XTA    OA628661  29.270  -0.875   5.818
    1XTA   HL4228662  29.348  -0.499   5.957
    1XTA   HL4328663  29.172  -0.509   5.893
    1XTA   HL4428664  29.220  -0.582   8.118
    1XTA   HL4528665  29.330  -0.449   8.083
    1XTA   CO1028666  29.249  -0.510   8.045
    1XTA   CO1128667  29.320  -0.476   7.807
    1XTA    OA728668  29.164  -0.442   8.025
    1XTA   HL4628669  29.384  -0.543   7.699
    1XTA   HL4728670  29.229  -0.433   7.765
    1XTA   HL4828671  29.388  -0.703   5.818
    1XTA   HL4928672  29.222  -0.681   5.760
    1XTA     NT28673  29.663  -1.744  -1.047
    1XTA    CN128674  29.635  -1.732  -1.174
    1XTA     C128675  29.532  -1.805  -1.241
    1XTA     C228676  29.512  -1.785  -1.377
    1XTA     C328677  29.581  -1.683  -1.448
    1XTA     C428678  29.679  -1.607  -1.385
    1XTA     C528679  29.712  -1.640  -1.251
    1XTA    CN228680  29.748  -1.845  -1.010
    1XTA     C628681  29.750  -1.971  -1.078
    1XTA     C728682  29.833  -2.075  -1.034
    1XTA     C828683  29.904  -2.065  -0.911
    1XTA     C928684  29.911  -1.942  -0.851
    1XTA    C1028685  29.829  -1.836  -0.892
    1XTA    CN328686  29.580  -1.690  -0.959
    1XTA    C1128687  29.589  -1.552  -0.931
    1XTA    C1228688  29.499  -1.486  -0.843
    1XTA    C1328689  29.398  -1.561  -0.778
    1XTA    C1428690  29.398  -1.703  -0.803
    1XTA    C1528691  29.487  -1.769  -0.892
    1XTA     H128692  29.476  -1.886  -1.191
    1XTA     H228693  29.434  -1.837  -1.433
    1XTA     H328694  29.723  -1.519  -1.427
    1XTA     H428695  29.783  -1.575  -1.199
    1XTA     H528696  29.695  -1.998  -1.162
    1XTA     H628697  29.836  -2.165  -1.089
    1XTA     H728698  29.976  -1.924  -0.767
    1XTA     H828699  29.820  -1.749  -0.829
    1XTA     H928700  29.660  -1.495  -0.994
    1XTA    H1028701  29.495  -1.381  -0.836
    1XTA    H1128702  29.336  -1.774  -0.747
    1XTA    H1228703  29.480  -1.876  -0.915
    1XTA    OA128704  29.551  -1.653  -1.579
    1XTA    CO128705  29.663  -1.619  -1.665
    1XTA    OA228706  29.976  -2.167  -0.850
    1XTA    CO228707  29.908  -2.294  -0.861
    1XTA    CL128708  30.008  -2.409  -0.858
    1XTA    CL228709  30.029  -2.449  -0.710
    1XTA    CL328710  30.150  -2.545  -0.711
    1XTA    CL428711  30.169  -2.625  -0.581
    1XTA    CO328712  30.298  -2.696  -0.579
    1XTA    OA328713  30.406  -2.619  -0.542
    1XTA    CO428714  30.529  -2.686  -0.559
    1XTA    CT128715  30.648  -2.607  -0.510
    1XTA    CL528716  30.769  -2.699  -0.564
    1XTA    CL628717  30.913  -2.642  -0.525
    1XTA    OA428718  29.307  -1.492  -0.705
    1XTA    CO528719  29.191  -1.566  -0.659
    1XTA    CL728720  29.225  -1.628  -0.524
    1XTA    CL828721  29.179  -1.772  -0.490
    1XTA    CL928722  29.031  -1.789  -0.466
    1XTA   CL1028723  28.995  -1.934  -0.433
    1XTA    CO628724  29.042  -1.993  -0.297
    1XTA    OA528725  29.173  -2.046  -0.304
    1XTA    CO728726  29.215  -2.099  -0.180
    1XTA    CT228727  29.359  -2.156  -0.195
    1XTA   CL1128728  29.343  -2.274  -0.301
    1XTA   CL1228729  29.338  -2.245  -0.453
    1XTA    HL128730  29.726  -1.700  -1.682
    1XTA    HL228731  29.632  -1.582  -1.764
    1XTA    HL328732  29.720  -1.535  -1.626
    1XTA    HL428733  29.839  -2.312  -0.784
    1XTA    HL528734  29.853  -2.311  -0.956
    1XTA    HL628735  30.100  -2.376  -0.897
    1XTA    HL728736  29.979  -2.501  -0.909
    1XTA    HL828737  29.939  -2.489  -0.669
    1XTA    HL928738  30.056  -2.363  -0.640
    1XTA   HL1028739  30.128  -2.616  -0.790
    1XTA   HL1128740  30.243  -2.494  -0.744
    1XTA   HL1228741  30.080  -2.689  -0.590
    1XTA   HL1328742  30.156  -2.557  -0.489
    1XTA   HL1428743  30.295  -2.786  -0.507
    1XTA   HL1528744  30.328  -2.758  -0.666
    1XTA   HL1628745  30.533  -2.784  -0.508
    1XTA   HL1728746  30.549  -2.706  -0.662
    1XTA   HL1828747  30.763  -2.701  -0.670
    1XTA   HL1928748  30.762  -2.801  -0.520
    1XTA   HL2028749  30.992  -2.718  -0.555
    1XTA   HL2128750  30.911  -2.644  -0.414
    1XTA   HL2228751  30.938  -2.546  -0.566
    1XTA   HL2328752  29.145  -1.637  -0.732
    1XTA   HL2428753  29.115  -1.491  -0.649
    1XTA   HL2528754  29.330  -1.628  -0.503
    1XTA   HL2628755  29.175  -1.567  -0.446
    1XTA   HL2728756  29.224  -1.832  -0.567
    1XTA   HL2828757  29.228  -1.808  -0.400
    1XTA   HL2928758  28.991  -1.731  -0.383
    1XTA   HL3028759  28.965  -1.753  -0.553
    1XTA   HL3128760  28.896  -1.965  -0.469
    1XTA   HL3228761  29.049  -1.984  -0.514
    1XTA   HL3328762  29.036  -1.918  -0.219
    1XTA   HL3428763  28.970  -2.078  -0.294
    1XTA   HL3528764  29.147  -2.175  -0.159
    1XTA   HL3628765  29.208  -2.020  -0.101
    1XTA   HL3728766  29.264  -2.348  -0.272
    1XTA   HL3828767  29.434  -2.330  -0.284
    1XTA   HL3928768  29.348  -2.338  -0.507
    1XTA   HL4028769  29.432  -2.196  -0.483
    1XTA   HL4128770  29.251  -2.196  -0.494
    1XTA    CO828771  30.637  -2.601  -0.357
    1XTA    CO928772  30.655  -2.465  -0.569
    1XTA    OA628773  30.572  -2.409  -0.524
    1XTA   HL4228774  30.709  -2.536  -0.313
    1XTA   HL4328775  30.511  -2.534  -0.328
    1XTA   HL4428776  29.522  -2.233  -0.089
    1XTA   HL4528777  29.423  -2.117   0.010
    1XTA   CO1028778  29.426  -2.199  -0.059
    1XTA   CO1128779  29.448  -2.051  -0.252
    1XTA    OA728780  29.367  -2.278  -0.014
    1XTA   HL4628781  29.577  -2.094  -0.261
    1XTA   HL4728782  29.414  -2.024  -0.355
    1XTA   HL4828783  30.646  -2.481  -0.681
    1XTA   HL4928784  30.749  -2.419  -0.547
    1XTA     NT28785  32.525   5.614   1.314
    1XTA    CN128786  32.613   5.587   1.207
    1XTA     C128787  32.606   5.471   1.127
    1XTA     C228788  32.711   5.446   1.040
    1XTA     C328789  32.814   5.538   1.013
    1XTA     C428790  32.814   5.660   1.079
    1XTA     C528791  32.714   5.682   1.181
    1XTA    CN228792  32.571   5.585   1.435
    1XTA     C628793  32.536   5.479   1.513
    1XTA     C728794  32.590   5.453   1.640
    1XTA     C828795  32.683   5.545   1.691
    1XTA     C928796  32.723   5.650   1.606
    1XTA    C1028797  32.658   5.680   1.490
    1XTA    CN328798  32.398   5.641   1.297
    1XTA    C1128799  32.352   5.776   1.298
    1XTA    C1228800  32.218   5.804   1.272
    1XTA    C1328801  32.123   5.701   1.265
    1XTA    C1428802  32.166   5.566   1.267
    1XTA    C1528803  32.299   5.536   1.274
    1XTA     H128804  32.527   5.397   1.135
    1XTA     H228805  32.726   5.345   1.007
    1XTA     H328806  32.889   5.734   1.062
    1XTA     H428807  32.717   5.773   1.235
    1XTA     H528808  32.451   5.414   1.487
    1XTA     H628809  32.551   5.364   1.688
    1XTA     H728810  32.802   5.712   1.646
    1XTA     H828811  32.693   5.765   1.437
    1XTA     H928812  32.419   5.858   1.307
    1XTA    H1028813  32.182   5.906   1.266
    1XTA    H1128814  32.093   5.485   1.258
    1XTA    H1228815  32.327   5.426   1.269
    1XTA    OA128816  32.927   5.524   0.932
    1XTA    CO128817  32.965   5.389   0.908
    1XTA    OA228818  32.759   5.520   1.806
    1XTA    CO228819  32.761   5.382   1.838
    1XTA    CL128820  32.864   5.339   1.952
    1XTA    CL228821  32.851   5.183   1.968
    1XTA    CL328822  32.963   5.115   2.055
    1XTA    CL428823  32.943   5.122   2.205
    1XTA    CO328824  32.852   5.016   2.265
    1XTA    OA328825  32.842   5.035   2.405
    1XTA    CO428826  32.748   4.967   2.472
    1XTA    CT128827  32.695   5.051   2.588
    1XTA    CL528828  32.803   5.085   2.687
    1XTA    CL628829  32.860   4.969   2.770
    1XTA    OA428830  31.994   5.731   1.273
    1XTA    CO528831  31.903   5.632   1.247
    1XTA    CL728832  31.762   5.692   1.237
    1XTA    CL828833  31.662   5.587   1.190
    1XTA    CL928834  31.669   5.447   1.250
    1XTA   CL1028835  31.620   5.440   1.396
    1XTA    CO628836  31.639   5.305   1.463
    1XTA    OA528837  31.560   5.202   1.395
    1XTA    CO728838  31.583   5.076   1.460
    1XTA    CT228839  31.541   4.965   1.369
    1XTA   CL1128840  31.396   4.992   1.343
    1XTA   CL1228841  31.314   4.874   1.292
    1XTA    HL128842  33.057   5.404   0.849
    1XTA    HL228843  32.965   5.326   1.000
    1XTA    HL328844  32.891   5.354   0.833
    1XTA    HL428845  32.660   5.349   1.857
    1XTA    HL528846  32.793   5.327   1.751
    1XTA    HL628847  32.847   5.392   2.041
    1XTA    HL728848  32.964   5.361   1.919
    1XTA    HL828849  32.855   5.135   1.868
    1XTA    HL928850  32.754   5.162   2.010
    1XTA   HL1028851  32.980   5.013   2.032
    1XTA   HL1128852  33.057   5.167   2.016
    1XTA   HL1228853  32.918   5.225   2.233
    1XTA   HL1328854  33.039   5.087   2.252
    1XTA   HL1428855  32.747   5.021   2.219
    1XTA   HL1528856  32.895   4.918   2.242
    1XTA   HL1628857  32.667   4.941   2.401
    1XTA   HL1728858  32.793   4.874   2.500
    1XTA   HL1828859  32.755   5.155   2.753
    1XTA   HL1928860  32.881   5.145   2.642
    1XTA   HL2028861  32.775   4.899   2.804
    1XTA   HL2128862  32.911   5.012   2.855
    1XTA   HL2228863  32.919   4.899   2.705
    1XTA   HL2328864  31.907   5.550   1.318
    1XTA   HL2428865  31.927   5.588   1.153
    1XTA   HL2528866  31.731   5.714   1.339
    1XTA   HL2628867  31.753   5.782   1.185
    1XTA   HL2728868  31.562   5.633   1.217
    1XTA   HL2828869  31.674   5.580   1.082
    1XTA   HL2928870  31.608   5.383   1.188
    1XTA   HL3028871  31.763   5.394   1.235
    1XTA   HL3128872  31.653   5.511   1.468
    1XTA   HL3228873  31.512   5.460   1.392
    1XTA   HL3328874  31.745   5.283   1.470
    1XTA   HL3428875  31.590   5.308   1.562
    1XTA   HL3528876  31.525   5.065   1.552
    1XTA   HL3628877  31.684   5.063   1.491
    1XTA   HL3728878  31.401   5.064   1.260
    1XTA   HL3828879  31.349   5.043   1.418
    1XTA   HL3928880  31.358   4.847   1.205
    1XTA   HL4028881  31.211   4.895   1.262
    1XTA   HL4128882  31.332   4.789   1.360
    1XTA    CO828883  32.584   4.971   2.646
    1XTA    CO928884  32.630   5.175   2.535
    1XTA    OA628885  32.484   4.956   2.544
    1XTA   HL4228886  32.560   5.019   2.732
    1XTA   HL4328887  32.622   4.869   2.668
    1XTA   HL4428888  31.519   4.720   1.357
    1XTA   HL4528889  31.477   4.814   1.516
    1XTA   CO1028890  31.556   4.832   1.440
    1XTA   CO1128891  31.637   4.941   1.250
    1XTA    OA728892  31.612   5.024   1.172
    1XTA   HL4628893  31.739   4.949   1.276
    1XTA   HL4728894  31.618   4.844   1.203
    1XTA   HL4828895  32.606   5.154   2.433
    1XTA   HL4928896  32.550   5.212   2.596
    1XTA     NT28897  27.554  -0.499   0.747
    1XTA    CN128898  27.484  -0.544   0.642
    1XTA     C128899  27.543  -0.549   0.516
    1XTA     C228900  27.465  -0.597   0.406
    1XTA     C328901  27.335  -0.644   0.420
    1XTA     C428902  27.283  -0.650   0.553
    1XTA     C528903  27.359  -0.599   0.661
    1XTA    CN228904  27.525  -0.383   0.810
    1XTA     C628905  27.503  -0.390   0.949
    1XTA     C728906  27.495  -0.268   1.021
    1XTA     C828907  27.514  -0.139   0.965
    1XTA     C928908  27.544  -0.135   0.822
    1XTA    C1028909  27.552  -0.253   0.750
    1XTA    CN328910  27.668  -0.566   0.776
    1XTA    C1128911  27.792  -0.522   0.734
    1XTA    C1228912  27.907  -0.601   0.749
    1XTA    C1328913  27.899  -0.729   0.814
    1XTA    C1428914  27.775  -0.769   0.865
    1XTA    C1528915  27.661  -0.689   0.843
    1XTA     H128916  27.652  -0.518   0.504
    1XTA     H228917  27.520  -0.610   0.314
    1XTA     H328918  27.183  -0.687   0.562
    1XTA     H428919  27.314  -0.595   0.759
    1XTA     H528920  27.499  -0.479   1.007
    1XTA     H628921  27.483  -0.275   1.129
    1XTA     H728922  27.552  -0.037   0.778
    1XTA     H828923  27.593  -0.249   0.651
    1XTA     H928924  27.805  -0.434   0.669
    1XTA    H1028925  28.003  -0.558   0.713
    1XTA    H1128926  27.744  -0.864   0.915
    1XTA    H1228927  27.564  -0.734   0.866
    1XTA    OA128928  27.274  -0.693   0.306
    1XTA    CO128929  27.165  -0.771   0.320
    1XTA    OA228930  27.503  -0.033   1.050
    1XTA    CO228931  27.529   0.100   0.996
    1XTA    CL128932  27.405   0.148   0.918
    1XTA    CL228933  27.283   0.192   1.002
    1XTA    CL328934  27.190   0.077   1.033
    1XTA    CL428935  27.097   0.093   1.149
    1XTA    CO328936  26.992  -0.013   1.181
    1XTA    OA328937  26.924   0.023   1.297
    1XTA    CO428938  26.828   0.133   1.274
    1XTA    CT128939  26.749   0.175   1.402
    1XTA    CL528940  26.658   0.296   1.372
    1XTA    CL628941  26.545   0.314   1.473
    1XTA    OA428942  28.009  -0.799   0.824
    1XTA    CO528943  27.982  -0.937   0.852
    1XTA    CL728944  28.106  -1.024   0.836
    1XTA    CL828945  28.206  -1.034   0.948
    1XTA    CL928946  28.315  -0.932   0.980
    1XTA   CL1028947  28.393  -0.876   0.860
    1XTA    CO628948  28.333  -0.759   0.788
    1XTA    OA528949  28.394  -0.752   0.666
    1XTA    CO728950  28.289  -0.741   0.560
    1XTA    CT228951  28.361  -0.700   0.428
    1XTA   CL1128952  28.261  -0.660   0.321
    1XTA   CL1228953  28.179  -0.777   0.262
    1XTA    HL128954  27.193  -0.869   0.355
    1XTA    HL228955  27.078  -0.719   0.362
    1XTA    HL328956  27.133  -0.787   0.218
    1XTA    HL428957  27.562   0.177   1.062
    1XTA    HL528958  27.617   0.098   0.929
    1XTA    HL628959  27.371   0.087   0.834
    1XTA    HL728960  27.443   0.239   0.869
    1XTA    HL828961  27.234   0.273   0.942
    1XTA    HL928962  27.323   0.234   1.091
    1XTA   HL1028963  27.145   0.040   0.938
    1XTA   HL1128964  27.248  -0.004   1.069
    1XTA   HL1228965  27.050   0.190   1.135
    1XTA   HL1328966  27.158   0.103   1.231
    1XTA   HL1428967  26.925  -0.032   1.095
    1XTA   HL1528968  27.047  -0.103   1.208
    1XTA   HL1628969  26.870   0.231   1.231
    1XTA   HL1728970  26.755   0.096   1.201
    1XTA   HL1828971  26.616   0.294   1.274
    1XTA   HL1928972  26.716   0.384   1.365
    1XTA   HL2028973  26.593   0.297   1.573
    1XTA   HL2128974  26.468   0.232   1.476
    1XTA   HL2228975  26.499   0.411   1.470
    1XTA   HL2328976  27.910  -0.968   0.775
    1XTA   HL2428977  27.940  -0.963   0.956
    1XTA   HL2528978  28.071  -1.117   0.796
    1XTA   HL2628979  28.155  -0.972   0.750
    1XTA   HL2728980  28.156  -1.063   1.037
    1XTA   HL2828981  28.260  -1.127   0.914
    1XTA   HL2928982  28.285  -0.839   1.036
    1XTA   HL3028983  28.386  -0.996   1.032
    1XTA   HL3128984  28.486  -0.838   0.887
    1XTA   HL3228985  28.410  -0.957   0.790
    1XTA   HL3328986  28.228  -0.765   0.782
    1XTA   HL3428987  28.361  -0.663   0.828
    1XTA   HL3528988  28.223  -0.660   0.584
    1XTA   HL3628989  28.222  -0.829   0.553
    1XTA   HL3728990  28.317  -0.626   0.241
    1XTA   HL3828991  28.198  -0.590   0.369
    1XTA   HL3928992  28.254  -0.836   0.204
    1XTA   HL4028993  28.091  -0.753   0.194
    1XTA   HL4128994  28.145  -0.844   0.339
    1XTA    CO828995  26.855   0.206   1.513
    1XTA    CO928996  26.661   0.049   1.443
    1XTA    OA628997  26.587   0.039   1.367
    1XTA   HL4228998  26.882   0.099   1.531
    1XTA   HL4328999  26.792   0.241   1.638
    1XTA   HL4429000  28.379  -0.909   0.389
    1XTA   HL4529001  28.547  -0.846   0.476
    1XTA   CO1029002  28.440  -0.822   0.382
    1XTA   CO1129003  28.457  -0.583   0.470
    1XTA    OA729004  28.389  -0.502   0.511
    1XTA   HL4629005  28.521  -0.607   0.551
    1XTA   HL4729006  28.520  -0.559   0.385
    1XTA   HL4829007  26.623   0.066   1.547
    1XTA   HL4929008  26.720  -0.039   1.453
    1XTA     NT29009  30.190  -2.085   3.186
    1XTA    CN129010  30.074  -2.149   3.148
    1XTA     C129011  29.965  -2.073   3.111
    1XTA     C229012  29.838  -2.124   3.091
    1XTA     C329013  29.814  -2.261   3.101
    1XTA     C429014  29.923  -2.343   3.138
    1XTA     C529015  30.052  -2.288   3.164
    1XTA    CN229016  30.222  -2.101   3.314
    1XTA     C629017  30.186  -1.998   3.400
    1XTA     C729018  30.223  -2.011   3.533
    1XTA     C829019  30.300  -2.119   3.576
    1XTA     C929020  30.349  -2.219   3.487
    1XTA    C1029021  30.310  -2.213   3.354
    1XTA    CN329022  30.278  -2.042   3.095
    1XTA    C1129023  30.387  -2.120   3.050
    1XTA    C1229024  30.491  -2.068   2.971
    1XTA    C1329025  30.482  -1.930   2.933
    1XTA    C1429026  30.367  -1.849   2.974
    1XTA    C1529027  30.269  -1.908   3.052
    1XTA     H129028  29.973  -1.966   3.103
    1XTA     H229029  29.762  -2.058   3.065
    1XTA     H329030  29.921  -2.453   3.148
    1XTA     H429031  30.130  -2.340   3.221
    1XTA     H529032  30.140  -1.914   3.359
    1XTA     H629033  30.207  -1.927   3.603
    1XTA     H729034  30.402  -2.310   3.513
    1XTA     H829035  30.339  -2.282   3.279
    1XTA     H929036  30.396  -2.225   3.083
    1XTA    H1029037  30.558  -2.138   2.930
    1XTA    H1129038  30.351  -1.747   2.949
    1XTA    H1229039  30.179  -1.864   3.096
    1XTA    OA129040  29.687  -2.300   3.061
    1XTA    CO129041  29.668  -2.442   3.048
    1XTA    OA229042  30.325  -2.119   3.712
    1XTA    CO229043  30.446  -2.187   3.750
    1XTA    CL129044  30.460  -2.169   3.905
    1XTA    CL229045  30.583  -2.238   3.965
    1XTA    CL329046  30.710  -2.153   3.987
    1XTA    CL429047  30.752  -2.113   3.850
    1XTA    CO329048  30.718  -1.971   3.810
    1XTA    OA329049  30.760  -1.947   3.672
    1XTA    CO429050  30.794  -1.813   3.637
    1XTA    CT129051  30.868  -1.805   3.501
    1XTA    CL529052  30.927  -1.663   3.478
    1XTA    CL629053  31.044  -1.623   3.567
    1XTA    OA429054  30.568  -1.880   2.838
    1XTA    CO529055  30.501  -1.840   2.721
    1XTA    CL729056  30.597  -1.787   2.609
    1XTA    CL829057  30.735  -1.853   2.620
    1XTA    CL929058  30.831  -1.831   2.503
    1XTA   CL1029059  30.969  -1.897   2.512
    1XTA    CO629060  31.041  -1.886   2.380
    1XTA    OA529061  31.161  -1.956   2.380
    1XTA    CO729062  31.274  -1.900   2.442
    1XTA    CT229063  31.372  -2.004   2.502
    1XTA   CL1129064  31.485  -1.924   2.574
    1XTA   CL1229065  31.606  -1.994   2.638
    1XTA    HL129066  29.692  -2.488   3.140
    1XTA    HL229067  29.570  -2.452   3.020
    1XTA    HL329068  29.726  -2.482   2.964
    1XTA    HL429069  30.443  -2.290   3.725
    1XTA    HL529070  30.529  -2.149   3.693
    1XTA    HL629071  30.367  -2.213   3.958
    1XTA    HL729072  30.454  -2.059   3.940
    1XTA    HL829073  30.598  -2.326   3.906
    1XTA    HL929074  30.557  -2.270   4.066
    1XTA   HL1029075  30.675  -2.064   4.037
    1XTA   HL1129076  30.779  -2.209   4.043
    1XTA   HL1229077  30.718  -2.183   3.773
    1XTA   HL1329078  30.864  -2.129   3.855
    1XTA   HL1429079  30.613  -1.968   3.821
    1XTA   HL1529080  30.764  -1.901   3.882
    1XTA   HL1629081  30.707  -1.754   3.624
    1XTA   HL1729082  30.862  -1.775   3.705
    1XTA   HL1829083  30.848  -1.586   3.483
    1XTA   HL1929084  30.949  -1.655   3.372
    1XTA   HL2029085  31.138  -1.663   3.524
    1XTA   HL2129086  31.032  -1.666   3.670
    1XTA   HL2229087  31.062  -1.514   3.574
    1XTA   HL2329088  30.425  -1.765   2.736
    1XTA   HL2429089  30.444  -1.924   2.678
    1XTA   HL2529090  30.556  -1.791   2.512
    1XTA   HL2629091  30.617  -1.683   2.624
    1XTA   HL2729092  30.791  -1.825   2.717
    1XTA   HL2829093  30.709  -1.951   2.649
    1XTA   HL2929094  30.792  -1.860   2.409
    1XTA   HL3029095  30.858  -1.728   2.494
    1XTA   HL3129096  31.029  -1.843   2.589
    1XTA   HL3229097  30.948  -2.004   2.540
    1XTA   HL3329098  30.965  -1.914   2.302
    1XTA   HL3429099  31.059  -1.781   2.358
    1XTA   HL3529100  31.232  -1.856   2.530
    1XTA   HL3629101  31.332  -1.825   2.386
    1XTA   HL3729102  31.432  -1.855   2.641
    1XTA   HL3829103  31.524  -1.856   2.499
    1XTA   HL3929104  31.563  -2.057   2.716
    1XTA   HL4029105  31.673  -1.925   2.691
    1XTA   HL4129106  31.673  -2.049   2.572
    1XTA    CO829107  30.770  -1.844   3.388
    1XTA    CO929108  30.978  -1.912   3.487
    1XTA    OA629109  31.051  -1.909   3.575
    1XTA   HL4229110  30.823  -1.911   3.322
    1XTA   HL4329111  30.668  -1.932   3.439
    1XTA   HL4429112  31.480  -2.030   2.323
    1XTA   HL4529113  31.495  -2.176   2.426
    1XTA   CO1029114  31.424  -2.099   2.392
    1XTA   CO1129115  31.296  -2.089   2.606
    1XTA    OA729116  31.329  -2.156   2.363
    1XTA   HL4629117  31.174  -2.132   2.547
    1XTA   HL4729118  31.353  -2.179   2.634
    1XTA   HL4829119  31.032  -1.900   3.388
    1XTA   HL4929120  30.931  -2.011   3.484
    1XTA     NT29121  27.088  -2.276   5.973
    1XTA    CN129122  27.036  -2.378   6.048
    1XTA     C129123  26.914  -2.362   6.116
    1XTA     C229124  26.852  -2.477   6.176
    1XTA     C329125  26.919  -2.596   6.174
    1XTA     C429126  27.048  -2.608   6.121
    1XTA     C529127  27.108  -2.502   6.057
    1XTA    CN229128  27.219  -2.238   5.997
    1XTA     C629129  27.307  -2.212   5.888
    1XTA     C729130  27.443  -2.201   5.912
    1XTA     C829131  27.499  -2.204   6.037
    1XTA     C929132  27.407  -2.225   6.150
    1XTA    C1029133  27.269  -2.246   6.128
    1XTA    CN329134  27.015  -2.220   5.874
    1XTA    C1129135  26.947  -2.308   5.783
    1XTA    C1229136  26.858  -2.252   5.687
    1XTA    C1329137  26.836  -2.114   5.674
    1XTA    C1429138  26.913  -2.023   5.754
    1XTA    C1529139  27.002  -2.078   5.852
    1XTA     H129140  26.874  -2.263   6.113
    1XTA     H229141  26.767  -2.471   6.235
    1XTA     H329142  27.115  -2.693   6.125
    1XTA     H429143  27.203  -2.525   6.020
    1XTA     H529144  27.268  -2.212   5.791
    1XTA     H629145  27.507  -2.192   5.826
    1XTA     H729146  27.460  -2.238   6.250
    1XTA     H829147  27.196  -2.259   6.205
    1XTA     H929148  26.955  -2.413   5.777
    1XTA    H1029149  26.821  -2.319   5.608
    1XTA    H1129150  26.918  -1.921   5.733
    1XTA    H1229151  27.065  -2.014   5.907
    1XTA    OA129152  26.874  -2.707   6.243
    1XTA    CO129153  26.762  -2.697   6.333
    1XTA    OA229154  27.638  -2.202   6.056
    1XTA    CO229155  27.718  -2.156   5.953
    1XTA    CL129156  27.863  -2.145   5.996
    1XTA    CL229157  27.905  -2.265   6.089
    1XTA    CL329158  27.944  -2.384   5.999
    1XTA    CL429159  28.077  -2.378   5.935
    1XTA    CO329160  28.115  -2.500   5.849
    1XTA    OA329161  28.049  -2.486   5.724
    1XTA    CO429162  28.122  -2.558   5.624
    1XTA    CT129163  28.065  -2.555   5.473
    1XTA    CL529164  28.041  -2.413   5.431
    1XTA    CL629165  28.010  -2.370   5.291
    1XTA    OA429166  26.772  -2.056   5.567
    1XTA    CO529167  26.704  -2.145   5.475
    1XTA    CL729168  26.805  -2.200   5.375
    1XTA    CL829169  26.754  -2.294   5.264
    1XTA    CL929170  26.854  -2.409   5.224
    1XTA   CL1029171  26.894  -2.502   5.341
    1XTA    CO629172  26.983  -2.622   5.303
    1XTA    OA529173  27.016  -2.714   5.404
    1XTA    CO729174  26.911  -2.791   5.468
    1XTA    CT229175  26.953  -2.891   5.587
    1XTA   CL1129176  27.042  -2.833   5.692
    1XTA   CL1229177  27.007  -2.695   5.761
    1XTA    HL129178  26.737  -2.791   6.390
    1XTA    HL229179  26.770  -2.613   6.402
    1XTA    HL329180  26.678  -2.680   6.266
    1XTA    HL429181  27.704  -2.226   5.870
    1XTA    HL529182  27.691  -2.055   5.918
    1XTA    HL629183  27.872  -2.047   6.052
    1XTA    HL729184  27.926  -2.132   5.910
    1XTA    HL829185  27.812  -2.287   6.136
    1XTA    HL929186  27.979  -2.228   6.164
    1XTA   HL1029187  27.953  -2.464   6.068
    1XTA   HL1129188  27.866  -2.394   5.922
    1XTA   HL1229189  28.150  -2.367   6.015
    1XTA   HL1329190  28.071  -2.286   5.883
    1XTA   HL1429191  28.225  -2.484   5.842
    1XTA   HL1529192  28.109  -2.595   5.899
    1XTA   HL1629193  28.224  -2.520   5.631
    1XTA   HL1729194  28.123  -2.665   5.634
    1XTA   HL1829195  28.123  -2.340   5.454
    1XTA   HL1929196  27.955  -2.363   5.490
    1XTA   HL2029197  28.020  -2.452   5.226
    1XTA   HL2129198  28.076  -2.289   5.254
    1XTA   HL2229199  27.904  -2.335   5.288
    1XTA   HL2329200  26.629  -2.080   5.434
    1XTA   HL2429201  26.650  -2.221   5.526
    1XTA   HL2529202  26.854  -2.122   5.330
    1XTA   HL2629203  26.888  -2.254   5.423
    1XTA   HL2729204  26.667  -2.359   5.295
    1XTA   HL2829205  26.712  -2.250   5.173
    1XTA   HL2929206  26.800  -2.474   5.153
    1XTA   HL3029207  26.946  -2.382   5.175
    1XTA   HL3129208  26.939  -2.444   5.417
    1XTA   HL3229209  26.803  -2.547   5.391
    1XTA   HL3329210  26.934  -2.688   5.228
    1XTA   HL3429211  27.077  -2.593   5.257
    1XTA   HL3529212  26.854  -2.847   5.394
    1XTA   HL3629213  26.840  -2.719   5.512
    1XTA   HL3729214  27.137  -2.818   5.648
    1XTA   HL3829215  27.064  -2.905   5.771
    1XTA   HL3929216  26.905  -2.705   5.787
    1XTA   HL4029217  27.011  -2.610   5.686
    1XTA   HL4129218  27.070  -2.673   5.846
    1XTA    CO829219  27.932  -2.640   5.473
    1XTA    CO929220  28.165  -2.622   5.382
    1XTA    OA629221  27.870  -2.642   5.344
    1XTA   HL4229222  27.865  -2.590   5.540
    1XTA   HL4329223  27.932  -2.737   5.521
    1XTA   HL4429224  26.987  -3.030   5.416
    1XTA   HL4529225  26.957  -3.142   5.568
    1XTA   CO1029226  27.017  -3.022   5.522
    1XTA   CO1129227  26.822  -2.954   5.647
    1XTA    OA729228  26.742  -2.975   5.564
    1XTA   HL4629229  26.837  -3.045   5.700
    1XTA   HL4729230  26.768  -2.883   5.709
    1XTA   HL4829231  28.114  -2.616   5.282
    1XTA   HL4929232  28.253  -2.559   5.384
    1XTA     NT29233  29.198  -1.822   5.357
    1XTA    CN129234  29.288  -1.716   5.383
    1XTA     C129235  29.415  -1.744   5.435
    1XTA     C229236  29.505  -1.640   5.471
    1XTA     C329237  29.480  -1.509   5.431
    1XTA     C429238  29.351  -1.475   5.382
    1XTA     C529239  29.260  -1.576   5.355
    1XTA    CN229240  29.230  -1.926   5.274
    1XTA     C629241  29.215  -2.054   5.332
    1XTA     C729242  29.264  -2.169   5.265
    1XTA     C829243  29.301  -2.151   5.128
    1XTA     C929244  29.310  -2.023   5.073
    1XTA    C1029245  29.280  -1.910   5.144
    1XTA    CN329246  29.075  -1.821   5.409
    1XTA    C1129247  29.050  -1.865   5.541
    1XTA    C1229248  28.912  -1.844   5.589
    1XTA    C1329249  28.811  -1.803   5.506
    1XTA    C1429250  28.841  -1.768   5.375
    1XTA    C1529251  28.973  -1.774   5.324
    1XTA     H129252  29.440  -1.844   5.466
    1XTA     H229253  29.603  -1.667   5.517
    1XTA     H329254  29.319  -1.375   5.357
    1XTA     H429255  29.163  -1.556   5.309
    1XTA     H529256  29.176  -2.061   5.429
    1XTA     H629257  29.254  -2.261   5.312
    1XTA     H729258  29.357  -2.006   4.976
    1XTA     H829259  29.293  -1.808   5.096
    1XTA     H929260  29.118  -1.918   5.606
    1XTA    H1029261  28.892  -1.876   5.693
    1XTA    H1129262  28.760  -1.732   5.312
    1XTA    H1229263  28.992  -1.749   5.226
    1XTA    OA129264  29.578  -1.412   5.432
    1XTA    CO129265  29.714  -1.456   5.403
    1XTA    OA229266  29.353  -2.257   5.056
    1XTA    CO229267  29.385  -2.377   5.124
    1XTA    CL129268  29.507  -2.370   5.210
    1XTA    CL229269  29.493  -2.444   5.348
    1XTA    CL329270  29.614  -2.414   5.441
    1XTA    CL429271  29.625  -2.493   5.581
    1XTA    CO329272  29.774  -2.489   5.633
    1XTA    OA329273  29.858  -2.542   5.530
    1XTA    CO429274  29.995  -2.533   5.555
    1XTA    CT129275  30.066  -2.581   5.428
    1XTA    CL529276  30.014  -2.513   5.294
    1XTA    CL629277  30.112  -2.548   5.174
    1XTA    OA429278  28.687  -1.796   5.560
    1XTA    CO529279  28.576  -1.750   5.486
    1XTA    CL729280  28.452  -1.764   5.564
    1XTA    CL829281  28.325  -1.747   5.481
    1XTA    CL929282  28.311  -1.600   5.444
    1XTA   CL1029283  28.261  -1.500   5.561
    1XTA    CO629284  28.212  -1.358   5.504
    1XTA    OA529285  28.292  -1.306   5.402
    1XTA    CO729286  28.242  -1.191   5.328
    1XTA    CT229287  28.292  -1.185   5.183
    1XTA   CL1129288  28.436  -1.121   5.170
    1XTA   CL1229289  28.537  -1.188   5.267
    1XTA    HL129290  29.744  -1.529   5.482
    1XTA    HL229291  29.719  -1.504   5.311
    1XTA    HL329292  29.783  -1.374   5.420
    1XTA    HL429293  29.300  -2.406   5.189
    1XTA    HL529294  29.396  -2.453   5.053
    1XTA    HL629295  29.532  -2.261   5.234
    1XTA    HL729296  29.588  -2.404   5.145
    1XTA    HL829297  29.475  -2.550   5.338
    1XTA    HL929298  29.411  -2.396   5.401
    1XTA   HL1029299  29.706  -2.420   5.378
    1XTA   HL1129300  29.619  -2.308   5.458
    1XTA   HL1229301  29.580  -2.590   5.575
    1XTA   HL1329302  29.569  -2.432   5.657
    1XTA   HL1429303  29.810  -2.384   5.652
    1XTA   HL1529304  29.785  -2.546   5.730
    1XTA   HL1629305  30.011  -2.423   5.569
    1XTA   HL1729306  30.018  -2.588   5.646
    1XTA   HL1829307  30.015  -2.403   5.301
    1XTA   HL1929308  29.915  -2.561   5.268
    1XTA   HL2029309  30.121  -2.665   5.182
    1XTA   HL2129310  30.206  -2.498   5.185
    1XTA   HL2229311  30.065  -2.517   5.085
    1XTA   HL2329312  28.570  -1.822   5.399
    1XTA   HL2429313  28.583  -1.645   5.453
    1XTA   HL2529314  28.437  -1.862   5.609
    1XTA   HL2629315  28.453  -1.705   5.650
    1XTA   HL2729316  28.325  -1.816   5.398
    1XTA   HL2829317  28.239  -1.774   5.540
    1XTA   HL2929318  28.399  -1.563   5.393
    1XTA   HL3029319  28.237  -1.598   5.362
    1XTA   HL3129320  28.171  -1.548   5.598
    1XTA   HL3229321  28.330  -1.491   5.646
    1XTA   HL3329322  28.114  -1.379   5.458
    1XTA   HL3429323  28.182  -1.298   5.587
    1XTA   HL3529324  28.282  -1.109   5.385
    1XTA   HL3629325  28.131  -1.199   5.317
    1XTA   HL3729326  28.425  -1.015   5.205
    1XTA   HL3829327  28.487  -1.107   5.077
    1XTA   HL3929328  28.642  -1.153   5.255
    1XTA   HL4029329  28.527  -1.299   5.266
    1XTA   HL4129330  28.506  -1.157   5.366
    1XTA    CO829331  30.036  -2.731   5.420
    1XTA    CO929332  30.214  -2.567   5.460
    1XTA    OA629333  30.256  -2.439   5.510
    1XTA   HL4229334  30.124  -2.775   5.371
    1XTA   HL4329335  30.052  -2.780   5.519
    1XTA   HL4429336  28.108  -1.120   5.075
    1XTA   HL4529337  28.202  -0.994   5.151
    1XTA   CO1029338  28.204  -1.088   5.100
    1XTA   CO1129339  28.290  -1.326   5.117
    1XTA    OA729340  28.163  -1.392   5.112
    1XTA   HL4629341  28.339  -1.329   5.027
    1XTA   HL4729342  28.353  -1.385   5.184
    1XTA   HL4829343  30.276  -2.586   5.370
    1XTA   HL4929344  30.240  -2.630   5.548
    1XTA     NT29345  31.122  -1.913   4.949
    1XTA    CN129346  31.042  -1.897   4.837
    1XTA     C129347  31.088  -1.953   4.717
    1XTA     C229348  31.014  -1.928   4.598
    1XTA     C329349  30.900  -1.848   4.602
    1XTA     C429350  30.849  -1.804   4.722
    1XTA     C529351  30.921  -1.825   4.841
    1XTA    CN229352  31.096  -2.016   5.032
    1XTA     C629353  30.973  -2.019   5.099
    1XTA     C729354  30.934  -2.131   5.169
    1XTA     C829355  31.021  -2.240   5.178
    1XTA     C929356  31.137  -2.245   5.097
    1XTA    C1029357  31.178  -2.127   5.025
    1XTA    CN329358  31.192  -1.812   5.004
    1XTA    C1129359  31.123  -1.712   5.073
    1XTA    C1229360  31.199  -1.617   5.144
    1XTA    C1329361  31.344  -1.620   5.158
    1XTA    C1429362  31.411  -1.718   5.090
    1XTA    C1529363  31.335  -1.812   5.010
    1XTA     H129364  31.171  -2.017   4.715
    1XTA     H229365  31.053  -1.964   4.507
    1XTA     H329366  30.768  -1.732   4.721
    1XTA     H429367  30.886  -1.770   4.926
    1XTA     H529368  30.911  -1.931   5.098
    1XTA     H629369  30.830  -2.125   5.201
    1XTA     H729370  31.199  -2.333   5.087
    1XTA     H829371  31.265  -2.123   4.959
    1XTA     H929372  31.013  -1.704   5.087
    1XTA    H1029373  31.136  -1.540   5.194
    1XTA    H1129374  31.514  -1.734   5.090
    1XTA    H1229375  31.383  -1.886   4.961
    1XTA    OA129376  30.841  -1.827   4.473
    1XTA    CO129377  30.702  -1.792   4.479
    1XTA    OA229378  30.965  -2.350   5.243
    1XTA    CO229379  31.044  -2.470   5.266
    1XTA    CL129380  31.147  -2.449   5.369
    1XTA    CL229381  31.237  -2.570   5.380
    1XTA    CL329382  31.327  -2.539   5.496
    1XTA    CL429383  31.422  -2.658   5.536
    1XTA    CO329384  31.486  -2.660   5.677
    1XTA    OA329385  31.506  -2.534   5.739
    1XTA    CO429386  31.581  -2.544   5.860
    1XTA    CT129387  31.566  -2.409   5.915
    1XTA    CL529388  31.670  -2.389   6.026
    1XTA    CL629389  31.813  -2.420   5.989
    1XTA    OA429390  31.405  -1.519   5.225
    1XTA    CO529391  31.542  -1.502   5.249
    1XTA    CL729392  31.579  -1.524   5.386
    1XTA    CL829393  31.506  -1.438   5.492
    1XTA    CL929394  31.545  -1.450   5.639
    1XTA   CL1029395  31.471  -1.370   5.745
    1XTA    CO629396  31.332  -1.426   5.773
    1XTA    OA529397  31.236  -1.367   5.689
    1XTA    CO729398  31.107  -1.420   5.715
    1XTA    CT229399  31.030  -1.427   5.585
    1XTA   CL1129400  30.995  -1.287   5.522
    1XTA   CL1229401  31.106  -1.211   5.450
    1XTA    HL129402  30.672  -1.737   4.390
    1XTA    HL229403  30.639  -1.879   4.484
    1XTA    HL329404  30.673  -1.725   4.556
    1XTA    HL429405  30.980  -2.542   5.308
    1XTA    HL529406  31.090  -2.508   5.167
    1XTA    HL629407  31.095  -2.436   5.462
    1XTA    HL729408  31.201  -2.362   5.344
    1XTA    HL829409  31.288  -2.583   5.288
    1XTA    HL929410  31.180  -2.664   5.397
    1XTA   HL1029411  31.399  -2.459   5.462
    1XTA   HL1129412  31.269  -2.521   5.583
    1XTA   HL1229413  31.498  -2.671   5.463
    1XTA   HL1329414  31.363  -2.748   5.532
    1XTA   HL1429415  31.435  -2.730   5.743
    1XTA   HL1529416  31.578  -2.708   5.657
    1XTA   HL1629417  31.557  -2.624   5.923
    1XTA   HL1729418  31.687  -2.564   5.839
    1XTA   HL1829419  31.640  -2.442   6.113
    1XTA   HL1929420  31.662  -2.287   6.060
    1XTA   HL2029421  31.838  -2.525   5.982
    1XTA   HL2129422  31.880  -2.378   6.065
    1XTA   HL2229423  31.840  -2.372   5.894
    1XTA   HL2329424  31.573  -1.411   5.220
    1XTA   HL2429425  31.602  -1.570   5.189
    1XTA   HL2529426  31.542  -1.628   5.410
    1XTA   HL2629427  31.685  -1.527   5.413
    1XTA   HL2729428  31.530  -1.338   5.459
    1XTA   HL2829429  31.399  -1.445   5.475
    1XTA   HL2929430  31.538  -1.549   5.678
    1XTA   HL3029431  31.652  -1.439   5.660
    1XTA   HL3129432  31.527  -1.375   5.838
    1XTA   HL3229433  31.449  -1.263   5.712
    1XTA   HL3329434  31.338  -1.533   5.767
    1XTA   HL3429435  31.302  -1.392   5.876
    1XTA   HL3529436  31.064  -1.348   5.775
    1XTA   HL3629437  31.110  -1.513   5.768
    1XTA   HL3729438  30.944  -1.231   5.598
    1XTA   HL3829439  30.920  -1.290   5.443
    1XTA   HL3929440  31.189  -1.188   5.510
    1XTA   HL4029441  31.062  -1.117   5.414
    1XTA   HL4129442  31.145  -1.277   5.368
    1XTA    CO829443  31.426  -2.404   5.968
    1XTA    CO929444  31.593  -2.300   5.808
    1XTA    OA629445  31.408  -2.319   6.036
    1XTA   HL4229446  31.411  -2.501   6.012
    1XTA   HL4329447  31.357  -2.394   5.879
    1XTA   HL4429448  30.923  -1.603   5.654
    1XTA   HL4529449  30.858  -1.522   5.514
    1XTA   CO1029450  30.900  -1.499   5.609
    1XTA   CO1129451  31.101  -1.522   5.482
    1XTA    OA729452  31.137  -1.644   5.546
    1XTA   HL4629453  31.041  -1.531   5.387
    1XTA   HL4729454  31.192  -1.475   5.447
    1XTA   HL4829455  31.483  -2.304   5.718
    1XTA   HL4929456  31.688  -2.331   5.759
    1XTA     NT29457  30.685  -1.418   2.026
    1XTA    CN129458  30.804  -1.480   2.014
    1XTA     C129459  30.821  -1.585   1.928
    1XTA     C229460  30.942  -1.655   1.916
    1XTA     C329461  31.052  -1.622   2.001
    1XTA     C429462  31.035  -1.515   2.095
    1XTA     C529463  30.911  -1.447   2.096
    1XTA    CN229464  30.580  -1.478   2.085
    1XTA     C629465  30.594  -1.536   2.213
    1XTA     C729466  30.483  -1.596   2.270
    1XTA     C829467  30.364  -1.611   2.201
    1XTA     C929468  30.353  -1.550   2.069
    1XTA    C1029469  30.463  -1.480   2.014
    1XTA    CN329470  30.669  -1.292   1.978
    1XTA    C1129471  30.666  -1.183   2.067
    1XTA    C1229472  30.631  -1.055   2.021
    1XTA    C1329473  30.599  -1.033   1.883
    1XTA    C1429474  30.608  -1.141   1.792
    1XTA    C1529475  30.643  -1.271   1.842
    1XTA     H129476  30.742  -1.613   1.859
    1XTA     H229477  30.949  -1.736   1.845
    1XTA     H329478  31.114  -1.487   2.162
    1XTA     H429479  30.905  -1.360   2.164
    1XTA     H529480  30.689  -1.525   2.265
    1XTA     H629481  30.497  -1.642   2.373
    1XTA     H729482  30.259  -1.555   2.015
    1XTA     H829483  30.466  -1.426   1.920
    1XTA     H929484  30.699  -1.193   2.169
    1XTA    H1029485  30.629  -0.978   2.092
    1XTA    H1129486  30.572  -1.142   1.689
    1XTA    H1229487  30.636  -1.358   1.777
    1XTA    OA129488  31.167  -1.697   1.996
    1XTA    CO129489  31.247  -1.700   2.113
    1XTA    OA229490  30.253  -1.665   2.265
    1XTA    CO229491  30.132  -1.688   2.196
    1XTA    CL129492  30.029  -1.577   2.209
    1XTA    CL229493  29.896  -1.615   2.149
    1XTA    CL329494  29.783  -1.524   2.174
    1XTA    CL429495  29.646  -1.592   2.150
    1XTA    CO329496  29.524  -1.513   2.201
    1XTA    OA329497  29.549  -1.500   2.336
    1XTA    CO429498  29.472  -1.406   2.404
    1XTA    CT129499  29.493  -1.427   2.556
    1XTA    CL529500  29.630  -1.480   2.593
    1XTA    CL629501  29.750  -1.382   2.577
    1XTA    OA429502  30.553  -0.914   1.837
    1XTA    CO529503  30.527  -0.814   1.933
    1XTA    CL729504  30.501  -0.685   1.870
    1XTA    CL829505  30.459  -0.589   1.980
    1XTA    CL929506  30.409  -0.457   1.932
    1XTA   CL1029507  30.345  -0.356   2.036
    1XTA    CO629508  30.321  -0.212   1.974
    1XTA    OA529509  30.424  -0.174   1.879
    1XTA    CO729510  30.395  -0.042   1.825
    1XTA    CT229511  30.493   0.005   1.720
    1XTA   CL1129512  30.515  -0.101   1.607
    1XTA   CL1229513  30.398  -0.157   1.532
    1XTA    HL129514  31.331  -1.769   2.106
    1XTA    HL229515  31.285  -1.601   2.136
    1XTA    HL329516  31.183  -1.749   2.184
    1XTA    HL429517  30.152  -1.715   2.089
    1XTA    HL529518  30.072  -1.768   2.250
    1XTA    HL629519  30.064  -1.478   2.179
    1XTA    HL729520  30.019  -1.569   2.324
    1XTA    HL829521  29.859  -1.710   2.190
    1XTA    HL929522  29.886  -1.617   2.047
    1XTA   HL1029523  29.794  -1.494   2.281
    1XTA   HL1129524  29.799  -1.440   2.108
    1XTA   HL1229525  29.634  -1.684   2.205
    1XTA   HL1329526  29.640  -1.606   2.046
    1XTA   HL1429527  29.524  -1.421   2.146
    1XTA   HL1529528  29.434  -1.559   2.164
    1XTA   HL1629529  29.513  -1.307   2.384
    1XTA   HL1729530  29.366  -1.409   2.378
    1XTA   HL1829531  29.665  -1.559   2.534
    1XTA   HL1929532  29.620  -1.511   2.702
    1XTA   HL2029533  29.729  -1.288   2.613
    1XTA   HL2129534  29.755  -1.362   2.473
    1XTA   HL2229535  29.852  -1.419   2.614
    1XTA   HL2329536  30.616  -0.807   1.991
    1XTA   HL2429537  30.446  -0.852   1.998
    1XTA   HL2529538  30.592  -0.648   1.826
    1XTA   HL2629539  30.441  -0.694   1.783
    1XTA   HL2729540  30.381  -0.650   2.037
    1XTA   HL2829541  30.546  -0.573   2.045
    1XTA   HL2929542  30.494  -0.412   1.883
    1XTA   HL3029543  30.351  -0.468   1.840
    1XTA   HL3129544  30.240  -0.392   2.066
    1XTA   HL3229545  30.407  -0.335   2.123
    1XTA   HL3329546  30.223  -0.207   1.921
    1XTA   HL3429547  30.320  -0.140   2.053
    1XTA   HL3529548  30.382   0.031   1.907
    1XTA   HL3629549  30.299  -0.053   1.781
    1XTA   HL3729550  30.560  -0.189   1.646
    1XTA   HL3829551  30.586  -0.071   1.532
    1XTA   HL3929552  30.349  -0.079   1.477
    1XTA   HL4029553  30.327  -0.206   1.597
    1XTA   HL4129554  30.427  -0.220   1.451
    1XTA    CO829555  29.390  -1.528   2.611
    1XTA    CO929556  29.458  -1.291   2.626
    1XTA    OA629557  29.411  -1.661   2.555
    1XTA   HL4229558  29.289  -1.490   2.598
    1XTA   HL4329559  29.397  -1.542   2.721
    1XTA   HL4429560  30.706   0.039   1.713
    1XTA   HL4529561  30.623   0.134   1.835
    1XTA   CO1029562  30.632   0.035   1.793
    1XTA   CO1129563  30.448   0.137   1.650
    1XTA    OA729564  30.451   0.247   1.740
    1XTA   HL4629565  30.507   0.153   1.557
    1XTA   HL4729566  30.346   0.123   1.616
    1XTA   HL4829567  29.523  -1.216   2.587
    1XTA   HL4929568  29.475  -1.298   2.731
    1XTA     NT29569  29.727  -2.676   2.338
    1XTA    CN129570  29.738  -2.807   2.295
    1XTA     C129571  29.770  -2.834   2.157
    1XTA     C229572  29.794  -2.962   2.107
    1XTA     C329573  29.786  -3.067   2.200
    1XTA     C429574  29.734  -3.045   2.328
    1XTA     C529575  29.724  -2.915   2.380
    1XTA    CN229576  29.629  -2.598   2.288
    1XTA     C629577  29.495  -2.622   2.324
    1XTA     C729578  29.401  -2.533   2.271
    1XTA     C829579  29.437  -2.426   2.182
    1XTA     C929580  29.567  -2.414   2.136
    1XTA    C1029581  29.665  -2.497   2.192
    1XTA    CN329582  29.820  -2.618   2.413
    1XTA    C1129583  29.958  -2.636   2.391
    1XTA    C1229584  30.049  -2.575   2.474
    1XTA    C1329585  30.014  -2.512   2.588
    1XTA    C1429586  29.876  -2.509   2.622
    1XTA    C1529587  29.779  -2.562   2.539
    1XTA     H129588  29.772  -2.754   2.083
    1XTA     H229589  29.815  -2.973   2.006
    1XTA     H329590  29.720  -3.127   2.392
    1XTA     H429591  29.702  -2.898   2.478
    1XTA     H529592  29.476  -2.704   2.391
    1XTA     H629593  29.298  -2.547   2.299
    1XTA     H729594  29.605  -2.342   2.067
    1XTA     H829595  29.770  -2.491   2.163
    1XTA     H929596  29.982  -2.688   2.299
    1XTA    H1029597  30.154  -2.577   2.456
    1XTA    H1129598  29.841  -2.466   2.715
    1XTA    H1229599  29.675  -2.559   2.561
    1XTA    OA129600  29.822  -3.197   2.158
    1XTA    CO129601  29.905  -3.214   2.039
    1XTA    OA229602  29.340  -2.341   2.134
    1XTA    CO229603  29.203  -2.383   2.130
    1XTA    CL129604  29.121  -2.289   2.221
    1XTA    CL229605  29.180  -2.282   2.357
    1XTA    CL329606  29.123  -2.379   2.462
    1XTA    CL429607  29.196  -2.376   2.599
    1XTA    CO329608  29.346  -2.424   2.603
    1XTA    OA329609  29.435  -2.331   2.545
    1XTA    CO429610  29.498  -2.246   2.642
    1XTA    CT129611  29.592  -2.154   2.567
    1XTA    CL529612  29.660  -2.056   2.672
    1XTA    CL629613  29.780  -2.107   2.754
    1XTA    OA429614  30.113  -2.465   2.674
    1XTA    CO529615  30.082  -2.346   2.754
    1XTA    CL729616  30.212  -2.280   2.785
    1XTA    CL829617  30.289  -2.235   2.659
    1XTA    CL929618  30.223  -2.128   2.583
    1XTA   CL1029619  30.307  -2.096   2.456
    1XTA    CO629620  30.243  -1.980   2.385
    1XTA    OA529621  30.157  -2.043   2.276
    1XTA    CO729622  30.015  -2.033   2.295
    1XTA    CT229623  29.944  -2.163   2.239
    1XTA   CL1129624  29.856  -2.141   2.117
    1XTA   CL1229625  29.725  -2.063   2.142
    1XTA    HL129626  29.996  -3.158   2.045
    1XTA    HL229627  29.940  -3.321   2.019
    1XTA    HL329628  29.859  -3.184   1.943
    1XTA    HL429629  29.175  -2.373   2.023
    1XTA    HL529630  29.182  -2.483   2.168
    1XTA    HL629631  29.017  -2.306   2.220
    1XTA    HL729632  29.137  -2.184   2.176
    1XTA    HL829633  29.167  -2.178   2.395
    1XTA    HL929634  29.286  -2.294   2.355
    1XTA   HL1029635  29.016  -2.361   2.463
    1XTA   HL1129636  29.121  -2.481   2.430
    1XTA   HL1229637  29.139  -2.442   2.661
    1XTA   HL1329638  29.191  -2.282   2.646
    1XTA   HL1429639  29.376  -2.441   2.708
    1XTA   HL1529640  29.371  -2.520   2.555
    1XTA   HL1629641  29.430  -2.200   2.713
    1XTA   HL1729642  29.557  -2.322   2.696
    1XTA   HL1829643  29.581  -2.010   2.738
    1XTA   HL1929644  29.704  -1.961   2.622
    1XTA   HL2029645  29.747  -2.195   2.805
    1XTA   HL2129646  29.801  -2.020   2.810
    1XTA   HL2229647  29.871  -2.141   2.702
    1XTA   HL2329648  30.011  -2.374   2.838
    1XTA   HL2429649  30.024  -2.276   2.689
    1XTA   HL2529650  30.179  -2.203   2.855
    1XTA   HL2629651  30.276  -2.345   2.838
    1XTA   HL2729652  30.386  -2.196   2.693
    1XTA   HL2829653  30.313  -2.311   2.588
    1XTA   HL2929654  30.123  -2.151   2.545
    1XTA   HL3029655  30.220  -2.035   2.643
    1XTA   HL3129656  30.405  -2.077   2.492
    1XTA   HL3229657  30.319  -2.182   2.392
    1XTA   HL3329658  30.203  -1.907   2.450
    1XTA   HL3429659  30.322  -1.926   2.333
    1XTA   HL3529660  29.962  -1.943   2.256
    1XTA   HL3629661  29.998  -2.037   2.405
    1XTA   HL3729662  29.826  -2.236   2.075
    1XTA   HL3829663  29.920  -2.089   2.041
    1XTA   HL3929664  29.664  -2.119   2.208
    1XTA   HL4029665  29.667  -2.045   2.059
    1XTA   HL4129666  29.736  -1.962   2.184
    1XTA    CO829667  29.528  -2.074   2.450
    1XTA    CO929668  29.696  -2.246   2.504
    1XTA    OA629669  29.785  -2.163   2.427
    1XTA   HL4229670  29.608  -2.018   2.393
    1XTA   HL4329671  29.480  -2.145   2.386
    1XTA   HL4429672  29.952  -2.284   2.415
    1XTA   HL4529673  29.849  -2.335   2.313
    1XTA   CO1029674  29.881  -2.240   2.352
    1XTA   CO1129675  30.046  -2.269   2.186
    1XTA    OA729676  30.013  -2.407   2.181
    1XTA   HL4629677  30.072  -2.242   2.082
    1XTA   HL4729678  30.130  -2.262   2.251
    1XTA   HL4829679  29.661  -2.316   2.437
    1XTA   HL4929680  29.757  -2.293   2.578
    1XTA     NT29681  31.036  -2.496   1.352
    1XTA    CN129682  30.999  -2.563   1.236
    1XTA     C129683  30.885  -2.643   1.241
    1XTA     C229684  30.850  -2.731   1.141
    1XTA     C329685  30.927  -2.745   1.026
    1XTA     C429686  31.042  -2.663   1.017
    1XTA     C529687  31.077  -2.566   1.118
    1XTA    CN229688  31.165  -2.488   1.383
    1XTA     C629689  31.240  -2.591   1.438
    1XTA     C729690  31.372  -2.569   1.480
    1XTA     C829691  31.432  -2.444   1.454
    1XTA     C929692  31.362  -2.344   1.385
    1XTA    C1029693  31.229  -2.364   1.360
    1XTA    CN329694  30.949  -2.464   1.446
    1XTA    C1129695  30.864  -2.354   1.434
    1XTA    C1229696  30.763  -2.338   1.531
    1XTA    C1329697  30.752  -2.424   1.637
    1XTA    C1429698  30.851  -2.523   1.656
    1XTA    C1529699  30.944  -2.555   1.556
    1XTA     H129700  30.836  -2.650   1.339
    1XTA     H229701  30.763  -2.800   1.144
    1XTA     H329702  31.107  -2.667   0.930
    1XTA     H429703  31.166  -2.500   1.108
    1XTA     H529704  31.199  -2.685   1.470
    1XTA     H629705  31.433  -2.652   1.518
    1XTA     H729706  31.406  -2.253   1.358
    1XTA     H829707  31.176  -2.283   1.305
    1XTA     H929708  30.874  -2.299   1.337
    1XTA    H1029709  30.704  -2.254   1.521
    1XTA    H1129710  30.848  -2.588   1.739
    1XTA    H1229711  31.010  -2.640   1.564
    1XTA    OA129712  30.891  -2.835   0.927
    1XTA    CO129713  30.930  -2.795   0.791
    1XTA    OA229714  31.560  -2.429   1.493
    1XTA    CO229715  31.634  -2.331   1.423
    1XTA    CL129716  31.780  -2.333   1.467
    1XTA    CL229717  31.856  -2.215   1.415
    1XTA    CL329718  32.007  -2.239   1.397
    1XTA    CL429719  32.076  -2.113   1.383
    1XTA    CO329720  32.233  -2.122   1.377
    1XTA    OA329721  32.307  -2.019   1.444
    1XTA    CO429722  32.291  -2.031   1.580
    1XTA    CT129723  32.362  -1.915   1.667
    1XTA    CL529724  32.303  -1.939   1.805
    1XTA    CL629725  32.340  -1.827   1.912
    1XTA    OA429726  30.661  -2.395   1.734
    1XTA    CO529727  30.701  -2.420   1.869
    1XTA    CL729728  30.593  -2.361   1.958
    1XTA    CL829729  30.616  -2.397   2.107
    1XTA    CL929730  30.721  -2.310   2.181
    1XTA   CL1029731  30.795  -2.364   2.306
    1XTA    CO629732  30.906  -2.466   2.275
    1XTA    OA529733  31.001  -2.414   2.178
    1XTA    CO729734  31.111  -2.355   2.245
    1XTA    CT229735  31.240  -2.320   2.165
    1XTA   CL1129736  31.209  -2.223   2.048
    1XTA   CL1229737  31.158  -2.081   2.086
    1XTA    HL129738  30.911  -2.890   0.739
    1XTA    HL229739  30.860  -2.727   0.742
    1XTA    HL329740  31.036  -2.772   0.771
    1XTA    HL429741  31.619  -2.336   1.315
    1XTA    HL529742  31.610  -2.229   1.445
    1XTA    HL629743  31.807  -2.429   1.420
    1XTA    HL729744  31.785  -2.356   1.577
    1XTA    HL829745  31.856  -2.128   1.481
    1XTA    HL929746  31.809  -2.179   1.321
    1XTA   HL1029747  32.055  -2.294   1.478
    1XTA   HL1129748  32.023  -2.291   1.306
    1XTA   HL1229749  32.053  -2.049   1.472
    1XTA   HL1329750  32.029  -2.063   1.300
    1XTA   HL1429751  32.273  -2.222   1.391
    1XTA   HL1529752  32.252  -2.124   1.267
    1XTA   HL1629753  32.193  -2.027   1.608
    1XTA   HL1729754  32.312  -2.132   1.608
    1XTA   HL1829755  32.331  -2.038   1.846
    1XTA   HL1929756  32.194  -1.946   1.803
    1XTA   HL2029757  32.252  -1.765   1.900
    1XTA   HL2129758  32.427  -1.767   1.892
    1XTA   HL2229759  32.347  -1.849   2.018
    1XTA   HL2329760  30.796  -2.378   1.878
    1XTA   HL2429761  30.706  -2.526   1.891
    1XTA   HL2529762  30.573  -2.255   1.939
    1XTA   HL2629763  30.503  -2.408   1.934
    1XTA   HL2729764  30.520  -2.393   2.162
    1XTA   HL2829765  30.643  -2.500   2.121
    1XTA   HL2929766  30.801  -2.280   2.113
    1XTA   HL3029767  30.676  -2.212   2.217
    1XTA   HL3129768  30.838  -2.281   2.362
    1XTA   HL3229769  30.728  -2.420   2.368
    1XTA   HL3329770  30.949  -2.518   2.358
    1XTA   HL3429771  30.856  -2.544   2.225
    1XTA   HL3529772  31.152  -2.417   2.330
    1XTA   HL3629773  31.073  -2.261   2.287
    1XTA   HL3729774  31.138  -2.270   1.977
    1XTA   HL3829775  31.296  -2.207   1.982
    1XTA   HL3929776  31.149  -2.024   1.994
    1XTA   HL4029777  31.226  -2.017   2.144
    1XTA   HL4129778  31.060  -2.075   2.139
    1XTA    CO829779  32.329  -1.769   1.618
    1XTA    CO929780  32.511  -1.932   1.683
    1XTA    OA629781  32.196  -1.742   1.620
    1XTA   HL4229782  32.385  -1.774   1.525
    1XTA   HL4329783  32.376  -1.696   1.682
    1XTA   HL4429784  31.331  -2.526   2.182
    1XTA   HL4529785  31.251  -2.500   2.033
    1XTA   CO1029786  31.312  -2.452   2.105
    1XTA   CO1129787  31.344  -2.246   2.251
    1XTA    OA729788  31.447  -2.431   2.056
    1XTA   HL4629789  31.391  -2.333   2.287
    1XTA   HL4729790  31.417  -2.206   2.182
    1XTA   HL4829791  32.559  -1.896   1.587
    1XTA   HL4929792  32.549  -1.864   1.756
    1XTA     NT29793  30.243  -1.148   3.722
    1XTA    CN129794  30.299  -1.266   3.686
    1XTA     C129795  30.218  -1.370   3.629
    1XTA     C229796  30.286  -1.491   3.602
    1XTA     C329797  30.420  -1.508   3.616
    1XTA     C429798  30.498  -1.410   3.672
    1XTA     C529799  30.436  -1.284   3.697
    1XTA    CN229800  30.240  -1.120   3.852
    1XTA     C629801  30.129  -1.158   3.926
    1XTA     C729802  30.122  -1.132   4.060
    1XTA     C829803  30.224  -1.060   4.126
    1XTA     C929804  30.337  -1.017   4.055
    1XTA    C1029805  30.343  -1.039   3.915
    1XTA    CN329806  30.196  -1.052   3.637
    1XTA    C1129807  30.295  -0.968   3.585
    1XTA    C1229808  30.260  -0.879   3.479
    1XTA    C1329809  30.120  -0.869   3.432
    1XTA    C1429810  30.025  -0.948   3.495
    1XTA    C1529811  30.057  -1.040   3.602
    1XTA     H129812  30.113  -1.363   3.614
    1XTA     H229813  30.233  -1.580   3.569
    1XTA     H329814  30.603  -1.427   3.678
    1XTA     H429815  30.499  -1.206   3.737
    1XTA     H529816  30.039  -1.203   3.884
    1XTA     H629817  30.029  -1.168   4.109
    1XTA     H729818  30.414  -0.952   4.104
    1XTA     H829819  30.427  -0.998   3.860
    1XTA     H929820  30.401  -0.977   3.602
    1XTA    H1029821  30.333  -0.821   3.422
    1XTA    H1129822  29.919  -0.941   3.474
    1XTA    H1229823  29.977  -1.088   3.658
    1XTA    OA129824  30.484  -1.625   3.577
    1XTA    CO129825  30.427  -1.749   3.598
    1XTA    OA229826  30.218  -1.023   4.260
    1XTA    CO229827  30.094  -1.040   4.327
    1XTA    CL129828  30.096  -0.951   4.452
    1XTA    CL229829  30.075  -0.809   4.403
    1XTA    CL329830  30.095  -0.715   4.519
    1XTA    CL429831  29.978  -0.709   4.630
    1XTA    CO329832  29.964  -0.565   4.683
    1XTA    OA329833  29.962  -0.468   4.580
    1XTA    CO429834  29.837  -0.468   4.514
    1XTA    CT129835  29.840  -0.388   4.385
    1XTA    CL529836  29.943  -0.459   4.292
    1XTA    CL629837  29.963  -0.393   4.159
    1XTA    OA429838  30.085  -0.808   3.319
    1XTA    CO529839  30.174  -0.729   3.252
    1XTA    CL729840  30.113  -0.648   3.136
    1XTA    CL829841  30.194  -0.534   3.080
    1XTA    CL929842  30.130  -0.447   2.969
    1XTA   CL1029843  30.217  -0.325   2.936
    1XTA    CO629844  30.208  -0.232   3.059
    1XTA    OA529845  30.315  -0.153   3.101
    1XTA    CO729846  30.400  -0.213   3.197
    1XTA    CT229847  30.507  -0.116   3.252
    1XTA   CL1129848  30.623  -0.181   3.340
    1XTA   CL1229849  30.583  -0.286   3.444
    1XTA    HL129850  30.341  -1.768   3.538
    1XTA    HL229851  30.504  -1.815   3.566
    1XTA    HL329852  30.410  -1.760   3.707
    1XTA    HL429853  30.005  -1.022   4.267
    1XTA    HL529854  30.082  -1.146   4.362
    1XTA    HL629855  30.195  -0.967   4.503
    1XTA    HL729856  30.016  -0.981   4.519
    1XTA    HL829857  29.984  -0.798   4.349
    1XTA    HL929858  30.145  -0.785   4.330
    1XTA   HL1029859  30.183  -0.760   4.572
    1XTA   HL1129860  30.107  -0.616   4.474
    1XTA   HL1229861  29.990  -0.780   4.711
    1XTA   HL1329862  29.884  -0.742   4.594
    1XTA   HL1429863  29.867  -0.552   4.738
    1XTA   HL1529864  30.041  -0.553   4.761
    1XTA   HL1629865  29.802  -0.569   4.482
    1XTA   HL1729866  29.760  -0.428   4.581
    1XTA   HL1829867  29.922  -0.568   4.270
    1XTA   HL1929868  30.040  -0.457   4.344
    1XTA   HL2029869  30.006  -0.294   4.184
    1XTA   HL2129870  29.869  -0.374   4.103
    1XTA   HL2229871  30.034  -0.449   4.099
    1XTA   HL2329872  30.261  -0.783   3.204
    1XTA   HL2429873  30.213  -0.662   3.325
    1XTA   HL2529874  30.075  -0.712   3.058
    1XTA   HL2629875  30.025  -0.597   3.168
    1XTA   HL2729876  30.214  -0.470   3.161
    1XTA   HL2829877  30.298  -0.570   3.045
    1XTA   HL2929878  30.107  -0.503   2.881
    1XTA   HL3029879  30.024  -0.423   3.004
    1XTA   HL3129880  30.318  -0.349   2.909
    1XTA   HL3229881  30.165  -0.285   2.846
    1XTA   HL3329882  30.137  -0.158   3.024
    1XTA   HL3429883  30.145  -0.268   3.137
    1XTA   HL3529884  30.450  -0.306   3.155
    1XTA   HL3629885  30.340  -0.255   3.282
    1XTA   HL3729886  30.673  -0.107   3.397
    1XTA   HL3829887  30.691  -0.216   3.266
    1XTA   HL3929888  30.667  -0.340   3.495
    1XTA   HL4029889  30.534  -0.369   3.385
    1XTA   HL4129890  30.518  -0.261   3.525
    1XTA    CO829891  29.870  -0.240   4.401
    1XTA    CO929892  29.705  -0.400   4.295
    1XTA    OA629893  29.585  -0.394   4.373
    1XTA   HL4229894  29.977  -0.228   4.391
    1XTA   HL4329895  29.838  -0.188   4.314
    1XTA   HL4429896  30.351   0.034   3.270
    1XTA   HL4529897  30.516   0.113   3.351
    1XTA   CO1029898  30.433  -0.007   3.331
    1XTA   CO1129899  30.587  -0.044   3.140
    1XTA    OA729900  30.650   0.041   3.173
    1XTA   HL4629901  30.643  -0.127   3.094
    1XTA   HL4729902  30.510  -0.018   3.069
    1XTA   HL4829903  29.712  -0.496   4.232
    1XTA   HL4929904  29.705  -0.328   4.212
    1XTA     NT29905  28.899   0.985   3.232
    1XTA    CN129906  28.853   0.877   3.163
    1XTA     C129907  28.858   0.745   3.211
    1XTA     C229908  28.800   0.636   3.140
    1XTA     C329909  28.736   0.654   3.015
    1XTA     C429910  28.731   0.786   2.964
    1XTA     C529911  28.791   0.894   3.033
    1XTA    CN229912  28.824   1.040   3.332
    1XTA     C629913  28.743   1.155   3.304
    1XTA     C729914  28.669   1.217   3.410
    1XTA     C829915  28.662   1.154   3.536
    1XTA     C929916  28.744   1.045   3.561
    1XTA    C1029917  28.829   0.988   3.463
    1XTA    CN329918  29.027   1.019   3.210
    1XTA    C1129919  29.137   0.930   3.237
    1XTA    C1229920  29.266   0.979   3.224
    1XTA    C1329921  29.293   1.105   3.172
    1XTA    C1429922  29.188   1.193   3.141
    1XTA    C1529923  29.056   1.147   3.156
    1XTA     H129924  28.911   0.725   3.305
    1XTA     H229925  28.796   0.538   3.183
    1XTA     H329926  28.694   0.792   2.870
    1XTA     H429927  28.780   0.994   3.002
    1XTA     H529928  28.734   1.177   3.205
    1XTA     H629929  28.614   1.307   3.396
    1XTA     H729930  28.732   1.009   3.664
    1XTA     H829931  28.876   0.897   3.482
    1XTA     H929932  29.117   0.832   3.281
    1XTA    H1029933  29.351   0.914   3.247
    1XTA    H1129934  29.197   1.298   3.106
    1XTA    H1229935  28.978   1.221   3.128
    1XTA    OA129936  28.673   0.547   2.964
    1XTA    CO129937  28.663   0.538   2.823
    1XTA    OA229938  28.578   1.199   3.629
    1XTA    CO229939  28.530   1.104   3.712
    1XTA    CL129940  28.388   1.166   3.750
    1XTA    CL229941  28.298   1.154   3.629
    1XTA    CL329942  28.165   1.216   3.642
    1XTA    CL429943  28.062   1.186   3.524
    1XTA    CO329944  27.926   1.262   3.541
    1XTA    OA329945  27.844   1.259   3.432
    1XTA    CO429946  27.789   1.128   3.409
    1XTA    CT129947  27.799   1.092   3.259
    1XTA    CL529948  27.944   1.072   3.215
    1XTA    CL629949  28.005   0.946   3.273
    1XTA    OA429950  29.419   1.144   3.152
    1XTA    CO529951  29.521   1.078   3.209
    1XTA    CL729952  29.572   0.981   3.107
    1XTA    CL829953  29.683   0.890   3.165
    1XTA    CL929954  29.635   0.781   3.256
    1XTA   CL1029955  29.744   0.686   3.293
    1XTA    CO629956  29.711   0.592   3.406
    1XTA    OA529957  29.814   0.494   3.413
    1XTA    CO729958  29.779   0.387   3.503
    1XTA    CT229959  29.902   0.356   3.586
    1XTA   CL1129960  29.943   0.483   3.660
    1XTA   CL1229961  30.082   0.464   3.731
    1XTA    HL129962  28.759   0.529   2.772
    1XTA    HL229963  28.591   0.466   2.794
    1XTA    HL329964  28.617   0.635   2.784
    1XTA    HL429965  28.503   1.009   3.658
    1XTA    HL529966  28.586   1.090   3.808
    1XTA    HL629967  28.386   1.267   3.793
    1XTA    HL729968  28.324   1.108   3.816
    1XTA    HL829969  28.292   1.046   3.608
    1XTA    HL929970  28.335   1.214   3.545
    1XTA   HL1029971  28.115   1.170   3.727
    1XTA   HL1129972  28.182   1.326   3.653
    1XTA   HL1229973  28.049   1.079   3.512
    1XTA   HL1329974  28.101   1.220   3.426
    1XTA   HL1429975  27.869   1.230   3.625
    1XTA   HL1529976  27.944   1.372   3.553
    1XTA   HL1629977  27.844   1.040   3.447
    1XTA   HL1729978  27.686   1.130   3.440
    1XTA   HL1829979  28.002   1.159   3.221
    1XTA   HL1929980  27.955   1.055   3.102
    1XTA   HL2029981  27.977   0.850   3.225
    1XTA   HL2129982  27.987   0.928   3.380
    1XTA   HL2229983  28.114   0.953   3.278
    1XTA   HL2329984  29.495   1.029   3.308
    1XTA   HL2429985  29.606   1.134   3.244
    1XTA   HL2529986  29.495   0.930   3.046
    1XTA   HL2629987  29.626   1.035   3.025
    1XTA   HL2729988  29.740   0.844   3.079
    1XTA   HL2829989  29.749   0.961   3.212
    1XTA   HL2929990  29.591   0.833   3.345
    1XTA   HL3029991  29.550   0.728   3.218
    1XTA   HL3129992  29.769   0.643   3.194
    1XTA   HL3229993  29.836   0.735   3.323
    1XTA   HL3329994  29.703   0.656   3.496
    1XTA   HL3429995  29.612   0.544   3.396
    1XTA   HL3529996  29.758   0.303   3.447
    1XTA   HL3629997  29.700   0.411   3.570
    1XTA   HL3729998  29.867   0.491   3.731
    1XTA   HL3829999  29.949   0.576   3.595
    1XTA   HL3930000  30.102   0.540   3.809
    1XTA   HL4030001  30.156   0.492   3.662
    1XTA   HL4130002  30.106   0.363   3.754
    1XTA    CO830003  27.734   1.205   3.174
    1XTA    CO930004  27.708   0.973   3.243
    1XTA    OA630005  27.681   1.161   3.045
    1XTA   HL4230006  27.815   1.273   3.165
    1XTA   HL4330007  27.653   1.254   3.234
    1XTA   HL4430008  29.988   0.209   3.444
    1XTA   HL4530009  30.088   0.265   3.556
    1XTA   CO1030010  30.010   0.303   3.492
    1XTA   CO1130011  29.860   0.245   3.687
    1XTA    OA730012  29.819   0.116   3.645
    1XTA   HL4630013  29.933   0.238   3.759
    1XTA   HL4730014  29.775   0.283   3.745
    1XTA   HL4830015  27.723   0.926   3.144
    1XTA   HL4930016  27.602   0.999   3.251
    1XTA     NT30017  30.246  -1.328   6.317
    1XTA    CN130018  30.342  -1.425   6.311
    1XTA     C130019  30.420  -1.459   6.421
    1XTA     C230020  30.513  -1.557   6.417
    1XTA     C330021  30.525  -1.637   6.302
    1XTA     C430022  30.436  -1.619   6.195
    1XTA     C530023  30.350  -1.514   6.199
    1XTA    CN230024  30.117  -1.359   6.288
    1XTA     C630025  30.051  -1.422   6.393
    1XTA     C730026  29.917  -1.467   6.371
    1XTA     C830027  29.854  -1.443   6.246
    1XTA     C930028  29.923  -1.377   6.142
    1XTA    C1030029  30.062  -1.337   6.166
    1XTA    CN330030  30.276  -1.202   6.317
    1XTA    C1130031  30.235  -1.125   6.430
    1XTA    C1230032  30.256  -0.983   6.432
    1XTA    C1330033  30.328  -0.922   6.324
    1XTA    C1430034  30.374  -1.003   6.218
    1XTA    C1530035  30.349  -1.142   6.215
    1XTA     H130036  30.397  -1.399   6.509
    1XTA     H230037  30.566  -1.582   6.506
    1XTA     H330038  30.442  -1.675   6.105
    1XTA     H430039  30.288  -1.513   6.111
    1XTA     H530040  30.083  -1.427   6.491
    1XTA     H630041  29.867  -1.514   6.455
    1XTA     H730042  29.876  -1.370   6.044
    1XTA     H830043  30.118  -1.300   6.091
    1XTA     H930044  30.182  -1.173   6.512
    1XTA    H1030045  30.240  -0.920   6.524
    1XTA    H1130046  30.436  -0.953   6.142
    1XTA    H1230047  30.385  -1.210   6.132
    1XTA    OA130048  30.620  -1.734   6.282
    1XTA    CO130049  30.716  -1.760   6.382
    1XTA    OA230050  29.730  -1.496   6.230
    1XTA    CO230051  29.685  -1.535   6.106
    1XTA    CL130052  29.595  -1.658   6.116
    1XTA    CL230053  29.600  -1.740   5.991
    1XTA    CL330054  29.545  -1.664   5.864
    1XTA    CL430055  29.399  -1.608   5.884
    1XTA    CO330056  29.314  -1.600   5.757
    1XTA    OA330057  29.195  -1.538   5.794
    1XTA    CO430058  29.102  -1.531   5.682
    1XTA    CT130059  28.974  -1.455   5.718
    1XTA    CL530060  28.883  -1.458   5.595
    1XTA    CL630061  28.766  -1.363   5.582
    1XTA    OA430062  30.375  -0.790   6.316
    1XTA    CO530063  30.388  -0.712   6.430
    1XTA    CL730064  30.524  -0.730   6.493
    1XTA    CL830065  30.567  -0.874   6.535
    1XTA    CL930066  30.705  -0.884   6.603
    1XTA   CL1030067  30.827  -0.868   6.504
    1XTA    CO630068  30.831  -0.974   6.381
    1XTA    OA530069  30.934  -0.938   6.302
    1XTA    CO730070  30.900  -0.846   6.205
    1XTA    CT230071  30.874  -0.911   6.072
    1XTA   CL1130072  30.721  -0.914   6.041
    1XTA   CL1230073  30.647  -0.771   6.045
    1XTA    HL130074  30.776  -1.846   6.350
    1XTA    HL230075  30.782  -1.669   6.386
    1XTA    HL330076  30.673  -1.778   6.475
    1XTA    HL430077  29.629  -1.458   6.048
    1XTA    HL530078  29.773  -1.568   6.043
    1XTA    HL630079  29.492  -1.632   6.145
    1XTA    HL730080  29.624  -1.718   6.198
    1XTA    HL830081  29.540  -1.829   5.998
    1XTA    HL930082  29.703  -1.784   5.966
    1XTA   HL1030083  29.623  -1.597   5.835
    1XTA   HL1130084  29.544  -1.740   5.789
    1XTA   HL1230085  29.392  -1.515   5.941
    1XTA   HL1330086  29.348  -1.679   5.949
    1XTA   HL1430087  29.366  -1.534   5.684
    1XTA   HL1530088  29.296  -1.692   5.708
    1XTA   HL1630089  29.155  -1.489   5.596
    1XTA   HL1730090  29.075  -1.635   5.657
    1XTA   HL1830091  28.839  -1.559   5.586
    1XTA   HL1930092  28.946  -1.447   5.509
    1XTA   HL2030093  28.783  -1.255   5.598
    1XTA   HL2130094  28.683  -1.394   5.656
    1XTA   HL2230095  28.713  -1.376   5.484
    1XTA   HL2330096  30.304  -0.728   6.498
    1XTA   HL2430097  30.380  -0.608   6.398
    1XTA   HL2530098  30.598  -0.702   6.415
    1XTA   HL2630099  30.541  -0.651   6.571
    1XTA   HL2730100  30.497  -0.921   6.602
    1XTA   HL2830101  30.570  -0.931   6.446
    1XTA   HL2930102  30.714  -0.815   6.690
    1XTA   HL3030103  30.696  -0.983   6.654
    1XTA   HL3130104  30.820  -0.765   6.464
    1XTA   HL3230105  30.927  -0.883   6.551
    1XTA   HL3330106  30.857  -1.072   6.421
    1XTA   HL3430107  30.736  -0.977   6.323
    1XTA   HL3530108  30.995  -0.793   6.194
    1XTA   HL3630109  30.826  -0.768   6.237
    1XTA   HL3730110  30.670  -0.976   6.118
    1XTA   HL3830111  30.717  -0.957   5.946
    1XTA   HL3930112  30.645  -0.732   6.145
    1XTA   HL4030113  30.543  -0.797   6.019
    1XTA   HL4130114  30.688  -0.690   5.978
    1XTA    CO830115  29.009  -1.309   5.752
    1XTA    CO930116  28.912  -1.518   5.846
    1XTA    OA630117  28.780  -1.472   5.871
    1XTA   HL4230118  29.032  -1.305   5.860
    1XTA   HL4330119  28.918  -1.249   5.742
    1XTA   HL4430120  30.911  -1.080   5.939
    1XTA   HL4530121  31.033  -1.067   6.061
    1XTA   CO1030122  30.923  -1.058   6.048
    1XTA   CO1130123  30.943  -0.829   5.967
    1XTA    OA730124  30.849  -1.151   6.126
    1XTA   HL4630125  30.920  -0.725   5.991
    1XTA   HL4730126  30.920  -0.858   5.862
    1XTA   HL4830127  28.972  -1.500   5.934
    1XTA   HL4930128  28.902  -1.636   5.832
    1XTA     NT30129  30.450   0.883   6.959
    1XTA    CN130130  30.577   0.916   6.986
    1XTA     C130131  30.694   0.852   6.929
    1XTA     C230132  30.823   0.887   6.980
    1XTA     C330133  30.842   0.991   7.067
    1XTA     C430134  30.730   1.050   7.127
    1XTA     C530135  30.596   1.013   7.088
    1XTA    CN230136  30.391   0.909   6.843
    1XTA     C630137  30.366   0.808   6.751
    1XTA     C730138  30.312   0.834   6.619
    1XTA     C830139  30.253   0.960   6.595
    1XTA     C930140  30.265   1.061   6.694
    1XTA    C1030141  30.329   1.035   6.816
    1XTA    CN330142  30.379   0.819   7.047
    1XTA    C1130143  30.269   0.874   7.108
    1XTA    C1230144  30.193   0.798   7.195
    1XTA    C1330145  30.226   0.662   7.212
    1XTA    C1430146  30.338   0.610   7.147
    1XTA    C1530147  30.411   0.686   7.058
    1XTA     H130148  30.685   0.778   6.853
    1XTA     H230149  30.911   0.832   6.955
    1XTA     H330150  30.742   1.132   7.194
    1XTA     H430151  30.515   1.061   7.146
    1XTA     H530152  30.391   0.702   6.751
    1XTA     H630153  30.302   0.751   6.553
    1XTA     H730154  30.210   1.155   6.684
    1XTA     H830155  30.329   1.114   6.887
    1XTA     H930156  30.239   0.971   7.077
    1XTA    H1030157  30.112   0.838   7.258
    1XTA    H1130158  30.382   0.509   7.163
    1XTA    H1230159  30.497   0.649   7.022
    1XTA    OA130160  30.966   1.036   7.083
    1XTA    CO130161  30.983   1.171   7.046
    1XTA    OA230162  30.180   0.984   6.477
    1XTA    CO230163  30.143   1.118   6.453
    1XTA    CL130164  30.098   1.123   6.310
    1XTA    CL230165  30.040   1.260   6.273
    1XTA    CL330166  30.136   1.370   6.242
    1XTA    CL430167  30.114   1.507   6.320
    1XTA    CO330168  30.238   1.595   6.310
    1XTA    OA330169  30.198   1.729   6.338
    1XTA    CO430170  30.306   1.815   6.334
    1XTA    CT130171  30.269   1.965   6.363
    1XTA    CL530172  30.170   2.020   6.251
    1XTA    CL630173  30.231   2.075   6.119
    1XTA    OA430174  30.160   0.582   7.301
    1XTA    CO530175  30.077   0.490   7.239
    1XTA    CL730176  29.973   0.429   7.340
    1XTA    CL830177  29.872   0.331   7.284
    1XTA    CL930178  29.945   0.199   7.264
    1XTA   CL1030179  29.839   0.088   7.247
    1XTA    CO630180  29.914  -0.054   7.250
    1XTA    OA530181  30.000  -0.069   7.365
    1XTA    CO730182  29.922  -0.101   7.484
    1XTA    CT230183  30.010  -0.133   7.607
    1XTA   CL1130184  30.097  -0.253   7.580
    1XTA   CL1230185  30.213  -0.239   7.476
    1XTA    HL130186  30.947   1.200   6.946
    1XTA    HL230187  30.957   1.237   7.130
    1XTA    HL330188  31.091   1.186   7.045
    1XTA    HL430189  30.061   1.141   6.524
    1XTA    HL530190  30.230   1.176   6.482
    1XTA    HL630191  30.020   1.049   6.293
    1XTA    HL730192  30.184   1.102   6.253
    1XTA    HL830193  29.989   1.294   6.359
    1XTA    HL930194  29.958   1.251   6.209
    1XTA   HL1030195  30.235   1.337   6.272
    1XTA   HL1130196  30.118   1.390   6.133
    1XTA   HL1230197  30.079   1.501   6.421
    1XTA   HL1330198  30.042   1.557   6.251
    1XTA   HL1430199  30.303   1.565   6.388
    1XTA   HL1530200  30.288   1.589   6.213
    1XTA   HL1630201  30.383   1.775   6.407
    1XTA   HL1730202  30.341   1.817   6.232
    1XTA   HL1830203  30.109   2.095   6.297
    1XTA   HL1930204  30.106   1.936   6.229
    1XTA   HL2030205  30.288   2.162   6.121
    1XTA   HL2130206  30.148   2.101   6.052
    1XTA   HL2230207  30.291   2.001   6.073
    1XTA   HL2330208  30.149   0.416   7.194
    1XTA   HL2430209  30.033   0.551   7.160
    1XTA   HL2530210  30.038   0.391   7.414
    1XTA   HL2630211  29.914   0.517   7.374
    1XTA   HL2730212  29.800   0.324   7.361
    1XTA   HL2830213  29.830   0.376   7.187
    1XTA   HL2930214  30.017   0.204   7.178
    1XTA   HL3030215  30.003   0.175   7.346
    1XTA   HL3130216  29.757   0.091   7.319
    1XTA   HL3230217  29.787   0.108   7.151
    1XTA   HL3330218  29.840  -0.139   7.236
    1XTA   HL3430219  29.972  -0.055   7.156
    1XTA   HL3530220  29.851  -0.179   7.466
    1XTA   HL3630221  29.854  -0.029   7.522
    1XTA   HL3730222  30.020  -0.329   7.560
    1XTA   HL3830223  30.145  -0.288   7.672
    1XTA   HL3930224  30.182  -0.263   7.373
    1XTA   HL4030225  30.288  -0.312   7.489
    1XTA   HL4130226  30.277  -0.150   7.468
    1XTA    CO830227  30.389   2.063   6.355
    1XTA    CO930228  30.202   1.977   6.494
    1XTA    OA630229  30.277   1.913   6.590
    1XTA   HL4230230  30.440   2.052   6.257
    1XTA   HL4330231  30.465   2.017   6.426
    1XTA   HL4430232  29.992  -0.155   7.820
    1XTA   HL4530233  29.862  -0.068   7.754
    1XTA   CO1030234  29.924  -0.159   7.736
    1XTA   CO1130235  30.103  -0.014   7.638
    1XTA    OA730236  29.870  -0.257   7.735
    1XTA   HL4630237  30.165   0.023   7.518
    1XTA   HL4730238  30.047   0.079   7.664
    1XTA   HL4830239  30.098   1.936   6.492
    1XTA   HL4930240  30.185   2.077   6.518
    1XTA     NT30241  29.509   1.710   7.512
    1XTA    CN130242  29.569   1.646   7.610
    1XTA     C130243  29.585   1.509   7.599
    1XTA     C230244  29.641   1.444   7.707
    1XTA     C330245  29.675   1.511   7.828
    1XTA     C430246  29.665   1.647   7.827
    1XTA     C530247  29.610   1.723   7.720
    1XTA    CN230248  29.384   1.761   7.531
    1XTA     C630249  29.365   1.897   7.552
    1XTA     C730250  29.235   1.940   7.588
    1XTA     C830251  29.129   1.847   7.593
    1XTA     C930252  29.154   1.711   7.576
    1XTA    C1030253  29.282   1.667   7.546
    1XTA    CN330254  29.556   1.714   7.390
    1XTA    C1130255  29.696   1.748   7.372
    1XTA    C1230256  29.748   1.742   7.239
    1XTA    C1330257  29.672   1.695   7.126
    1XTA    C1430258  29.537   1.662   7.152
    1XTA    C1530259  29.480   1.670   7.281
    1XTA     H130260  29.539   1.449   7.518
    1XTA     H230261  29.647   1.336   7.708
    1XTA     H330262  29.681   1.706   7.917
    1XTA     H430263  29.589   1.829   7.736
    1XTA     H530264  29.445   1.975   7.551
    1XTA     H630265  29.214   2.036   7.627
    1XTA     H730266  29.082   1.633   7.589
    1XTA     H830267  29.310   1.559   7.541
    1XTA     H930268  29.753   1.778   7.460
    1XTA    H1030269  29.855   1.770   7.216
    1XTA    H1130270  29.470   1.634   7.071
    1XTA    H1230271  29.377   1.627   7.302
    1XTA    OA130272  29.717   1.439   7.937
    1XTA    CO130273  29.743   1.511   8.052
    1XTA    OA230274  29.005   1.880   7.642
    1XTA    CO230275  28.975   2.018   7.646
    1XTA    CL130276  28.824   2.049   7.610
    1XTA    CL230277  28.725   1.957   7.681
    1XTA    CL330278  28.753   1.944   7.829
    1XTA    CL430279  28.663   1.829   7.877
    1XTA    CO330280  28.643   1.807   8.030
    1XTA    OA330281  28.608   1.932   8.078
    1XTA    CO430282  28.557   1.935   8.205
    1XTA    CT130283  28.559   2.084   8.248
    1XTA    CL530284  28.522   2.091   8.396
    1XTA    CL630285  28.378   2.043   8.423
    1XTA    OA430286  29.718   1.685   6.996
    1XTA    CO530287  29.828   1.593   6.980
    1XTA    CL730288  29.850   1.582   6.832
    1XTA    CL830289  29.721   1.532   6.767
    1XTA    CL930290  29.733   1.544   6.610
    1XTA   CL1030291  29.717   1.685   6.553
    1XTA    CO630292  29.722   1.690   6.395
    1XTA    OA530293  29.621   1.612   6.330
    1XTA    CO730294  29.660   1.531   6.220
    1XTA    CT230295  29.566   1.414   6.207
    1XTA   CL1130296  29.566   1.317   6.329
    1XTA   CL1230297  29.686   1.248   6.358
    1XTA    HL130298  29.649   1.547   8.084
    1XTA    HL230299  29.781   1.442   8.129
    1XTA    HL330300  29.816   1.586   8.032
    1XTA    HL430301  29.001   2.059   7.746
    1XTA    HL530302  29.023   2.070   7.569
    1XTA    HL630303  28.804   2.046   7.505
    1XTA    HL730304  28.801   2.153   7.628
    1XTA    HL830305  28.723   1.862   7.632
    1XTA    HL930306  28.621   1.989   7.662
    1XTA   HL1030307  28.860   1.909   7.837
    1XTA   HL1130308  28.745   2.031   7.888
    1XTA   HL1230309  28.697   1.735   7.834
    1XTA   HL1330310  28.562   1.847   7.830
    1XTA   HL1430311  28.568   1.730   8.055
    1XTA   HL1530312  28.734   1.775   8.083
    1XTA   HL1630313  28.456   1.884   8.218
    1XTA   HL1730314  28.627   1.875   8.268
    1XTA   HL1830315  28.535   2.198   8.410
    1XTA   HL1930316  28.593   2.044   8.457
    1XTA   HL2030317  28.351   1.946   8.372
    1XTA   HL2130318  28.316   2.119   8.383
    1XTA   HL2230319  28.359   2.045   8.529
    1XTA   HL2330320  29.803   1.499   7.021
    1XTA   HL2430321  29.923   1.619   7.033
    1XTA   HL2530322  29.894   1.669   6.784
    1XTA   HL2630323  29.928   1.506   6.822
    1XTA   HL2730324  29.699   1.427   6.797
    1XTA   HL2830325  29.630   1.583   6.791
    1XTA   HL2930326  29.825   1.503   6.587
    1XTA   HL3030327  29.657   1.473   6.566
    1XTA   HL3130328  29.613   1.721   6.576
    1XTA   HL3230329  29.793   1.748   6.592
    1XTA   HL3330330  29.704   1.784   6.359
    1XTA   HL3430331  29.822   1.654   6.376
    1XTA   HL3530332  29.758   1.491   6.237
    1XTA   HL3630333  29.664   1.593   6.130
    1XTA   HL3730334  29.486   1.245   6.315
    1XTA   HL3830335  29.527   1.371   6.418
    1XTA   HL3930336  29.680   1.194   6.456
    1XTA   HL4030337  29.769   1.311   6.359
    1XTA   HL4130338  29.696   1.169   6.279
    1XTA    CO830339  28.469   2.159   8.150
    1XTA    CO930340  28.698   2.147   8.229
    1XTA    OA630341  28.428   2.288   8.194
    1XTA   HL4230342  28.378   2.097   8.141
    1XTA   HL4330343  28.514   2.157   8.051
    1XTA   HL4430344  29.550   1.405   5.990
    1XTA   HL4530345  29.696   1.326   6.078
    1XTA   CO1030346  29.584   1.340   6.082
    1XTA   CO1130347  29.425   1.473   6.207
    1XTA    OA730348  29.533   1.248   6.082
    1XTA   HL4630349  29.382   1.544   6.319
    1XTA   HL4730350  29.430   1.547   6.130
    1XTA   HL4830351  28.730   2.127   8.127
    1XTA   HL4930352  28.703   2.255   8.258
    1XTA     NT30353  29.997   1.350   7.366
    1XTA    CN130354  29.888   1.327   7.293
    1XTA     C130355  29.769   1.398   7.318
    1XTA     C230356  29.650   1.371   7.248
    1XTA     C330357  29.647   1.268   7.156
    1XTA     C430358  29.765   1.195   7.134
    1XTA     C530359  29.880   1.222   7.205
    1XTA    CN230360  29.988   1.335   7.500
    1XTA     C630361  29.946   1.211   7.561
    1XTA     C730362  29.957   1.195   7.698
    1XTA     C830363  30.029   1.286   7.775
    1XTA     C930364  30.060   1.408   7.717
    1XTA    C1030365  30.038   1.435   7.580
    1XTA    CN330366  30.112   1.384   7.303
    1XTA    C1130367  30.210   1.284   7.296
    1XTA    C1230368  30.339   1.317   7.246
    1XTA    C1330369  30.360   1.448   7.193
    1XTA    C1430370  30.263   1.545   7.210
    1XTA    C1530371  30.139   1.515   7.264
    1XTA     H130372  29.759   1.470   7.398
    1XTA     H230373  29.558   1.425   7.262
    1XTA     H330374  29.780   1.104   7.070
    1XTA     H430375  29.977   1.161   7.192
    1XTA     H530376  29.898   1.131   7.503
    1XTA     H630377  29.911   1.113   7.747
    1XTA     H730378  30.102   1.484   7.781
    1XTA     H830379  30.074   1.527   7.530
    1XTA     H930380  30.178   1.188   7.339
    1XTA    H1030381  30.405   1.236   7.239
    1XTA    H1130382  30.280   1.647   7.179
    1XTA    H1230383  30.061   1.594   7.279
    1XTA    OA130384  29.539   1.246   7.068
    1XTA    CO130385  29.426   1.334   7.067
    1XTA    OA230386  30.042   1.261   7.907
    1XTA    CO230387  30.089   1.365   8.000
    1XTA    CL130388  30.122   1.297   8.132
    1XTA    CL230389  30.255   1.231   8.125
    1XTA    CL330390  30.300   1.141   8.251
    1XTA    CL430391  30.409   1.029   8.230
    1XTA    CO330392  30.351   0.911   8.143
    1XTA    OA330393  30.455   0.807   8.122
    1XTA    CO430394  30.508   0.810   7.987
    1XTA    CT130395  30.638   0.730   7.970
    1XTA    CL530396  30.732   0.736   8.090
    1XTA    CL630397  30.783   0.869   8.131
    1XTA    OA430398  30.477   1.494   7.140
    1XTA    CO530399  30.580   1.392   7.119
    1XTA    CL730400  30.694   1.465   7.042
    1XTA    CL830401  30.657   1.527   6.908
    1XTA    CL930402  30.622   1.414   6.808
    1XTA   CL1030403  30.590   1.480   6.670
    1XTA    CO630404  30.529   1.375   6.587
    1XTA    OA530405  30.528   1.415   6.446
    1XTA    CO730406  30.652   1.398   6.375
    1XTA    CT230407  30.637   1.410   6.220
    1XTA   CL1130408  30.535   1.300   6.182
    1XTA   CL1230409  30.583   1.152   6.206
    1XTA    HL130410  29.350   1.288   7.006
    1XTA    HL230411  29.386   1.340   7.177
    1XTA    HL330412  29.445   1.435   7.024
    1XTA    HL430413  30.177   1.421   7.963
    1XTA    HL530414  30.007   1.434   8.023
    1XTA    HL630415  30.039   1.229   8.163
    1XTA    HL730416  30.107   1.362   8.217
    1XTA    HL830417  30.334   1.302   8.097
    1XTA    HL930418  30.248   1.162   8.038
    1XTA   HL1030419  30.352   1.198   8.333
    1XTA   HL1130420  30.213   1.107   8.303
    1XTA   HL1230421  30.437   0.989   8.330
    1XTA   HL1330422  30.497   1.077   8.198
    1XTA   HL1430423  30.265   0.880   8.209
    1XTA   HL1530424  30.303   0.940   8.052
    1XTA   HL1630425  30.432   0.790   7.914
    1XTA   HL1730426  30.531   0.922   7.974
    1XTA   HL1830427  30.817   0.668   8.073
    1XTA   HL1930428  30.683   0.688   8.174
    1XTA   HL2030429  30.865   0.858   8.195
    1XTA   HL2130430  30.703   0.916   8.183
    1XTA   HL2230431  30.808   0.933   8.052
    1XTA   HL2330432  30.538   1.309   7.061
    1XTA   HL2430433  30.614   1.367   7.225
    1XTA   HL2530434  30.723   1.551   7.110
    1XTA   HL2630435  30.783   1.402   7.039
    1XTA   HL2730436  30.566   1.589   6.916
    1XTA   HL2830437  30.735   1.587   6.868
    1XTA   HL2930438  30.699   1.340   6.785
    1XTA   HL3030439  30.544   1.362   6.856
    1XTA   HL3130440  30.520   1.565   6.676
    1XTA   HL3230441  30.681   1.512   6.626
    1XTA   HL3330442  30.595   1.285   6.605
    1XTA   HL3430443  30.432   1.350   6.620
    1XTA   HL3530444  30.689   1.298   6.399
    1XTA   HL3630445  30.715   1.484   6.396
    1XTA   HL3730446  30.514   1.295   6.076
    1XTA   HL3830447  30.445   1.320   6.238
    1XTA   HL3930448  30.496   1.088   6.175
    1XTA   HL4030449  30.596   1.144   6.310
    1XTA   HL4130450  30.675   1.103   6.170
    1XTA    CO830451  30.715   0.782   7.855
    1XTA    CO930452  30.586   0.596   7.935
    1XTA    OA630453  30.533   0.528   8.050
    1XTA   HL4230454  30.752   0.887   7.875
    1XTA   HL4330455  30.799   0.711   7.857
    1XTA   HL4430456  30.795   1.288   6.153
    1XTA   HL4530457  30.738   1.400   6.036
    1XTA   CO1030458  30.757   1.391   6.139
    1XTA   CO1130459  30.575   1.544   6.181
    1XTA    OA730460  30.865   1.484   6.170
    1XTA   HL4630461  30.519   1.584   6.260
    1XTA   HL4730462  30.661   1.607   6.176
    1XTA   HL4830463  30.660   0.528   7.897
    1XTA   HL4930464  30.513   0.587   7.852
    1XTA     NT30465  29.201  -2.862  -1.103
    1XTA    CN130466  29.067  -2.853  -1.119
    1XTA     C130467  28.985  -2.914  -1.017
    1XTA     C230468  28.844  -2.907  -1.036
    1XTA     C330469  28.788  -2.830  -1.141
    1XTA     C430470  28.866  -2.758  -1.232
    1XTA     C530471  29.010  -2.767  -1.223
    1XTA    CN230472  29.266  -2.965  -1.039
    1XTA     C630473  29.308  -2.957  -0.908
    1XTA     C730474  29.381  -3.058  -0.852
    1XTA     C830475  29.429  -3.173  -0.929
    1XTA     C930476  29.392  -3.177  -1.065
    1XTA    C1030477  29.303  -3.076  -1.121
    1XTA    CN330478  29.267  -2.747  -1.093
    1XTA    C1130479  29.215  -2.635  -1.024
    1XTA    C1230480  29.292  -2.519  -1.000
    1XTA    C1330481  29.424  -2.513  -1.055
    1XTA    C1430482  29.478  -2.625  -1.128
    1XTA    C1530483  29.398  -2.739  -1.145
    1XTA     H130484  29.026  -2.972  -0.933
    1XTA     H230485  28.779  -2.955  -0.965
    1XTA     H330486  28.822  -2.709  -1.321
    1XTA     H430487  29.074  -2.712  -1.297
    1XTA     H530488  29.275  -2.877  -0.842
    1XTA     H630489  29.407  -3.051  -0.750
    1XTA     H730490  29.441  -3.260  -1.121
    1XTA     H830491  29.281  -3.082  -1.223
    1XTA     H930492  29.119  -2.646  -0.977
    1XTA    H1030493  29.248  -2.443  -0.937
    1XTA    H1130494  29.579  -2.622  -1.165
    1XTA    H1230495  29.427  -2.827  -1.199
    1XTA    OA130496  28.658  -2.833  -1.171
    1XTA    CO130497  28.575  -2.942  -1.121
    1XTA    OA230498  29.511  -3.262  -0.868
    1XTA    CO230499  29.561  -3.371  -0.950
    1XTA    CL130500  29.663  -3.450  -0.877
    1XTA    CL230501  29.601  -3.553  -0.786
    1XTA    CL330502  29.716  -3.622  -0.700
    1XTA    CL430503  29.763  -3.532  -0.582
    1XTA    CO330504  29.893  -3.454  -0.602
    1XTA    OA330505  29.897  -3.319  -0.545
    1XTA    CO430506  29.796  -3.228  -0.597
    1XTA    CT130507  29.779  -3.113  -0.490
    1XTA    CL530508  29.917  -3.049  -0.458
    1XTA    CL630509  29.997  -2.981  -0.566
    1XTA    OA430510  29.500  -2.403  -1.021
    1XTA    CO530511  29.581  -2.359  -1.132
    1XTA    CL730512  29.483  -2.291  -1.229
    1XTA    CL830513  29.423  -2.167  -1.168
    1XTA    CL930514  29.280  -2.145  -1.216
    1XTA   CL1030515  29.183  -2.242  -1.140
    1XTA    CO630516  29.039  -2.211  -1.166
    1XTA    OA530517  28.983  -2.144  -1.051
    1XTA    CO730518  28.987  -2.007  -1.078
    1XTA    CT230519  28.922  -1.922  -0.962
    1XTA   CL1130520  28.977  -1.955  -0.814
    1XTA   CL1230521  29.132  -1.970  -0.810
    1XTA    HL130522  28.473  -2.927  -1.167
    1XTA    HL230523  28.612  -3.048  -1.142
    1XTA    HL330524  28.562  -2.928  -1.009
    1XTA    HL430525  29.477  -3.430  -0.979
    1XTA    HL530526  29.605  -3.324  -1.034
    1XTA    HL630527  29.725  -3.380  -0.816
    1XTA    HL730528  29.719  -3.502  -0.954
    1XTA    HL830529  29.549  -3.626  -0.852
    1XTA    HL930530  29.520  -3.510  -0.721
    1XTA   HL1030531  29.681  -3.725  -0.663
    1XTA   HL1130532  29.805  -3.644  -0.757
    1XTA   HL1230533  29.792  -3.600  -0.502
    1XTA   HL1330534  29.683  -3.493  -0.526
    1XTA   HL1430535  29.980  -3.515  -0.569
    1XTA   HL1530536  29.899  -3.431  -0.711
    1XTA   HL1630537  29.822  -3.194  -0.695
    1XTA   HL1730538  29.698  -3.271  -0.620
    1XTA   HL1830539  29.988  -3.123  -0.419
    1XTA   HL1930540  29.906  -2.979  -0.370
    1XTA   HL2030541  30.098  -2.963  -0.537
    1XTA   HL2130542  29.946  -2.882  -0.586
    1XTA   HL2230543  30.010  -3.037  -0.664
    1XTA   HL2330544  29.646  -2.436  -1.171
    1XTA   HL2430545  29.653  -2.285  -1.098
    1XTA   HL2530546  29.538  -2.252  -1.318
    1XTA   HL2630547  29.411  -2.351  -1.270
    1XTA   HL2730548  29.425  -2.173  -1.061
    1XTA   HL2830549  29.503  -2.087  -1.184
    1XTA   HL2930550  29.248  -2.038  -1.208
    1XTA   HL3030551  29.279  -2.160  -1.327
    1XTA   HL3130552  29.217  -2.338  -1.183
    1XTA   HL3230553  29.218  -2.250  -1.035
    1XTA   HL3330554  29.025  -2.168  -1.263
    1XTA   HL3430555  28.982  -2.302  -1.170
    1XTA   HL3530556  28.936  -1.991  -1.166
    1XTA   HL3630557  29.095  -1.979  -1.080
    1XTA   HL3730558  28.933  -2.047  -0.785
    1XTA   HL3830559  28.948  -1.870  -0.749
    1XTA   HL3930560  29.164  -2.056  -0.870
    1XTA   HL4030561  29.163  -1.993  -0.712
    1XTA   HL4130562  29.194  -1.884  -0.833
    1XTA    CO830563  29.729  -3.180  -0.360
    1XTA    CO930564  29.680  -3.007  -0.528
    1XTA    OA630565  29.707  -2.944  -0.614
    1XTA   HL4230566  29.637  -3.233  -0.382
    1XTA   HL4330567  29.818  -3.280  -0.307
    1XTA   HL4430568  28.761  -2.066  -0.946
    1XTA   HL4530569  28.738  -1.913  -0.866
    1XTA   CO1030570  28.771  -1.958  -0.954
    1XTA   CO1130571  28.929  -1.767  -0.987
    1XTA    OA730572  28.711  -1.923  -1.038
    1XTA   HL4630573  28.821  -1.713  -0.926
    1XTA   HL4730574  28.905  -1.764  -1.093
    1XTA   HL4830575  29.645  -2.930  -0.454
    1XTA   HL4930576  29.584  -3.060  -0.538
    1XTA     NT30577  31.183  -1.435   0.567
    1XTA    CN130578  31.202  -1.540   0.488
    1XTA     C130579  31.329  -1.576   0.438
    1XTA     C230580  31.348  -1.684   0.351
    1XTA     C330581  31.235  -1.761   0.314
    1XTA     C430582  31.108  -1.734   0.365
    1XTA     C530583  31.091  -1.620   0.455
    1XTA    CN230584  31.168  -1.313   0.511
    1XTA     C630585  31.265  -1.212   0.533
    1XTA     C730586  31.250  -1.084   0.490
    1XTA     C830587  31.140  -1.051   0.413
    1XTA     C930588  31.045  -1.153   0.386
    1XTA    C1030589  31.054  -1.282   0.439
    1XTA    CN330590  31.203  -1.443   0.699
    1XTA    C1130591  31.105  -1.437   0.802
    1XTA    C1230592  31.142  -1.440   0.940
    1XTA    C1330593  31.271  -1.460   0.984
    1XTA    C1430594  31.366  -1.453   0.879
    1XTA    C1530595  31.334  -1.445   0.747
    1XTA     H130596  31.413  -1.509   0.464
    1XTA     H230597  31.443  -1.702   0.300
    1XTA     H330598  31.029  -1.789   0.331
    1XTA     H430599  30.994  -1.592   0.489
    1XTA     H530600  31.350  -1.234   0.597
    1XTA     H630601  31.322  -1.004   0.519
    1XTA     H730602  30.955  -1.114   0.342
    1XTA     H830603  30.971  -1.350   0.432
    1XTA     H930604  31.003  -1.434   0.772
    1XTA    H1030605  31.064  -1.435   1.010
    1XTA    H1130606  31.465  -1.465   0.898
    1XTA    H1230607  31.417  -1.465   0.680
    1XTA    OA130608  31.264  -1.853   0.211
    1XTA    CO130609  31.159  -1.895   0.128
    1XTA    OA230610  31.116  -0.924   0.377
    1XTA    CO230611  30.987  -0.875   0.398
    1XTA    CL130612  30.999  -0.727   0.432
    1XTA    CL230613  30.878  -0.676   0.497
    1XTA    CL330614  30.880  -0.521   0.494
    1XTA    CL430615  30.767  -0.456   0.570
    1XTA    CO330616  30.782  -0.471   0.731
    1XTA    OA330617  30.913  -0.440   0.773
    1XTA    CO430618  30.974  -0.541   0.857
    1XTA    CT130619  31.102  -0.488   0.922
    1XTA    CL530620  31.210  -0.484   0.810
    1XTA    CL630621  31.245  -0.602   0.728
    1XTA    OA430622  31.301  -1.480   1.121
    1XTA    CO530623  31.431  -1.540   1.155
    1XTA    CL730624  31.428  -1.692   1.160
    1XTA    CL830625  31.556  -1.753   1.201
    1XTA    CL930626  31.541  -1.905   1.196
    1XTA   CL1030627  31.673  -1.979   1.169
    1XTA    CO630628  31.719  -1.985   1.020
    1XTA    OA530629  31.819  -2.082   1.011
    1XTA    CO730630  31.869  -2.092   0.880
    1XTA    CT230631  31.967  -2.219   0.873
    1XTA   CL1130632  32.075  -2.193   0.980
    1XTA   CL1230633  32.188  -2.300   0.977
    1XTA    HL130634  31.110  -1.811   0.076
    1XTA    HL230635  31.208  -1.956   0.049
    1XTA    HL330636  31.089  -1.959   0.182
    1XTA    HL430637  30.916  -0.892   0.316
    1XTA    HL530638  30.938  -0.930   0.480
    1XTA    HL630639  31.027  -0.672   0.342
    1XTA    HL730640  31.085  -0.720   0.502
    1XTA    HL830641  30.892  -0.703   0.598
    1XTA    HL930642  30.793  -0.728   0.456
    1XTA   HL1030643  30.982  -0.485   0.526
    1XTA   HL1130644  30.879  -0.488   0.391
    1XTA   HL1230645  30.676  -0.507   0.543
    1XTA   HL1330646  30.754  -0.353   0.534
    1XTA   HL1430647  30.712  -0.406   0.783
    1XTA   HL1530648  30.748  -0.571   0.756
    1XTA   HL1630649  30.906  -0.555   0.940
    1XTA   HL1730650  30.977  -0.642   0.820
    1XTA   HL1830651  31.302  -0.443   0.852
    1XTA   HL1930652  31.167  -0.411   0.738
    1XTA   HL2030653  31.320  -0.574   0.653
    1XTA   HL2130654  31.151  -0.638   0.687
    1XTA   HL2230655  31.304  -0.668   0.786
    1XTA   HL2330656  31.457  -1.505   1.252
    1XTA   HL2430657  31.509  -1.498   1.087
    1XTA   HL2530658  31.361  -1.727   1.237
    1XTA   HL2630659  31.372  -1.734   1.078
    1XTA   HL2730660  31.631  -1.728   1.128
    1XTA   HL2830661  31.582  -1.720   1.300
    1XTA   HL2930662  31.502  -1.937   1.293
    1XTA   HL3030663  31.465  -1.938   1.124
    1XTA   HL3130664  31.758  -1.946   1.226
    1XTA   HL3230665  31.658  -2.073   1.196
    1XTA   HL3330666  31.622  -2.001   0.967
    1XTA   HL3430667  31.762  -1.887   0.991
    1XTA   HL3530668  31.921  -1.998   0.868
    1XTA   HL3630669  31.790  -2.100   0.803
    1XTA   HL3730670  32.026  -2.209   1.074
    1XTA   HL3830671  32.123  -2.096   0.967
    1XTA   HL3930672  32.167  -2.386   1.037
    1XTA   HL4030673  32.280  -2.256   1.014
    1XTA   HL4130674  32.200  -2.337   0.878
    1XTA    CO830675  31.137  -0.581   1.035
    1XTA    CO930676  31.073  -0.344   0.978
    1XTA    OA630677  30.995  -0.343   1.061
    1XTA   HL4230678  31.218  -0.526   1.088
    1XTA   HL4330679  31.033  -0.614   1.133
    1XTA   HL4430680  32.062  -2.329   0.715
    1XTA   HL4530681  31.933  -2.220   0.655
    1XTA   CO1030682  32.019  -2.226   0.722
    1XTA   CO1130683  31.881  -2.344   0.893
    1XTA    OA730684  32.084  -2.144   0.701
    1XTA   HL4630685  31.946  -2.458   0.936
    1XTA   HL4730686  31.821  -2.311   0.984
    1XTA   HL4830687  31.032  -0.268   0.909
    1XTA   HL4930688  31.174  -0.312   1.009
    1XTA     NT30689  30.475   0.368   4.655
    1XTA    CN130690  30.403   0.253   4.637
    1XTA     C130691  30.267   0.249   4.603
    1XTA     C230692  30.196   0.133   4.575
    1XTA     C330693  30.259   0.006   4.583
    1XTA     C430694  30.387   0.007   4.639
    1XTA     C530695  30.464   0.125   4.656
    1XTA    CN230696  30.486   0.419   4.779
    1XTA     C630697  30.421   0.544   4.809
    1XTA     C730698  30.408   0.585   4.944
    1XTA     C830699  30.479   0.517   5.040
    1XTA     C930700  30.554   0.409   5.009
    1XTA    C1030701  30.555   0.351   4.882
    1XTA    CN330702  30.536   0.437   4.549
    1XTA    C1130703  30.496   0.566   4.502
    1XTA    C1230704  30.575   0.631   4.403
    1XTA    C1330705  30.686   0.569   4.348
    1XTA    C1430706  30.714   0.435   4.388
    1XTA    C1530707  30.646   0.371   4.491
    1XTA     H130708  30.204   0.339   4.593
    1XTA     H230709  30.092   0.144   4.555
    1XTA     H330710  30.432  -0.090   4.656
    1XTA     H430711  30.574   0.126   4.681
    1XTA     H530712  30.359   0.591   4.729
    1XTA     H630713  30.355   0.681   4.968
    1XTA     H730714  30.607   0.367   5.092
    1XTA     H830715  30.601   0.256   4.866
    1XTA     H930716  30.410   0.611   4.549
    1XTA    H1030717  30.563   0.739   4.374
    1XTA    H1130718  30.802   0.391   4.337
    1XTA    H1230719  30.678   0.267   4.520
    1XTA    OA130720  30.192  -0.107   4.537
    1XTA    CO130721  30.199  -0.225   4.623
    1XTA    OA230722  30.475   0.549   5.173
    1XTA    CO230723  30.389   0.661   5.211
    1XTA    CL130724  30.392   0.662   5.367
    1XTA    CL230725  30.304   0.561   5.436
    1XTA    CL330726  30.159   0.614   5.445
    1XTA    CL430727  30.083   0.533   5.548
    1XTA    CO330728  30.042   0.400   5.486
    1XTA    OA330729  29.978   0.322   5.583
    1XTA    CO430730  29.943   0.194   5.522
    1XTA    CT130731  29.908   0.096   5.633
    1XTA    CL530732  29.859  -0.042   5.581
    1XTA    CL630733  29.828  -0.147   5.690
    1XTA    OA430734  30.769   0.618   4.249
    1XTA    CO530735  30.764   0.755   4.224
    1XTA    CL730736  30.859   0.806   4.120
    1XTA    CL830737  30.853   0.956   4.109
    1XTA    CL930738  30.946   1.019   4.010
    1XTA   CL1030739  31.089   1.026   4.056
    1XTA    CO630740  31.187   1.068   3.944
    1XTA    OA530741  31.162   1.198   3.897
    1XTA    CO730742  31.183   1.298   4.003
    1XTA    CT230743  31.133   1.438   3.951
    1XTA   CL1130744  30.989   1.411   3.898
    1XTA   CL1230745  30.929   1.534   3.830
    1XTA    HL130746  30.173  -0.205   4.725
    1XTA    HL230747  30.125  -0.297   4.587
    1XTA    HL330748  30.300  -0.270   4.614
    1XTA    HL430749  30.420   0.763   5.176
    1XTA    HL530750  30.287   0.650   5.175
    1XTA    HL630751  30.348   0.758   5.400
    1XTA    HL730752  30.500   0.658   5.398
    1XTA    HL830753  30.344   0.553   5.536
    1XTA    HL930754  30.314   0.462   5.385
    1XTA   HL1030755  30.159   0.721   5.482
    1XTA   HL1130756  30.106   0.618   5.350
    1XTA   HL1230757  29.988   0.584   5.568
    1XTA   HL1330758  30.127   0.519   5.647
    1XTA   HL1430759  29.968   0.425   5.407
    1XTA   HL1530760  30.128   0.356   5.445
    1XTA   HL1630761  29.859   0.214   5.452
    1XTA   HL1730762  30.032   0.154   5.461
    1XTA   HL1830763  29.944  -0.084   5.525
    1XTA   HL1930764  29.782  -0.026   5.515
    1XTA   HL2030765  29.804  -0.244   5.645
    1XTA   HL2130766  29.737  -0.116   5.735
    1XTA   HL2230767  29.905  -0.167   5.751
    1XTA   HL2330768  30.787   0.803   4.315
    1XTA   HL2430769  30.658   0.766   4.198
    1XTA   HL2530770  30.961   0.777   4.142
    1XTA   HL2630771  30.834   0.758   4.020
    1XTA   HL2730772  30.755   0.993   4.096
    1XTA   HL2830773  30.883   0.988   4.206
    1XTA   HL2930774  30.935   0.965   3.917
    1XTA   HL3030775  30.916   1.122   3.997
    1XTA   HL3130776  31.097   1.085   4.152
    1XTA   HL3230777  31.123   0.928   4.098
    1XTA   HL3330778  31.290   1.055   3.988
    1XTA   HL3430779  31.185   0.999   3.863
    1XTA   HL3530780  31.286   1.299   4.026
    1XTA   HL3630781  31.121   1.273   4.090
    1XTA   HL3730782  30.925   1.392   3.981
    1XTA   HL3830783  30.973   1.338   3.818
    1XTA   HL3930784  30.833   1.522   3.773
    1XTA   HL4030785  30.998   1.563   3.754
    1XTA   HL4130786  30.913   1.616   3.902
    1XTA    CO830787  29.799   0.167   5.713
    1XTA    CO930788  30.026   0.081   5.733
    1XTA    OA630789  30.106   0.020   5.693
    1XTA   HL4230790  29.785   0.111   5.811
    1XTA   HL4330791  29.811   0.304   5.733
    1XTA   HL4430792  31.330   1.458   3.860
    1XTA   HL4530793  31.205   1.438   3.762
    1XTA   CO1030794  31.231   1.493   3.846
    1XTA   CO1130795  31.135   1.542   4.065
    1XTA    OA730796  31.236   1.631   3.823
    1XTA   HL4630797  31.102   1.641   4.038
    1XTA   HL4730798  31.237   1.555   4.094
    1XTA   HL4830799  29.997   0.029   5.826
    1XTA   HL4930800  30.069   0.180   5.764
    1XTA     NT30801  30.623   5.631   4.504
    1XTA    CN130802  30.630   5.752   4.450
    1XTA     C130803  30.724   5.846   4.507
    1XTA     C230804  30.718   5.981   4.464
    1XTA     C330805  30.628   6.027   4.369
    1XTA     C430806  30.544   5.933   4.302
    1XTA     C530807  30.557   5.793   4.335
    1XTA    CN230808  30.508   5.600   4.568
    1XTA     C630809  30.467   5.667   4.681
    1XTA     C730810  30.348   5.630   4.744
    1XTA     C830811  30.285   5.510   4.707
    1XTA     C930812  30.320   5.451   4.585
    1XTA    C1030813  30.436   5.488   4.517
    1XTA    CN330814  30.740   5.561   4.520
    1XTA    C1130815  30.808   5.512   4.407
    1XTA    C1230816  30.922   5.426   4.423
    1XTA    C1330817  30.966   5.390   4.551
    1XTA    C1430818  30.900   5.448   4.665
    1XTA    C1530819  30.793   5.533   4.650
    1XTA     H130820  30.788   5.811   4.590
    1XTA     H230821  30.769   6.069   4.501
    1XTA     H330822  30.479   5.967   4.230
    1XTA     H430823  30.483   5.722   4.297
    1XTA     H530824  30.530   5.738   4.731
    1XTA     H630825  30.322   5.683   4.834
    1XTA     H730826  30.257   5.368   4.549
    1XTA     H830827  30.464   5.440   4.425
    1XTA     H930828  30.772   5.527   4.307
    1XTA    H1030829  30.965   5.386   4.338
    1XTA    H1130830  30.953   5.431   4.757
    1XTA    H1230831  30.749   5.579   4.734
    1XTA    OA130832  30.631   6.161   4.331
    1XTA    CO130833  30.499   6.209   4.301
    1XTA    OA230834  30.183   5.458   4.786
    1XTA    CO230835  30.183   5.488   4.928
    1XTA    CL130836  30.123   5.378   5.014
    1XTA    CL230837  30.189   5.245   4.983
    1XTA    CL330838  30.122   5.120   5.046
    1XTA    CL430839  30.002   5.069   4.973
    1XTA    CO330840  29.921   4.956   5.045
    1XTA    OA330841  29.802   4.940   4.973
    1XTA    CO430842  29.714   4.849   5.023
    1XTA    CT130843  29.584   4.845   4.944
    1XTA    CL530844  29.481   4.961   4.982
    1XTA    CL630845  29.530   5.107   4.988
    1XTA    OA430846  31.070   5.302   4.580
    1XTA    CO530847  31.098   5.208   4.477
    1XTA    CL730848  31.202   5.103   4.528
    1XTA    CL830849  31.245   5.006   4.414
    1XTA    CL930850  31.190   4.866   4.430
    1XTA   CL1030851  31.048   4.849   4.379
    1XTA    CO630852  31.011   4.703   4.386
    1XTA    OA530853  30.882   4.705   4.341
    1XTA    CO730854  30.824   4.575   4.313
    1XTA    CT230855  30.804   4.573   4.155
    1XTA   CL1130856  30.736   4.444   4.096
    1XTA   CL1230857  30.648   4.360   4.191
    1XTA    HL130858  30.429   6.204   4.393
    1XTA    HL230859  30.525   6.317   4.292
    1XTA    HL330860  30.457   6.163   4.209
    1XTA    HL430861  30.281   5.505   4.960
    1XTA    HL530862  30.122   5.571   4.952
    1XTA    HL630863  30.019   5.377   5.003
    1XTA    HL730864  30.152   5.403   5.115
    1XTA    HL830865  30.297   5.253   5.004
    1XTA    HL930866  30.172   5.228   4.877
    1XTA   HL1030867  30.195   5.039   5.046
    1XTA   HL1130868  30.105   5.134   5.154
    1XTA   HL1230869  30.031   5.027   4.876
    1XTA   HL1330870  29.933   5.155   4.956
    1XTA   HL1430871  29.978   4.868   5.052
    1XTA   HL1530872  29.881   4.993   5.147
    1XTA   HL1630873  29.760   4.754   5.018
    1XTA   HL1730874  29.684   4.872   5.124
    1XTA   HL1830875  29.429   4.929   5.077
    1XTA   HL1930876  29.384   4.945   4.923
    1XTA   HL2030877  29.466   5.155   5.066
    1XTA   HL2130878  29.523   5.153   4.886
    1XTA   HL2230879  29.632   5.122   5.021
    1XTA   HL2330880  31.140   5.255   4.384
    1XTA   HL2430881  31.012   5.156   4.439
    1XTA   HL2530882  31.289   5.159   4.576
    1XTA   HL2630883  31.169   5.038   4.609
    1XTA   HL2730884  31.216   5.038   4.315
    1XTA   HL2830885  31.357   4.994   4.417
    1XTA   HL2930886  31.261   4.803   4.365
    1XTA   HL3030887  31.201   4.830   4.529
    1XTA   HL3130888  30.971   4.896   4.434
    1XTA   HL3230889  31.049   4.889   4.278
    1XTA   HL3330890  31.090   4.641   4.341
    1XTA   HL3430891  31.013   4.676   4.496
    1XTA   HL3530892  30.747   4.551   4.376
    1XTA   HL3630893  30.894   4.497   4.350
    1XTA   HL3730894  30.817   4.371   4.065
    1XTA   HL3830895  30.687   4.471   4.005
    1XTA   HL3930896  30.567   4.414   4.237
    1XTA   HL4030897  30.701   4.323   4.277
    1XTA   HL4130898  30.605   4.278   4.138
    1XTA    CO830899  29.517   4.713   4.975
    1XTA    CO930900  29.610   4.845   4.791
    1XTA    OA630901  29.507   4.679   5.079
    1XTA   HL4230902  29.563   4.635   4.911
    1XTA   HL4330903  29.422   4.720   4.928
    1XTA   HL4430904  30.932   4.605   3.986
    1XTA   HL4530905  30.969   4.705   4.129
    1XTA   CO1030906  30.942   4.606   4.095
    1XTA   CO1130907  30.711   4.696   4.122
    1XTA    OA730908  31.025   4.532   4.118
    1XTA   HL4630909  30.723   4.802   4.208
    1XTA   HL4730910  30.608   4.661   4.129
    1XTA   HL4830911  29.726   4.778   4.757
    1XTA   HL4930912  29.613   4.951   4.757
    1XTA     NT30913  28.011  -0.481   2.406
    1XTA    CN130914  28.054  -0.471   2.281
    1XTA     C130915  27.968  -0.510   2.176
    1XTA     C230916  28.000  -0.488   2.043
    1XTA     C330917  28.119  -0.428   2.010
    1XTA     C430918  28.210  -0.393   2.113
    1XTA     C530919  28.177  -0.417   2.243
    1XTA    CN230920  28.074  -0.559   2.495
    1XTA     C630921  28.032  -0.690   2.518
    1XTA     C730922  28.097  -0.777   2.608
    1XTA     C830923  28.193  -0.728   2.693
    1XTA     C930924  28.236  -0.596   2.675
    1XTA    C1030925  28.173  -0.511   2.577
    1XTA    CN330926  27.897  -0.425   2.447
    1XTA    C1130927  27.893  -0.290   2.487
    1XTA    C1230928  27.775  -0.226   2.528
    1XTA    C1330929  27.653  -0.308   2.539
    1XTA    C1430930  27.660  -0.440   2.492
    1XTA    C1530931  27.778  -0.499   2.448
    1XTA     H130932  27.876  -0.550   2.196
    1XTA     H230933  27.934  -0.505   1.964
    1XTA     H330934  28.300  -0.352   2.083
    1XTA     H430935  28.239  -0.390   2.327
    1XTA     H530936  27.961  -0.719   2.447
    1XTA     H630937  28.073  -0.886   2.604
    1XTA     H730938  28.316  -0.551   2.736
    1XTA     H830939  28.207  -0.403   2.574
    1XTA     H930940  27.982  -0.235   2.482
    1XTA    H1030941  27.789  -0.125   2.552
    1XTA    H1130942  27.581  -0.512   2.486
    1XTA    H1230943  27.773  -0.596   2.402
    1XTA    OA130944  28.147  -0.401   1.876
    1XTA    CO130945  28.230  -0.296   1.842
    1XTA    OA230946  28.253  -0.814   2.781
    1XTA    CO230947  28.370  -0.763   2.854
    1XTA    CL130948  28.429  -0.888   2.908
    1XTA    CL230949  28.554  -0.869   3.000
    1XTA    CL330950  28.586  -0.991   3.088
    1XTA    CL430951  28.642  -1.102   2.997
    1XTA    CO330952  28.627  -1.237   3.061
    1XTA    OA330953  28.699  -1.342   2.998
    1XTA    CO430954  28.662  -1.360   2.861
    1XTA    CT130955  28.690  -1.502   2.818
    1XTA    CL530956  28.662  -1.610   2.930
    1XTA    CL630957  28.519  -1.645   2.968
    1XTA    OA430958  27.531  -0.250   2.571
    1XTA    CO530959  27.524  -0.139   2.654
    1XTA    CL730960  27.590  -0.182   2.789
    1XTA    CL830961  27.693  -0.085   2.838
    1XTA    CL930962  27.627   0.035   2.905
    1XTA   CL1030963  27.728   0.128   2.980
    1XTA    CO630964  27.655   0.241   3.055
    1XTA    OA530965  27.751   0.299   3.148
    1XTA    CO730966  27.851   0.385   3.091
    1XTA    CT230967  27.970   0.405   3.191
    1XTA   CL1130968  28.038   0.272   3.214
    1XTA   CL1230969  28.126   0.223   3.097
    1XTA    HL130970  28.334  -0.303   1.864
    1XTA    HL230971  28.223  -0.264   1.740
    1XTA    HL330972  28.197  -0.204   1.895
    1XTA    HL430973  28.452  -0.715   2.800
    1XTA    HL530974  28.364  -0.695   2.937
    1XTA    HL630975  28.460  -0.951   2.827
    1XTA    HL730976  28.354  -0.945   2.970
    1XTA    HL830977  28.550  -0.784   3.060
    1XTA    HL930978  28.643  -0.847   2.940
    1XTA   HL1030979  28.674  -0.956   3.132
    1XTA   HL1130980  28.517  -1.029   3.163
    1XTA   HL1230981  28.745  -1.089   2.972
    1XTA   HL1330982  28.593  -1.089   2.902
    1XTA   HL1430983  28.648  -1.239   3.167
    1XTA   HL1530984  28.517  -1.245   3.049
    1XTA   HL1630985  28.564  -1.350   2.869
    1XTA   HL1730986  28.711  -1.283   2.800
    1XTA   HL1830987  28.720  -1.585   3.014
    1XTA   HL1930988  28.716  -1.704   2.894
    1XTA   HL2030989  28.513  -1.749   3.001
    1XTA   HL2130990  28.461  -1.640   2.879
    1XTA   HL2230991  28.475  -1.586   3.039
    1XTA   HL2330992  27.433  -0.100   2.675
    1XTA   HL2430993  27.563  -0.058   2.596
    1XTA   HL2530994  27.506  -0.202   2.860
    1XTA   HL2630995  27.630  -0.280   2.776
    1XTA   HL2730996  27.761  -0.131   2.903
    1XTA   HL2830997  27.758  -0.059   2.755
    1XTA   HL2930998  27.560   0.099   2.838
    1XTA   HL3030999  27.560  -0.005   2.980
    1XTA   HL3131000  27.787   0.081   3.056
    1XTA   HL3231001  27.814   0.160   2.916
    1XTA   HL3331002  27.617   0.315   2.982
    1XTA   HL3431003  27.573   0.199   3.117
    1XTA   HL3531004  27.798   0.478   3.075
    1XTA   HL3631005  27.888   0.358   2.993
    1XTA   HL3731006  27.961   0.200   3.221
    1XTA   HL3831007  28.093   0.262   3.306
    1XTA   HL3931008  28.194   0.142   3.119
    1XTA   HL4031009  28.195   0.302   3.068
    1XTA   HL4131010  28.070   0.191   3.010
    1XTA    CO831011  28.840  -1.505   2.781
    1XTA    CO931012  28.603  -1.529   2.691
    1XTA    OA631013  28.903  -1.465   2.867
    1XTA   HL4231014  28.864  -1.450   2.685
    1XTA   HL4331015  28.869  -1.610   2.767
    1XTA   HL4431016  27.850   0.367   3.365
    1XTA   HL4531017  27.980   0.480   3.395
    1XTA   CO1031018  27.904   0.455   3.326
    1XTA   CO1131019  28.068   0.509   3.138
    1XTA    OA731020  27.831   0.534   3.308
    1XTA   HL4631021  27.999   0.628   3.112
    1XTA   HL4731022  28.112   0.479   3.050
    1XTA   HL4831023  28.673  -1.495   2.568
    1XTA   HL4931024  28.589  -1.636   2.689
    1XTA     NT31025  31.500  -0.496   4.966
    1XTA    CN131026  31.522  -0.566   4.849
    1XTA     C131027  31.649  -0.626   4.827
    1XTA     C231028  31.686  -0.686   4.709
    1XTA     C331029  31.597  -0.682   4.602
    1XTA     C431030  31.470  -0.626   4.621
    1XTA     C531031  31.431  -0.565   4.741
    1XTA    CN231032  31.393  -0.494   5.041
    1XTA     C631033  31.400  -0.568   5.163
    1XTA     C731034  31.293  -0.571   5.250
    1XTA     C831035  31.175  -0.513   5.222
    1XTA     C931036  31.167  -0.447   5.093
    1XTA    C1031037  31.272  -0.432   5.008
    1XTA    CN331038  31.590  -0.396   4.994
    1XTA    C1131039  31.648  -0.388   5.120
    1XTA    C1231040  31.736  -0.287   5.156
    1XTA    C1331041  31.767  -0.193   5.058
    1XTA    C1431042  31.716  -0.192   4.927
    1XTA    C1531043  31.628  -0.304   4.894
    1XTA     H131044  31.724  -0.614   4.905
    1XTA     H231045  31.787  -0.734   4.693
    1XTA     H331046  31.395  -0.627   4.540
    1XTA     H431047  31.332  -0.531   4.745
    1XTA     H531048  31.490  -0.625   5.177
    1XTA     H631049  31.308  -0.630   5.341
    1XTA     H731050  31.083  -0.388   5.065
    1XTA     H831051  31.263  -0.374   4.915
    1XTA     H931052  31.613  -0.455   5.197
    1XTA    H1031053  31.776  -0.287   5.252
    1XTA    H1131054  31.744  -0.129   4.857
    1XTA    H1231055  31.591  -0.324   4.793
    1XTA    OA131056  31.623  -0.739   4.474
    1XTA    CO131057  31.748  -0.812   4.468
    1XTA    OA231058  31.077  -0.505   5.318
    1XTA    CO231059  30.950  -0.472   5.265
    1XTA    CL131060  30.878  -0.582   5.181
    1XTA    CL231061  30.731  -0.546   5.141
    1XTA    CL331062  30.616  -0.577   5.241
    1XTA    CL431063  30.483  -0.584   5.165
    1XTA    CO331064  30.356  -0.599   5.259
    1XTA    OA331065  30.324  -0.466   5.302
    1XTA    CO431066  30.217  -0.470   5.390
    1XTA    CT131067  30.191  -0.328   5.450
    1XTA    CL531068  30.109  -0.355   5.580
    1XTA    CL631069  29.977  -0.433   5.558
    1XTA    OA431070  31.854  -0.097   5.094
    1XTA    CO531071  31.981  -0.136   5.148
    1XTA    CL731072  32.071  -0.014   5.152
    1XTA    CL831073  32.104   0.031   5.015
    1XTA    CL931074  32.210   0.140   5.016
    1XTA   CL1031075  32.279   0.184   4.882
    1XTA    CO631076  32.171   0.232   4.783
    1XTA    OA531077  32.092   0.329   4.844
    1XTA    CO731078  32.008   0.397   4.758
    1XTA    CT231079  31.890   0.466   4.844
    1XTA   CL1131080  31.795   0.549   4.746
    1XTA   CL1231081  31.682   0.640   4.809
    1XTA    HL131082  31.743  -0.878   4.551
    1XTA    HL231083  31.756  -0.871   4.380
    1XTA    HL331084  31.844  -0.759   4.466
    1XTA    HL431085  30.886  -0.448   5.347
    1XTA    HL531086  30.948  -0.374   5.216
    1XTA    HL631087  30.872  -0.675   5.239
    1XTA    HL731088  30.927  -0.616   5.103
    1XTA    HL831089  30.709  -0.598   5.048
    1XTA    HL931090  30.726  -0.440   5.106
    1XTA   HL1031091  30.636  -0.666   5.292
    1XTA   HL1131092  30.619  -0.502   5.323
    1XTA   HL1231093  30.491  -0.663   5.091
    1XTA   HL1331094  30.474  -0.487   5.109
    1XTA   HL1431095  30.272  -0.647   5.201
    1XTA   HL1531096  30.371  -0.647   5.362
    1XTA   HL1631097  30.132  -0.513   5.339
    1XTA   HL1731098  30.235  -0.538   5.467
    1XTA   HL1831099  30.086  -0.252   5.618
    1XTA   HL1931100  30.169  -0.403   5.653
    1XTA   HL2031101  29.924  -0.436   5.658
    1XTA   HL2131102  29.973  -0.534   5.517
    1XTA   HL2231103  29.913  -0.372   5.495
    1XTA   HL2331104  32.023  -0.227   5.094
    1XTA   HL2431105  31.973  -0.168   5.250
    1XTA   HL2531106  32.029   0.073   5.202
    1XTA   HL2631107  32.163  -0.033   5.214
    1XTA   HL2731108  32.150  -0.051   4.961
    1XTA   HL2831109  32.013   0.069   4.964
    1XTA   HL2931110  32.162   0.222   5.071
    1XTA   HL3031111  32.284   0.106   5.091
    1XTA   HL3131112  32.352   0.262   4.896
    1XTA   HL3231113  32.340   0.101   4.854
    1XTA   HL3331114  32.218   0.276   4.695
    1XTA   HL3431115  32.099   0.157   4.754
    1XTA   HL3531116  31.957   0.321   4.688
    1XTA   HL3631117  32.070   0.466   4.709
    1XTA   HL3731118  31.748   0.479   4.669
    1XTA   HL3831119  31.858   0.619   4.679
    1XTA   HL3931120  31.626   0.697   4.741
    1XTA   HL4031121  31.721   0.717   4.882
    1XTA   HL4131122  31.617   0.580   4.869
    1XTA    CO831123  30.113  -0.242   5.339
    1XTA    CO931124  30.321  -0.272   5.489
    1XTA    OA631125  30.039  -0.304   5.286
    1XTA   HL4231126  30.193  -0.209   5.267
    1XTA   HL4331127  30.063  -0.166   5.391
    1XTA   HL4431128  31.997   0.639   4.867
    1XTA   HL4531129  31.872   0.624   4.990
    1XTA   CO1031130  31.954   0.568   4.939
    1XTA   CO1131131  31.805   0.355   4.908
    1XTA    OA731132  32.020   0.535   5.015
    1XTA   HL4631133  31.879   0.258   4.971
    1XTA   HL4731134  31.736   0.312   4.831
    1XTA   HL4831135  30.395  -0.363   5.572
    1XTA   HL4931136  30.396  -0.253   5.411
    1XTA     NT31137  29.696   3.064  -0.039
    1XTA    CN131138  29.780   2.978   0.018
    1XTA     C131139  29.799   2.988   0.160
    1XTA     C231140  29.893   2.912   0.225
    1XTA     C331141  29.968   2.810   0.152
    1XTA     C431142  29.947   2.794   0.009
    1XTA     C531143  29.854   2.880  -0.054
    1XTA    CN231144  29.566   3.030  -0.055
    1XTA     C631145  29.503   3.019  -0.183
    1XTA     C731146  29.362   2.992  -0.193
    1XTA     C831147  29.284   2.977  -0.079
    1XTA     C931148  29.342   2.983   0.042
    1XTA    C1031149  29.483   3.014   0.056
    1XTA    CN331150  29.739   3.190  -0.065
    1XTA    C1131151  29.691   3.298   0.022
    1XTA    C1231152  29.722   3.427  -0.022
    1XTA    C1331153  29.817   3.445  -0.125
    1XTA    C1431154  29.887   3.342  -0.187
    1XTA    C1531155  29.846   3.212  -0.155
    1XTA     H131156  29.752   3.061   0.215
    1XTA     H231157  29.918   2.929   0.331
    1XTA     H331158  29.992   2.716  -0.050
    1XTA     H431159  29.845   2.867  -0.162
    1XTA     H531160  29.565   3.028  -0.270
    1XTA     H631161  29.324   2.986  -0.293
    1XTA     H731162  29.282   2.959   0.125
    1XTA     H831163  29.529   3.018   0.149
    1XTA     H931164  29.625   3.278   0.102
    1XTA    H1031165  29.677   3.515   0.027
    1XTA    H1131166  29.972   3.352  -0.251
    1XTA    H1231167  29.894   3.121  -0.194
    1XTA    OA131168  30.062   2.730   0.212
    1XTA    CO131169  30.016   2.665   0.328
    1XTA    OA231170  29.147   2.943  -0.072
    1XTA    CO231171  29.083   2.946  -0.197
    1XTA    CL131172  28.943   2.905  -0.179
    1XTA    CL231173  28.868   3.004  -0.078
    1XTA    CL331174  28.722   2.961  -0.043
    1XTA    CL431175  28.626   3.062   0.023
    1XTA    CO331176  28.670   3.084   0.171
    1XTA    OA331177  28.770   3.181   0.175
    1XTA    CO431178  28.870   3.155   0.277
    1XTA    CT131179  28.974   3.266   0.301
    1XTA    CL531180  29.031   3.332   0.170
    1XTA    CL631181  29.089   3.236   0.064
    1XTA    OA431182  29.857   3.567  -0.164
    1XTA    CO531183  29.761   3.671  -0.174
    1XTA    CL731184  29.821   3.802  -0.130
    1XTA    CL831185  29.861   3.812   0.014
    1XTA    CL931186  30.010   3.807   0.021
    1XTA   CL1031187  30.065   3.783   0.163
    1XTA    CO631188  30.052   3.637   0.205
    1XTA    OA531189  30.124   3.622   0.331
    1XTA    CO731190  30.110   3.487   0.380
    1XTA    CT231191  30.041   3.495   0.520
    1XTA   CL1131192  30.136   3.580   0.610
    1XTA   CL1231193  30.282   3.535   0.637
    1XTA    HL131194  29.905   2.633   0.326
    1XTA    HL231195  30.078   2.583   0.361
    1XTA    HL331196  30.027   2.741   0.404
    1XTA    HL431197  29.085   3.054  -0.229
    1XTA    HL531198  29.136   2.879  -0.275
    1XTA    HL631199  28.937   2.804  -0.141
    1XTA    HL731200  28.901   2.899  -0.279
    1XTA    HL831201  28.869   3.107  -0.115
    1XTA    HL931202  28.913   3.012   0.023
    1XTA   HL1031203  28.680   2.924  -0.136
    1XTA   HL1131204  28.723   2.871   0.022
    1XTA   HL1231205  28.531   3.004   0.030
    1XTA   HL1331206  28.618   3.158  -0.030
    1XTA   HL1431207  28.581   3.119   0.231
    1XTA   HL1531208  28.710   2.998   0.219
    1XTA   HL1631209  28.826   3.126   0.372
    1XTA   HL1731210  28.919   3.060   0.252
    1XTA   HL1831211  29.101   3.420   0.181
    1XTA   HL1931212  28.946   3.365   0.114
    1XTA   HL2031213  29.032   3.145   0.050
    1XTA   HL2131214  29.190   3.195   0.096
    1XTA   HL2231215  29.101   3.285  -0.038
    1XTA   HL2331216  29.673   3.653  -0.112
    1XTA   HL2431217  29.724   3.671  -0.278
    1XTA   HL2531218  29.900   3.812  -0.204
    1XTA   HL2631219  29.753   3.888  -0.140
    1XTA   HL2731220  29.813   3.908   0.050
    1XTA   HL2831221  29.834   3.724   0.071
    1XTA   HL2931222  30.039   3.711  -0.021
    1XTA   HL3031223  30.054   3.894  -0.031
    1XTA   HL3131224  30.168   3.807   0.155
    1XTA   HL3231225  30.018   3.852   0.243
    1XTA   HL3331226  29.947   3.606   0.212
    1XTA   HL3431227  30.100   3.573   0.133
    1XTA   HL3531228  30.214   3.445   0.383
    1XTA   HL3631229  30.054   3.429   0.306
    1XTA   HL3731230  30.090   3.591   0.708
    1XTA   HL3831231  30.139   3.681   0.587
    1XTA   HL3931232  30.338   3.534   0.542
    1XTA   HL4031233  30.282   3.435   0.685
    1XTA   HL4131234  30.330   3.608   0.703
    1XTA    CO831235  29.081   3.216   0.406
    1XTA    CO931236  28.887   3.373   0.357
    1XTA    OA631237  29.138   3.097   0.357
    1XTA   HL4231238  29.029   3.200   0.499
    1XTA   HL4331239  29.161   3.290   0.411
    1XTA   HL4431240  29.981   3.378   0.697
    1XTA   HL4531241  29.921   3.312   0.549
    1XTA   CO1031242  30.008   3.362   0.586
    1XTA   CO1131243  29.903   3.566   0.515
    1XTA    OA731244  30.095   3.298   0.580
    1XTA   HL4631245  29.909   3.691   0.445
    1XTA   HL4731246  29.826   3.502   0.470
    1XTA   HL4831247  28.794   3.388   0.302
    1XTA   HL4931248  28.840   3.342   0.449
    1XTA     NT31249  30.591   1.932   3.458
    1XTA    CN131250  30.545   2.019   3.554
    1XTA     C131251  30.430   2.096   3.540
    1XTA     C231252  30.380   2.172   3.643
    1XTA     C331253  30.455   2.195   3.764
    1XTA     C431254  30.572   2.122   3.776
    1XTA     C531255  30.619   2.039   3.673
    1XTA    CN231256  30.603   1.969   3.330
    1XTA     C631257  30.518   1.913   3.228
    1XTA     C731258  30.525   1.958   3.093
    1XTA     C831259  30.610   2.064   3.063
    1XTA     C931260  30.685   2.118   3.164
    1XTA    C1031261  30.684   2.078   3.299
    1XTA    CN331262  30.614   1.804   3.498
    1XTA    C1131263  30.747   1.754   3.482
    1XTA    C1231264  30.776   1.623   3.528
    1XTA    C1331265  30.680   1.540   3.586
    1XTA    C1431266  30.546   1.587   3.600
    1XTA    C1531267  30.514   1.727   3.564
    1XTA     H131268  30.374   2.092   3.448
    1XTA     H231269  30.289   2.229   3.619
    1XTA     H331270  30.627   2.129   3.869
    1XTA     H431271  30.711   1.988   3.699
    1XTA     H531272  30.446   1.839   3.266
    1XTA     H631273  30.475   1.917   3.009
    1XTA     H731274  30.742   2.203   3.145
    1XTA     H831275  30.723   2.136   3.380
    1XTA     H931276  30.822   1.806   3.431
    1XTA    H1031277  30.888   1.600   3.510
    1XTA    H1131278  30.469   1.529   3.650
    1XTA    H1231279  30.422   1.783   3.595
    1XTA    OA131280  30.409   2.280   3.861
    1XTA    CO131281  30.283   2.340   3.849
    1XTA    OA231282  30.623   2.114   2.937
    1XTA    CO231283  30.518   2.095   2.847
    1XTA    CL131284  30.524   2.189   2.728
    1XTA    CL231285  30.631   2.150   2.620
    1XTA    CL331286  30.775   2.129   2.673
    1XTA    CL431287  30.838   2.259   2.736
    1XTA    CO331288  30.980   2.231   2.786
    1XTA    OA331289  31.022   2.350   2.848
    1XTA    CO431290  31.122   2.325   2.943
    1XTA    CT131291  31.155   2.449   3.029
    1XTA    CL531292  31.026   2.501   3.096
    1XTA    CL631293  30.980   2.423   3.218
    1XTA    OA431294  30.713   1.403   3.595
    1XTA    CO531295  30.618   1.328   3.676
    1XTA    CL731296  30.672   1.186   3.690
    1XTA    CL831297  30.578   1.070   3.747
    1XTA    CL931298  30.546   1.095   3.898
    1XTA   CL1031299  30.465   0.980   3.962
    1XTA    CO631300  30.395   1.023   4.089
    1XTA    OA531301  30.493   1.060   4.184
    1XTA    CO731302  30.434   1.103   4.305
    1XTA    CT231303  30.549   1.166   4.390
    1XTA   CL1131304  30.647   1.064   4.455
    1XTA   CL1231305  30.582   0.965   4.550
    1XTA    HL131306  30.269   2.386   3.754
    1XTA    HL231307  30.193   2.277   3.880
    1XTA    HL331308  30.275   2.421   3.927
    1XTA    HL431309  30.514   1.994   2.818
    1XTA    HL531310  30.429   2.124   2.903
    1XTA    HL631311  30.550   2.291   2.765
    1XTA    HL731312  30.427   2.199   2.690
    1XTA    HL831313  30.620   2.220   2.544
    1XTA    HL931314  30.594   2.055   2.586
    1XTA   HL1031315  30.768   2.059   2.754
    1XTA   HL1131316  30.848   2.108   2.600
    1XTA   HL1231317  30.775   2.298   2.819
    1XTA   HL1331318  30.845   2.333   2.657
    1XTA   HL1431319  30.977   2.147   2.857
    1XTA   HL1531320  31.032   2.193   2.696
    1XTA   HL1631321  31.086   2.247   3.013
    1XTA   HL1731322  31.211   2.279   2.901
    1XTA   HL1831323  30.940   2.490   3.029
    1XTA   HL1931324  31.018   2.608   3.114
    1XTA   HL2031325  31.043   2.444   3.306
    1XTA   HL2131326  30.983   2.315   3.204
    1XTA   HL2231327  30.885   2.461   3.234
    1XTA   HL2331328  30.530   1.312   3.624
    1XTA   HL2431329  30.577   1.376   3.768
    1XTA   HL2531330  30.707   1.151   3.595
    1XTA   HL2631331  30.760   1.195   3.754
    1XTA   HL2731332  30.481   1.067   3.692
    1XTA   HL2831333  30.624   0.967   3.730
    1XTA   HL2931334  30.635   1.103   3.955
    1XTA   HL3031335  30.491   1.189   3.901
    1XTA   HL3131336  30.401   0.943   3.883
    1XTA   HL3231337  30.537   0.900   3.991
    1XTA   HL3331338  30.327   1.099   4.058
    1XTA   HL3431339  30.339   0.937   4.126
    1XTA   HL3531340  30.393   1.012   4.360
    1XTA   HL3631341  30.359   1.177   4.284
    1XTA   HL3731342  30.735   1.123   4.496
    1XTA   HL3831343  30.694   1.001   4.377
    1XTA   HL3931344  30.655   0.900   4.597
    1XTA   HL4031345  30.517   0.901   4.501
    1XTA   HL4131346  30.526   1.012   4.635
    1XTA    CO831347  31.203   2.561   2.941
    1XTA    CO931348  31.265   2.428   3.134
    1XTA    OA631349  31.221   2.685   3.001
    1XTA   HL4231350  31.121   2.570   2.867
    1XTA   HL4331351  31.293   2.538   2.883
    1XTA   HL4431352  30.549   1.351   4.501
    1XTA   HL4531353  30.499   1.208   4.626
    1XTA   CO1031354  30.486   1.258   4.498
    1XTA   CO1131355  30.640   1.249   4.301
    1XTA    OA731356  30.693   1.335   4.350
    1XTA   HL4631357  30.712   1.187   4.245
    1XTA   HL4731358  30.593   1.301   4.214
    1XTA   HL4831359  31.308   2.529   3.166
    1XTA   HL4931360  31.213   2.384   3.222
    1XTA     NT31361  28.983   4.827  -0.868
    1XTA    CN131362  29.035   4.909  -0.775
    1XTA     C131363  29.072   4.849  -0.653
    1XTA     C231364  29.129   4.922  -0.550
    1XTA     C331365  29.136   5.066  -0.567
    1XTA     C431366  29.097   5.127  -0.686
    1XTA     C531367  29.048   5.048  -0.791
    1XTA    CN231368  29.079   4.757  -0.943
    1XTA     C631369  29.108   4.624  -0.913
    1XTA     C731370  29.208   4.555  -0.979
    1XTA     C831371  29.297   4.617  -1.067
    1XTA     C931372  29.277   4.753  -1.097
    1XTA    C1031373  29.161   4.821  -1.040
    1XTA    CN331374  28.854   4.839  -0.911
    1XTA    C1131375  28.751   4.811  -0.821
    1XTA    C1231376  28.619   4.801  -0.861
    1XTA    C1331377  28.583   4.843  -0.993
    1XTA    C1431378  28.683   4.887  -1.084
    1XTA    C1531379  28.818   4.871  -1.047
    1XTA     H131380  29.065   4.741  -0.647
    1XTA     H231381  29.170   4.864  -0.459
    1XTA     H331382  29.105   5.236  -0.704
    1XTA     H431383  29.021   5.092  -0.885
    1XTA     H531384  29.045   4.574  -0.842
    1XTA     H631385  29.223   4.459  -0.945
    1XTA     H731386  29.352   4.805  -1.166
    1XTA     H831387  29.142   4.927  -1.054
    1XTA     H931388  28.783   4.797  -0.716
    1XTA    H1031389  28.541   4.781  -0.792
    1XTA    H1131390  28.669   4.899  -1.189
    1XTA    H1231391  28.889   4.893  -1.123
    1XTA    OA131392  29.171   5.158  -0.470
    1XTA    CO131393  29.191   5.112  -0.340
    1XTA    OA231394  29.392   4.535  -1.127
    1XTA    CO231395  29.506   4.609  -1.167
    1XTA    CL131396  29.622   4.518  -1.194
    1XTA    CL231397  29.763   4.589  -1.185
    1XTA    CL331398  29.772   4.718  -1.272
    1XTA    CL431399  29.904   4.798  -1.255
    1XTA    CO331400  29.912   4.905  -1.355
    1XTA    OA331401  29.806   4.993  -1.338
    1XTA    CO431402  29.814   5.104  -1.422
    1XTA    CT131403  29.686   5.190  -1.440
    1XTA    CL531404  29.578   5.114  -1.506
    1XTA    CL631405  29.504   5.003  -1.436
    1XTA    OA431406  28.451   4.858  -1.030
    1XTA    CO531407  28.352   4.779  -0.977
    1XTA    CL731408  28.222   4.793  -1.065
    1XTA    CL831409  28.115   4.697  -1.008
    1XTA    CL931410  28.155   4.554  -1.031
    1XTA   CL1031411  28.028   4.466  -1.039
    1XTA    CO631412  28.058   4.319  -1.054
    1XTA    OA531413  28.109   4.298  -1.182
    1XTA    CO731414  28.018   4.305  -1.289
    1XTA    CT231415  28.079   4.352  -1.421
    1XTA   CL1131416  27.975   4.318  -1.531
    1XTA   CL1231417  27.938   4.175  -1.563
    1XTA    HL131418  29.271   5.176  -0.298
    1XTA    HL231419  29.105   5.119  -0.275
    1XTA    HL331420  29.226   5.008  -0.349
    1XTA    HL431421  29.474   4.673  -1.250
    1XTA    HL531422  29.533   4.671  -1.086
    1XTA    HL631423  29.607   4.472  -1.288
    1XTA    HL731424  29.635   4.436  -1.121
    1XTA    HL831425  29.817   4.520  -1.245
    1XTA    HL931426  29.799   4.590  -1.083
    1XTA   HL1031427  29.759   4.694  -1.375
    1XTA   HL1131428  29.688   4.789  -1.250
    1XTA   HL1231429  29.985   4.728  -1.278
    1XTA   HL1331430  29.921   4.837  -1.150
    1XTA   HL1431431  30.009   4.953  -1.343
    1XTA   HL1531432  29.906   4.874  -1.456
    1XTA   HL1631433  29.894   5.162  -1.376
    1XTA   HL1731434  29.853   5.087  -1.522
    1XTA   HL1831435  29.609   5.074  -1.607
    1XTA   HL1931436  29.501   5.195  -1.524
    1XTA   HL2031437  29.433   5.037  -1.360
    1XTA   HL2131438  29.582   4.934  -1.403
    1XTA   HL2231439  29.439   4.952  -1.507
    1XTA   HL2331440  28.331   4.815  -0.873
    1XTA   HL2431441  28.381   4.675  -0.969
    1XTA   HL2531442  28.187   4.899  -1.073
    1XTA   HL2631443  28.256   4.757  -1.164
    1XTA   HL2731444  28.120   4.714  -0.901
    1XTA   HL2831445  28.019   4.727  -1.051
    1XTA   HL2931446  28.206   4.544  -1.126
    1XTA   HL3031447  28.219   4.524  -0.950
    1XTA   HL3131448  27.980   4.480  -0.949
    1XTA   HL3231449  27.958   4.507  -1.110
    1XTA   HL3331450  28.141   4.280  -0.998
    1XTA   HL3431451  27.974   4.258  -1.033
    1XTA   HL3531452  27.936   4.370  -1.265
    1XTA   HL3631453  27.987   4.202  -1.295
    1XTA   HL3731454  28.016   4.349  -1.628
    1XTA   HL3831455  27.880   4.373  -1.512
    1XTA   HL3931456  27.855   4.137  -1.502
    1XTA   HL4031457  28.021   4.106  -1.553
    1XTA   HL4131458  27.909   4.163  -1.675
    1XTA    CO831459  29.724   5.311  -1.530
    1XTA    CO931460  29.643   5.254  -1.302
    1XTA    OA631461  29.622   5.408  -1.546
    1XTA   HL4231462  29.748   5.274  -1.628
    1XTA   HL4331463  29.820   5.358  -1.498
    1XTA   HL4431464  28.239   4.201  -1.413
    1XTA   HL4531465  28.213   4.260  -1.577
    1XTA   CO1031466  28.218   4.291  -1.469
    1XTA   CO1131467  28.084   4.508  -1.414
    1XTA    OA731468  27.960   4.581  -1.396
    1XTA   HL4631469  28.153   4.532  -1.335
    1XTA   HL4731470  28.136   4.547  -1.500
    1XTA   HL4831471  29.571   5.324  -1.310
    1XTA   HL4931472  29.604   5.176  -1.236
    1XTA     NT31473  29.310   2.105   1.266
    1XTA    CN131474  29.405   2.044   1.200
    1XTA     C131475  29.414   2.057   1.064
    1XTA     C231476  29.496   1.981   0.980
    1XTA     C331477  29.588   1.894   1.039
    1XTA     C431478  29.573   1.868   1.181
    1XTA     C531479  29.483   1.941   1.259
    1XTA    CN231480  29.337   2.169   1.378
    1XTA     C631481  29.321   2.110   1.502
    1XTA     C731482  29.344   2.173   1.619
    1XTA     C831483  29.407   2.300   1.603
    1XTA     C931484  29.428   2.360   1.480
    1XTA    C1031485  29.388   2.300   1.364
    1XTA    CN331486  29.185   2.089   1.232
    1XTA    C1131487  29.105   1.992   1.298
    1XTA    C1231488  28.975   1.965   1.248
    1XTA    C1331489  28.927   2.046   1.141
    1XTA    C1431490  29.003   2.151   1.090
    1XTA    C1531491  29.134   2.171   1.129
    1XTA     H131492  29.347   2.116   1.008
    1XTA     H231493  29.500   1.994   0.872
    1XTA     H331494  29.635   1.792   1.221
    1XTA     H431495  29.458   1.910   1.360
    1XTA     H531496  29.281   2.009   1.515
    1XTA     H631497  29.325   2.122   1.712
    1XTA     H731498  29.467   2.459   1.472
    1XTA     H831499  29.408   2.354   1.278
    1XTA     H931500  29.145   1.931   1.373
    1XTA    H1031501  28.922   1.881   1.289
    1XTA    H1131502  28.968   2.211   1.012
    1XTA    H1231503  29.199   2.251   1.086
    1XTA    OA131504  29.692   1.827   0.976
    1XTA    CO131505  29.675   1.799   0.834
    1XTA    OA231506  29.456   2.354   1.719
    1XTA    CO231507  29.590   2.405   1.715
    1XTA    CL131508  29.657   2.351   1.849
    1XTA    CL231509  29.805   2.403   1.860
    1XTA    CL331510  29.898   2.322   1.954
    1XTA    CL431511  29.949   2.186   1.890
    1XTA    CO331512  30.011   2.106   1.996
    1XTA    OA331513  30.014   1.978   1.953
    1XTA    CO431514  30.090   1.894   2.030
    1XTA    CT131515  30.076   1.756   1.960
    1XTA    CL531516  30.150   1.747   1.819
    1XTA    CL631517  30.114   1.851   1.714
    1XTA    OA431518  28.795   2.017   1.101
    1XTA    CO531519  28.752   2.081   0.989
    1XTA    CL731520  28.808   2.023   0.861
    1XTA    CL831521  28.758   2.108   0.745
    1XTA    CL931522  28.775   2.035   0.610
    1XTA   CL1031523  28.921   1.982   0.583
    1XTA    CO631524  28.936   1.915   0.452
    1XTA    OA531525  28.993   2.005   0.359
    1XTA    CO731526  28.937   2.003   0.229
    1XTA    CT231527  28.946   2.143   0.168
    1XTA   CL1131528  29.091   2.204   0.165
    1XTA   CL1231529  29.173   2.197   0.299
    1XTA    HL131530  29.571   1.767   0.822
    1XTA    HL231531  29.692   1.892   0.775
    1XTA    HL331532  29.750   1.730   0.793
    1XTA    HL431533  29.645   2.359   1.633
    1XTA    HL531534  29.586   2.516   1.710
    1XTA    HL631535  29.659   2.248   1.837
    1XTA    HL731536  29.597   2.386   1.937
    1XTA    HL831537  29.824   2.508   1.889
    1XTA    HL931538  29.858   2.390   1.762
    1XTA   HL1031539  29.987   2.376   1.987
    1XTA   HL1131540  29.838   2.301   2.045
    1XTA   HL1231541  30.012   2.204   1.808
    1XTA   HL1331542  29.861   2.134   1.858
    1XTA   HL1431543  30.101   2.148   2.038
    1XTA   HL1531544  29.943   2.113   2.076
    1XTA   HL1631545  30.185   1.936   2.043
    1XTA   HL1731546  30.047   1.900   2.132
    1XTA   HL1831547  30.130   1.647   1.777
    1XTA   HL1931548  30.255   1.749   1.847
    1XTA   HL2031549  30.005   1.855   1.713
    1XTA   HL2131550  30.156   1.816   1.619
    1XTA   HL2231551  30.144   1.953   1.742
    1XTA   HL2331552  28.765   2.191   1.000
    1XTA   HL2431553  28.646   2.061   0.988
    1XTA   HL2531554  28.913   2.034   0.855
    1XTA   HL2631555  28.782   1.912   0.859
    1XTA   HL2731556  28.652   2.117   0.763
    1XTA   HL2831557  28.789   2.210   0.753
    1XTA   HL2931558  28.721   1.944   0.629
    1XTA   HL3031559  28.745   2.097   0.524
    1XTA   HL3131560  28.995   2.052   0.615
    1XTA   HL3231561  28.925   1.897   0.657
    1XTA   HL3331562  28.998   1.823   0.458
    1XTA   HL3431563  28.842   1.880   0.420
    1XTA   HL3531564  28.834   1.961   0.226
    1XTA   HL3631565  29.002   1.933   0.173
    1XTA   HL3731566  29.083   2.307   0.130
    1XTA   HL3831567  29.144   2.149   0.091
    1XTA   HL3931568  29.236   2.109   0.314
    1XTA   HL4031569  29.108   2.218   0.383
    1XTA   HL4131570  29.247   2.281   0.299
    1XTA    CO831571  29.927   1.714   1.932
    1XTA    CO931572  30.133   1.648   2.053
    1XTA    OA631573  30.236   1.679   2.079
    1XTA   HL4231574  29.877   1.718   2.027
    1XTA   HL4331575  29.865   1.795   1.836
    1XTA   HL4431576  28.763   2.250   0.191
    1XTA   HL4531577  28.826   2.187   0.345
    1XTA   CO1031578  28.847   2.236   0.249
    1XTA   CO1131579  28.898   2.143   0.027
    1XTA    OA731580  28.774   2.083  -0.000
    1XTA   HL4631581  28.900   2.241  -0.027
    1XTA   HL4731582  28.968   2.077  -0.028
    1XTA   HL4831583  30.066   1.635   2.130
    1XTA   HL4931584  30.143   1.554   1.994
    1XTA     NT31585  26.217  -2.837   1.605
    1XTA    CN131586  26.350  -2.837   1.642
    1XTA     C131587  26.419  -2.727   1.682
    1XTA     C231588  26.551  -2.736   1.721
    1XTA     C331589  26.622  -2.855   1.718
    1XTA     C431590  26.562  -2.975   1.671
    1XTA     C531591  26.422  -2.960   1.648
    1XTA    CN231592  26.198  -2.831   1.471
    1XTA     C631593  26.144  -2.944   1.408
    1XTA     C731594  26.131  -2.952   1.263
    1XTA     C831595  26.143  -2.831   1.189
    1XTA     C931596  26.195  -2.716   1.250
    1XTA    C1031597  26.227  -2.717   1.389
    1XTA    CN331598  26.118  -2.793   1.690
    1XTA    C1131599  26.098  -2.653   1.697
    1XTA    C1231600  25.997  -2.608   1.782
    1XTA    C1331601  25.916  -2.702   1.860
    1XTA    C1431602  25.935  -2.836   1.835
    1XTA    C1531603  26.032  -2.887   1.751
    1XTA     H131604  26.371  -2.632   1.698
    1XTA     H231605  26.605  -2.648   1.742
    1XTA     H331606  26.602  -3.071   1.646
    1XTA     H431607  26.357  -3.046   1.621
    1XTA     H531608  26.129  -3.031   1.463
    1XTA     H631609  26.092  -3.035   1.215
    1XTA     H731610  26.207  -2.616   1.202
    1XTA     H831611  26.267  -2.636   1.441
    1XTA     H931612  26.162  -2.592   1.637
    1XTA    H1031613  25.988  -2.503   1.796
    1XTA    H1131614  25.876  -2.905   1.893
    1XTA    H1231615  26.049  -2.990   1.735
    1XTA    OA131616  26.758  -2.849   1.741
    1XTA    CO131617  26.783  -2.856   1.880
    1XTA    OA231618  26.113  -2.831   1.057
    1XTA    CO231619  26.096  -2.707   0.995
    1XTA    CL131620  26.076  -2.725   0.840
    1XTA    CL231621  26.210  -2.762   0.775
    1XTA    CL331622  26.206  -2.778   0.623
    1XTA    CL431623  26.341  -2.763   0.557
    1XTA    CO331624  26.368  -2.868   0.446
    1XTA    OA331625  26.261  -2.864   0.354
    1XTA    CO431626  26.282  -2.936   0.236
    1XTA    CT131627  26.155  -2.980   0.172
    1XTA    CL531628  26.104  -2.877   0.070
    1XTA    CL631629  26.208  -2.840  -0.038
    1XTA    OA431630  25.841  -2.670   1.972
    1XTA    CO531631  25.802  -2.531   1.991
    1XTA    CL731632  25.914  -2.446   2.065
    1XTA    CL831633  25.922  -2.475   2.213
    1XTA    CL931634  26.039  -2.399   2.277
    1XTA   CL1031635  26.008  -2.379   2.430
    1XTA    CO631636  26.129  -2.329   2.517
    1XTA    OA531637  26.163  -2.203   2.462
    1XTA    CO731638  26.097  -2.084   2.500
    1XTA    CT231639  26.118  -2.022   2.638
    1XTA   CL1131640  26.237  -2.096   2.713
    1XTA   CL1231641  26.375  -2.052   2.661
    1XTA    HL131642  26.736  -2.945   1.928
    1XTA    HL231643  26.889  -2.849   1.900
    1XTA    HL331644  26.740  -2.775   1.933
    1XTA    HL431645  26.009  -2.654   1.042
    1XTA    HL531646  26.189  -2.655   1.010
    1XTA    HL631647  26.045  -2.629   0.793
    1XTA    HL731648  26.004  -2.802   0.829
    1XTA    HL831649  26.268  -2.843   0.821
    1XTA    HL931650  26.278  -2.677   0.796
    1XTA   HL1031651  26.157  -2.870   0.599
    1XTA   HL1131652  26.148  -2.694   0.577
    1XTA   HL1231653  26.430  -2.765   0.623
    1XTA   HL1331654  26.346  -2.663   0.508
    1XTA   HL1431655  26.465  -2.847   0.405
    1XTA   HL1531656  26.365  -2.968   0.497
    1XTA   HL1631657  26.362  -2.887   0.171
    1XTA   HL1731658  26.340  -3.026   0.264
    1XTA   HL1831659  26.068  -2.782   0.118
    1XTA   HL1931660  26.008  -2.912   0.018
    1XTA   HL2031661  26.150  -2.787  -0.109
    1XTA   HL2131662  26.272  -2.906  -0.094
    1XTA   HL2231663  26.270  -2.761  -0.004
    1XTA   HL2331664  25.714  -2.526   2.051
    1XTA   HL2431665  25.768  -2.493   1.898
    1XTA   HL2531666  26.005  -2.469   2.019
    1XTA   HL2631667  25.889  -2.341   2.041
    1XTA   HL2731668  25.822  -2.450   2.246
    1XTA   HL2831669  25.935  -2.578   2.227
    1XTA   HL2931670  26.133  -2.454   2.255
    1XTA   HL3031671  26.050  -2.295   2.239
    1XTA   HL3131672  25.922  -2.307   2.435
    1XTA   HL3231673  25.985  -2.477   2.464
    1XTA   HL3331674  26.100  -2.317   2.618
    1XTA   HL3431675  26.214  -2.402   2.504
    1XTA   HL3531676  25.990  -2.109   2.487
    1XTA   HL3631677  26.116  -2.010   2.423
    1XTA   HL3731678  26.234  -2.203   2.705
    1XTA   HL3831679  26.229  -2.082   2.818
    1XTA   HL3931680  26.445  -2.123   2.705
    1XTA   HL4031681  26.402  -1.969   2.727
    1XTA   HL4131682  26.398  -2.033   2.555
    1XTA    CO831683  26.045  -3.013   0.279
    1XTA    CO931684  26.184  -3.111   0.117
    1XTA    OA631685  25.914  -3.037   0.221
    1XTA   HL4231686  26.026  -2.929   0.348
    1XTA   HL4331687  26.076  -3.095   0.346
    1XTA   HL4431688  25.974  -2.187   2.738
    1XTA   HL4531689  26.014  -2.001   2.819
    1XTA   CO1031690  25.992  -2.051   2.725
    1XTA   CO1131691  26.138  -1.865   2.625
    1XTA    OA731692  26.174  -1.823   2.722
    1XTA   HL4631693  26.210  -1.848   2.544
    1XTA   HL4731694  26.048  -1.830   2.573
    1XTA   HL4831695  26.088  -3.132   0.070
    1XTA   HL4931696  26.205  -3.197   0.186
    1XTA     NT31697  30.458   2.850   4.325
    1XTA    CN131698  30.442   2.893   4.448
    1XTA     C131699  30.333   2.974   4.475
    1XTA     C231700  30.315   3.022   4.604
    1XTA     C331701  30.395   2.972   4.710
    1XTA     C431702  30.505   2.888   4.676
    1XTA     C531703  30.532   2.849   4.548
    1XTA    CN231704  30.466   2.717   4.295
    1XTA     C631705  30.453   2.616   4.394
    1XTA     C731706  30.445   2.481   4.362
    1XTA     C831707  30.462   2.435   4.230
    1XTA     C931708  30.484   2.535   4.130
    1XTA    C1031709  30.477   2.674   4.159
    1XTA    CN331710  30.533   2.928   4.246
    1XTA    C1131711  30.669   2.957   4.276
    1XTA    C1231712  30.743   3.039   4.195
    1XTA    C1331713  30.683   3.099   4.077
    1XTA    C1431714  30.548   3.079   4.049
    1XTA    C1531715  30.471   2.993   4.131
    1XTA     H131716  30.264   2.984   4.392
    1XTA     H231717  30.238   3.097   4.619
    1XTA     H331718  30.574   2.860   4.753
    1XTA     H431719  30.627   2.790   4.521
    1XTA     H531720  30.446   2.640   4.498
    1XTA     H631721  30.426   2.419   4.448
    1XTA     H731722  30.508   2.491   4.034
    1XTA     H831723  30.487   2.738   4.076
    1XTA     H931724  30.728   2.910   4.356
    1XTA    H1031725  30.842   3.054   4.219
    1XTA    H1131726  30.496   3.126   3.968
    1XTA    H1231727  30.368   2.971   4.098
    1XTA    OA131728  30.357   3.011   4.831
    1XTA    CO131729  30.461   3.006   4.933
    1XTA    OA231730  30.450   2.304   4.199
    1XTA    CO231731  30.381   2.214   4.292
    1XTA    CL131732  30.344   2.089   4.210
    1XTA    CL231733  30.211   2.087   4.139
    1XTA    CL331734  30.084   2.047   4.208
    1XTA    CL431735  29.957   2.092   4.129
    1XTA    CO331736  29.831   2.042   4.197
    1XTA    OA331737  29.842   1.901   4.228
    1XTA    CO431738  29.830   1.813   4.120
    1XTA    CT131739  29.855   1.670   4.174
    1XTA    CL531740  29.748   1.615   4.275
    1XTA    CL631741  29.600   1.615   4.225
    1XTA    OA431742  30.759   3.169   3.986
    1XTA    CO531743  30.860   3.263   4.034
    1XTA    CL731744  30.875   3.377   3.933
    1XTA    CL831745  30.980   3.482   3.975
    1XTA    CL931746  31.122   3.440   4.000
    1XTA   CL1031747  31.207   3.554   4.010
    1XTA    CO631748  31.349   3.514   4.037
    1XTA    OA531749  31.391   3.455   3.922
    1XTA    CO731750  31.509   3.383   3.931
    1XTA    CT231751  31.564   3.344   3.787
    1XTA   CL1131752  31.689   3.253   3.808
    1XTA   CL1231753  31.654   3.106   3.845
    1XTA    HL131754  30.536   3.087   4.919
    1XTA    HL231755  30.401   3.026   5.026
    1XTA    HL331756  30.502   2.902   4.944
    1XTA    HL431757  30.460   2.185   4.356
    1XTA    HL531758  30.298   2.255   4.346
    1XTA    HL631759  30.344   2.009   4.278
    1XTA    HL731760  30.423   2.074   4.137
    1XTA    HL831761  30.203   2.024   4.052
    1XTA    HL931762  30.191   2.184   4.090
    1XTA   HL1031763  30.076   1.939   4.186
    1XTA   HL1131764  30.064   2.077   4.311
    1XTA   HL1231765  29.942   2.047   4.030
    1XTA   HL1331766  29.944   2.198   4.113
    1XTA   HL1431767  29.839   2.095   4.289
    1XTA   HL1531768  29.734   2.070   4.149
    1XTA   HL1631769  29.728   1.836   4.086
    1XTA   HL1731770  29.887   1.837   4.034
    1XTA   HL1831771  29.747   1.682   4.363
    1XTA   HL1931772  29.760   1.519   4.312
    1XTA   HL2031773  29.582   1.723   4.217
    1XTA   HL2131774  29.533   1.568   4.299
    1XTA   HL2231775  29.588   1.575   4.127
    1XTA   HL2331776  30.961   3.214   4.051
    1XTA   HL2431777  30.819   3.299   4.130
    1XTA   HL2531778  30.900   3.332   3.837
    1XTA   HL2631779  30.772   3.423   3.913
    1XTA   HL2731780  30.982   3.553   3.889
    1XTA   HL2831781  30.948   3.542   4.061
    1XTA   HL2931782  31.115   3.383   4.091
    1XTA   HL3031783  31.152   3.378   3.913
    1XTA   HL3131784  31.205   3.600   3.911
    1XTA   HL3231785  31.172   3.622   4.088
    1XTA   HL3331786  31.410   3.606   4.058
    1XTA   HL3431787  31.342   3.442   4.119
    1XTA   HL3531788  31.492   3.297   3.996
    1XTA   HL3631789  31.575   3.457   3.971
    1XTA   HL3731790  31.750   3.300   3.884
    1XTA   HL3831791  31.748   3.232   3.715
    1XTA   HL3931792  31.749   3.053   3.872
    1XTA   HL4031793  31.599   3.061   3.767
    1XTA   HL4131794  31.595   3.106   3.938
    1XTA    CO831795  29.991   1.662   4.240
    1XTA    CO931796  29.871   1.580   4.049
    1XTA    OA631797  30.033   1.530   4.264
    1XTA   HL4231798  29.995   1.730   4.330
    1XTA   HL4331799  30.069   1.701   4.172
    1XTA   HL4431800  31.717   3.510   3.739
    1XTA   HL4531801  31.647   3.436   3.604
    1XTA   CO1031802  31.618   3.468   3.708
    1XTA   CO1131803  31.452   3.270   3.707
    1XTA    OA731804  31.533   3.547   3.686
    1XTA   HL4631805  31.328   3.340   3.685
    1XTA   HL4731806  31.425   3.197   3.776
    1XTA   HL4831807  29.882   1.474   4.088
    1XTA   HL4931808  29.775   1.571   3.996
    1XTA     NT31809  31.237   2.255   2.383
    1XTA    CN131810  31.288   2.128   2.376
    1XTA     C131811  31.209   2.019   2.434
    1XTA     C231812  31.248   1.887   2.431
    1XTA     C331813  31.364   1.845   2.356
    1XTA     C431814  31.436   1.949   2.297
    1XTA     C531815  31.405   2.087   2.306
    1XTA    CN231816  31.324   2.355   2.384
    1XTA     C631817  31.351   2.413   2.261
    1XTA     C731818  31.445   2.514   2.250
    1XTA     C831819  31.520   2.556   2.358
    1XTA     C931820  31.505   2.486   2.482
    1XTA    C1031821  31.401   2.394   2.494
    1XTA    CN331822  31.108   2.276   2.337
    1XTA    C1131823  31.002   2.329   2.414
    1XTA    C1231824  30.881   2.351   2.356
    1XTA    C1331825  30.854   2.310   2.226
    1XTA    C1431826  30.956   2.258   2.147
    1XTA    C1531827  31.086   2.252   2.198
    1XTA     H131828  31.118   2.054   2.489
    1XTA     H231829  31.175   1.821   2.472
    1XTA     H331830  31.523   1.925   2.240
    1XTA     H431831  31.475   2.153   2.268
    1XTA     H531832  31.296   2.375   2.171
    1XTA     H631833  31.453   2.557   2.158
    1XTA     H731834  31.564   2.518   2.564
    1XTA     H831835  31.384   2.354   2.592
    1XTA     H931836  31.023   2.354   2.520
    1XTA    H1031837  30.799   2.402   2.418
    1XTA    H1131838  30.932   2.224   2.050
    1XTA    H1231839  31.167   2.191   2.152
    1XTA    OA131840  31.384   1.716   2.314
    1XTA    CO131841  31.295   1.618   2.359
    1XTA    OA231842  31.607   2.657   2.328
    1XTA    CO231843  31.680   2.715   2.440
    1XTA    CL131844  31.745   2.841   2.395
    1XTA    CL231845  31.814   2.919   2.499
    1XTA    CL331846  31.740   2.962   2.621
    1XTA    CL431847  31.604   3.034   2.588
    1XTA    CO331848  31.512   3.068   2.706
    1XTA    OA331849  31.478   2.953   2.777
    1XTA    CO431850  31.429   2.991   2.904
    1XTA    CT131851  31.393   2.860   2.980
    1XTA    CL531852  31.516   2.769   2.980
    1XTA    CL631853  31.644   2.824   3.054
    1XTA    OA431854  30.722   2.329   2.181
    1XTA    CO531855  30.624   2.287   2.270
    1XTA    CL731856  30.486   2.280   2.206
    1XTA    CL831857  30.381   2.229   2.308
    1XTA    CL931858  30.408   2.082   2.338
    1XTA   CL1031859  30.292   2.016   2.418
    1XTA    CO631860  30.341   1.884   2.478
    1XTA    OA531861  30.324   1.765   2.389
    1XTA    CO731862  30.419   1.771   2.281
    1XTA    CT231863  30.431   1.629   2.221
    1XTA   CL1131864  30.474   1.530   2.336
    1XTA   CL1231865  30.536   1.396   2.292
    1XTA    HL131866  31.356   1.523   2.350
    1XTA    HL231867  31.276   1.622   2.464
    1XTA    HL331868  31.195   1.602   2.310
    1XTA    HL431869  31.615   2.738   2.522
    1XTA    HL531870  31.758   2.645   2.475
    1XTA    HL631871  31.671   2.908   2.346
    1XTA    HL731872  31.816   2.808   2.328
    1XTA    HL831873  31.856   3.009   2.455
    1XTA    HL931874  31.903   2.858   2.527
    1XTA   HL1031875  31.706   2.880   2.680
    1XTA   HL1131876  31.792   3.017   2.694
    1XTA   HL1231877  31.543   2.966   2.537
    1XTA   HL1331878  31.622   3.112   2.517
    1XTA   HL1431879  31.550   3.158   2.760
    1XTA   HL1531880  31.410   3.091   2.683
    1XTA   HL1631881  31.514   3.035   2.948
    1XTA   HL1731882  31.345   3.070   2.899
    1XTA   HL1831883  31.555   2.742   2.884
    1XTA   HL1931884  31.487   2.673   3.017
    1XTA   HL2031885  31.620   2.885   3.138
    1XTA   HL2131886  31.706   2.897   3.002
    1XTA   HL2231887  31.716   2.748   3.088
    1XTA   HL2331888  30.616   2.363   2.347
    1XTA   HL2431889  30.643   2.194   2.321
    1XTA   HL2531890  30.458   2.376   2.164
    1XTA   HL2631891  30.493   2.213   2.123
    1XTA   HL2731892  30.385   2.299   2.393
    1XTA   HL2831893  30.286   2.244   2.271
    1XTA   HL2931894  30.414   2.026   2.241
    1XTA   HL3031895  30.501   2.075   2.391
    1XTA   HL3131896  30.272   2.095   2.497
    1XTA   HL3231897  30.196   2.011   2.360
    1XTA   HL3331898  30.451   1.894   2.509
    1XTA   HL3431899  30.289   1.864   2.571
    1XTA   HL3531900  30.509   1.811   2.319
    1XTA   HL3631901  30.369   1.839   2.208
    1XTA   HL3731902  30.396   1.509   2.411
    1XTA   HL3831903  30.546   1.587   2.394
    1XTA   HL3931904  30.474   1.342   2.214
    1XTA   HL4031905  30.555   1.328   2.376
    1XTA   HL4131906  30.638   1.411   2.251
    1XTA    CO831907  31.275   2.786   2.913
    1XTA    CO931908  31.345   2.902   3.123
    1XTA    OA631909  31.417   3.006   3.180
    1XTA   HL4231910  31.322   2.736   2.826
    1XTA   HL4331911  31.200   2.851   2.869
    1XTA   HL4431912  30.628   1.686   2.147
    1XTA   HL4531913  30.590   1.535   2.074
    1XTA   CO1031914  30.543   1.634   2.107
    1XTA   CO1131915  30.296   1.575   2.157
    1XTA    OA731916  30.516   1.684   2.006
    1XTA   HL4631917  30.202   1.533   2.254
    1XTA   HL4731918  30.314   1.492   2.098
    1XTA   HL4831919  31.332   2.813   3.187
    1XTA   HL4931920  31.243   2.941   3.112
    1XTA     NT31921  30.029   2.542   6.058
    1XTA    CN131922  29.962   2.557   5.944
    1XTA     C131923  29.830   2.593   5.944
    1XTA     C231924  29.758   2.618   5.826
    1XTA     C331925  29.813   2.597   5.698
    1XTA     C431926  29.950   2.571   5.699
    1XTA     C531927  30.024   2.546   5.818
    1XTA    CN231928  29.984   2.483   6.170
    1XTA     C631929  29.941   2.563   6.280
    1XTA     C731930  29.889   2.490   6.388
    1XTA     C831931  29.894   2.348   6.394
    1XTA     C931932  29.925   2.273   6.283
    1XTA    C1031933  29.971   2.347   6.172
    1XTA    CN331934  30.154   2.575   6.054
    1XTA    C1131935  30.245   2.472   6.020
    1XTA    C1231936  30.383   2.502   6.017
    1XTA    C1331937  30.424   2.638   6.033
    1XTA    C1431938  30.324   2.732   6.075
    1XTA    C1531939  30.186   2.708   6.067
    1XTA     H131940  29.773   2.602   6.033
    1XTA     H231941  29.658   2.641   5.834
    1XTA     H331942  30.007   2.576   5.606
    1XTA     H431943  30.133   2.542   5.804
    1XTA     H531944  29.943   2.677   6.280
    1XTA     H631945  29.866   2.539   6.481
    1XTA     H731946  29.910   2.167   6.283
    1XTA     H831947  29.990   2.297   6.083
    1XTA     H931948  30.218   2.366   6.003
    1XTA    H1031949  30.457   2.432   5.998
    1XTA    H1131950  30.366   2.827   6.121
    1XTA    H1231951  30.115   2.783   6.091
    1XTA    OA131952  29.752   2.598   5.576
    1XTA    CO131953  29.607   2.626   5.577
    1XTA    OA231954  29.840   2.290   6.509
    1XTA    CO231955  29.917   2.302   6.631
    1XTA    CL131956  29.839   2.244   6.742
    1XTA    CL231957  29.914   2.251   6.876
    1XTA    CL331958  29.987   2.117   6.908
    1XTA    CL431959  29.985   2.081   7.055
    1XTA    CO331960  30.051   1.947   7.086
    1XTA    OA331961  30.161   1.927   7.002
    1XTA    CO431962  30.138   1.815   6.919
    1XTA    CT131963  30.228   1.803   6.801
    1XTA    CL531964  30.372   1.768   6.840
    1XTA    CL631965  30.434   1.873   6.934
    1XTA    OA431966  30.555   2.662   6.038
    1XTA    CO531967  30.592   2.787   5.977
    1XTA    CL731968  30.743   2.815   5.989
    1XTA    CL831969  30.774   2.948   5.915
    1XTA    CL931970  30.758   2.929   5.765
    1XTA   CL1031971  30.824   3.041   5.687
    1XTA    CO631972  30.776   3.180   5.733
    1XTA    OA531973  30.831   3.291   5.664
    1XTA    CO731974  30.818   3.419   5.733
    1XTA    CT231975  30.920   3.517   5.679
    1XTA   CL1131976  30.868   3.593   5.553
    1XTA   CL1231977  30.855   3.519   5.422
    1XTA    HL131978  29.571   2.570   5.495
    1XTA    HL231979  29.554   2.600   5.674
    1XTA    HL331980  29.572   2.723   5.543
    1XTA    HL431981  30.008   2.246   6.625
    1XTA    HL531982  29.939   2.409   6.645
    1XTA    HL631983  29.808   2.137   6.734
    1XTA    HL731984  29.738   2.298   6.759
    1XTA    HL831985  29.845   2.283   6.956
    1XTA    HL931986  29.997   2.329   6.883
    1XTA   HL1031987  29.933   2.038   6.861
    1XTA   HL1131988  30.087   2.133   6.862
    1XTA   HL1231989  29.887   2.078   7.100
    1XTA   HL1331990  30.027   2.162   7.117
    1XTA   HL1431991  30.083   1.957   7.189
    1XTA   HL1531992  29.983   1.864   7.097
    1XTA   HL1631993  30.143   1.717   6.970
    1XTA   HL1731994  30.030   1.809   6.895
    1XTA   HL1831995  30.425   1.750   6.746
    1XTA   HL1931996  30.366   1.669   6.891
    1XTA   HL2031997  30.386   1.892   7.029
    1XTA   HL2131998  30.446   1.972   6.887
    1XTA   HL2231999  30.542   1.841   6.951
    1XTA   HL2332000  30.537   2.871   6.024
    1XTA   HL2432001  30.552   2.795   5.875
    1XTA   HL2532002  30.773   2.818   6.095
    1XTA   HL2632003  30.801   2.732   5.940
    1XTA   HL2732004  30.708   3.027   5.944
    1XTA   HL2832005  30.873   2.983   5.948
    1XTA   HL2932006  30.826   2.838   5.744
    1XTA   HL3032007  30.655   2.903   5.737
    1XTA   HL3132008  30.933   3.039   5.692
    1XTA   HL3232009  30.798   3.016   5.584
    1XTA   HL3332010  30.662   3.194   5.728
    1XTA   HL3432011  30.804   3.184   5.839
    1XTA   HL3532012  30.841   3.398   5.840
    1XTA   HL3632013  30.715   3.449   5.733
    1XTA   HL3732014  30.928   3.687   5.547
    1XTA   HL3832015  30.769   3.632   5.593
    1XTA   HL3932016  30.784   3.434   5.435
    1XTA   HL4032017  30.954   3.486   5.398
    1XTA   HL4132018  30.823   3.584   5.341
    1XTA    CO832019  30.217   1.929   6.719
    1XTA    CO932020  30.179   1.695   6.706
    1XTA    OA632021  30.188   1.564   6.766
    1XTA   HL4232022  30.256   2.010   6.783
    1XTA   HL4332023  30.119   1.953   6.711
    1XTA   HL4432024  31.084   3.401   5.753
    1XTA   HL4532025  31.019   3.360   5.594
    1XTA   CO1032026  31.047   3.439   5.659
    1XTA   CO1132027  30.952   3.622   5.790
    1XTA    OA732028  31.141   3.515   5.579
    1XTA   HL4632029  30.858   3.661   5.835
    1XTA   HL4732030  31.001   3.709   5.744
    1XTA   HL4832031  30.246   1.690   6.619
    1XTA   HL4932032  30.081   1.726   6.677
    1XTA     NT32033  29.752   2.091   8.076
    1XTA    CN132034  29.615   2.065   8.088
    1XTA     C132035  29.552   1.966   8.011
    1XTA     C232036  29.421   1.923   8.041
    1XTA     C332037  29.346   1.991   8.138
    1XTA     C432038  29.404   2.099   8.206
    1XTA     C532039  29.538   2.135   8.185
    1XTA    CN232040  29.831   2.140   8.172
    1XTA     C632041  29.918   2.042   8.238
    1XTA     C732042  30.005   2.090   8.334
    1XTA     C832043  29.992   2.217   8.387
    1XTA     C932044  29.907   2.313   8.332
    1XTA    C1032045  29.826   2.270   8.226
    1XTA    CN332046  29.807   2.087   7.949
    1XTA    C1132047  29.741   2.156   7.851
    1XTA    C1232048  29.786   2.147   7.718
    1XTA    C1332049  29.902   2.069   7.688
    1XTA    C1432050  29.960   1.999   7.791
    1XTA    C1532051  29.917   2.007   7.920
    1XTA     H132052  29.602   1.911   7.942
    1XTA     H232053  29.370   1.840   7.994
    1XTA     H332054  29.340   2.158   8.270
    1XTA     H432055  29.591   2.211   8.249
    1XTA     H532056  29.926   1.937   8.217
    1XTA     H632057  30.063   2.016   8.384
    1XTA     H732058  29.903   2.416   8.353
    1XTA     H832059  29.758   2.336   8.183
    1XTA     H932060  29.653   2.212   7.877
    1XTA    H1032061  29.736   2.203   7.633
    1XTA    H1132062  30.050   1.938   7.770
    1XTA    H1232063  29.958   1.943   7.999
    1XTA    OA132064  29.225   1.956   8.185
    1XTA    CO132065  29.149   1.878   8.096
    1XTA    OA232066  30.073   2.266   8.492
    1XTA    CO232067  30.206   2.214   8.497
    1XTA    CL132068  30.289   2.323   8.557
    1XTA    CL232069  30.287   2.447   8.462
    1XTA    CL332070  30.402   2.541   8.502
    1XTA    CL432071  30.379   2.676   8.431
    1XTA    CO332072  30.507   2.758   8.415
    1XTA    OA332073  30.470   2.900   8.403
    1XTA    CO432074  30.466   2.960   8.531
    1XTA    CT132075  30.394   3.091   8.530
    1XTA    CL532076  30.247   3.067   8.486
    1XTA    CL632077  30.150   3.195   8.487
    1XTA    OA432078  29.951   2.054   7.564
    1XTA    CO532079  29.917   2.148   7.471
    1XTA    CL732080  29.792   2.081   7.404
    1XTA    CL832081  29.720   2.174   7.309
    1XTA    CL932082  29.601   2.107   7.254
    1XTA   CL1032083  29.564   2.161   7.112
    1XTA    CO632084  29.536   2.309   7.109
    1XTA    OA532085  29.457   2.330   6.991
    1XTA    CO732086  29.410   2.460   6.965
    1XTA    CT232087  29.309   2.467   6.866
    1XTA   CL1132088  29.258   2.612   6.843
    1XTA   CL1232089  29.365   2.703   6.775
    1XTA    HL132090  29.047   1.875   8.135
    1XTA    HL232091  29.146   1.940   8.004
    1XTA    HL332092  29.184   1.775   8.086
    1XTA    HL432093  30.209   2.115   8.541
    1XTA    HL532094  30.240   2.199   8.396
    1XTA    HL632095  30.389   2.302   8.590
    1XTA    HL732096  30.236   2.338   8.653
    1XTA    HL832097  30.184   2.482   8.461
    1XTA    HL932098  30.317   2.405   8.360
    1XTA   HL1032099  30.426   2.563   8.601
    1XTA   HL1132100  30.498   2.499   8.458
    1XTA   HL1232101  30.298   2.729   8.486
    1XTA   HL1332102  30.330   2.650   8.337
    1XTA   HL1432103  30.581   2.750   8.497
    1XTA   HL1532104  30.566   2.721   8.331
    1XTA   HL1632105  30.411   2.898   8.592
    1XTA   HL1732106  30.568   2.958   8.571
    1XTA   HL1832107  30.208   2.985   8.541
    1XTA   HL1932108  30.253   3.025   8.386
    1XTA   HL2032109  30.160   3.277   8.414
    1XTA   HL2132110  30.143   3.243   8.583
    1XTA   HL2232111  30.052   3.159   8.477
    1XTA   HL2332112  29.996   2.153   7.391
    1XTA   HL2432113  29.897   2.249   7.509
    1XTA   HL2532114  29.843   1.998   7.355
    1XTA   HL2632115  29.730   2.031   7.476
    1XTA   HL2732116  29.680   2.252   7.369
    1XTA   HL2832117  29.780   2.223   7.224
    1XTA   HL2932118  29.614   2.005   7.251
    1XTA   HL3032119  29.522   2.126   7.329
    1XTA   HL3132120  29.626   2.133   7.022
    1XTA   HL3232121  29.473   2.112   7.094
    1XTA   HL3332122  29.483   2.345   7.196
    1XTA   HL3432123  29.633   2.358   7.108
    1XTA   HL3532124  29.492   2.523   6.938
    1XTA   HL3632125  29.372   2.508   7.057
    1XTA   HL3732126  29.222   2.642   6.939
    1XTA   HL3832127  29.174   2.619   6.766
    1XTA   HL3932128  29.368   2.680   6.669
    1XTA   HL4032129  29.467   2.710   6.824
    1XTA   HL4132130  29.319   2.799   6.781
    1XTA    CO832131  30.463   3.191   8.436
    1XTA    CO932132  30.401   3.136   8.671
    1XTA    OA632133  30.564   3.230   8.474
    1XTA   HL4232134  30.398   3.269   8.420
    1XTA   HL4332135  30.475   3.137   8.339
    1XTA   HL4432136  29.159   2.397   6.988
    1XTA   HL4532137  29.250   2.268   6.927
    1XTA   CO1032138  29.201   2.362   6.893
    1XTA   CO1132139  29.365   2.423   6.728
    1XTA    OA732140  29.382   2.279   6.737
    1XTA   HL4632141  29.292   2.438   6.651
    1XTA   HL4732142  29.463   2.462   6.711
    1XTA   HL4832143  30.417   3.278   8.671
    1XTA   HL4932144  30.491   3.103   8.708
    1XTA     NT32145  30.666   3.809   1.686
    1XTA    CN132146  30.736   3.924   1.694
    1XTA     C132147  30.663   4.041   1.726
    1XTA     C232148  30.734   4.164   1.725
    1XTA     C332149  30.875   4.170   1.702
    1XTA     C432150  30.945   4.047   1.683
    1XTA     C532151  30.873   3.926   1.672
    1XTA    CN232152  30.627   3.771   1.564
    1XTA     C632153  30.712   3.705   1.480
    1XTA     C732154  30.665   3.678   1.348
    1XTA     C832155  30.533   3.710   1.309
    1XTA     C932156  30.447   3.768   1.399
    1XTA    C1032157  30.497   3.805   1.522
    1XTA    CN332158  30.661   3.714   1.780
    1XTA    C1132159  30.545   3.719   1.858
    1XTA    C1232160  30.529   3.627   1.967
    1XTA    C1332161  30.629   3.531   1.990
    1XTA    C1432162  30.749   3.540   1.920
    1XTA    C1532163  30.761   3.620   1.811
    1XTA     H132164  30.557   4.040   1.733
    1XTA     H232165  30.669   4.246   1.743
    1XTA     H332166  31.052   4.034   1.680
    1XTA     H432167  30.920   3.833   1.656
    1XTA     H532168  30.817   3.684   1.495
    1XTA     H632169  30.722   3.624   1.281
    1XTA     H732170  30.339   3.784   1.379
    1XTA     H832171  30.436   3.860   1.590
    1XTA     H932172  30.477   3.797   1.837
    1XTA    H1032173  30.436   3.636   2.030
    1XTA    H1132174  30.831   3.470   1.949
    1XTA    H1232175  30.852   3.609   1.753
    1XTA    OA132176  30.943   4.287   1.688
    1XTA    CO132177  30.865   4.409   1.690
    1XTA    OA232178  30.482   3.669   1.191
    1XTA    CO232179  30.552   3.700   1.076
    1XTA    CL132180  30.457   3.703   0.961
    1XTA    CL232181  30.374   3.826   0.965
    1XTA    CL332182  30.257   3.820   0.856
    1XTA    CL432183  30.143   3.929   0.891
    1XTA    CO332184  30.041   3.948   0.780
    1XTA    OA332185  29.967   3.824   0.770
    1XTA    CO432186  29.845   3.838   0.835
    1XTA    CT132187  29.764   3.715   0.821
    1XTA    CL532188  29.621   3.747   0.864
    1XTA    CL632189  29.538   3.841   0.778
    1XTA    OA432190  30.616   3.447   2.095
    1XTA    CO532191  30.484   3.403   2.123
    1XTA    CL732192  30.441   3.478   2.250
    1XTA    CL832193  30.292   3.461   2.293
    1XTA    CL932194  30.281   3.516   2.439
    1XTA   CL1032195  30.300   3.669   2.460
    1XTA    CO632196  30.299   3.708   2.607
    1XTA    OA532197  30.299   3.852   2.611
    1XTA    CO732198  30.191   3.917   2.546
    1XTA    CT232199  30.167   4.058   2.602
    1XTA   CL1132200  30.042   4.135   2.543
    1XTA   CL1232201  30.048   4.139   2.387
    1XTA    HL132202  30.929   4.500   1.684
    1XTA    HL232203  30.806   4.400   1.604
    1XTA    HL332204  30.804   4.423   1.773
    1XTA    HL432205  30.609   3.799   1.077
    1XTA    HL532206  30.634   3.628   1.039
    1XTA    HL632207  30.390   3.615   0.958
    1XTA    HL732208  30.515   3.685   0.872
    1XTA    HL832209  30.434   3.908   0.967
    1XTA    HL932210  30.315   3.825   1.057
    1XTA   HL1032211  30.292   3.855   0.761
    1XTA   HL1132212  30.214   3.719   0.848
    1XTA   HL1232213  30.196   4.027   0.907
    1XTA   HL1332214  30.094   3.901   0.978
    1XTA   HL1432215  29.979   4.028   0.790
    1XTA   HL1532216  30.097   3.964   0.689
    1XTA   HL1632217  29.877   3.868   0.935
    1XTA   HL1732218  29.793   3.923   0.789
    1XTA   HL1832219  29.632   3.783   0.964
    1XTA   HL1932220  29.568   3.645   0.871
    1XTA   HL2032221  29.440   3.854   0.809
    1XTA   HL2132222  29.529   3.811   0.676
    1XTA   HL2232223  29.582   3.943   0.779
    1XTA   HL2332224  30.490   3.301   2.145
    1XTA   HL2432225  30.408   3.405   2.039
    1XTA   HL2532226  30.510   3.438   2.333
    1XTA   HL2632227  30.459   3.585   2.237
    1XTA   HL2732228  30.227   3.516   2.218
    1XTA   HL2832229  30.264   3.360   2.296
    1XTA   HL2932230  30.188   3.482   2.482
    1XTA   HL3032231  30.353   3.459   2.494
    1XTA   HL3132232  30.392   3.699   2.425
    1XTA   HL3232233  30.223   3.719   2.402
    1XTA   HL3332234  30.206   3.673   2.648
    1XTA   HL3432235  30.381   3.669   2.668
    1XTA   HL3532236  30.103   3.854   2.540
    1XTA   HL3632237  30.221   3.933   2.443
    1XTA   HL3732238  30.037   4.235   2.586
    1XTA   HL3832239  29.952   4.080   2.576
    1XTA   HL3932240  30.136   4.193   2.354
    1XTA   HL4032241  29.962   4.179   2.331
    1XTA   HL4132242  30.048   4.037   2.345
    1XTA    CO832243  29.822   3.609   0.918
    1XTA    CO932244  29.766   3.653   0.678
    1XTA    OA632245  29.864   3.605   0.647
    1XTA   HL4232246  29.843   3.651   1.019
    1XTA   HL4332247  29.936   3.556   0.871
    1XTA   HL4432248  30.266   4.245   2.617
    1XTA   HL4532249  30.381   4.114   2.640
    1XTA   CO1032250  30.295   4.145   2.585
    1XTA   CO1132251  30.138   4.050   2.753
    1XTA    OA732252  30.335   4.144   2.484
    1XTA   HL4632253  30.264   4.077   2.814
    1XTA   HL4732254  30.116   3.945   2.775
    1XTA   HL4832255  29.751   3.743   0.612
    1XTA   HL4932256  29.681   3.586   0.655
    1XTA     NT32257  28.977   1.474  -0.055
    1XTA    CN132258  29.054   1.445  -0.164
    1XTA     C132259  29.050   1.519  -0.286
    1XTA     C232260  29.142   1.490  -0.388
    1XTA     C332261  29.231   1.381  -0.374
    1XTA     C432262  29.220   1.295  -0.260
    1XTA     C532263  29.148   1.339  -0.154
    1XTA    CN232264  29.045   1.521   0.053
    1XTA     C632265  29.050   1.450   0.178
    1XTA     C732266  29.130   1.498   0.287
    1XTA     C832267  29.195   1.624   0.272
    1XTA     C932268  29.189   1.697   0.150
    1XTA    C1032269  29.115   1.644   0.047
    1XTA    CN332270  28.852   1.429  -0.045
    1XTA    C1132271  28.827   1.293  -0.016
    1XTA    C1232272  28.693   1.246  -0.017
    1XTA    C1332273  28.586   1.330  -0.033
    1XTA    C1432274  28.615   1.466  -0.042
    1XTA    C1532275  28.741   1.515  -0.050
    1XTA     H132276  28.993   1.608  -0.279
    1XTA     H232277  29.152   1.542  -0.482
    1XTA     H332278  29.286   1.214  -0.258
    1XTA     H432279  29.159   1.280  -0.061
    1XTA     H532280  29.003   1.354   0.190
    1XTA     H632281  29.133   1.449   0.384
    1XTA     H732282  29.230   1.800   0.144
    1XTA     H832283  29.116   1.703  -0.041
    1XTA     H932284  28.904   1.221   0.011
    1XTA    H1032285  28.689   1.140  -0.002
    1XTA    H1132286  28.540   1.534  -0.058
    1XTA    H1232287  28.750   1.618  -0.075
    1XTA    OA132288  29.319   1.360  -0.476
    1XTA    CO132289  29.397   1.241  -0.459
    1XTA    OA232290  29.246   1.678   0.387
    1XTA    CO232291  29.303   1.805   0.385
    1XTA    CL132292  29.334   1.824   0.531
    1XTA    CL232293  29.396   1.961   0.561
    1XTA    CL332294  29.543   1.982   0.527
    1XTA    CL432295  29.610   2.103   0.595
    1XTA    CO332296  29.754   2.138   0.546
    1XTA    OA332297  29.848   2.056   0.608
    1XTA    CO432298  29.983   2.083   0.587
    1XTA    CT132299  30.061   1.957   0.626
    1XTA    CL532300  30.050   1.829   0.536
    1XTA    CL632301  29.915   1.785   0.486
    1XTA    OA432302  28.458   1.281  -0.053
    1XTA    CO532303  28.444   1.152  -0.112
    1XTA    CL732304  28.315   1.125  -0.187
    1XTA    CL832305  28.306   1.209  -0.317
    1XTA    CL932306  28.251   1.354  -0.286
    1XTA   CL1032307  28.270   1.457  -0.398
    1XTA    CO632308  28.409   1.517  -0.423
    1XTA    OA532309  28.501   1.410  -0.457
    1XTA    CO732310  28.632   1.462  -0.495
    1XTA    CT232311  28.732   1.348  -0.509
    1XTA   CL1132312  28.859   1.408  -0.568
    1XTA   CL1232313  28.972   1.316  -0.609
    1XTA    HL132314  29.333   1.159  -0.454
    1XTA    HL232315  29.476   1.230  -0.530
    1XTA    HL332316  29.463   1.241  -0.368
    1XTA    HL432317  29.393   1.799   0.332
    1XTA    HL532318  29.231   1.881   0.353
    1XTA    HL632319  29.387   1.739   0.575
    1XTA    HL732320  29.241   1.810   0.580
    1XTA    HL832321  29.380   1.987   0.663
    1XTA    HL932322  29.331   2.028   0.503
    1XTA   HL1032323  29.594   1.889   0.557
    1XTA   HL1132324  29.559   1.992   0.425
    1XTA   HL1232325  29.624   2.076   0.700
    1XTA   HL1332326  29.532   2.189   0.596
    1XTA   HL1432327  29.771   2.136   0.435
    1XTA   HL1532328  29.768   2.242   0.578
    1XTA   HL1632329  30.014   2.105   0.483
    1XTA   HL1732330  30.014   2.171   0.643
    1XTA   HL1832331  30.104   1.742   0.577
    1XTA   HL1932332  30.102   1.852   0.446
    1XTA   HL2032333  29.926   1.685   0.455
    1XTA   HL2132334  29.886   1.855   0.405
    1XTA   HL2232335  29.836   1.791   0.565
    1XTA   HL2332336  28.472   1.070  -0.046
    1XTA   HL2432337  28.524   1.152  -0.183
    1XTA   HL2532338  28.310   1.021  -0.214
    1XTA   HL2632339  28.224   1.151  -0.133
    1XTA   HL2732340  28.410   1.211  -0.357
    1XTA   HL2832341  28.239   1.171  -0.396
    1XTA   HL2932342  28.143   1.344  -0.265
    1XTA   HL3032343  28.303   1.393  -0.198
    1XTA   HL3132344  28.242   1.408  -0.494
    1XTA   HL3232345  28.206   1.546  -0.384
    1XTA   HL3332346  28.395   1.588  -0.501
    1XTA   HL3432347  28.449   1.561  -0.337
    1XTA   HL3532348  28.669   1.527  -0.418
    1XTA   HL3632349  28.609   1.523  -0.587
    1XTA   HL3732350  28.895   1.480  -0.499
    1XTA   HL3832351  28.830   1.475  -0.651
    1XTA   HL3932352  29.018   1.268  -0.521
    1XTA   HL4032353  29.046   1.374  -0.660
    1XTA   HL4132354  28.947   1.231  -0.671
    1XTA    CO832355  30.036   1.920   0.771
    1XTA    CO932356  30.203   1.995   0.660
    1XTA    OA632357  30.160   1.996   0.795
    1XTA   HL4232358  30.055   1.813   0.797
    1XTA   HL4332359  29.941   1.959   0.806
    1XTA   HL4432360  28.752   1.172  -0.640
    1XTA   HL4532361  28.602   1.190  -0.550
    1XTA   CO1032362  28.678   1.242  -0.608
    1XTA   CO1132363  28.749   1.278  -0.371
    1XTA    OA732364  28.628   1.297  -0.689
    1XTA   HL4632365  28.622   1.241  -0.313
    1XTA   HL4732366  28.789   1.362  -0.305
    1XTA   HL4832367  30.239   2.089   0.620
    1XTA   HL4932368  30.275   1.915   0.651
    1XTA     NT32369  28.494   4.105  -0.955
    1XTA    CN132370  28.614   4.034  -0.933
    1XTA     C132371  28.695   4.000  -1.044
    1XTA     C232372  28.822   3.940  -1.020
    1XTA     C332373  28.869   3.921  -0.890
    1XTA     C432374  28.786   3.942  -0.776
    1XTA     C532375  28.661   4.007  -0.803
    1XTA    CN232376  28.382   4.031  -0.980
    1XTA     C632377  28.344   3.918  -0.904
    1XTA     C732378  28.218   3.855  -0.923
    1XTA     C832379  28.124   3.908  -1.018
    1XTA     C932380  28.161   4.017  -1.094
    1XTA    C1032381  28.281   4.082  -1.069
    1XTA    CN332382  28.473   4.224  -0.887
    1XTA    C1132383  28.377   4.227  -0.784
    1XTA    C1232384  28.339   4.351  -0.728
    1XTA    C1332385  28.413   4.473  -0.762
    1XTA    C1432386  28.519   4.464  -0.858
    1XTA    C1532387  28.549   4.338  -0.910
    1XTA     H132388  28.666   4.038  -1.141
    1XTA     H232389  28.884   3.928  -1.108
    1XTA     H332390  28.826   3.933  -0.676
    1XTA     H432391  28.605   4.050  -0.715
    1XTA     H532392  28.413   3.878  -0.835
    1XTA     H632393  28.193   3.766  -0.867
    1XTA     H732394  28.108   4.044  -1.182
    1XTA     H832395  28.315   4.167  -1.125
    1XTA     H932396  28.324   4.140  -0.749
    1XTA    H1032397  28.253   4.354  -0.659
    1XTA    H1132398  28.568   4.557  -0.898
    1XTA    H1232399  28.631   4.321  -0.979
    1XTA    OA132400  29.003   3.875  -0.873
    1XTA    CO132401  29.063   3.855  -0.744
    1XTA    OA232402  28.001   3.854  -1.037
    1XTA    CO232403  27.950   3.755  -0.956
    1XTA    CL132404  27.801   3.724  -0.993
    1XTA    CL232405  27.723   3.649  -0.886
    1XTA    CL332406  27.796   3.527  -0.839
    1XTA    CL432407  27.813   3.419  -0.947
    1XTA    CO332408  27.886   3.299  -0.876
    1XTA    OA332409  28.006   3.365  -0.847
    1XTA    CO432410  28.120   3.272  -0.840
    1XTA    CT132411  28.233   3.346  -0.765
    1XTA    CL532412  28.353   3.247  -0.781
    1XTA    CL632413  28.484   3.275  -0.701
    1XTA    OA432414  28.369   4.588  -0.715
    1XTA    CO532415  28.325   4.586  -0.584
    1XTA    CL732416  28.272   4.716  -0.527
    1XTA    CL832417  28.190   4.683  -0.401
    1XTA    CL932418  28.288   4.646  -0.286
    1XTA   CL1032419  28.223   4.633  -0.149
    1XTA    CO632420  28.328   4.569  -0.051
    1XTA    OA532421  28.271   4.552   0.084
    1XTA    CO732422  28.365   4.480   0.166
    1XTA    CT232423  28.289   4.404   0.284
    1XTA   CL1132424  28.191   4.498   0.358
    1XTA   CL1232425  28.100   4.459   0.467
    1XTA    HL132426  29.170   3.856  -0.755
    1XTA    HL232427  29.027   3.945  -0.691
    1XTA    HL332428  29.015   3.776  -0.684
    1XTA    HL432429  28.015   3.664  -0.968
    1XTA    HL532430  27.958   3.788  -0.856
    1XTA    HL632431  27.793   3.673  -1.088
    1XTA    HL732432  27.747   3.821  -0.995
    1XTA    HL832433  27.623   3.636  -0.923
    1XTA    HL932434  27.712   3.713  -0.799
    1XTA   HL1032435  27.890   3.556  -0.795
    1XTA   HL1132436  27.730   3.480  -0.769
    1XTA   HL1232437  27.870   3.456  -1.028
    1XTA   HL1332438  27.711   3.409  -0.983
    1XTA   HL1432439  27.830   3.269  -0.789
    1XTA   HL1532440  27.902   3.212  -0.939
    1XTA   HL1632441  28.097   3.175  -0.786
    1XTA   HL1732442  28.148   3.238  -0.941
    1XTA   HL1832443  28.385   3.257  -0.883
    1XTA   HL1932444  28.308   3.144  -0.763
    1XTA   HL2032445  28.574   3.212  -0.725
    1XTA   HL2132446  28.482   3.266  -0.593
    1XTA   HL2232447  28.514   3.383  -0.715
    1XTA   HL2332448  28.399   4.550  -0.509
    1XTA   HL2432449  28.241   4.523  -0.577
    1XTA   HL2532450  28.348   4.793  -0.514
    1XTA   HL2632451  28.198   4.751  -0.599
    1XTA   HL2732452  28.127   4.770  -0.373
    1XTA   HL2832453  28.125   4.594  -0.418
    1XTA   HL2932454  28.341   4.560  -0.315
    1XTA   HL3032455  28.364   4.724  -0.291
    1XTA   HL3132456  28.218   4.739  -0.112
    1XTA   HL3232457  28.128   4.581  -0.147
    1XTA   HL3332458  28.358   4.467  -0.094
    1XTA   HL3432459  28.409   4.637  -0.056
    1XTA   HL3532460  28.441   4.548   0.209
    1XTA   HL3632461  28.417   4.407   0.103
    1XTA   HL3732462  28.131   4.550   0.280
    1XTA   HL3832463  28.238   4.587   0.390
    1XTA   HL3932464  28.035   4.381   0.442
    1XTA   HL4032465  28.039   4.542   0.497
    1XTA   HL4132466  28.159   4.437   0.557
    1XTA    CO832467  28.195   3.380  -0.618
    1XTA    CO932468  28.252   3.483  -0.835
    1XTA    OA632469  28.276   3.464  -0.972
    1XTA   HL4232470  28.090   3.385  -0.611
    1XTA   HL4332471  28.225   3.287  -0.559
    1XTA   HL4432472  28.334   4.253   0.479
    1XTA   HL4532473  28.449   4.261   0.302
    1XTA   CO1032474  28.394   4.329   0.369
    1XTA   CO1132475  28.201   4.290   0.217
    1XTA    OA732476  28.259   4.220   0.158
    1XTA   HL4632477  28.160   4.225   0.297
    1XTA   HL4732478  28.114   4.329   0.163
    1XTA   HL4832479  28.334   3.544  -0.794
    1XTA   HL4932480  28.159   3.548  -0.821
    1XTA     NT32481  30.570   1.129   1.918
    1XTA    CN132482  30.675   1.078   1.847
    1XTA     C132483  30.813   1.100   1.875
    1XTA     C232484  30.918   1.036   1.807
    1XTA     C332485  30.883   0.952   1.698
    1XTA     C432486  30.750   0.931   1.653
    1XTA     C532487  30.648   0.991   1.738
    1XTA    CN232488  30.480   1.217   1.869
    1XTA     C632489  30.361   1.158   1.811
    1XTA     C732490  30.270   1.237   1.737
    1XTA     C832491  30.289   1.376   1.728
    1XTA     C932492  30.400   1.436   1.801
    1XTA    C1032493  30.492   1.356   1.868
    1XTA    CN332494  30.545   1.071   2.038
    1XTA    C1132495  30.458   0.961   2.034
    1XTA    C1232496  30.430   0.883   2.152
    1XTA    C1332497  30.499   0.922   2.270
    1XTA    C1432498  30.578   1.036   2.275
    1XTA    C1532499  30.604   1.106   2.156
    1XTA     H132500  30.847   1.163   1.957
    1XTA     H232501  31.019   1.056   1.829
    1XTA     H332502  30.733   0.869   1.570
    1XTA     H432503  30.545   0.989   1.713
    1XTA     H532504  30.353   1.049   1.793
    1XTA     H632505  30.176   1.193   1.689
    1XTA     H732506  30.401   1.545   1.799
    1XTA     H832507  30.577   1.408   1.905
    1XTA     H932508  30.413   0.922   1.943
    1XTA    H1032509  30.374   0.793   2.168
    1XTA    H1132510  30.625   1.063   2.368
    1XTA    H1232511  30.666   1.194   2.161
    1XTA    OA132512  30.980   0.914   1.612
    1XTA    CO132513  31.107   0.893   1.663
    1XTA    OA232514  30.211   1.448   1.644
    1XTA    CO232515  30.277   1.525   1.539
    1XTA    CL132516  30.171   1.561   1.428
    1XTA    CL232517  30.234   1.655   1.323
    1XTA    CL332518  30.175   1.681   1.185
    1XTA    CL432519  30.229   1.814   1.117
    1XTA    CO332520  30.386   1.834   1.119
    1XTA    OA332521  30.419   1.870   1.251
    1XTA    CO432522  30.553   1.908   1.276
    1XTA    CT132523  30.564   1.950   1.420
    1XTA    CL532524  30.469   2.071   1.453
    1XTA    CL632525  30.319   2.029   1.468
    1XTA    OA432526  30.493   0.833   2.378
    1XTA    CO532527  30.565   0.864   2.490
    1XTA    CL732528  30.516   0.752   2.589
    1XTA    CL832529  30.589   0.729   2.725
    1XTA    CL932530  30.515   0.619   2.809
    1XTA   CL1032531  30.533   0.635   2.959
    1XTA    CO632532  30.453   0.766   3.009
    1XTA    OA532533  30.312   0.746   2.995
    1XTA    CO732534  30.239   0.876   3.014
    1XTA    CT232535  30.091   0.857   2.977
    1XTA   CL1132536  30.026   0.995   2.981
    1XTA   CL1232537  30.072   1.102   2.880
    1XTA    HL132538  31.164   0.840   1.589
    1XTA    HL232539  31.156   0.988   1.690
    1XTA    HL332540  31.096   0.850   1.759
    1XTA    HL432541  30.326   1.606   1.588
    1XTA    HL532542  30.352   1.462   1.484
    1XTA    HL632543  30.076   1.606   1.470
    1XTA    HL732544  30.146   1.466   1.378
    1XTA    HL832545  30.334   1.618   1.306
    1XTA    HL932546  30.251   1.746   1.370
    1XTA   HL1032547  30.203   1.597   1.124
    1XTA   HL1132548  30.063   1.682   1.182
    1XTA   HL1232549  30.184   1.900   1.168
    1XTA   HL1332550  30.188   1.817   1.015
    1XTA   HL1432551  30.432   1.738   1.109
    1XTA   HL1532552  30.432   1.908   1.056
    1XTA   HL1632553  30.613   1.817   1.270
    1XTA   HL1732554  30.590   1.986   1.204
    1XTA   HL1832555  30.480   2.142   1.379
    1XTA   HL1932556  30.501   2.127   1.538
    1XTA   HL2032557  30.269   2.101   1.532
    1XTA   HL2132558  30.302   1.927   1.499
    1XTA   HL2232559  30.268   2.029   1.376
    1XTA   HL2332560  30.541   0.967   2.521
    1XTA   HL2432561  30.675   0.849   2.476
    1XTA   HL2532562  30.406   0.740   2.591
    1XTA   HL2632563  30.539   0.662   2.531
    1XTA   HL2732564  30.696   0.704   2.713
    1XTA   HL2832565  30.593   0.830   2.771
    1XTA   HL2932566  30.408   0.607   2.784
    1XTA   HL3032567  30.554   0.523   2.792
    1XTA   HL3132568  30.492   0.545   3.004
    1XTA   HL3232569  30.640   0.647   2.977
    1XTA   HL3332570  30.456   0.789   3.114
    1XTA   HL3432571  30.472   0.854   2.944
    1XTA   HL3532572  30.294   0.953   2.958
    1XTA   HL3632573  30.245   0.922   3.115
    1XTA   HL3732574  30.044   1.027   3.084
    1XTA   HL3832575  29.918   0.975   2.962
    1XTA   HL3932576  30.044   1.200   2.913
    1XTA   HL4032577  30.037   1.092   2.776
    1XTA   HL4132578  30.185   1.106   2.875
    1XTA    CO832579  30.713   2.008   1.432
    1XTA    CO932580  30.546   1.828   1.513
    1XTA    OA632581  30.797   1.900   1.397
    1XTA   HL4232582  30.725   2.047   1.532
    1XTA   HL4332583  30.731   2.094   1.372
    1XTA   HL4432584  30.033   0.821   3.174
    1XTA   HL4532585  29.926   0.740   3.066
    1XTA   CO1032586  30.035   0.765   3.087
    1XTA   CO1132587  30.077   0.789   2.843
    1XTA    OA732588  30.092   0.678   3.096
    1XTA   HL4632589  30.122   0.650   2.844
    1XTA   HL4732590  30.143   0.849   2.776
    1XTA   HL4832591  30.598   1.737   1.477
    1XTA   HL4932592  30.451   1.782   1.531
    1XTA     NT32593  27.256   2.170   1.515
    1XTA    CN132594  27.292   2.038   1.532
    1XTA     C132595  27.191   1.935   1.536
    1XTA     C232596  27.222   1.806   1.571
    1XTA     C332597  27.356   1.775   1.602
    1XTA     C432598  27.458   1.866   1.583
    1XTA     C532599  27.425   1.997   1.551
    1XTA    CN232600  27.229   2.225   1.392
    1XTA     C632601  27.100   2.224   1.332
    1XTA     C732602  27.082   2.292   1.206
    1XTA     C832603  27.193   2.353   1.141
    1XTA     C932604  27.318   2.353   1.208
    1XTA    C1032605  27.337   2.295   1.333
    1XTA    CN332606  27.244   2.245   1.630
    1XTA    C1132607  27.355   2.279   1.709
    1XTA    C1232608  27.340   2.364   1.819
    1XTA    C1332609  27.210   2.400   1.865
    1XTA    C1432610  27.097   2.344   1.803
    1XTA    C1532611  27.118   2.272   1.684
    1XTA     H132612  27.086   1.959   1.520
    1XTA     H232613  27.147   1.730   1.594
    1XTA     H332614  27.554   1.833   1.599
    1XTA     H432615  27.505   2.069   1.553
    1XTA     H532616  27.016   2.183   1.387
    1XTA     H632617  26.987   2.297   1.150
    1XTA     H732618  27.400   2.408   1.168
    1XTA     H832619  27.434   2.294   1.374
    1XTA     H932620  27.450   2.252   1.681
    1XTA    H1032621  27.421   2.415   1.862
    1XTA    H1132622  26.996   2.374   1.832
    1XTA    H1232623  27.034   2.239   1.614
    1XTA    OA132624  27.369   1.647   1.637
    1XTA    CO132625  27.465   1.627   1.739
    1XTA    OA232626  27.182   2.423   1.025
    1XTA    CO232627  27.104   2.366   0.915
    1XTA    CL132628  27.068   2.478   0.811
    1XTA    CL232629  26.963   2.575   0.868
    1XTA    CL332630  27.034   2.687   0.949
    1XTA    CL432631  26.935   2.785   1.011
    1XTA    CO332632  26.996   2.875   1.113
    1XTA    OA332633  26.978   2.828   1.243
    1XTA    CO432634  27.072   2.728   1.282
    1XTA    CT132635  27.049   2.713   1.434
    1XTA    CL532636  27.130   2.591   1.487
    1XTA    CL632637  27.283   2.600   1.472
    1XTA    OA432638  27.197   2.488   1.965
    1XTA    CO532639  27.184   2.427   2.081
    1XTA    CL732640  27.108   2.517   2.178
    1XTA    CL832641  27.072   2.456   2.314
    1XTA    CL932642  27.179   2.463   2.418
    1XTA   CL1032643  27.313   2.417   2.370
    1XTA    CO632644  27.428   2.419   2.482
    1XTA    OA532645  27.553   2.385   2.422
    1XTA    CO732646  27.662   2.425   2.498
    1XTA    CT232647  27.799   2.411   2.435
    1XTA   CL1132648  27.825   2.500   2.314
    1XTA   CL1232649  27.822   2.642   2.361
    1XTA    HL132650  27.447   1.523   1.786
    1XTA    HL232651  27.567   1.622   1.704
    1XTA    HL332652  27.451   1.695   1.826
    1XTA    HL432653  27.179   2.293   0.878
    1XTA    HL532654  27.013   2.309   0.950
    1XTA    HL632655  27.026   2.424   0.723
    1XTA    HL732656  27.152   2.524   0.773
    1XTA    HL832657  26.892   2.520   0.932
    1XTA    HL932658  26.911   2.635   0.786
    1XTA   HL1032659  27.091   2.639   1.031
    1XTA   HL1132660  27.112   2.748   0.892
    1XTA   HL1232661  26.845   2.741   1.054
    1XTA   HL1332662  26.889   2.855   0.941
    1XTA   HL1432663  27.091   2.900   1.086
    1XTA   HL1532664  26.940   2.963   1.105
    1XTA   HL1632665  27.068   2.636   1.226
    1XTA   HL1732666  27.177   2.767   1.264
    1XTA   HL1832667  27.112   2.497   1.430
    1XTA   HL1932668  27.107   2.577   1.590
    1XTA   HL2032669  27.328   2.679   1.535
    1XTA   HL2132670  27.317   2.629   1.374
    1XTA   HL2232671  27.330   2.501   1.496
    1XTA   HL2332672  27.272   2.382   2.121
    1XTA   HL2432673  27.116   2.340   2.058
    1XTA   HL2532674  27.158   2.608   2.191
    1XTA   HL2632675  27.011   2.538   2.129
    1XTA   HL2732676  26.989   2.522   2.342
    1XTA   HL2832677  27.044   2.348   2.298
    1XTA   HL2932678  27.199   2.567   2.441
    1XTA   HL3032679  27.152   2.405   2.501
    1XTA   HL3132680  27.310   2.316   2.332
    1XTA   HL3232681  27.358   2.481   2.294
    1XTA   HL3332682  27.430   2.510   2.534
    1XTA   HL3432683  27.395   2.343   2.554
    1XTA   HL3532684  27.671   2.365   2.588
    1XTA   HL3632685  27.659   2.522   2.535
    1XTA   HL3732686  27.744   2.488   2.242
    1XTA   HL3832687  27.913   2.481   2.260
    1XTA   HL3932688  27.734   2.654   2.426
    1XTA   HL4032689  27.816   2.714   2.280
    1XTA   HL4132690  27.913   2.665   2.410
    1XTA    CO832691  26.905   2.668   1.462
    1XTA    CO932692  27.077   2.844   1.511
    1XTA    OA632693  26.860   2.554   1.391
    1XTA   HL4232694  26.838   2.751   1.447
    1XTA   HL4332695  26.900   2.641   1.567
    1XTA   HL4432696  27.716   2.244   2.264
    1XTA   HL4532697  27.756   2.197   2.454
    1XTA   CO1032698  27.798   2.259   2.381
    1XTA   CO1132699  27.917   2.427   2.542
    1XTA    OA732700  28.017   2.435   2.497
    1XTA   HL4632701  27.892   2.512   2.606
    1XTA   HL4732702  27.916   2.349   2.619
    1XTA   HL4832703  27.177   2.883   1.487
    1XTA   HL4932704  27.008   2.919   1.474
    1XTA     NT32705  27.683   1.073   4.322
    1XTA    CN132706  27.721   1.146   4.217
    1XTA     C132707  27.663   1.124   4.085
    1XTA     C232708  27.722   1.182   3.975
    1XTA     C332709  27.835   1.266   3.986
    1XTA     C432710  27.888   1.296   4.119
    1XTA     C532711  27.826   1.234   4.229
    1XTA    CN232712  27.565   1.094   4.386
    1XTA     C632713  27.540   1.220   4.437
    1XTA     C732714  27.411   1.241   4.490
    1XTA     C832715  27.314   1.138   4.501
    1XTA     C932716  27.346   1.008   4.453
    1XTA    C1032717  27.468   0.987   4.387
    1XTA    CN332718  27.752   0.961   4.350
    1XTA    C1132719  27.794   0.931   4.481
    1XTA    C1232720  27.877   0.819   4.505
    1XTA    C1332721  27.914   0.733   4.397
    1XTA    C1432722  27.869   0.762   4.268
    1XTA    C1532723  27.781   0.874   4.240
    1XTA     H132724  27.575   1.061   4.074
    1XTA     H232725  27.682   1.146   3.879
    1XTA     H332726  27.973   1.357   4.118
    1XTA     H432727  27.857   1.247   4.330
    1XTA     H532728  27.606   1.307   4.416
    1XTA     H632729  27.375   1.339   4.511
    1XTA     H732730  27.275   0.928   4.467
    1XTA     H832731  27.492   0.894   4.339
    1XTA     H932732  27.766   0.980   4.573
    1XTA    H1032733  27.902   0.784   4.604
    1XTA    H1132734  27.895   0.708   4.179
    1XTA    H1232735  27.755   0.892   4.140
    1XTA    OA132736  27.888   1.312   3.871
    1XTA    CO132737  27.994   1.411   3.883
    1XTA    OA232738  27.198   1.177   4.567
    1XTA    CO232739  27.091   1.078   4.585
    1XTA    CL132740  26.974   1.146   4.651
    1XTA    CL232741  26.998   1.205   4.791
    1XTA    CL332742  27.115   1.296   4.801
    1XTA    CL432743  27.110   1.368   4.941
    1XTA    CO332744  27.215   1.479   4.961
    1XTA    OA332745  27.338   1.423   4.917
    1XTA    CO432746  27.399   1.350   5.024
    1XTA    CT132747  27.534   1.288   4.974
    1XTA    CL532748  27.593   1.183   5.075
    1XTA    CL632749  27.634   1.230   5.215
    1XTA    OA432750  27.983   0.626   4.440
    1XTA    CO532751  27.993   0.514   4.352
    1XTA    CL732752  27.916   0.402   4.423
    1XTA    CL832753  27.768   0.421   4.417
    1XTA    CL932754  27.692   0.370   4.546
    1XTA   CL1032755  27.561   0.444   4.566
    1XTA    CO632756  27.580   0.586   4.618
    1XTA    OA532757  27.481   0.640   4.698
    1XTA    CO732758  27.459   0.778   4.668
    1XTA    CT232759  27.454   0.857   4.797
    1XTA   CL1132760  27.573   0.826   4.885
    1XTA   CL1232761  27.713   0.837   4.824
    1XTA    HL132762  27.978   1.489   3.956
    1XTA    HL232763  28.088   1.357   3.891
    1XTA    HL332764  28.015   1.460   3.786
    1XTA    HL432765  27.062   1.038   4.492
    1XTA    HL532766  27.135   1.005   4.650
    1XTA    HL632767  26.880   1.090   4.656
    1XTA    HL732768  26.947   1.225   4.586
    1XTA    HL832769  27.016   1.125   4.858
    1XTA    HL932770  26.908   1.245   4.820
    1XTA   HL1032771  27.207   1.249   4.782
    1XTA   HL1132772  27.110   1.378   4.732
    1XTA   HL1232773  27.108   1.301   5.025
    1XTA   HL1332774  27.019   1.424   4.958
    1XTA   HL1432775  27.195   1.574   4.904
    1XTA   HL1532776  27.220   1.531   5.054
    1XTA   HL1632777  27.405   1.396   5.122
    1XTA   HL1732778  27.323   1.276   5.048
    1XTA   HL1832779  27.672   1.112   5.037
    1XTA   HL1932780  27.512   1.113   5.094
    1XTA   HL2032781  27.665   1.137   5.264
    1XTA   HL2132782  27.545   1.258   5.272
    1XTA   HL2232783  27.717   1.303   5.222
    1XTA   HL2332784  28.104   0.503   4.341
    1XTA   HL2432785  27.956   0.525   4.251
    1XTA   HL2532786  27.929   0.308   4.368
    1XTA   HL2632787  27.953   0.383   4.522
    1XTA   HL2732788  27.757   0.532   4.423
    1XTA   HL2832789  27.724   0.390   4.324
    1XTA   HL2932790  27.678   0.266   4.530
    1XTA   HL3032791  27.746   0.376   4.634
    1XTA   HL3132792  27.508   0.454   4.469
    1XTA   HL3232793  27.498   0.380   4.633
    1XTA   HL3332794  27.664   0.574   4.687
    1XTA   HL3432795  27.623   0.642   4.539
    1XTA   HL3532796  27.358   0.790   4.634
    1XTA   HL3632797  27.529   0.809   4.594
    1XTA   HL3732798  27.562   0.725   4.925
    1XTA   HL3832799  27.580   0.882   4.977
    1XTA   HL3932800  27.778   0.772   4.879
    1XTA   HL4032801  27.747   0.935   4.823
    1XTA   HL4132802  27.718   0.799   4.725
    1XTA    CO832803  27.642   1.389   4.931
    1XTA    CO932804  27.513   1.211   4.846
    1XTA    OA632805  27.427   1.099   4.869
    1XTA   HL4232806  27.596   1.477   4.884
    1XTA   HL4332807  27.685   1.428   5.026
    1XTA   HL4432808  27.233   0.818   4.837
    1XTA   HL4532809  27.348   0.709   4.918
    1XTA   CO1032810  27.330   0.808   4.877
    1XTA   CO1132811  27.433   1.001   4.764
    1XTA    OA732812  27.326   0.869   4.973
    1XTA   HL4632813  27.509   1.053   4.659
    1XTA   HL4732814  27.341   1.018   4.711
    1XTA   HL4832815  27.605   1.180   4.798
    1XTA   HL4932816  27.454   1.266   4.772
    1XTA     NT32817  30.398   3.665   4.957
    1XTA    CN132818  30.361   3.787   4.917
    1XTA     C132819  30.254   3.796   4.825
    1XTA     C232820  30.217   3.922   4.783
    1XTA     C332821  30.282   4.036   4.834
    1XTA     C432822  30.394   4.033   4.918
    1XTA     C532823  30.429   3.901   4.963
    1XTA    CN232824  30.362   3.622   5.080
    1XTA     C632825  30.238   3.570   5.098
    1XTA     C732826  30.205   3.504   5.215
    1XTA     C832827  30.301   3.490   5.322
    1XTA     C932828  30.430   3.540   5.295
    1XTA    C1032829  30.459   3.600   5.175
    1XTA    CN332830  30.466   3.572   4.878
    1XTA    C1132831  30.410   3.454   4.826
    1XTA    C1232832  30.480   3.374   4.732
    1XTA    C1332833  30.606   3.417   4.685
    1XTA    C1432834  30.668   3.531   4.746
    1XTA    C1532835  30.597   3.602   4.847
    1XTA     H132836  30.209   3.705   4.798
    1XTA     H232837  30.139   3.933   4.708
    1XTA     H332838  30.461   4.111   4.946
    1XTA     H432839  30.511   3.887   5.040
    1XTA     H532840  30.158   3.569   5.022
    1XTA     H632841  30.104   3.469   5.220
    1XTA     H732842  30.514   3.535   5.365
    1XTA     H832843  30.559   3.632   5.152
    1XTA     H932844  30.302   3.428   4.846
    1XTA    H1032845  30.431   3.293   4.682
    1XTA    H1132846  30.768   3.559   4.723
    1XTA    H1232847  30.650   3.684   4.891
    1XTA    OA132848  30.248   4.160   4.791
    1XTA    CO132849  30.171   4.230   4.892
    1XTA    OA232850  30.268   3.409   5.426
    1XTA    CO232851  30.371   3.344   5.501
    1XTA    CL132852  30.418   3.223   5.418
    1XTA    CL232853  30.536   3.143   5.483
    1XTA    CL332854  30.587   3.035   5.388
    1XTA    CL432855  30.650   3.089   5.263
    1XTA    CO332856  30.728   3.002   5.166
    1XTA    OA332857  30.838   2.938   5.226
    1XTA    CO432858  30.936   3.015   5.295
    1XTA    CT132859  31.075   2.947   5.290
    1XTA    CL532860  31.170   3.026   5.380
    1XTA    CL632861  31.149   3.016   5.529
    1XTA    OA432862  30.683   3.352   4.591
    1XTA    CO532863  30.617   3.252   4.511
    1XTA    CL732864  30.540   3.304   4.389
    1XTA    CL832865  30.399   3.347   4.430
    1XTA    CL932866  30.302   3.345   4.308
    1XTA   CL1032867  30.197   3.452   4.328
    1XTA    CO632868  30.108   3.483   4.211
    1XTA    OA532869  29.994   3.552   4.268
    1XTA    CO732870  29.935   3.655   4.191
    1XTA    CT232871  29.841   3.734   4.283
    1XTA   CL1132872  29.923   3.794   4.406
    1XTA   CL1232873  30.036   3.890   4.355
    1XTA    HL132874  30.238   4.253   4.971
    1XTA    HL232875  30.129   4.319   4.846
    1XTA    HL332876  30.089   4.178   4.930
    1XTA    HL432877  30.451   3.417   5.529
    1XTA    HL532878  30.327   3.307   5.596
    1XTA    HL632879  30.446   3.263   5.325
    1XTA    HL732880  30.334   3.154   5.415
    1XTA    HL832881  30.499   3.087   5.563
    1XTA    HL932882  30.620   3.214   5.515
    1XTA   HL1032883  30.639   2.972   5.450
    1XTA   HL1132884  30.495   2.984   5.355
    1XTA   HL1232885  30.711   3.178   5.285
    1XTA   HL1332886  30.566   3.127   5.200
    1XTA   HL1432887  30.668   2.925   5.137
    1XTA   HL1532888  30.767   3.052   5.072
    1XTA   HL1632889  30.950   3.108   5.250
    1XTA   HL1732890  30.894   3.017   5.399
    1XTA   HL1832891  31.184   3.134   5.355
    1XTA   HL1932892  31.268   2.980   5.360
    1XTA   HL2032893  31.065   3.080   5.558
    1XTA   HL2132894  31.235   3.050   5.582
    1XTA   HL2232895  31.130   2.921   5.573
    1XTA   HL2332896  30.558   3.179   4.569
    1XTA   HL2432897  30.694   3.187   4.475
    1XTA   HL2532898  30.593   3.390   4.352
    1XTA   HL2632899  30.542   3.237   4.307
    1XTA   HL2732900  30.348   3.298   4.511
    1XTA   HL2832901  30.419   3.447   4.474
    1XTA   HL2932902  30.358   3.378   4.219
    1XTA   HL3032903  30.268   3.241   4.293
    1XTA   HL3132904  30.135   3.408   4.400
    1XTA   HL3232905  30.234   3.542   4.374
    1XTA   HL3332906  30.161   3.546   4.136
    1XTA   HL3432907  30.094   3.390   4.150
    1XTA   HL3532908  29.884   3.604   4.097
    1XTA   HL3632909  30.006   3.723   4.143
    1XTA   HL3732910  29.959   3.715   4.478
    1XTA   HL3832911  29.855   3.852   4.475
    1XTA   HL3932912  30.068   3.952   4.438
    1XTA   HL4032913  30.020   3.957   4.271
    1XTA   HL4132914  30.119   3.822   4.326
    1XTA    CO832915  31.118   2.948   5.144
    1XTA    CO932916  31.067   2.796   5.323
    1XTA    OA632917  31.165   2.753   5.326
    1XTA   HL4232918  31.213   2.890   5.128
    1XTA   HL4332919  31.013   2.899   5.067
    1XTA   HL4432920  29.661   3.606   4.266
    1XTA   HL4532921  29.787   3.555   4.393
    1XTA   CO1032922  29.729   3.639   4.347
    1XTA   CO1132923  29.765   3.845   4.199
    1XTA    OA732924  29.674   3.701   4.422
    1XTA   HL4632925  29.827   3.972   4.207
    1XTA   HL4732926  29.664   3.854   4.238
    1XTA   HL4832927  31.004   2.755   5.242
    1XTA   HL4932928  31.012   2.783   5.417
    1XTA     NT32929  28.860   3.545   1.542
    1XTA    CN132930  28.896   3.415   1.526
    1XTA     C132931  29.030   3.372   1.553
    1XTA     C232932  29.076   3.241   1.534
    1XTA     C332933  28.985   3.149   1.493
    1XTA     C432934  28.850   3.190   1.474
    1XTA     C532935  28.805   3.319   1.489
    1XTA    CN232936  28.791   3.590   1.653
    1XTA     C632937  28.661   3.646   1.642
    1XTA     C732938  28.598   3.706   1.753
    1XTA     C832939  28.660   3.710   1.879
    1XTA     C932940  28.789   3.649   1.889
    1XTA    C1032941  28.851   3.596   1.778
    1XTA    CN332942  28.895   3.625   1.443
    1XTA    C1132943  28.838   3.620   1.312
    1XTA    C1232944  28.892   3.707   1.214
    1XTA    C1332945  28.994   3.797   1.241
    1XTA    C1432946  29.046   3.797   1.369
    1XTA    C1532947  29.003   3.708   1.467
    1XTA     H132948  29.092   3.450   1.590
    1XTA     H232949  29.174   3.208   1.560
    1XTA     H332950  28.780   3.115   1.452
    1XTA     H432951  28.702   3.344   1.479
    1XTA     H532952  28.605   3.644   1.554
    1XTA     H632953  28.503   3.750   1.748
    1XTA     H732954  28.848   3.650   1.977
    1XTA     H832955  28.949   3.552   1.790
    1XTA     H932956  28.764   3.543   1.283
    1XTA    H1032957  28.842   3.696   1.118
    1XTA    H1132958  29.120   3.869   1.385
    1XTA    H1232959  29.044   3.719   1.568
    1XTA    OA132960  29.025   3.009   1.479
    1XTA    CO132961  28.933   2.926   1.419
    1XTA    OA232962  28.595   3.765   1.985
    1XTA    CO232963  28.685   3.827   2.070
    1XTA    CL132964  28.623   3.949   2.136
    1XTA    CL232965  28.634   4.089   2.072
    1XTA    CL332966  28.585   4.205   2.163
    1XTA    CL432967  28.534   4.333   2.082
    1XTA    CO332968  28.580   4.463   2.159
    1XTA    OA332969  28.539   4.574   2.079
    1XTA    CO432970  28.626   4.609   1.965
    1XTA    CT132971  28.568   4.688   1.849
    1XTA    CL532972  28.448   4.608   1.791
    1XTA    CL632973  28.379   4.661   1.666
    1XTA    OA432974  29.041   3.895   1.153
    1XTA    CO532975  28.965   3.911   1.037
    1XTA    CL732976  29.042   3.996   0.943
    1XTA    CL832977  28.979   4.008   0.806
    1XTA    CL932978  29.070   4.080   0.703
    1XTA   CL1032979  29.219   4.053   0.702
    1XTA    CO632980  29.310   4.130   0.798
    1XTA    OA532981  29.290   4.267   0.788
    1XTA    CO732982  29.403   4.336   0.826
    1XTA    CT232983  29.384   4.480   0.871
    1XTA   CL1132984  29.509   4.526   0.944
    1XTA   CL1232985  29.545   4.674   0.936
    1XTA    HL132986  28.838   2.930   1.485
    1XTA    HL232987  28.915   2.951   1.320
    1XTA    HL332988  28.974   2.828   1.419
    1XTA    HL432989  28.726   3.756   2.146
    1XTA    HL532990  28.778   3.869   2.017
    1XTA    HL632991  28.675   3.952   2.239
    1XTA    HL732992  28.516   3.927   2.145
    1XTA    HL832993  28.585   4.088   1.977
    1XTA    HL932994  28.738   4.117   2.048
    1XTA   HL1032995  28.512   4.166   2.232
    1XTA   HL1132996  28.661   4.240   2.235
    1XTA   HL1232997  28.432   4.331   2.045
    1XTA   HL1332998  28.581   4.321   1.988
    1XTA   HL1432999  28.546   4.470   2.258
    1XTA   HL1533000  28.688   4.459   2.155
    1XTA   HL1633001  28.706   4.675   2.002
    1XTA   HL1733002  28.676   4.510   1.938
    1XTA   HL1833003  28.377   4.597   1.877
    1XTA   HL1933004  28.472   4.507   1.765
    1XTA   HL2033005  28.279   4.629   1.672
    1XTA   HL2133006  28.432   4.602   1.596
    1XTA   HL2233007  28.389   4.763   1.633
    1XTA   HL2333008  28.861   3.949   1.056
    1XTA   HL2433009  28.959   3.812   0.990
    1XTA   HL2533010  29.039   4.095   0.992
    1XTA   HL2633011  29.136   3.955   0.931
    1XTA   HL2733012  28.956   3.901   0.772
    1XTA   HL2833013  28.881   4.058   0.822
    1XTA   HL2933014  29.021   4.067   0.609
    1XTA   HL3033015  29.056   4.183   0.729
    1XTA   HL3133016  29.233   3.951   0.734
    1XTA   HL3233017  29.267   4.078   0.603
    1XTA   HL3333018  29.292   4.089   0.895
    1XTA   HL3433019  29.417   4.103   0.781
    1XTA   HL3533020  29.473   4.327   0.745
    1XTA   HL3633021  29.448   4.282   0.915
    1XTA   HL3733022  29.592   4.474   0.900
    1XTA   HL3833023  29.497   4.491   1.045
    1XTA   HL3933024  29.558   4.714   0.837
    1XTA   HL4033025  29.641   4.695   0.984
    1XTA   HL4133026  29.465   4.723   0.984
    1XTA    CO833027  28.680   4.709   1.744
    1XTA    CO933028  28.524   4.819   1.902
    1XTA    OA633029  28.476   4.894   1.795
    1XTA   HL4233030  28.651   4.778   1.665
    1XTA   HL4333031  28.769   4.745   1.792
    1XTA   HL4433032  29.220   4.588   0.986
    1XTA   HL4533033  29.180   4.420   0.919
    1XTA   CO1033034  29.259   4.482   0.964
    1XTA   CO1133035  29.346   4.561   0.738
    1XTA    OA733036  29.270   4.399   1.080
    1XTA   HL4633037  29.351   4.667   0.761
    1XTA   HL4733038  29.241   4.543   0.739
    1XTA   HL4833039  28.609   4.875   1.948
    1XTA   HL4933040  28.439   4.806   1.969
    1XTA     NT33041  30.414   1.299   2.818
    1XTA    CN133042  30.448   1.233   2.927
    1XTA     C133043  30.575   1.176   2.950
    1XTA     C233044  30.607   1.109   3.070
    1XTA     C333045  30.516   1.104   3.176
    1XTA     C433046  30.388   1.159   3.152
    1XTA     C533047  30.355   1.225   3.031
    1XTA    CN233048  30.335   1.253   2.723
    1XTA     C633049  30.358   1.122   2.678
    1XTA     C733050  30.280   1.068   2.575
    1XTA     C833051  30.177   1.138   2.519
    1XTA     C933052  30.150   1.266   2.567
    1XTA    C1033053  30.226   1.321   2.667
    1XTA    CN333054  30.471   1.420   2.794
    1XTA    C1133055  30.538   1.445   2.672
    1XTA    C1233056  30.622   1.554   2.658
    1XTA    C1333057  30.620   1.653   2.763
    1XTA    C1433058  30.538   1.640   2.878
    1XTA    C1533059  30.466   1.522   2.897
    1XTA     H133060  30.640   1.189   2.872
    1XTA     H233061  30.708   1.065   3.079
    1XTA     H333062  30.317   1.157   3.233
    1XTA     H433063  30.255   1.274   3.014
    1XTA     H533064  30.452   1.077   2.712
    1XTA     H633065  30.292   0.969   2.537
    1XTA     H733066  30.066   1.324   2.526
    1XTA     H833067  30.194   1.416   2.714
    1XTA     H933068  30.539   1.377   2.589
    1XTA    H1033069  30.682   1.554   2.574
    1XTA    H1133070  30.553   1.709   2.958
    1XTA    H1233071  30.413   1.512   2.990
    1XTA    OA133072  30.534   1.043   3.296
    1XTA    CO133073  30.663   0.993   3.331
    1XTA    OA233074  30.097   1.094   2.416
    1XTA    CO233075  30.162   1.002   2.323
    1XTA    CL133076  30.061   0.992   2.206
    1XTA    CL233077  30.115   0.898   2.101
    1XTA    CL333078  30.010   0.859   1.999
    1XTA    CL433079  29.931   0.968   1.927
    1XTA    CO333080  30.005   1.090   1.861
    1XTA    OA333081  29.910   1.175   1.800
    1XTA    CO433082  29.870   1.285   1.879
    1XTA    CT133083  29.789   1.388   1.800
    1XTA    CL533084  29.645   1.336   1.782
    1XTA    CL633085  29.625   1.189   1.728
    1XTA    OA433086  30.720   1.745   2.772
    1XTA    CO533087  30.823   1.740   2.678
    1XTA    CL733088  30.780   1.786   2.537
    1XTA    CL833089  30.906   1.813   2.449
    1XTA    CL933090  30.873   1.890   2.317
    1XTA   CL1033091  30.939   1.820   2.195
    1XTA    CO633092  30.903   1.874   2.055
    1XTA    OA533093  30.762   1.888   2.039
    1XTA    CO733094  30.723   1.863   1.901
    1XTA    CT233095  30.574   1.896   1.879
    1XTA   CL1133096  30.544   2.044   1.870
    1XTA   CL1233097  30.382   2.086   1.872
    1XTA    HL133098  30.686   0.918   3.262
    1XTA    HL233099  30.730   1.078   3.320
    1XTA    HL333100  30.663   0.947   3.432
    1XTA    HL433101  30.260   1.039   2.292
    1XTA    HL533102  30.172   0.905   2.372
    1XTA    HL633103  30.042   1.090   2.158
    1XTA    HL733104  29.967   0.962   2.245
    1XTA    HL833105  30.143   0.804   2.150
    1XTA    HL933106  30.206   0.934   2.062
    1XTA   HL1033107  30.060   0.806   1.921
    1XTA   HL1133108  29.938   0.792   2.039
    1XTA   HL1233109  29.858   1.013   1.996
    1XTA   HL1333110  29.886   0.908   1.845
    1XTA   HL1433111  30.044   1.147   1.947
    1XTA   HL1533112  30.087   1.057   1.793
    1XTA   HL1633113  29.817   1.259   1.967
    1XTA   HL1733114  29.954   1.336   1.910
    1XTA   HL1833115  29.599   1.409   1.710
    1XTA   HL1933116  29.593   1.329   1.880
    1XTA   HL2033117  29.656   1.190   1.623
    1XTA   HL2133118  29.516   1.165   1.726
    1XTA   HL2233119  29.676   1.120   1.789
    1XTA   HL2333120  30.859   1.640   2.669
    1XTA   HL2433121  30.907   1.807   2.709
    1XTA   HL2533122  30.719   1.715   2.481
    1XTA   HL2633123  30.737   1.878   2.556
    1XTA   HL2733124  30.968   1.882   2.502
    1XTA   HL2833125  30.956   1.720   2.423
    1XTA   HL2933126  30.770   1.897   2.303
    1XTA   HL3033127  30.905   1.997   2.329
    1XTA   HL3133128  31.045   1.821   2.205
    1XTA   HL3233129  30.911   1.710   2.190
    1XTA   HL3333130  30.953   1.966   2.041
    1XTA   HL3433131  30.948   1.815   1.971
    1XTA   HL3533132  30.742   1.760   1.877
    1XTA   HL3633133  30.789   1.919   1.834
    1XTA   HL3733134  30.582   2.081   1.770
    1XTA   HL3833135  30.608   2.093   1.943
    1XTA   HL3933136  30.326   2.061   1.960
    1XTA   HL4033137  30.338   2.019   1.802
    1XTA   HL4133138  30.360   2.185   1.855
    1XTA    CO833139  29.855   1.418   1.663
    1XTA    CO933140  29.792   1.524   1.876
    1XTA    OA633141  29.923   1.576   1.879
    1XTA   HL4233142  29.795   1.502   1.637
    1XTA   HL4333143  29.957   1.453   1.670
    1XTA   HL4433144  30.533   1.858   2.095
    1XTA   HL4533145  30.403   1.842   2.001
    1XTA   CO1033146  30.504   1.819   1.994
    1XTA   CO1133147  30.531   1.823   1.748
    1XTA    OA733148  30.605   1.869   1.631
    1XTA   HL4633149  30.545   1.714   1.749
    1XTA   HL4733150  30.426   1.845   1.733
    1XTA   HL4833151  29.760   1.516   1.982
    1XTA   HL4933152  29.730   1.596   1.824
    1XTA     NT33153  32.658   4.151  -0.397
    1XTA    CN133154  32.581   4.159  -0.286
    1XTA     C133155  32.638   4.231  -0.182
    1XTA     C233156  32.564   4.256  -0.067
    1XTA     C333157  32.435   4.202  -0.056
    1XTA     C433158  32.379   4.122  -0.159
    1XTA     C533159  32.454   4.100  -0.276
    1XTA    CN233160  32.619   4.224  -0.508
    1XTA     C633161  32.565   4.356  -0.496
    1XTA     C733162  32.532   4.423  -0.616
    1XTA     C833163  32.549   4.361  -0.745
    1XTA     C933164  32.604   4.234  -0.747
    1XTA    C1033165  32.633   4.162  -0.633
    1XTA    CN333166  32.771   4.078  -0.395
    1XTA    C1133167  32.765   3.938  -0.371
    1XTA    C1233168  32.880   3.864  -0.365
    1XTA    C1333169  33.005   3.929  -0.388
    1XTA    C1433170  33.013   4.068  -0.400
    1XTA    C1533171  32.899   4.146  -0.401
    1XTA     H133172  32.735   4.275  -0.194
    1XTA     H233173  32.598   4.320   0.006
    1XTA     H333174  32.290   4.072  -0.146
    1XTA     H433175  32.416   4.035  -0.356
    1XTA     H533176  32.561   4.399  -0.400
    1XTA     H633177  32.486   4.526  -0.616
    1XTA     H733178  32.611   4.191  -0.850
    1XTA     H833179  32.679   4.068  -0.651
    1XTA     H933180  32.672   3.888  -0.366
    1XTA    H1033181  32.877   3.758  -0.362
    1XTA    H1133182  33.113   4.109  -0.417
    1XTA    H1233183  32.908   4.250  -0.422
    1XTA    OA133184  32.355   4.234   0.053
    1XTA    CO133185  32.218   4.201   0.053
    1XTA    OA233186  32.512   4.421  -0.862
    1XTA    CO233187  32.466   4.553  -0.859
    1XTA    CL133188  32.586   4.653  -0.849
    1XTA    CL233189  32.551   4.787  -0.776
    1XTA    CL333190  32.520   4.773  -0.635
    1XTA    CL433191  32.489   4.903  -0.560
    1XTA    CO333192  32.436   4.883  -0.425
    1XTA    OA333193  32.433   5.002  -0.355
    1XTA    CO433194  32.315   5.072  -0.385
    1XTA    CT133195  32.344   5.218  -0.356
    1XTA    CL533196  32.213   5.301  -0.372
    1XTA    CL633197  32.227   5.447  -0.382
    1XTA    OA433198  33.119   3.854  -0.412
    1XTA    CO533199  33.108   3.725  -0.475
    1XTA    CL733200  33.056   3.749  -0.618
    1XTA    CL833201  33.007   3.624  -0.695
    1XTA    CL933202  32.873   3.576  -0.641
    1XTA   CL1033203  32.764   3.677  -0.679
    1XTA    CO633204  32.657   3.632  -0.785
    1XTA    OA533205  32.715   3.633  -0.923
    1XTA    CO733206  32.615   3.637  -1.029
    1XTA    CT233207  32.680   3.597  -1.159
    1XTA   CL1133208  32.783   3.702  -1.210
    1XTA   CL1233209  32.915   3.704  -1.131
    1XTA    HL133210  32.210   4.097   0.030
    1XTA    HL233211  32.186   4.216   0.153
    1XTA    HL333212  32.146   4.254  -0.000
    1XTA    HL433213  32.427   4.589  -0.957
    1XTA    HL533214  32.383   4.571  -0.787
    1XTA    HL633215  32.619   4.671  -0.953
    1XTA    HL733216  32.670   4.610  -0.796
    1XTA    HL833217  32.471   4.840  -0.828
    1XTA    HL933218  32.641   4.849  -0.785
    1XTA   HL1033219  32.427   4.725  -0.633
    1XTA   HL1133220  32.599   4.717  -0.577
    1XTA   HL1233221  32.427   4.972  -0.619
    1XTA   HL1333222  32.584   4.955  -0.561
    1XTA   HL1433223  32.341   4.826  -0.429
    1XTA   HL1533224  32.513   4.814  -0.377
    1XTA   HL1633225  32.278   5.068  -0.489
    1XTA   HL1733226  32.247   5.038  -0.300
    1XTA   HL1833227  32.138   5.277  -0.295
    1XTA   HL1933228  32.161   5.270  -0.457
    1XTA   HL2033229  32.130   5.497  -0.368
    1XTA   HL2133230  32.263   5.463  -0.488
    1XTA   HL2233231  32.294   5.491  -0.304
    1XTA   HL2333232  33.051   3.659  -0.426
    1XTA   HL2433233  33.209   3.693  -0.485
    1XTA   HL2533234  32.980   3.834  -0.624
    1XTA   HL2633235  33.134   3.796  -0.678
    1XTA   HL2733236  32.993   3.650  -0.794
    1XTA   HL2833237  33.083   3.544  -0.685
    1XTA   HL2933238  32.839   3.476  -0.673
    1XTA   HL3033239  32.878   3.571  -0.537
    1XTA   HL3133240  32.705   3.696  -0.586
    1XTA   HL3233241  32.805   3.783  -0.707
    1XTA   HL3333242  32.617   3.536  -0.771
    1XTA   HL3433243  32.576   3.707  -0.784
    1XTA   HL3533244  32.599   3.741  -1.047
    1XTA   HL3633245  32.528   3.575  -0.999
    1XTA   HL3733246  32.746   3.797  -1.209
    1XTA   HL3833247  32.803   3.676  -1.313
    1XTA   HL3933248  32.887   3.730  -1.022
    1XTA   HL4033249  33.000   3.758  -1.171
    1XTA   HL4133250  32.955   3.596  -1.130
    1XTA    CO833251  32.456   5.260  -0.449
    1XTA    CO933252  32.398   5.231  -0.215
    1XTA    OA633253  32.426   5.334  -0.186
    1XTA   HL4233254  32.528   5.179  -0.460
    1XTA   HL4333255  32.523   5.372  -0.400
    1XTA   HL4433256  32.569   3.664  -1.324
    1XTA   HL4533257  32.611   3.479  -1.352
    1XTA   CO1033258  32.567   3.579  -1.262
    1XTA   CO1133259  32.744   3.461  -1.150
    1XTA    OA733260  32.673   3.375  -1.140
    1XTA   HL4633261  32.804   3.438  -1.245
    1XTA   HL4733262  32.825   3.471  -1.075
    1XTA   HL4833263  32.489   5.164  -0.212
    1XTA   HL4933264  32.325   5.186  -0.146
    1XTA     NT33265  32.059   5.096   5.965
    1XTA    CN133266  32.167   5.044   5.900
    1XTA     C133267  32.244   4.938   5.954
    1XTA     C233268  32.364   4.897   5.897
    1XTA     C333269  32.400   4.956   5.779
    1XTA     C433270  32.326   5.060   5.724
    1XTA     C533271  32.209   5.106   5.784
    1XTA    CN233272  32.083   5.179   6.066
    1XTA     C633273  32.116   5.309   6.023
    1XTA     C733274  32.145   5.404   6.124
    1XTA     C833275  32.150   5.368   6.258
    1XTA     C933276  32.122   5.232   6.296
    1XTA    C1033277  32.085   5.134   6.200
    1XTA    CN333278  31.935   5.043   5.944
    1XTA    C1133279  31.912   4.905   5.937
    1XTA    C1233280  31.783   4.854   5.913
    1XTA    C1333281  31.670   4.932   5.929
    1XTA    C1433282  31.697   5.071   5.939
    1XTA    C1533283  31.825   5.127   5.942
    1XTA     H133284  32.197   4.896   6.043
    1XTA     H233285  32.425   4.814   5.938
    1XTA     H333286  32.355   5.107   5.634
    1XTA     H433287  32.155   5.188   5.743
    1XTA     H533288  32.154   5.341   5.928
    1XTA     H633289  32.186   5.502   6.096
    1XTA     H733290  32.145   5.202   6.395
    1XTA     H833291  32.064   5.031   6.221
    1XTA     H933292  32.006   4.846   5.951
    1XTA    H1033293  31.769   4.744   5.901
    1XTA    H1133294  31.607   5.134   5.933
    1XTA    H1233295  31.835   5.237   5.945
    1XTA    OA133296  32.512   4.921   5.701
    1XTA    CO133297  32.590   4.809   5.742
    1XTA    OA233298  32.180   5.459   6.359
    1XTA    CO233299  32.174   5.592   6.327
    1XTA    CL133300  32.166   5.672   6.460
    1XTA    CL233301  32.149   5.822   6.433
    1XTA    CL333302  32.124   5.913   6.558
    1XTA    CL433303  32.101   6.060   6.519
    1XTA    CO333304  32.050   6.147   6.642
    1XTA    OA333305  32.166   6.189   6.708
    1XTA    CO433306  32.185   6.330   6.714
    1XTA    CT133307  32.330   6.355   6.767
    1XTA    CL533308  32.336   6.324   6.917
    1XTA    CL633309  32.273   6.189   6.962
    1XTA    OA433310  31.540   4.885   5.925
    1XTA    CO533311  31.429   4.974   5.923
    1XTA    CL733312  31.407   5.044   6.060
    1XTA    CL833313  31.279   4.996   6.126
    1XTA    CL933314  31.296   4.895   6.239
    1XTA   CL1033315  31.351   4.761   6.189
    1XTA    CO633316  31.369   4.662   6.306
    1XTA    OA533317  31.401   4.525   6.260
    1XTA    CO733318  31.505   4.513   6.164
    1XTA    CT233319  31.507   4.367   6.119
    1XTA   CL1133320  31.624   4.345   6.022
    1XTA   CL1233321  31.627   4.414   5.882
    1XTA    HL133322  32.678   4.778   5.678
    1XTA    HL233323  32.623   4.843   5.841
    1XTA    HL333324  32.530   4.716   5.758
    1XTA    HL433325  32.259   5.619   6.277
    1XTA    HL533326  32.090   5.622   6.263
    1XTA    HL633327  32.257   5.659   6.518
    1XTA    HL733328  32.090   5.635   6.522
    1XTA    HL833329  32.059   5.848   6.384
    1XTA    HL933330  32.227   5.856   6.365
    1XTA   HL1033331  32.041   5.863   6.609
    1XTA   HL1133332  32.206   5.907   6.627
    1XTA   HL1233333  32.026   6.065   6.440
    1XTA   HL1333334  32.174   6.097   6.456
    1XTA   HL1433335  31.978   6.228   6.615
    1XTA   HL1533336  31.985   6.084   6.713
    1XTA   HL1633337  32.176   6.370   6.618
    1XTA   HL1733338  32.118   6.385   6.778
    1XTA   HL1833339  32.280   6.400   6.974
    1XTA   HL1933340  32.436   6.326   6.955
    1XTA   HL2033341  32.318   6.106   6.902
    1XTA   HL2133342  32.169   6.192   6.948
    1XTA   HL2233343  32.300   6.168   7.067
    1XTA   HL2333344  31.339   4.913   5.904
    1XTA   HL2433345  31.439   5.049   5.844
    1XTA   HL2533346  31.499   5.051   6.125
    1XTA   HL2633347  31.388   5.150   6.032
    1XTA   HL2733348  31.235   5.089   6.163
    1XTA   HL2833349  31.216   4.945   6.056
    1XTA   HL2933350  31.357   4.934   6.318
    1XTA   HL3033351  31.197   4.891   6.288
    1XTA   HL3133352  31.275   4.718   6.111
    1XTA   HL3233353  31.446   4.780   6.131
    1XTA   HL3333354  31.454   4.692   6.366
    1XTA   HL3433355  31.283   4.652   6.373
    1XTA   HL3533356  31.600   4.559   6.205
    1XTA   HL3633357  31.491   4.574   6.076
    1XTA   HL3733358  31.617   4.230   5.995
    1XTA   HL3833359  31.712   4.376   6.072
    1XTA   HL3933360  31.699   4.369   5.820
    1XTA   HL4033361  31.658   4.515   5.884
    1XTA   HL4133362  31.533   4.411   5.831
    1XTA    CO833363  32.355   6.508   6.751
    1XTA    CO933364  32.431   6.272   6.689
    1XTA    OA633365  32.266   6.585   6.816
    1XTA   HL4233366  32.348   6.517   6.641
    1XTA   HL4333367  32.453   6.539   6.775
    1XTA   HL4433368  31.294   4.337   6.126
    1XTA   HL4533369  31.347   4.420   5.991
    1XTA   CO1033370  31.370   4.337   6.054
    1XTA   CO1133371  31.533   4.266   6.233
    1XTA    OA733372  31.367   4.214   5.983
    1XTA   HL4633373  31.536   4.165   6.197
    1XTA   HL4733374  31.446   4.275   6.298
    1XTA   HL4833375  32.395   6.262   6.584
    1XTA   HL4933376  32.446   6.173   6.731
    1XTA     NT33377  27.897   6.477   3.767
    1XTA    CN133378  27.827   6.392   3.849
    1XTA     C133379  27.716   6.315   3.802
    1XTA     C233380  27.637   6.236   3.889
    1XTA     C333381  27.670   6.240   4.030
    1XTA     C433382  27.782   6.311   4.068
    1XTA     C533383  27.860   6.383   3.980
    1XTA    CN233384  28.001   6.416   3.706
    1XTA     C633385  28.133   6.450   3.742
    1XTA     C733386  28.250   6.387   3.681
    1XTA     C833387  28.234   6.296   3.575
    1XTA     C933388  28.095   6.267   3.535
    1XTA    C1033389  27.988   6.324   3.603
    1XTA    CN333390  27.859   6.602   3.732
    1XTA    C1133391  27.920   6.711   3.802
    1XTA    C1233392  27.900   6.847   3.764
    1XTA    C1333393  27.828   6.869   3.643
    1XTA    C1433394  27.783   6.760   3.563
    1XTA    C1533395  27.787   6.630   3.613
    1XTA     H133396  27.691   6.320   3.700
    1XTA     H233397  27.560   6.175   3.860
    1XTA     H333398  27.809   6.321   4.173
    1XTA     H433399  27.948   6.426   4.019
    1XTA     H533400  28.134   6.519   3.829
    1XTA     H633401  28.350   6.407   3.726
    1XTA     H733402  28.084   6.207   3.452
    1XTA     H833403  27.889   6.302   3.571
    1XTA     H933404  27.986   6.700   3.888
    1XTA    H1033405  27.944   6.932   3.827
    1XTA    H1133406  27.752   6.771   3.462
    1XTA    H1233407  27.741   6.556   3.550
    1XTA    OA133408  27.586   6.170   4.117
    1XTA    CO133409  27.658   6.131   4.235
    1XTA    OA233410  28.339   6.243   3.502
    1XTA    CO233411  28.444   6.331   3.472
    1XTA    CL133412  28.532   6.285   3.351
    1XTA    CL233413  28.655   6.371   3.330
    1XTA    CL333414  28.616   6.518   3.297
    1XTA    CL433415  28.616   6.622   3.414
    1XTA    CO333416  28.549   6.762   3.379
    1XTA    OA333417  28.400   6.758   3.403
    1XTA    CO433418  28.333   6.796   3.287
    1XTA    CT133419  28.182   6.802   3.319
    1XTA    CL533420  28.129   6.677   3.377
    1XTA    CL633421  28.158   6.545   3.305
    1XTA    OA433422  27.833   6.992   3.587
    1XTA    CO533423  27.733   7.016   3.494
    1XTA    CL733424  27.791   6.996   3.352
    1XTA    CL833425  27.676   7.026   3.256
    1XTA    CL933426  27.702   6.989   3.115
    1XTA   CL1033427  27.678   6.846   3.095
    1XTA    CO633428  27.683   6.809   2.949
    1XTA    OA533429  27.819   6.817   2.894
    1XTA    CO733430  27.884   6.691   2.895
    1XTA    CT233431  28.023   6.716   2.841
    1XTA   CL1133432  28.087   6.581   2.826
    1XTA   CL1233433  28.038   6.489   2.711
    1XTA    HL133434  27.741   6.079   4.191
    1XTA    HL233435  27.695   6.220   4.298
    1XTA    HL333436  27.604   6.053   4.290
    1XTA    HL433437  28.409   6.438   3.455
    1XTA    HL533438  28.513   6.337   3.553
    1XTA    HL633439  28.467   6.279   3.266
    1XTA    HL733440  28.568   6.188   3.370
    1XTA    HL833441  28.729   6.334   3.260
    1XTA    HL933442  28.715   6.379   3.421
    1XTA   HL1033443  28.690   6.556   3.225
    1XTA   HL1133444  28.532   6.518   3.226
    1XTA   HL1233445  28.714   6.655   3.442
    1XTA   HL1333446  28.567   6.576   3.500
    1XTA   HL1433447  28.590   6.839   3.443
    1XTA   HL1533448  28.572   6.792   3.273
    1XTA   HL1633449  28.375   6.892   3.264
    1XTA   HL1733450  28.354   6.734   3.201
    1XTA   HL1833451  28.027   6.705   3.399
    1XTA   HL1933452  28.177   6.646   3.469
    1XTA   HL2033453  28.082   6.531   3.223
    1XTA   HL2133454  28.149   6.450   3.363
    1XTA   HL2233455  28.252   6.543   3.254
    1XTA   HL2333456  27.710   7.126   3.498
    1XTA   HL2433457  27.643   6.957   3.508
    1XTA   HL2533458  27.872   7.072   3.347
    1XTA   HL2633459  27.842   6.908   3.329
    1XTA   HL2733460  27.582   6.979   3.285
    1XTA   HL2833461  27.655   7.135   3.256
    1XTA   HL2933462  27.647   7.069   3.051
    1XTA   HL3033463  27.807   7.003   3.092
    1XTA   HL3133464  27.743   6.787   3.163
    1XTA   HL3233465  27.573   6.820   3.115
    1XTA   HL3333466  27.625   6.715   2.931
    1XTA   HL3433467  27.627   6.878   2.895
    1XTA   HL3533468  27.829   6.621   2.829
    1XTA   HL3633469  27.880   6.668   3.000
    1XTA   HL3733470  28.078   6.536   2.927
    1XTA   HL3833471  28.193   6.594   2.814
    1XTA   HL3933472  28.087   6.386   2.715
    1XTA   HL4033473  28.064   6.515   2.611
    1XTA   HL4133474  27.930   6.479   2.708
    1XTA    CO833475  28.112   6.842   3.190
    1XTA    CO933476  28.156   6.918   3.418
    1XTA    OA633477  28.122   6.745   3.085
    1XTA   HL4233478  28.147   6.941   3.154
    1XTA   HL4333479  28.004   6.854   3.208
    1XTA   HL4433480  28.028   6.887   2.956
    1XTA   HL4533481  28.184   6.837   2.918
    1XTA   CO1033482  28.092   6.797   2.952
    1XTA   CO1133483  28.021   6.796   2.712
    1XTA    OA733484  28.155   6.806   2.664
    1XTA   HL4633485  27.971   6.749   2.623
    1XTA   HL4733486  27.970   6.894   2.733
    1XTA   HL4833487  28.047   6.941   3.411
    1XTA   HL4933488  28.180   6.879   3.518
    1XTA     NT33489  30.676   3.090   3.166
    1XTA    CN133490  30.707   2.987   3.080
    1XTA     C133491  30.708   2.849   3.126
    1XTA     C233492  30.746   2.744   3.046
    1XTA     C333493  30.778   2.768   2.911
    1XTA     C433494  30.778   2.900   2.864
    1XTA     C533495  30.740   3.004   2.945
    1XTA    CN233496  30.557   3.145   3.158
    1XTA     C633497  30.442   3.067   3.190
    1XTA     C733498  30.319   3.135   3.199
    1XTA     C833499  30.304   3.272   3.162
    1XTA     C933500  30.416   3.341   3.130
    1XTA    C1033501  30.541   3.277   3.129
    1XTA    CN333502  30.767   3.106   3.266
    1XTA    C1133503  30.897   3.131   3.239
    1XTA    C1233504  30.994   3.117   3.343
    1XTA    C1333505  30.958   3.075   3.474
    1XTA    C1433506  30.821   3.054   3.497
    1XTA    C1533507  30.729   3.056   3.392
    1XTA     H133508  30.688   2.843   3.229
    1XTA     H233509  30.746   2.647   3.083
    1XTA     H333510  30.801   2.922   2.759
    1XTA     H433511  30.733   3.101   2.914
    1XTA     H533512  30.437   2.962   3.203
    1XTA     H633513  30.242   3.069   3.217
    1XTA     H733514  30.411   3.440   3.099
    1XTA     H833515  30.626   3.337   3.109
    1XTA     H933516  30.936   3.148   3.143
    1XTA    H1033517  31.099   3.131   3.315
    1XTA    H1133518  30.785   3.022   3.598
    1XTA    H1233519  30.627   3.038   3.426
    1XTA    OA133520  30.806   2.666   2.823
    1XTA    CO133521  30.700   2.567   2.824
    1XTA    OA233522  30.179   3.332   3.174
    1XTA    CO233523  30.092   3.287   3.280
    1XTA    CL133524  30.117   3.357   3.414
    1XTA    CL233525  30.098   3.509   3.397
    1XTA    CL333526  30.092   3.570   3.538
    1XTA    CL433527  30.088   3.728   3.530
    1XTA    CO333528  30.074   3.802   3.664
    1XTA    OA333529  29.939   3.788   3.700
    1XTA    CO433530  29.909   3.850   3.828
    1XTA    CT133531  29.756   3.867   3.843
    1XTA    CL533532  29.703   3.954   3.729
    1XTA    CL633533  29.733   4.105   3.750
    1XTA    OA433534  31.053   3.062   3.576
    1XTA    CO533535  31.006   3.071   3.710
    1XTA    CL733536  31.092   3.038   3.833
    1XTA    CL833537  31.158   2.897   3.809
    1XTA    CL933538  31.279   2.897   3.724
    1XTA   CL1033539  31.358   2.767   3.696
    1XTA    CO633540  31.490   2.771   3.612
    1XTA    OA533541  31.450   2.855   3.508
    1XTA    CO733542  31.548   2.951   3.479
    1XTA    CT233543  31.477   3.082   3.412
    1XTA   CL1133544  31.592   3.153   3.335
    1XTA   CL1233545  31.733   3.172   3.403
    1XTA    HL133546  30.709   2.501   2.738
    1XTA    HL233547  30.711   2.515   2.919
    1XTA    HL333548  30.603   2.615   2.826
    1XTA    HL433549  29.981   3.305   3.262
    1XTA    HL533550  30.103   3.182   3.299
    1XTA    HL633551  30.211   3.326   3.463
    1XTA    HL733552  30.049   3.316   3.487
    1XTA    HL833553  29.999   3.539   3.353
    1XTA    HL933554  30.177   3.552   3.337
    1XTA   HL1033555  29.996   3.549   3.581
    1XTA   HL1133556  30.168   3.539   3.610
    1XTA   HL1233557  30.016   3.741   3.453
    1XTA   HL1333558  30.192   3.747   3.492
    1XTA   HL1433559  30.127   3.763   3.749
    1XTA   HL1533560  30.113   3.905   3.642
    1XTA   HL1633561  29.949   3.786   3.911
    1XTA   HL1733562  29.960   3.944   3.835
    1XTA   HL1833563  29.604   3.946   3.715
    1XTA   HL1933564  29.741   3.912   3.631
    1XTA   HL2033565  29.839   4.124   3.737
    1XTA   HL2133566  29.696   4.144   3.843
    1XTA   HL2233567  29.675   4.150   3.664
    1XTA   HL2333568  30.931   2.993   3.709
    1XTA   HL2433569  30.942   3.161   3.729
    1XTA   HL2533570  31.167   3.109   3.854
    1XTA   HL2633571  31.023   3.033   3.917
    1XTA   HL2733572  31.189   2.856   3.905
    1XTA   HL2833573  31.084   2.819   3.775
    1XTA   HL2933574  31.250   2.945   3.629
    1XTA   HL3033575  31.342   2.969   3.774
    1XTA   HL3133576  31.384   2.736   3.796
    1XTA   HL3233577  31.280   2.694   3.668
    1XTA   HL3333578  31.576   2.798   3.677
    1XTA   HL3433579  31.520   2.675   3.576
    1XTA   HL3533580  31.623   2.901   3.406
    1XTA   HL3633581  31.611   2.987   3.562
    1XTA   HL3733582  31.560   3.254   3.325
    1XTA   HL3833583  31.604   3.126   3.234
    1XTA   HL3933584  31.721   3.211   3.504
    1XTA   HL4033585  31.801   3.233   3.345
    1XTA   HL4133586  31.787   3.084   3.409
    1XTA    CO833587  29.726   3.915   3.984
    1XTA    CO933588  29.683   3.728   3.826
    1XTA    OA633589  29.762   3.798   4.062
    1XTA   HL4233590  29.620   3.938   3.988
    1XTA   HL4333591  29.783   4.005   4.008
    1XTA   HL4433592  31.360   3.252   3.494
    1XTA   HL4533593  31.367   3.095   3.590
    1XTA   CO1033594  31.429   3.169   3.532
    1XTA   CO1133595  31.370   3.038   3.314
    1XTA    OA733596  31.511   3.211   3.595
    1XTA   HL4633597  31.283   3.151   3.283
    1XTA   HL4733598  31.306   2.953   3.353
    1XTA   HL4833599  29.701   3.702   3.725
    1XTA   HL4933600  29.734   3.643   3.876
    1XTA     NT33601  26.980   8.017   4.643
    1XTA    CN133602  26.862   8.086   4.617
    1XTA     C133603  26.877   8.207   4.541
    1XTA     C233604  26.768   8.270   4.489
    1XTA     C333605  26.641   8.229   4.535
    1XTA     C433606  26.622   8.121   4.626
    1XTA     C533607  26.734   8.043   4.662
    1XTA    CN233608  27.014   7.909   4.565
    1XTA     C633609  27.020   7.780   4.632
    1XTA     C733610  27.054   7.664   4.548
    1XTA     C833611  27.090   7.678   4.412
    1XTA     C933612  27.090   7.811   4.361
    1XTA    C1033613  27.053   7.931   4.433
    1XTA    CN333614  27.067   8.065   4.740
    1XTA    C1133615  27.203   8.079   4.715
    1XTA    C1233616  27.289   8.137   4.811
    1XTA    C1333617  27.239   8.176   4.937
    1XTA    C1433618  27.099   8.155   4.962
    1XTA    C1533619  27.021   8.093   4.869
    1XTA     H133620  26.975   8.250   4.511
    1XTA     H233621  26.770   8.361   4.429
    1XTA     H333622  26.525   8.114   4.664
    1XTA     H433623  26.726   7.943   4.711
    1XTA     H533624  27.000   7.785   4.743
    1XTA     H633625  27.059   7.570   4.587
    1XTA     H733626  27.123   7.835   4.258
    1XTA     H833627  27.045   8.028   4.391
    1XTA     H933628  27.249   8.043   4.625
    1XTA    H1033629  27.390   8.161   4.778
    1XTA    H1133630  27.045   8.186   5.053
    1XTA    H1233631  26.914   8.078   4.892
    1XTA    OA133632  26.541   8.317   4.503
    1XTA    CO133633  26.407   8.282   4.510
    1XTA    OA233634  27.140   7.574   4.329
    1XTA    CO233635  27.064   7.454   4.338
    1XTA    CL133636  27.133   7.339   4.256
    1XTA    CL233637  27.286   7.346   4.254
    1XTA    CL333638  27.359   7.293   4.383
    1XTA    CL433639  27.505   7.346   4.402
    1XTA    CO333640  27.564   7.279   4.522
    1XTA    OA333641  27.701   7.318   4.520
    1XTA    CO433642  27.785   7.222   4.458
    1XTA    CT133643  27.920   7.285   4.455
    1XTA    CL533644  28.012   7.192   4.372
    1XTA    CL633645  28.018   7.044   4.414
    1XTA    OA433646  27.325   8.229   5.033
    1XTA    CO533647  27.258   8.316   5.123
    1XTA    CL733648  27.371   8.383   5.205
    1XTA    CL833649  27.427   8.288   5.310
    1XTA    CL933650  27.563   8.346   5.356
    1XTA   CL1033651  27.681   8.310   5.275
    1XTA    CO633652  27.699   8.157   5.236
    1XTA    OA533653  27.834   8.140   5.197
    1XTA    CO733654  27.846   8.188   5.061
    1XTA    CT233655  27.983   8.154   5.018
    1XTA   CL1133656  28.017   8.259   4.906
    1XTA   CL1233657  28.148   8.249   4.826
    1XTA    HL133658  26.379   8.257   4.611
    1XTA    HL233659  26.341   8.363   4.478
    1XTA    HL333660  26.400   8.188   4.446
    1XTA    HL433661  27.055   7.427   4.445
    1XTA    HL533662  26.957   7.462   4.312
    1XTA    HL633663  27.099   7.347   4.154
    1XTA    HL733664  27.106   7.243   4.290
    1XTA    HL833665  27.312   7.448   4.243
    1XTA    HL933666  27.320   7.293   4.162
    1XTA   HL1033667  27.303   7.326   4.470
    1XTA   HL1133668  27.359   7.186   4.385
    1XTA   HL1233669  27.504   7.458   4.417
    1XTA   HL1333670  27.554   7.332   4.302
    1XTA   HL1433671  27.526   7.327   4.612
    1XTA   HL1533672  27.548   7.169   4.519
    1XTA   HL1633673  27.787   7.125   4.508
    1XTA   HL1733674  27.739   7.201   4.357
    1XTA   HL1833675  28.111   7.226   4.364
    1XTA   HL1933676  27.978   7.213   4.270
    1XTA   HL2033677  28.111   7.000   4.370
    1XTA   HL2133678  27.933   6.986   4.388
    1XTA   HL2233679  28.037   7.029   4.521
    1XTA   HL2333680  27.179   8.268   5.179
    1XTA   HL2433681  27.224   8.399   5.065
    1XTA   HL2533682  27.447   8.415   5.135
    1XTA   HL2633683  27.330   8.467   5.257
    1XTA   HL2733684  27.352   8.305   5.395
    1XTA   HL2833685  27.443   8.187   5.284
    1XTA   HL2933686  27.569   8.452   5.379
    1XTA   HL3033687  27.576   8.297   5.459
    1XTA   HL3133688  27.688   8.377   5.192
    1XTA   HL3233689  27.766   8.338   5.339
    1XTA   HL3333690  27.675   8.098   5.326
    1XTA   HL3433691  27.615   8.142   5.161
    1XTA   HL3533692  27.830   8.293   5.060
    1XTA   HL3633693  27.780   8.142   4.993
    1XTA   HL3733694  28.022   8.359   4.951
    1XTA   HL3833695  27.940   8.262   4.832
    1XTA   HL3933696  28.180   8.147   4.813
    1XTA   HL4033697  28.229   8.284   4.892
    1XTA   HL4133698  28.149   8.292   4.727
    1XTA    CO833699  27.968   7.301   4.602
    1XTA    CO933700  27.899   7.426   4.389
    1XTA    OA633701  28.055   7.365   4.614
    1XTA   HL4233702  27.984   7.207   4.651
    1XTA   HL4333703  27.888   7.342   4.673
    1XTA   HL4433704  28.102   7.975   4.993
    1XTA   HL4533705  27.947   7.946   5.034
    1XTA   CO1033706  28.001   8.010   4.971
    1XTA   CO1133707  28.088   8.164   5.127
    1XTA    OA733708  27.981   7.977   4.833
    1XTA   HL4633709  28.073   8.083   5.194
    1XTA   HL4733710  28.184   8.154   5.089
    1XTA   HL4833711  27.785   7.440   4.305
    1XTA   HL4933712  27.870   7.493   4.462
    1XTA     NT33713  30.676   4.994   6.051
    1XTA    CN133714  30.778   4.914   6.014
    1XTA     C133715  30.805   4.882   5.881
    1XTA     C233716  30.917   4.813   5.835
    1XTA     C333717  31.001   4.754   5.934
    1XTA     C433718  30.977   4.786   6.068
    1XTA     C533719  30.864   4.858   6.105
    1XTA    CN233720  30.564   4.954   6.114
    1XTA     C633721  30.463   4.872   6.055
    1XTA     C733722  30.357   4.822   6.134
    1XTA     C833723  30.342   4.866   6.268
    1XTA     C933724  30.426   4.971   6.314
    1XTA    C1033725  30.543   5.000   6.248
    1XTA    CN333726  30.690   5.125   6.023
    1XTA    C1133727  30.586   5.191   5.956
    1XTA    C1233728  30.615   5.318   5.910
    1XTA    C1333729  30.734   5.383   5.946
    1XTA    C1433730  30.833   5.314   6.018
    1XTA    C1533731  30.815   5.181   6.053
    1XTA     H133732  30.747   4.931   5.805
    1XTA     H233733  30.938   4.802   5.730
    1XTA     H333734  31.036   4.756   6.152
    1XTA     H433735  30.851   4.871   6.211
    1XTA     H533736  30.470   4.838   5.955
    1XTA     H633737  30.281   4.754   6.094
    1XTA     H733738  30.399   5.023   6.406
    1XTA     H833739  30.621   5.063   6.293
    1XTA     H933740  30.494   5.147   5.927
    1XTA    H1033741  30.539   5.372   5.863
    1XTA    H1133742  30.927   5.368   6.038
    1XTA    H1233743  30.890   5.125   6.103
    1XTA    OA133744  31.112   4.666   5.910
    1XTA    CO133745  31.145   4.632   5.778
    1XTA    OA233746  30.233   4.832   6.345
    1XTA    CO233747  30.154   4.719   6.303
    1XTA    CL133748  30.033   4.752   6.213
    1XTA    CL233749  29.940   4.625   6.211
    1XTA    CL333750  29.832   4.627   6.103
    1XTA    CL433751  29.874   4.576   5.961
    1XTA    CO333752  29.755   4.591   5.869
    1XTA    OA333753  29.636   4.537   5.925
    1XTA    CO433754  29.535   4.525   5.826
    1XTA    CT133755  29.412   4.470   5.891
    1XTA    CL533756  29.426   4.321   5.937
    1XTA    CL633757  29.535   4.291   6.044
    1XTA    OA433758  30.760   5.517   5.925
    1XTA    CO533759  30.702   5.571   5.807
    1XTA    CL733760  30.751   5.709   5.782
    1XTA    CL833761  30.783   5.732   5.638
    1XTA    CL933762  30.782   5.886   5.614
    1XTA   CL1033763  30.647   5.960   5.623
    1XTA    CO633764  30.657   6.109   5.598
    1XTA    OA533765  30.547   6.154   5.519
    1XTA    CO733766  30.421   6.149   5.577
    1XTA    CT233767  30.307   6.131   5.464
    1XTA   CL1133768  30.173   6.184   5.511
    1XTA   CL1233769  30.170   6.326   5.576
    1XTA    HL133770  31.238   4.575   5.772
    1XTA    HL233771  31.077   4.562   5.730
    1XTA    HL333772  31.163   4.728   5.721
    1XTA    HL433773  30.218   4.642   6.256
    1XTA    HL533774  30.108   4.690   6.402
    1XTA    HL633775  30.067   4.764   6.111
    1XTA    HL733776  29.977   4.834   6.247
    1XTA    HL833777  29.867   4.622   6.299
    1XTA    HL933778  29.995   4.531   6.230
    1XTA   HL1033779  29.738   4.576   6.144
    1XTA   HL1133780  29.811   4.733   6.091
    1XTA   HL1233781  29.902   4.470   5.959
    1XTA   HL1333782  29.960   4.622   5.918
    1XTA   HL1433783  29.746   4.697   5.843
    1XTA   HL1533784  29.773   4.561   5.765
    1XTA   HL1633785  29.510   4.632   5.787
    1XTA   HL1733786  29.570   4.455   5.750
    1XTA   HL1833787  29.447   4.265   5.854
    1XTA   HL1933788  29.326   4.286   5.979
    1XTA   HL2033789  29.507   4.338   6.145
    1XTA   HL2133790  29.634   4.334   6.022
    1XTA   HL2233791  29.561   4.181   6.056
    1XTA   HL2333792  30.593   5.569   5.824
    1XTA   HL2433793  30.724   5.510   5.723
    1XTA   HL2533794  30.661   5.766   5.810
    1XTA   HL2633795  30.831   5.735   5.855
    1XTA   HL2733796  30.881   5.692   5.619
    1XTA   HL2833797  30.704   5.686   5.569
    1XTA   HL2933798  30.845   5.931   5.694
    1XTA   HL3033799  30.836   5.911   5.521
    1XTA   HL3133800  30.565   5.917   5.557
    1XTA   HL3233801  30.599   5.935   5.716
    1XTA   HL3333802  30.661   6.157   5.701
    1XTA   HL3433803  30.749   6.130   5.543
    1XTA   HL3533804  30.411   6.244   5.632
    1XTA   HL3633805  30.392   6.075   5.648
    1XTA   HL3733806  30.129   6.111   5.585
    1XTA   HL3833807  30.106   6.184   5.424
    1XTA   HL3933808  30.080   6.389   5.578
    1XTA   HL4033809  30.244   6.393   5.534
    1XTA   HL4133810  30.205   6.296   5.680
    1XTA    CO833811  29.299   4.473   5.786
    1XTA    CO933812  29.372   4.553   6.015
    1XTA    OA633813  29.303   4.510   6.087
    1XTA   HL4233814  29.204   4.463   5.837
    1XTA   HL4333815  29.279   4.606   5.728
    1XTA   HL4433816  30.380   5.956   5.373
    1XTA   HL4533817  30.215   5.977   5.335
    1XTA   CO1033818  30.282   5.985   5.420
    1XTA   CO1133819  30.354   6.208   5.340
    1XTA    OA733820  30.279   6.166   5.229
    1XTA   HL4633821  30.357   6.322   5.348
    1XTA   HL4733822  30.451   6.174   5.323
    1XTA   HL4833823  29.329   4.648   5.980
    1XTA   HL4933824  29.468   4.571   6.071
    1XTA     NT33825  29.828   2.763   6.839
    1XTA    CN133826  29.799   2.701   6.957
    1XTA     C133827  29.882   2.600   7.009
    1XTA     C233828  29.844   2.538   7.131
    1XTA     C333829  29.730   2.576   7.209
    1XTA     C433830  29.656   2.685   7.161
    1XTA     C533831  29.682   2.746   7.037
    1XTA    CN233832  29.954   2.821   6.821
    1XTA     C633833  30.036   2.800   6.711
    1XTA     C733834  30.154   2.877   6.692
    1XTA     C833835  30.196   2.971   6.787
    1XTA     C933836  30.116   2.986   6.906
    1XTA    C1033837  30.001   2.908   6.918
    1XTA    CN333838  29.733   2.772   6.740
    1XTA    C1133839  29.692   2.898   6.690
    1XTA    C1233840  29.610   2.910   6.577
    1XTA    C1333841  29.568   2.787   6.516
    1XTA    C1433842  29.610   2.659   6.569
    1XTA    C1533843  29.693   2.651   6.681
    1XTA     H133844  29.974   2.566   6.954
    1XTA     H233845  29.891   2.452   7.163
    1XTA     H333846  29.580   2.717   7.221
    1XTA     H433847  29.628   2.842   7.011
    1XTA     H533848  29.996   2.740   6.632
    1XTA     H633849  30.212   2.858   6.601
    1XTA     H733850  30.145   3.061   6.983
    1XTA     H833851  29.938   2.922   7.010
    1XTA     H933852  29.742   2.986   6.722
    1XTA    H1033853  29.576   3.004   6.538
    1XTA    H1133854  29.588   2.563   6.524
    1XTA    H1233855  29.724   2.551   6.704
    1XTA    OA133856  29.707   2.508   7.329
    1XTA    CO133857  29.590   2.548   7.397
    1XTA    OA233858  30.310   3.044   6.771
    1XTA    CO233859  30.377   3.101   6.886
    1XTA    CL133860  30.496   3.195   6.847
    1XTA    CL233861  30.444   3.313   6.757
    1XTA    CL333862  30.483   3.295   6.614
    1XTA    CL433863  30.418   3.404   6.521
    1XTA    CO333864  30.274   3.358   6.481
    1XTA    OA333865  30.208   3.468   6.411
    1XTA    CO433866  30.264   3.511   6.288
    1XTA    CT133867  30.194   3.638   6.230
    1XTA    CL533868  30.249   3.667   6.082
    1XTA    CL633869  30.218   3.813   6.035
    1XTA    OA433870  29.482   2.799   6.407
    1XTA    CO533871  29.471   2.686   6.321
    1XTA    CL733872  29.345   2.621   6.357
    1XTA    CL833873  29.320   2.490   6.280
    1XTA    CL933874  29.175   2.464   6.250
    1XTA   CL1033875  29.091   2.430   6.377
    1XTA    CO633876  29.037   2.286   6.368
    1XTA    OA533877  29.043   2.220   6.501
    1XTA    CO733878  28.930   2.247   6.581
    1XTA    CT233879  28.948   2.175   6.714
    1XTA   CL1133880  28.962   2.023   6.694
    1XTA   CL1233881  28.959   1.930   6.820
    1XTA    HL133882  29.498   2.537   7.329
    1XTA    HL233883  29.578   2.485   7.491
    1XTA    HL333884  29.585   2.647   7.423
    1XTA    HL433885  30.304   3.166   6.936
    1XTA    HL533886  30.407   3.020   6.962
    1XTA    HL633887  30.586   3.148   6.803
    1XTA    HL733888  30.538   3.241   6.934
    1XTA    HL833889  30.485   3.407   6.794
    1XTA    HL933890  30.338   3.323   6.768
    1XTA   HL1033891  30.589   3.283   6.617
    1XTA   HL1133892  30.444   3.196   6.590
    1XTA   HL1233893  30.490   3.436   6.443
    1XTA   HL1333894  30.415   3.501   6.579
    1XTA   HL1433895  30.281   3.266   6.426
    1XTA   HL1533896  30.216   3.338   6.576
    1XTA   HL1633897  30.367   3.541   6.308
    1XTA   HL1733898  30.254   3.428   6.217
    1XTA   HL1833899  30.208   3.593   6.018
    1XTA   HL1933900  30.361   3.648   6.087
    1XTA   HL2033901  30.262   3.798   5.931
    1XTA   HL2133902  30.273   3.889   6.091
    1XTA   HL2233903  30.118   3.843   6.025
    1XTA   HL2333904  29.554   2.623   6.318
    1XTA   HL2433905  29.451   2.712   6.218
    1XTA   HL2533906  29.348   2.586   6.462
    1XTA   HL2633907  29.256   2.689   6.359
    1XTA   HL2733908  29.380   2.485   6.183
    1XTA   HL2833909  29.364   2.403   6.335
    1XTA   HL2933910  29.125   2.551   6.201
    1XTA   HL3033911  29.180   2.380   6.181
    1XTA   HL3133912  29.146   2.451   6.468
    1XTA   HL3233913  29.017   2.506   6.380
    1XTA   HL3333914  28.934   2.276   6.325
    1XTA   HL3433915  29.095   2.220   6.313
    1XTA   HL3533916  28.835   2.219   6.532
    1XTA   HL3633917  28.914   2.358   6.589
    1XTA   HL3733918  29.046   1.997   6.629
    1XTA   HL3833919  28.879   1.988   6.629
    1XTA   HL3933920  28.984   1.832   6.781
    1XTA   HL4033921  28.866   1.921   6.867
    1XTA   HL4133922  29.031   1.953   6.900
    1XTA    CO833923  30.225   3.760   6.313
    1XTA    CO933924  30.041   3.619   6.222
    1XTA    OA633925  30.330   3.785   6.311
    1XTA   HL4233926  30.194   3.745   6.417
    1XTA   HL4333927  30.160   3.838   6.275
    1XTA   HL4433928  28.810   2.298   6.837
    1XTA   HL4533929  28.868   2.153   6.953
    1XTA   CO1033930  28.836   2.193   6.820
    1XTA   CO1133931  29.076   2.222   6.784
    1XTA    OA733932  29.082   2.322   6.819
    1XTA   HL4633933  29.099   2.156   6.867
    1XTA   HL4733934  29.154   2.212   6.713
    1XTA   HL4833935  29.965   3.740   6.204
    1XTA   HL4933936  30.001   3.584   6.324
    1XTA     NT33937  31.004   5.267   7.114
    1XTA    CN133938  31.123   5.261   7.056
    1XTA     C133939  31.157   5.160   6.961
    1XTA     C233940  31.287   5.150   6.912
    1XTA     C333941  31.390   5.239   6.947
    1XTA     C433942  31.357   5.332   7.047
    1XTA     C533943  31.227   5.336   7.103
    1XTA    CN233944  30.919   5.361   7.070
    1XTA     C633945  30.875   5.464   7.157
    1XTA     C733946  30.791   5.572   7.112
    1XTA     C833947  30.756   5.585   6.974
    1XTA     C933948  30.803   5.486   6.887
    1XTA    C1033949  30.880   5.376   6.934
    1XTA    CN333950  30.956   5.162   7.173
    1XTA    C1133951  30.862   5.083   7.110
    1XTA    C1233952  30.798   4.982   7.183
    1XTA    C1333953  30.836   4.956   7.316
    1XTA    C1433954  30.935   5.037   7.374
    1XTA    C1533955  30.998   5.142   7.304
    1XTA     H133956  31.082   5.093   6.937
    1XTA     H233957  31.303   5.071   6.832
    1XTA     H333958  31.432   5.406   7.090
    1XTA     H433959  31.227   5.396   7.198
    1XTA     H533960  30.899   5.463   7.268
    1XTA     H633961  30.766   5.649   7.177
    1XTA     H733962  30.779   5.489   6.783
    1XTA     H833963  30.919   5.313   6.858
    1XTA     H933964  30.840   5.094   7.006
    1XTA    H1033965  30.727   4.924   7.136
    1XTA    H1133966  30.983   5.018   7.469
    1XTA    H1233967  31.074   5.196   7.356
    1XTA    OA133968  31.514   5.241   6.891
    1XTA    CO133969  31.535   5.165   6.775
    1XTA    OA233970  30.692   5.695   6.914
    1XTA    CO233971  30.653   5.806   6.990
    1XTA    CL133972  30.772   5.905   6.981
    1XTA    CL233973  30.785   5.984   6.852
    1XTA    CL333974  30.924   6.027   6.803
    1XTA    CL433975  30.997   5.904   6.758
    1XTA    CO333976  31.133   5.928   6.692
    1XTA    OA333977  31.206   5.813   6.684
    1XTA    CO433978  31.268   5.774   6.807
    1XTA    CT133979  31.341   5.643   6.799
    1XTA    CL533980  31.443   5.648   6.689
    1XTA    CL633981  31.513   5.517   6.667
    1XTA    OA433982  30.784   4.846   7.380
    1XTA    CO533983  30.821   4.819   7.517
    1XTA    CL733984  30.756   4.696   7.574
    1XTA    CL833985  30.830   4.568   7.542
    1XTA    CL933986  30.975   4.557   7.595
    1XTA   CL1033987  31.028   4.430   7.529
    1XTA    CO633988  31.107   4.465   7.404
    1XTA    OA533989  31.114   4.350   7.320
    1XTA    CO733990  31.151   4.375   7.186
    1XTA    CT233991  31.150   4.236   7.130
    1XTA   CL1133992  31.255   4.146   7.194
    1XTA   CL1233993  31.396   4.204   7.217
    1XTA    HL133994  31.625   5.192   6.717
    1XTA    HL233995  31.537   5.064   6.805
    1XTA    HL333996  31.463   5.181   6.700
    1XTA    HL433997  30.569   5.857   6.945
    1XTA    HL533998  30.613   5.785   7.091
    1XTA    HL633999  30.866   5.860   7.017
    1XTA    HL734000  30.749   5.986   7.060
    1XTA    HL834001  30.729   6.080   6.860
    1XTA    HL934002  30.729   5.945   6.770
    1XTA   HL1034003  30.907   6.097   6.725
    1XTA   HL1134004  30.981   6.079   6.877
    1XTA   HL1234005  30.936   5.854   6.677
    1XTA   HL1334006  31.001   5.832   6.845
    1XTA   HL1434007  31.129   5.959   6.590
    1XTA   HL1534008  31.195   6.003   6.744
    1XTA   HL1634009  31.348   5.837   6.822
    1XTA   HL1734010  31.203   5.788   6.895
    1XTA   HL1834011  31.523   5.722   6.704
    1XTA   HL1934012  31.399   5.681   6.587
    1XTA   HL2034013  31.585   5.504   6.755
    1XTA   HL2134014  31.574   5.532   6.579
    1XTA   HL2234015  31.455   5.428   6.654
    1XTA   HL2334016  30.774   4.893   7.575
    1XTA   HL2434017  30.930   4.824   7.547
    1XTA   HL2534018  30.732   4.693   7.681
    1XTA   HL2634019  30.654   4.693   7.547
    1XTA   HL2734020  30.788   4.487   7.594
    1XTA   HL2834021  30.823   4.556   7.438
    1XTA   HL2934022  31.045   4.645   7.576
    1XTA   HL3034023  30.964   4.530   7.698
    1XTA   HL3134024  31.096   4.365   7.586
    1XTA   HL3234025  30.945   4.366   7.499
    1XTA   HL3334026  31.051   4.537   7.354
    1XTA   HL3434027  31.208   4.507   7.440
    1XTA   HL3534028  31.244   4.418   7.190
    1XTA   HL3634029  31.086   4.452   7.139
    1XTA   HL3734030  31.269   4.060   7.128
    1XTA   HL3834031  31.211   4.120   7.293
    1XTA   HL3934032  31.447   4.244   7.130
    1XTA   HL4034033  31.464   4.127   7.257
    1XTA   HL4134034  31.403   4.290   7.293
    1XTA    CO834035  31.234   5.536   6.778
    1XTA    CO934036  31.417   5.624   6.937
    1XTA    OA634037  31.509   5.726   6.968
    1XTA   HL4234038  31.158   5.537   6.856
    1XTA   HL4334039  31.284   5.444   6.789
    1XTA   HL4434040  31.180   4.133   6.934
    1XTA   HL4534041  31.108   4.284   6.915
    1XTA   CO1034042  31.187   4.232   6.978
    1XTA   CO1134043  31.007   4.178   7.143
    1XTA    OA734044  31.312   4.285   6.949
    1XTA   HL4634045  30.985   4.174   7.248
    1XTA   HL4734046  31.008   4.084   7.093
    1XTA   HL4834047  31.469   5.531   6.937
    1XTA   HL4934048  31.342   5.613   7.018
    1XTA     NT34049  30.485   5.337   5.424
    1XTA    CN134050  30.484   5.449   5.347
    1XTA     C134051  30.518   5.567   5.408
    1XTA     C234052  30.551   5.683   5.337
    1XTA     C334053  30.533   5.679   5.196
    1XTA     C434054  30.481   5.563   5.133
    1XTA     C534055  30.480   5.444   5.211
    1XTA    CN234056  30.374   5.266   5.450
    1XTA     C634057  30.287   5.312   5.552
    1XTA     C734058  30.162   5.251   5.572
    1XTA     C834059  30.123   5.141   5.494
    1XTA     C934060  30.213   5.089   5.397
    1XTA    C1034061  30.329   5.161   5.363
    1XTA    CN334062  30.601   5.277   5.454
    1XTA    C1134063  30.672   5.189   5.377
    1XTA    C1234064  30.797   5.134   5.414
    1XTA    C1334065  30.859   5.172   5.533
    1XTA    C1434066  30.795   5.270   5.617
    1XTA    C1534067  30.663   5.310   5.580
    1XTA     H134068  30.542   5.559   5.514
    1XTA     H234069  30.593   5.770   5.389
    1XTA     H334070  30.490   5.554   5.031
    1XTA     H434071  30.472   5.358   5.156
    1XTA     H534072  30.324   5.394   5.616
    1XTA     H634073  30.098   5.285   5.651
    1XTA     H734074  30.177   5.005   5.339
    1XTA     H834075  30.389   5.128   5.277
    1XTA     H934076  30.634   5.158   5.286
    1XTA    H1034077  30.844   5.061   5.357
    1XTA    H1134078  30.842   5.283   5.706
    1XTA    H1234079  30.604   5.380   5.644
    1XTA    OA134080  30.560   5.787   5.115
    1XTA    CO134081  30.623   5.896   5.182
    1XTA    OA234082  30.002   5.085   5.510
    1XTA    CO234083  30.010   4.991   5.612
    1XTA    CL134084  29.917   4.875   5.571
    1XTA    CL234085  29.971   4.810   5.444
    1XTA    CL334086  29.891   4.683   5.419
    1XTA    CL434087  29.934   4.606   5.291
    1XTA    CO334088  29.835   4.485   5.280
    1XTA    OA334089  29.710   4.542   5.253
    1XTA    CO434090  29.609   4.448   5.276
    1XTA    CT134091  29.467   4.512   5.267
    1XTA    CL534092  29.458   4.627   5.375
    1XTA    CL634093  29.330   4.717   5.358
    1XTA    OA434094  30.967   5.096   5.568
    1XTA    CO534095  31.030   5.124   5.690
    1XTA    CL734096  31.117   5.248   5.677
    1XTA    CL834097  31.175   5.296   5.807
    1XTA    CL934098  31.235   5.434   5.778
    1XTA   CL1034099  31.147   5.549   5.734
    1XTA    CO634100  31.151   5.671   5.827
    1XTA    OA534101  31.125   5.622   5.963
    1XTA    CO734102  31.136   5.724   6.065
    1XTA    CT234103  31.076   5.683   6.200
    1XTA   CL1134104  30.916   5.680   6.189
    1XTA   CL1234105  30.845   5.802   6.144
    1XTA    HL134106  30.665   5.972   5.117
    1XTA    HL234107  30.573   5.953   5.259
    1XTA    HL334108  30.719   5.858   5.221
    1XTA    HL434109  30.117   4.957   5.616
    1XTA    HL534110  29.993   5.041   5.706
    1XTA    HL634111  29.814   4.910   5.538
    1XTA    HL734112  29.917   4.811   5.665
    1XTA    HL834113  30.081   4.798   5.452
    1XTA    HL934114  29.949   4.875   5.362
    1XTA   HL1034115  29.889   4.611   5.500
    1XTA   HL1134116  29.789   4.711   5.401
    1XTA   HL1234117  30.037   4.576   5.303
    1XTA   HL1334118  29.936   4.679   5.211
    1XTA   HL1434119  29.858   4.415   5.208
    1XTA   HL1534120  29.835   4.429   5.371
    1XTA   HL1634121  29.615   4.364   5.203
    1XTA   HL1734122  29.618   4.407   5.378
    1XTA   HL1834123  29.547   4.684   5.367
    1XTA   HL1934124  29.460   4.587   5.475
    1XTA   HL2034125  29.236   4.666   5.377
    1XTA   HL2134126  29.319   4.755   5.264
    1XTA   HL2234127  29.342   4.798   5.428
    1XTA   HL2334128  31.102   5.042   5.693
    1XTA   HL2434129  30.969   5.134   5.786
    1XTA   HL2534130  31.187   5.210   5.607
    1XTA   HL2634131  31.069   5.329   5.623
    1XTA   HL2734132  31.098   5.288   5.881
    1XTA   HL2834133  31.255   5.230   5.846
    1XTA   HL2934134  31.289   5.471   5.864
    1XTA   HL3034135  31.307   5.414   5.696
    1XTA   HL3134136  31.155   5.582   5.627
    1XTA   HL3234137  31.041   5.511   5.739
    1XTA   HL3334138  31.249   5.719   5.819
    1XTA   HL3434139  31.066   5.734   5.802
    1XTA   HL3534140  31.086   5.811   6.025
    1XTA   HL3634141  31.241   5.741   6.081
    1XTA   HL3734142  30.881   5.661   6.288
    1XTA   HL3834143  30.880   5.587   6.138
    1XTA   HL3934144  30.877   5.846   6.053
    1XTA   HL4034145  30.850   5.885   6.222
    1XTA   HL4134146  30.740   5.780   6.129
    1XTA    CO834147  29.354   4.417   5.289
    1XTA    CO934148  29.441   4.562   5.120
    1XTA    OA634149  29.375   4.372   5.395
    1XTA   HL4234150  29.364   4.339   5.211
    1XTA   HL4334151  29.270   4.484   5.269
    1XTA   HL4434152  31.222   5.735   6.381
    1XTA   HL4534153  31.023   5.789   6.378
    1XTA   CO1034154  31.109   5.777   6.312
    1XTA   CO1134155  31.116   5.541   6.250
    1XTA    OA734156  31.066   5.514   6.347
    1XTA   HL4634157  31.086   5.472   6.171
    1XTA   HL4734158  31.219   5.545   6.269
    1XTA   HL4834159  29.312   4.601   5.095
    1XTA   HL4934160  29.455   4.484   5.052
    1XTA     NT34161  29.075   2.253  -0.967
    1XTA    CN134162  29.107   2.131  -1.018
    1XTA     C134163  29.005   2.035  -1.030
    1XTA     C234164  29.029   1.914  -1.089
    1XTA     C334165  29.155   1.883  -1.138
    1XTA     C434166  29.264   1.975  -1.127
    1XTA     C534167  29.236   2.105  -1.070
    1XTA    CN234168  29.094   2.288  -0.835
    1XTA     C634169  29.219   2.279  -0.776
    1XTA     C734170  29.223   2.308  -0.639
    1XTA     C834171  29.117   2.335  -0.557
    1XTA     C934172  28.991   2.342  -0.620
    1XTA    C1034173  28.983   2.327  -0.758
    1XTA    CN334174  29.056   2.353  -1.063
    1XTA    C1134175  29.150   2.461  -1.070
    1XTA    C1234176  29.124   2.568  -1.152
    1XTA    C1334177  29.005   2.569  -1.234
    1XTA    C1434178  28.913   2.461  -1.221
    1XTA    C1534179  28.938   2.356  -1.137
    1XTA     H134180  28.902   2.058  -0.999
    1XTA     H234181  28.955   1.838  -1.105
    1XTA     H334182  29.357   1.947  -1.172
    1XTA     H434183  29.314   2.176  -1.054
    1XTA     H534184  29.303   2.254  -0.834
    1XTA     H634185  29.322   2.309  -0.596
    1XTA     H734186  28.908   2.376  -0.558
    1XTA     H834187  28.896   2.354  -0.812
    1XTA     H934188  29.241   2.473  -1.007
    1XTA    H1034189  29.197   2.647  -1.160
    1XTA    H1134190  28.828   2.458  -1.289
    1XTA    H1234191  28.861   2.278  -1.121
    1XTA    OA134192  29.174   1.761  -1.197
    1XTA    CO134193  29.242   1.768  -1.319
    1XTA    OA234194  29.143   2.378  -0.427
    1XTA    CO234195  29.045   2.422  -0.338
    1XTA    CL134196  29.112   2.465  -0.205
    1XTA    CL234197  29.021   2.527  -0.102
    1XTA    CL334198  28.877   2.538  -0.139
    1XTA    CL434199  28.782   2.558  -0.023
    1XTA    CO334200  28.644   2.614  -0.073
    1XTA    OA334201  28.568   2.519  -0.151
    1XTA    CO434202  28.456   2.576  -0.218
    1XTA    CT134203  28.399   2.464  -0.313
    1XTA    CL534204  28.517   2.422  -0.399
    1XTA    CL634205  28.473   2.317  -0.510
    1XTA    OA434206  28.982   2.676  -1.316
    1XTA    CO534207  28.879   2.666  -1.407
    1XTA    CL734208  28.886   2.789  -1.493
    1XTA    CL834209  28.825   2.774  -1.625
    1XTA    CL934210  28.807   2.919  -1.692
    1XTA   CL1034211  28.940   2.994  -1.719
    1XTA    CO634212  29.010   2.963  -1.860
    1XTA    OA534213  29.114   3.064  -1.874
    1XTA    CO734214  29.207   3.025  -1.973
    1XTA    CT234215  29.268   3.149  -2.027
    1XTA   CL1134216  29.158   3.267  -2.037
    1XTA   CL1234217  29.038   3.242  -2.138
    1XTA    HL134218  29.343   1.811  -1.310
    1XTA    HL234219  29.253   1.663  -1.360
    1XTA    HL334220  29.189   1.817  -1.402
    1XTA    HL434221  29.003   2.516  -0.381
    1XTA    HL534222  28.976   2.344  -0.320
    1XTA    HL634223  29.180   2.549  -0.234
    1XTA    HL734224  29.166   2.375  -0.161
    1XTA    HL834225  29.063   2.625  -0.090
    1XTA    HL934226  29.045   2.478  -0.006
    1XTA   HL1034227  28.860   2.623  -0.205
    1XTA   HL1134228  28.836   2.452  -0.191
    1XTA   HL1234229  28.830   2.630   0.048
    1XTA   HL1334230  28.757   2.465   0.032
    1XTA   HL1434231  28.575   2.642   0.010
    1XTA   HL1534232  28.658   2.701  -0.135
    1XTA   HL1634233  28.389   2.607  -0.145
    1XTA   HL1734234  28.487   2.665  -0.279
    1XTA   HL1834235  28.587   2.365  -0.336
    1XTA   HL1934236  28.571   2.508  -0.438
    1XTA   HL2034237  28.400   2.344  -0.584
    1XTA   HL2134238  28.437   2.224  -0.466
    1XTA   HL2234239  28.558   2.290  -0.570
    1XTA   HL2334240  28.780   2.656  -1.362
    1XTA   HL2434241  28.891   2.577  -1.466
    1XTA   HL2534242  28.833   2.861  -1.436
    1XTA   HL2634243  28.985   2.828  -1.499
    1XTA   HL2734244  28.889   2.718  -1.683
    1XTA   HL2834245  28.731   2.722  -1.627
    1XTA   HL2934246  28.747   2.922  -1.781
    1XTA   HL3034247  28.749   2.982  -1.619
    1XTA   HL3134248  28.917   3.100  -1.716
    1XTA   HL3234249  29.016   2.989  -1.637
    1XTA   HL3334250  29.043   2.858  -1.879
    1XTA   HL3434251  28.933   2.973  -1.934
    1XTA   HL3534252  29.152   2.980  -2.057
    1XTA   HL3634253  29.273   2.944  -1.950
    1XTA   HL3734254  29.211   3.356  -2.072
    1XTA   HL3834255  29.125   3.283  -1.929
    1XTA   HL3934256  28.983   3.146  -2.117
    1XTA   HL4034257  29.070   3.240  -2.240
    1XTA   HL4134258  28.969   3.326  -2.132
    1XTA    CO834259  28.279   2.529  -0.389
    1XTA    CO934260  28.340   2.350  -0.222
    1XTA    OA634261  28.312   2.573  -0.487
    1XTA   HL4234262  28.211   2.591  -0.329
    1XTA   HL4334263  28.211   2.449  -0.411
    1XTA   HL4434264  29.441   3.084  -2.127
    1XTA   HL4534265  29.290   3.033  -2.202
    1XTA   CO1034266  29.340   3.117  -2.159
    1XTA   CO1134267  29.377   3.200  -1.930
    1XTA    OA734268  29.342   3.229  -2.246
    1XTA   HL4634269  29.342   3.177  -1.829
    1XTA   HL4734270  29.466   3.130  -1.930
    1XTA   HL4834271  28.228   2.391  -0.140
    1XTA   HL4934272  28.303   2.269  -0.285
    1XTA     NT34273  31.198   0.496   4.399
    1XTA    CN134274  31.162   0.451   4.519
    1XTA     C134275  31.258   0.443   4.616
    1XTA     C234276  31.232   0.392   4.742
    1XTA     C334277  31.100   0.343   4.764
    1XTA     C434278  31.004   0.348   4.663
    1XTA     C534279  31.030   0.404   4.546
    1XTA    CN234280  31.205   0.626   4.389
    1XTA     C634281  31.331   0.685   4.408
    1XTA     C734282  31.344   0.820   4.385
    1XTA     C834283  31.229   0.901   4.358
    1XTA     C934284  31.100   0.845   4.356
    1XTA    C1034285  31.092   0.707   4.372
    1XTA    CN334286  31.172   0.419   4.290
    1XTA    C1134287  31.058   0.440   4.204
    1XTA    C1234288  31.047   0.344   4.100
    1XTA    C1334289  31.125   0.230   4.090
    1XTA    C1434290  31.235   0.211   4.179
    1XTA    C1534291  31.257   0.311   4.277
    1XTA     H134292  31.357   0.473   4.597
    1XTA     H234293  31.307   0.385   4.822
    1XTA     H334294  30.902   0.315   4.683
    1XTA     H434295  30.960   0.394   4.464
    1XTA     H534296  31.420   0.635   4.435
    1XTA     H634297  31.441   0.863   4.382
    1XTA     H734298  31.007   0.897   4.349
    1XTA     H834299  30.991   0.671   4.374
    1XTA     H934300  31.001   0.530   4.215
    1XTA    H1034301  30.963   0.364   4.036
    1XTA    H1134302  31.297   0.121   4.179
    1XTA    H1234303  31.338   0.299   4.352
    1XTA    OA134304  31.069   0.271   4.881
    1XTA    CO134305  30.936   0.238   4.923
    1XTA    OA234306  31.236   1.042   4.346
    1XTA    CO234307  31.372   1.097   4.345
    1XTA    CL134308  31.358   1.253   4.331
    1XTA    CL234309  31.490   1.328   4.357
    1XTA    CL334310  31.536   1.330   4.502
    1XTA    CL434311  31.661   1.412   4.500
    1XTA    CO334312  31.721   1.442   4.634
    1XTA    OA334313  31.804   1.554   4.612
    1XTA    CO434314  31.853   1.625   4.728
    1XTA    CT134315  31.903   1.765   4.678
    1XTA    CL534316  32.032   1.761   4.588
    1XTA    CL634317  32.080   1.882   4.512
    1XTA    OA434318  31.126   0.129   3.998
    1XTA    CO534319  31.027   0.129   3.885
    1XTA    CL734320  30.884   0.125   3.926
    1XTA    CL834321  30.841  -0.018   3.962
    1XTA    CL934322  30.919  -0.076   4.074
    1XTA   CL1034323  30.887  -0.021   4.214
    1XTA    CO634324  30.951  -0.117   4.312
    1XTA    OA534325  30.913  -0.092   4.447
    1XTA    CO734326  30.975  -0.187   4.525
    1XTA    CT234327  30.936  -0.157   4.677
    1XTA   CL1134328  30.784  -0.126   4.673
    1XTA   CL1234329  30.730  -0.078   4.809
    1XTA    HL134330  30.894   0.337   4.950
    1XTA    HL234331  30.877   0.195   4.842
    1XTA    HL334332  30.927   0.176   5.014
    1XTA    HL434333  31.424   1.070   4.434
    1XTA    HL534334  31.414   1.058   4.257
    1XTA    HL634335  31.284   1.274   4.401
    1XTA    HL734336  31.314   1.286   4.235
    1XTA    HL834337  31.484   1.428   4.327
    1XTA    HL934338  31.578   1.294   4.298
    1XTA   HL1034339  31.461   1.392   4.570
    1XTA   HL1134340  31.560   1.230   4.538
    1XTA   HL1234341  31.644   1.504   4.437
    1XTA   HL1334342  31.742   1.355   4.452
    1XTA   HL1434343  31.644   1.463   4.711
    1XTA   HL1534344  31.781   1.359   4.658
    1XTA   HL1634345  31.772   1.643   4.803
    1XTA   HL1734346  31.929   1.568   4.779
    1XTA   HL1834347  32.009   1.691   4.511
    1XTA   HL1934348  32.117   1.712   4.635
    1XTA   HL2034349  32.129   1.963   4.570
    1XTA   HL2134350  31.995   1.914   4.447
    1XTA   HL2234351  32.151   1.854   4.439
    1XTA   HL2334352  31.054   0.053   3.817
    1XTA   HL2434353  31.048   0.215   3.820
    1XTA   HL2534354  30.858   0.188   4.009
    1XTA   HL2634355  30.826   0.151   3.840
    1XTA   HL2734356  30.735  -0.022   3.987
    1XTA   HL2834357  30.849  -0.080   3.876
    1XTA   HL2934358  30.889  -0.176   4.074
    1XTA   HL3034359  31.022  -0.071   4.054
    1XTA   HL3134360  30.939   0.066   4.224
    1XTA   HL3234361  30.773  -0.003   4.232
    1XTA   HL3334362  30.919  -0.219   4.283
    1XTA   HL3434363  31.055  -0.117   4.302
    1XTA   HL3534364  31.082  -0.177   4.503
    1XTA   HL3634365  30.944  -0.291   4.494
    1XTA   HL3734366  30.733  -0.214   4.629
    1XTA   HL3834367  30.744  -0.048   4.597
    1XTA   HL3934368  30.622  -0.101   4.822
    1XTA   HL4034369  30.739   0.026   4.821
    1XTA   HL4134370  30.774  -0.123   4.895
    1XTA    CO834371  31.931   1.847   4.809
    1XTA    CO934372  31.781   1.844   4.605
    1XTA    OA634373  31.690   1.844   4.665
    1XTA   HL4234374  31.842   1.842   4.866
    1XTA   HL4334375  31.980   1.982   4.787
    1XTA   HL4434376  30.974   0.051   4.681
    1XTA   HL4534377  31.014  -0.029   4.842
    1XTA   CO1034378  31.015  -0.041   4.731
    1XTA   CO1134379  30.972  -0.282   4.759
    1XTA    OA734380  31.115  -0.057   4.712
    1XTA   HL4634381  31.114  -0.301   4.780
    1XTA   HL4734382  30.932  -0.274   4.861
    1XTA   HL4834383  31.773   1.796   4.511
    1XTA   HL4934384  31.828   1.952   4.588
    1XTA     NT34385  30.817   5.407   2.621
    1XTA    CN134386  30.868   5.487   2.715
    1XTA     C134387  30.783   5.570   2.787
    1XTA     C234388  30.832   5.653   2.890
    1XTA     C334389  30.972   5.658   2.918
    1XTA     C434390  31.057   5.575   2.844
    1XTA     C534391  31.004   5.487   2.746
    1XTA    CN234392  30.876   5.406   2.491
    1XTA     C634393  30.919   5.526   2.432
    1XTA     C734394  31.025   5.531   2.338
    1XTA     C834395  31.072   5.409   2.285
    1XTA     C934396  31.018   5.288   2.334
    1XTA    C1034397  30.925   5.286   2.439
    1XTA    CN334398  30.730   5.321   2.663
    1XTA    C1134399  30.611   5.290   2.599
    1XTA    C1234400  30.529   5.191   2.662
    1XTA    C1334401  30.562   5.125   2.775
    1XTA    C1434402  30.692   5.138   2.830
    1XTA    C1534403  30.773   5.235   2.770
    1XTA     H134404  30.673   5.577   2.761
    1XTA     H234405  30.764   5.725   2.936
    1XTA     H334406  31.162   5.571   2.868
    1XTA     H434407  31.066   5.415   2.690
    1XTA     H534408  30.889   5.626   2.463
    1XTA     H634409  31.059   5.628   2.313
    1XTA     H734410  31.074   5.199   2.302
    1XTA     H834411  30.882   5.189   2.466
    1XTA     H934412  30.586   5.338   2.506
    1XTA    H1034413  30.438   5.174   2.613
    1XTA    H1134414  30.721   5.079   2.913
    1XTA    H1234415  30.867   5.256   2.819
    1XTA    OA134416  31.018   5.744   3.014
    1XTA    CO134417  30.960   5.716   3.146
    1XTA    OA234418  31.168   5.415   2.188
    1XTA    CO234419  31.293   5.468   2.219
    1XTA    CL134420  31.370   5.362   2.301
    1XTA    CL234421  31.345   5.377   2.453
    1XTA    CL334422  31.433   5.270   2.536
    1XTA    CL434423  31.592   5.266   2.518
    1XTA    CO334424  31.633   5.182   2.404
    1XTA    OA334425  31.767   5.208   2.355
    1XTA    CO434426  31.767   5.328   2.282
    1XTA    CT134427  31.896   5.355   2.209
    1XTA    CL534428  31.970   5.224   2.174
    1XTA    CL634429  31.895   5.134   2.087
    1XTA    OA434430  30.470   5.034   2.822
    1XTA    CO534431  30.491   4.993   2.957
    1XTA    CL734432  30.363   4.927   2.996
    1XTA    CL834433  30.392   4.804   3.083
    1XTA    CL934434  30.405   4.681   2.998
    1XTA   CL1034435  30.375   4.555   3.076
    1XTA    CO634436  30.376   4.427   2.987
    1XTA    OA534437  30.509   4.419   2.931
    1XTA    CO734438  30.526   4.299   2.849
    1XTA    CT234439  30.669   4.250   2.844
    1XTA   CL1134440  30.713   4.200   2.983
    1XTA   CL1234441  30.650   4.254   3.108
    1XTA    HL134442  30.849   5.726   3.147
    1XTA    HL234443  30.986   5.624   3.183
    1XTA    HL334444  30.995   5.781   3.225
    1XTA    HL434445  31.345   5.488   2.126
    1XTA    HL534446  31.275   5.557   2.273
    1XTA    HL634447  31.474   5.375   2.283
    1XTA    HL734448  31.347   5.262   2.274
    1XTA    HL834449  31.240   5.380   2.476
    1XTA    HL934450  31.386   5.471   2.479
    1XTA   HL1034451  31.418   5.304   2.635
    1XTA   HL1134452  31.399   5.163   2.534
    1XTA   HL1234453  31.635   5.232   2.613
    1XTA   HL1334454  31.618   5.369   2.511
    1XTA   HL1434455  31.629   5.078   2.437
    1XTA   HL1534456  31.568   5.198   2.311
    1XTA   HL1634457  31.695   5.316   2.200
    1XTA   HL1734458  31.718   5.405   2.336
    1XTA   HL1834459  31.991   5.174   2.272
    1XTA   HL1934460  32.067   5.255   2.127
    1XTA   HL2034461  31.794   5.117   2.126
    1XTA   HL2134462  31.946   5.036   2.077
    1XTA   HL2234463  31.891   5.176   1.988
    1XTA   HL2334464  30.500   5.086   3.018
    1XTA   HL2434465  30.583   4.931   2.975
    1XTA   HL2534466  30.304   4.997   3.053
    1XTA   HL2634467  30.296   4.913   2.902
    1XTA   HL2734468  30.480   4.813   3.145
    1XTA   HL2834469  30.309   4.793   3.155
    1XTA   HL2934470  30.330   4.679   2.922
    1XTA   HL3034471  30.509   4.670   2.956
    1XTA   HL3134472  30.455   4.540   3.154
    1XTA   HL3234473  30.287   4.573   3.138
    1XTA   HL3334474  30.346   4.343   3.056
    1XTA   HL3434475  30.302   4.430   2.909
    1XTA   HL3534476  30.489   4.313   2.747
    1XTA   HL3634477  30.458   4.220   2.883
    1XTA   HL3734478  30.825   4.204   3.001
    1XTA   HL3834479  30.700   4.089   2.992
    1XTA   HL3934480  30.545   4.218   3.117
    1XTA   HL4034481  30.653   4.358   3.119
    1XTA   HL4134482  30.691   4.213   3.203
    1XTA    CO834483  31.992   5.456   2.277
    1XTA    CO934484  31.847   5.439   2.088
    1XTA    OA634485  32.097   5.489   2.170
    1XTA   HL4234486  32.032   5.410   2.366
    1XTA   HL4334487  31.947   5.557   2.300
    1XTA   HL4434488  30.871   4.309   2.778
    1XTA   HL4534489  30.737   4.382   2.683
    1XTA   CO1034490  30.770   4.348   2.783
    1XTA   CO1134491  30.685   4.126   2.751
    1XTA    OA734492  30.773   4.447   2.876
    1XTA   HL4634493  30.621   4.047   2.794
    1XTA   HL4734494  30.790   4.099   2.730
    1XTA   HL4834495  31.935   5.481   2.029
    1XTA   HL4934496  31.789   5.377   2.018
    1XTA     NT34497  31.939   5.572   0.106
    1XTA    CN134498  31.855   5.481   0.161
    1XTA     C134499  31.870   5.340   0.135
    1XTA     C234500  31.797   5.241   0.202
    1XTA     C334501  31.706   5.280   0.300
    1XTA     C434502  31.691   5.421   0.333
    1XTA     C534503  31.763   5.518   0.262
    1XTA    CN234504  31.947   5.589  -0.031
    1XTA     C634505  31.996   5.716  -0.071
    1XTA     C734506  31.997   5.758  -0.206
    1XTA     C834507  31.948   5.672  -0.306
    1XTA     C934508  31.909   5.543  -0.269
    1XTA    C1034509  31.902   5.503  -0.134
    1XTA    CN334510  32.042   5.598   0.181
    1XTA    C1134511  32.165   5.538   0.145
    1XTA    C1234512  32.281   5.567   0.224
    1XTA    C1334513  32.280   5.656   0.335
    1XTA    C1434514  32.158   5.726   0.346
    1XTA    C1534515  32.040   5.696   0.281
    1XTA     H134516  31.944   5.298   0.072
    1XTA     H234517  31.829   5.141   0.176
    1XTA     H334518  31.624   5.461   0.411
    1XTA     H434519  31.740   5.622   0.283
    1XTA     H534520  32.025   5.794  -0.004
    1XTA     H634521  32.037   5.854  -0.230
    1XTA     H734522  31.869   5.467  -0.336
    1XTA     H834523  31.861   5.406  -0.118
    1XTA     H934524  32.170   5.477   0.057
    1XTA    H1034525  32.373   5.531   0.197
    1XTA    H1134526  32.145   5.808   0.416
    1XTA    H1234527  31.958   5.754   0.307
    1XTA    OA134528  31.636   5.192   0.382
    1XTA    CO134529  31.660   5.054   0.366
    1XTA    OA234530  31.920   5.702  -0.438
    1XTA    CO234531  31.950   5.844  -0.473
    1XTA    CL134532  31.905   5.874  -0.611
    1XTA    CL234533  31.755   5.860  -0.618
    1XTA    CL334534  31.672   5.990  -0.581
    1XTA    CL434535  31.522   5.965  -0.581
    1XTA    CO334536  31.433   6.074  -0.527
    1XTA    OA334537  31.446   6.092  -0.383
    1XTA    CO434538  31.560   6.165  -0.340
    1XTA    CT134539  31.531   6.294  -0.269
    1XTA    CL534540  31.482   6.265  -0.128
    1XTA    CL634541  31.353   6.191  -0.132
    1XTA    OA434542  32.387   5.682   0.416
    1XTA    CO534543  32.356   5.740   0.544
    1XTA    CL734544  32.479   5.718   0.628
    1XTA    CL834545  32.455   5.729   0.781
    1XTA    CL934546  32.379   5.611   0.837
    1XTA   CL1034547  32.258   5.649   0.927
    1XTA    CO634548  32.174   5.527   0.955
    1XTA    OA534549  32.108   5.500   0.837
    1XTA    CO734550  31.988   5.419   0.863
    1XTA    CT234551  31.920   5.396   0.726
    1XTA   CL1134552  32.019   5.331   0.629
    1XTA   CL1234553  31.970   5.279   0.488
    1XTA    HL134554  31.627   5.018   0.267
    1XTA    HL234555  31.764   5.043   0.379
    1XTA    HL334556  31.603   5.006   0.445
    1XTA    HL434557  31.907   5.909  -0.403
    1XTA    HL534558  32.049   5.877  -0.470
    1XTA    HL634559  31.957   5.818  -0.685
    1XTA    HL734560  31.918   5.977  -0.638
    1XTA    HL834561  31.741   5.778  -0.561
    1XTA    HL934562  31.726   5.823  -0.721
    1XTA   HL1034563  31.690   6.023  -0.475
    1XTA   HL1134564  31.675   6.074  -0.655
    1XTA   HL1234565  31.507   5.865  -0.543
    1XTA   HL1334566  31.487   5.936  -0.683
    1XTA   HL1434567  31.461   6.160  -0.575
    1XTA   HL1534568  31.323   6.060  -0.548
    1XTA   HL1634569  31.626   6.100  -0.273
    1XTA   HL1734570  31.601   6.194  -0.436
    1XTA   HL1834571  31.472   6.344  -0.062
    1XTA   HL1934572  31.561   6.192  -0.101
    1XTA   HL2034573  31.287   6.248  -0.196
    1XTA   HL2134574  31.301   6.168  -0.045
    1XTA   HL2234575  31.354   6.090  -0.178
    1XTA   HL2334576  32.266   5.695   0.586
    1XTA   HL2434577  32.338   5.845   0.530
    1XTA   HL2534578  32.506   5.616   0.609
    1XTA   HL2634579  32.551   5.803   0.609
    1XTA   HL2734580  32.543   5.745   0.833
    1XTA   HL2834581  32.406   5.821   0.803
    1XTA   HL2934582  32.327   5.560   0.761
    1XTA   HL3034583  32.442   5.535   0.878
    1XTA   HL3134584  32.286   5.688   1.030
    1XTA   HL3234585  32.195   5.728   0.891
    1XTA   HL3334586  32.235   5.444   0.989
    1XTA   HL3434587  32.105   5.530   1.041
    1XTA   HL3534588  31.915   5.471   0.923
    1XTA   HL3634589  32.021   5.322   0.904
    1XTA   HL3734590  32.058   5.244   0.682
    1XTA   HL3834591  32.097   5.412   0.611
    1XTA   HL3934592  31.886   5.208   0.503
    1XTA   HL4034593  32.045   5.211   0.437
    1XTA   HL4134594  31.937   5.364   0.428
    1XTA    CO834595  31.435   6.390  -0.349
    1XTA    CO934596  31.667   6.372  -0.255
    1XTA    OA634597  31.395   6.503  -0.267
    1XTA   HL4234598  31.346   6.347  -0.394
    1XTA   HL4334599  31.495   6.423  -0.438
    1XTA   HL4434600  31.950   5.591   0.655
    1XTA   HL4534601  31.831   5.510   0.555
    1XTA   CO1034602  31.862   5.528   0.658
    1XTA   CO1134603  31.789   5.310   0.756
    1XTA    OA734604  31.777   5.580   0.707
    1XTA   HL4634605  31.715   5.278   0.637
    1XTA   HL4734606  31.712   5.369   0.811
    1XTA   HL4834607  31.726   6.335  -0.168
    1XTA   HL4934608  31.637   6.472  -0.224
    1XTA     NT34609  29.858   6.564   3.770
    1XTA    CN134610  29.732   6.587   3.823
    1XTA     C134611  29.682   6.512   3.932
    1XTA     C234612  29.555   6.540   3.988
    1XTA     C334613  29.474   6.638   3.924
    1XTA     C434614  29.527   6.719   3.823
    1XTA     C534615  29.652   6.687   3.765
    1XTA    CN234616  29.966   6.575   3.848
    1XTA     C634617  30.066   6.478   3.831
    1XTA     C734618  30.188   6.497   3.886
    1XTA     C834619  30.219   6.611   3.962
    1XTA     C934620  30.112   6.701   3.992
    1XTA    C1034621  29.986   6.689   3.926
    1XTA    CN334622  29.875   6.575   3.634
    1XTA    C1134623  29.959   6.680   3.583
    1XTA    C1234624  29.980   6.698   3.445
    1XTA    C1334625  29.916   6.608   3.357
    1XTA    C1434626  29.840   6.495   3.406
    1XTA    C1534627  29.820   6.476   3.544
    1XTA     H134628  29.749   6.438   3.974
    1XTA     H234629  29.524   6.477   4.071
    1XTA     H334630  29.480   6.812   3.786
    1XTA     H434631  29.692   6.747   3.689
    1XTA     H534632  30.043   6.391   3.760
    1XTA     H634633  30.271   6.426   3.859
    1XTA     H734634  30.116   6.790   4.055
    1XTA     H834635  29.915   6.762   3.950
    1XTA     H934636  30.005   6.746   3.650
    1XTA    H1034637  30.049   6.771   3.404
    1XTA    H1134638  29.799   6.424   3.341
    1XTA    H1234639  29.773   6.383   3.576
    1XTA    OA134640  29.355   6.653   3.988
    1XTA    CO134641  29.244   6.707   3.917
    1XTA    OA234642  30.341   6.626   4.023
    1XTA    CO234643  30.439   6.528   4.025
    1XTA    CL134644  30.577   6.591   4.060
    1XTA    CL234645  30.640   6.675   3.947
    1XTA    CL334646  30.762   6.747   4.000
    1XTA    CL434647  30.884   6.649   4.021
    1XTA    CO334648  30.979   6.686   4.131
    1XTA    OA334649  31.065   6.791   4.088
    1XTA    CO434650  31.053   6.909   4.163
    1XTA    CT134651  31.118   7.031   4.104
    1XTA    CL534652  31.075   7.168   4.161
    1XTA    CL634653  31.093   7.173   4.317
    1XTA    OA434654  29.946   6.619   3.230
    1XTA    CO534655  29.850   6.609   3.126
    1XTA    CL734656  29.925   6.623   2.994
    1XTA    CL834657  29.834   6.626   2.870
    1XTA    CL934658  29.916   6.670   2.747
    1XTA   CL1034659  30.041   6.599   2.719
    1XTA    CO634660  30.109   6.658   2.601
    1XTA    OA534661  30.135   6.797   2.621
    1XTA    CO734662  30.215   6.829   2.732
    1XTA    CT234663  30.280   6.965   2.727
    1XTA   CL1134664  30.372   6.967   2.602
    1XTA   CL1234665  30.509   6.901   2.605
    1XTA    HL134666  29.226   6.644   3.829
    1XTA    HL234667  29.150   6.701   3.978
    1XTA    HL334668  29.252   6.810   3.894
    1XTA    HL434669  30.415   6.459   4.101
    1XTA    HL534670  30.447   6.478   3.932
    1XTA    HL634671  30.646   6.509   4.076
    1XTA    HL734672  30.557   6.646   4.148
    1XTA    HL834673  30.555   6.743   3.923
    1XTA    HL934674  30.656   6.611   3.861
    1XTA   HL1034675  30.792   6.818   3.926
    1XTA   HL1134676  30.732   6.803   4.087
    1XTA   HL1234677  30.929   6.635   3.925
    1XTA   HL1334678  30.860   6.547   4.048
    1XTA   HL1434679  30.920   6.697   4.220
    1XTA   HL1534680  31.039   6.594   4.141
    1XTA   HL1634681  30.947   6.919   4.177
    1XTA   HL1734682  31.088   6.890   4.264
    1XTA   HL1834683  30.972   7.203   4.134
    1XTA   HL1934684  31.142   7.237   4.116
    1XTA   HL2034685  31.033   7.104   4.373
    1XTA   HL2134686  31.069   7.276   4.346
    1XTA   HL2234687  31.198   7.148   4.352
    1XTA   HL2334688  29.786   6.696   3.153
    1XTA   HL2434689  29.793   6.520   3.142
    1XTA   HL2534690  29.975   6.718   2.995
    1XTA   HL2634691  30.007   6.555   2.979
    1XTA   HL2734692  29.784   6.531   2.861
    1XTA   HL2834693  29.748   6.696   2.878
    1XTA   HL2934694  29.860   6.672   2.653
    1XTA   HL3034695  29.933   6.777   2.757
    1XTA   HL3134696  30.108   6.586   2.804
    1XTA   HL3234697  30.007   6.508   2.688
    1XTA   HL3334698  30.205   6.605   2.584
    1XTA   HL3434699  30.040   6.634   2.518
    1XTA   HL3534700  30.292   6.753   2.735
    1XTA   HL3634701  30.158   6.814   2.818
    1XTA   HL3734702  30.387   7.065   2.562
    1XTA   HL3834703  30.321   6.904   2.525
    1XTA   HL3934704  30.504   6.807   2.665
    1XTA   HL4034705  30.576   6.976   2.656
    1XTA   HL4134706  30.557   6.880   2.501
    1XTA    CO834707  31.071   7.024   3.953
    1XTA    CO934708  31.270   7.021   4.093
    1XTA    OA634709  31.328   7.033   4.216
    1XTA   HL4234710  31.087   6.921   3.919
    1XTA   HL4334711  30.960   7.041   3.943
    1XTA   HL4434712  30.435   6.910   2.883
    1XTA   HL4534713  30.431   7.086   2.828
    1XTA   CO1034714  30.372   6.998   2.855
    1XTA   CO1134715  30.175   7.075   2.714
    1XTA    OA734716  30.305   7.026   2.935
    1XTA   HL4634717  30.067   7.039   2.632
    1XTA   HL4734718  30.110   7.061   2.802
    1XTA   HL4834719  31.300   7.102   4.025
    1XTA   HL4934720  31.290   6.919   4.057
    1XTA     NT34721  31.666   1.243   3.926
    1XTA    CN134722  31.617   1.197   3.816
    1XTA     C134723  31.477   1.193   3.799
    1XTA     C234724  31.430   1.151   3.677
    1XTA     C334725  31.514   1.110   3.573
    1XTA     C434726  31.651   1.114   3.593
    1XTA     C534727  31.703   1.154   3.716
    1XTA    CN234728  31.646   1.376   3.952
    1XTA     C634729  31.548   1.421   4.040
    1XTA     C734730  31.536   1.558   4.073
    1XTA     C834731  31.621   1.655   4.023
    1XTA     C934732  31.727   1.614   3.938
    1XTA    C1034733  31.736   1.475   3.908
    1XTA    CN334734  31.733   1.167   4.012
    1XTA    C1134735  31.871   1.186   4.028
    1XTA    C1234736  31.945   1.098   4.110
    1XTA    C1334737  31.878   1.002   4.179
    1XTA    C1434738  31.739   0.985   4.168
    1XTA    C1534739  31.665   1.067   4.078
    1XTA     H134740  31.408   1.231   3.874
    1XTA     H234741  31.326   1.157   3.659
    1XTA     H334742  31.716   1.077   3.510
    1XTA     H434743  31.805   1.147   3.744
    1XTA     H534744  31.478   1.353   4.086
    1XTA     H634745  31.461   1.586   4.144
    1XTA     H734746  31.810   1.688   3.911
    1XTA     H834747  31.824   1.439   3.857
    1XTA     H934748  31.923   1.271   3.989
    1XTA    H1034749  32.051   1.099   4.098
    1XTA    H1134750  31.687   0.906   4.216
    1XTA    H1234751  31.560   1.052   4.063
    1XTA    OA134752  31.469   1.047   3.457
    1XTA    CO134753  31.342   0.992   3.458
    1XTA    OA234754  31.597   1.784   4.061
    1XTA    CO234755  31.710   1.872   4.088
    1XTA    CL134756  31.779   1.823   4.211
    1XTA    CL234757  31.887   1.712   4.194
    1XTA    CL334758  31.856   1.577   4.256
    1XTA    CL434759  31.958   1.470   4.209
    1XTA    CO334760  32.091   1.492   4.284
    1XTA    OA334761  32.201   1.433   4.227
    1XTA    CO434762  32.252   1.520   4.124
    1XTA    CT134763  32.346   1.438   4.040
    1XTA    CL534764  32.404   1.505   3.911
    1XTA    CL634765  32.477   1.637   3.936
    1XTA    OA434766  31.944   0.915   4.262
    1XTA    CO534767  31.894   0.899   4.393
    1XTA    CL734768  31.987   0.794   4.469
    1XTA    CL834769  32.015   0.659   4.408
    1XTA    CL934770  31.886   0.587   4.390
    1XTA   CL1034771  31.910   0.436   4.367
    1XTA    CO634772  31.787   0.362   4.315
    1XTA    OA534773  31.824   0.230   4.268
    1XTA    CO734774  31.860   0.128   4.359
    1XTA    CT234775  31.853  -0.002   4.281
    1XTA   CL1134776  31.728  -0.015   4.187
    1XTA   CL1234777  31.591   0.033   4.244
    1XTA    HL134778  31.269   1.067   3.489
    1XTA    HL234779  31.310   0.949   3.361
    1XTA    HL334780  31.333   0.908   3.529
    1XTA    HL434781  31.785   1.898   4.008
    1XTA    HL534782  31.660   1.973   4.101
    1XTA    HL634783  31.720   1.785   4.292
    1XTA    HL734784  31.832   1.910   4.248
    1XTA    HL834785  31.979   1.747   4.232
    1XTA    HL934786  31.893   1.706   4.086
    1XTA   HL1034787  31.852   1.570   4.361
    1XTA   HL1134788  31.757   1.536   4.218
    1XTA   HL1234789  31.970   1.485   4.107
    1XTA   HL1334790  31.914   1.368   4.231
    1XTA   HL1434791  32.100   1.595   4.294
    1XTA   HL1534792  32.089   1.454   4.380
    1XTA   HL1634793  32.171   1.564   4.059
    1XTA   HL1734794  32.299   1.597   4.181
    1XTA   HL1834795  32.321   1.546   3.860
    1XTA   HL1934796  32.451   1.429   3.844
    1XTA   HL2034797  32.495   1.688   3.841
    1XTA   HL2134798  32.563   1.616   3.994
    1XTA   HL2234799  32.419   1.709   4.004
    1XTA   HL2334800  31.794   0.865   4.386
    1XTA   HL2434801  31.901   0.986   4.451
    1XTA   HL2534802  32.085   0.830   4.461
    1XTA   HL2634803  31.967   0.786   4.574
    1XTA   HL2734804  32.074   0.671   4.314
    1XTA   HL2834805  32.067   0.592   4.483
    1XTA   HL2934806  31.809   0.597   4.469
    1XTA   HL3034807  31.833   0.630   4.309
    1XTA   HL3134808  31.984   0.437   4.283
    1XTA   HL3234809  31.954   0.390   4.454
    1XTA   HL3334810  31.713   0.363   4.393
    1XTA   HL3434811  31.744   0.417   4.232
    1XTA   HL3534812  31.793   0.143   4.443
    1XTA   HL3634813  31.964   0.151   4.394
    1XTA   HL3734814  31.719  -0.110   4.155
    1XTA   HL3834815  31.743   0.050   4.093
    1XTA   HL3934816  31.519   0.030   4.166
    1XTA   HL4034817  31.600   0.140   4.272
    1XTA   HL4134818  31.548  -0.021   4.325
    1XTA    CO834819  32.257   1.318   3.989
    1XTA    CO934820  32.461   1.387   4.129
    1XTA    OA634821  32.523   1.489   4.207
    1XTA   HL4234822  32.169   1.365   3.949
    1XTA   HL4334823  32.231   1.247   4.061
    1XTA   HL4434824  31.741  -0.116   4.425
    1XTA   HL4534825  31.863  -0.209   4.341
    1XTA   CO1034826  31.844  -0.117   4.387
    1XTA   CO1134827  31.977  -0.025   4.208
    1XTA    OA734828  31.938  -0.095   4.496
    1XTA   HL4634829  31.978  -0.124   4.150
    1XTA   HL4734830  32.058  -0.023   4.283
    1XTA   HL4834831  32.538   1.330   4.073
    1XTA   HL4934832  32.412   1.309   4.195
    1XTA     NT34833  31.642   5.487   6.217
    1XTA    CN134834  31.668   5.475   6.084
    1XTA     C134835  31.784   5.529   6.025
    1XTA     C234836  31.809   5.496   5.891
    1XTA     C334837  31.713   5.428   5.813
    1XTA     C434838  31.586   5.399   5.866
    1XTA     C534839  31.570   5.408   6.005
    1XTA    CN234840  31.630   5.372   6.281
    1XTA     C634841  31.514   5.344   6.362
    1XTA     C734842  31.494   5.219   6.426
    1XTA     C834843  31.596   5.118   6.394
    1XTA     C934844  31.716   5.154   6.331
    1XTA    C1034845  31.728   5.275   6.267
    1XTA    CN334846  31.660   5.600   6.294
    1XTA    C1134847  31.781   5.630   6.356
    1XTA    C1234848  31.789   5.739   6.440
    1XTA    C1334849  31.679   5.824   6.461
    1XTA    C1434850  31.557   5.800   6.388
    1XTA    C1534851  31.547   5.688   6.306
    1XTA     H134852  31.857   5.581   6.086
    1XTA     H234853  31.900   5.529   5.842
    1XTA     H334854  31.503   5.359   5.808
    1XTA     H434855  31.477   5.379   6.059
    1XTA     H534856  31.444   5.430   6.369
    1XTA     H634857  31.405   5.192   6.480
    1XTA     H734858  31.790   5.082   6.300
    1XTA     H834859  31.818   5.286   6.211
    1XTA     H934860  31.861   5.561   6.348
    1XTA    H1034861  31.879   5.766   6.490
    1XTA    H1134862  31.475   5.869   6.393
    1XTA    H1234863  31.462   5.667   6.237
    1XTA    OA134864  31.746   5.396   5.679
    1XTA    CO134865  31.651   5.312   5.614
    1XTA    OA234866  31.580   4.994   6.453
    1XTA    CO234867  31.663   4.890   6.394
    1XTA    CL134868  31.805   4.885   6.452
    1XTA    CL234869  31.878   4.770   6.383
    1XTA    CL334870  32.024   4.763   6.434
    1XTA    CL434871  32.083   4.631   6.379
    1XTA    CO334872  32.082   4.525   6.486
    1XTA    OA334873  31.946   4.490   6.511
    1XTA    CO434874  31.882   4.399   6.425
    1XTA    CT134875  31.755   4.336   6.493
    1XTA    CL534876  31.795   4.247   6.620
    1XTA    CL634877  31.880   4.128   6.586
    1XTA    OA434878  31.704   5.935   6.543
    1XTA    CO534879  31.598   6.027   6.567
    1XTA    CL734880  31.658   6.116   6.667
    1XTA    CL834881  31.568   6.231   6.718
    1XTA    CL934882  31.444   6.185   6.799
    1XTA   CL1034883  31.471   6.071   6.909
    1XTA    CO634884  31.579   6.100   7.021
    1XTA    OA534885  31.628   5.978   7.077
    1XTA    CO734886  31.716   5.905   6.998
    1XTA    CT234887  31.718   5.759   7.051
    1XTA   CL1134888  31.795   5.670   6.945
    1XTA   CL1234889  31.830   5.537   6.980
    1XTA    HL134890  31.547   5.343   5.615
    1XTA    HL234891  31.682   5.298   5.520
    1XTA    HL334892  31.647   5.220   5.672
    1XTA    HL434893  31.622   4.792   6.412
    1XTA    HL534894  31.669   4.887   6.283
    1XTA    HL634895  31.801   4.861   6.554
    1XTA    HL734896  31.865   4.976   6.460
    1XTA    HL834897  31.889   4.782   6.276
    1XTA    HL934898  31.816   4.680   6.396
    1XTA   HL1034899  32.075   4.853   6.399
    1XTA   HL1134900  32.021   4.764   6.543
    1XTA   HL1234901  32.195   4.649   6.355
    1XTA   HL1334902  32.046   4.606   6.275
    1XTA   HL1434903  32.139   4.439   6.451
    1XTA   HL1534904  32.135   4.574   6.572
    1XTA   HL1634905  31.855   4.434   6.323
    1XTA   HL1734906  31.962   4.329   6.396
    1XTA   HL1834907  31.714   4.219   6.682
    1XTA   HL1934908  31.862   4.312   6.679
    1XTA   HL2034909  31.965   4.167   6.532
    1XTA   HL2134910  31.834   4.053   6.524
    1XTA   HL2234911  31.909   4.080   6.676
    1XTA   HL2334912  31.515   5.961   6.602
    1XTA   HL2434913  31.565   6.089   6.482
    1XTA   HL2534914  31.700   6.066   6.756
    1XTA   HL2634915  31.747   6.154   6.628
    1XTA   HL2734916  31.626   6.292   6.784
    1XTA   HL2834917  31.538   6.283   6.623
    1XTA   HL2934918  31.383   6.259   6.851
    1XTA   HL3034919  31.365   6.153   6.720
    1XTA   HL3134920  31.382   6.047   6.964
    1XTA   HL3234921  31.485   5.978   6.864
    1XTA   HL3334922  31.665   6.160   6.986
    1XTA   HL3434923  31.531   6.163   7.096
    1XTA   HL3534924  31.815   5.947   7.004
    1XTA   HL3634925  31.684   5.905   6.891
    1XTA   HL3734926  31.887   5.725   6.911
    1XTA   HL3834927  31.725   5.677   6.857
    1XTA   HL3934928  31.894   5.537   7.064
    1XTA   HL4034929  31.889   5.496   6.898
    1XTA   HL4134930  31.729   5.495   6.999
    1XTA    CO834931  31.668   4.247   6.399
    1XTA    CO934932  31.660   4.450   6.549
    1XTA    OA634933  31.651   4.294   6.306
    1XTA   HL4234934  31.584   4.216   6.455
    1XTA   HL4334935  31.718   4.157   6.365
    1XTA   HL4434936  31.518   5.772   7.166
    1XTA   HL4534937  31.575   5.608   7.127
    1XTA   CO1034938  31.568   5.713   7.094
    1XTA   CO1134939  31.792   5.759   7.184
    1XTA    OA734940  31.754   5.637   7.250
    1XTA   HL4634941  31.901   5.750   7.163
    1XTA   HL4734942  31.773   5.846   7.246
    1XTA   HL4834943  31.729   4.550   6.617
    1XTA   HL4934944  31.601   4.494   6.461
    1XTA     NT34945  29.557   8.073   1.189
    1XTA    CN134946  29.658   8.037   1.106
    1XTA     C134947  29.764   8.124   1.080
    1XTA     C234948  29.865   8.081   0.987
    1XTA     C334949  29.858   7.965   0.919
    1XTA     C434950  29.761   7.875   0.960
    1XTA     C534951  29.654   7.911   1.050
    1XTA    CN234952  29.436   8.100   1.138
    1XTA     C634953  29.322   8.017   1.171
    1XTA     C734954  29.202   8.031   1.109
    1XTA     C834955  29.182   8.140   1.023
    1XTA     C934956  29.287   8.222   0.982
    1XTA    C1034957  29.415   8.199   1.038
    1XTA    CN334958  29.583   8.087   1.320
    1XTA    C1134959  29.638   7.978   1.396
    1XTA    C1234960  29.663   7.996   1.535
    1XTA    C1334961  29.624   8.109   1.609
    1XTA    C1434962  29.579   8.216   1.535
    1XTA    C1534963  29.562   8.201   1.394
    1XTA     H134964  29.758   8.224   1.123
    1XTA     H234965  29.948   8.143   0.969
    1XTA     H334966  29.745   7.773   0.937
    1XTA     H434967  29.590   7.829   1.081
    1XTA     H534968  29.342   7.933   1.237
    1XTA     H634969  29.133   7.957   1.128
    1XTA     H734970  29.272   8.299   0.907
    1XTA     H834971  29.496   8.266   1.016
    1XTA     H934972  29.656   7.881   1.351
    1XTA    H1034973  29.702   7.917   1.599
    1XTA    H1134974  29.567   8.316   1.579
    1XTA    H1234975  29.520   8.270   1.337
    1XTA    OA134976  29.959   7.934   0.826
    1XTA    CO134977  29.978   7.795   0.810
    1XTA    OA234978  29.052   8.169   0.979
    1XTA    CO234979  28.945   8.100   1.045
    1XTA    CL134980  28.814   8.166   0.988
    1XTA    CL234981  28.686   8.126   1.057
    1XTA    CL334982  28.665   8.178   1.208
    1XTA    CL434983  28.548   8.103   1.276
    1XTA    CO334984  28.566   8.096   1.431
    1XTA    OA334985  28.561   8.225   1.495
    1XTA    CO434986  28.433   8.252   1.542
    1XTA    CT134987  28.402   8.399   1.585
    1XTA    CL534988  28.509   8.446   1.689
    1XTA    CL634989  28.497   8.590   1.738
    1XTA    OA434990  29.664   8.122   1.740
    1XTA    CO534991  29.637   8.006   1.814
    1XTA    CL734992  29.645   8.051   1.968
    1XTA    CL834993  29.618   7.934   2.072
    1XTA    CL934994  29.695   7.801   2.042
    1XTA   CL1034995  29.642   7.696   2.136
    1XTA    CO634996  29.696   7.557   2.094
    1XTA    OA534997  29.673   7.540   1.960
    1XTA    CO734998  29.666   7.411   1.905
    1XTA    CT234999  29.631   7.407   1.756
    1XTA   CL1135000  29.502   7.495   1.733
    1XTA   CL1235001  29.369   7.456   1.802
    1XTA    HL135002  30.008   7.753   0.915
    1XTA    HL235003  29.887   7.752   0.778
    1XTA    HL335004  30.055   7.761   0.744
    1XTA    HL435005  28.952   8.001   1.010
    1XTA    HL535006  28.957   8.095   1.153
    1XTA    HL635007  28.813   8.144   0.881
    1XTA    HL735008  28.824   8.272   0.986
    1XTA    HL835009  28.683   8.016   1.048
    1XTA    HL935010  28.592   8.144   1.000
    1XTA   HL1035011  28.759   8.161   1.265
    1XTA   HL1135012  28.651   8.287   1.215
    1XTA   HL1235013  28.538   8.001   1.242
    1XTA   HL1335014  28.456   8.153   1.257
    1XTA   HL1435015  28.513   8.022   1.494
    1XTA   HL1535016  28.663   8.065   1.441
    1XTA   HL1635017  28.352   8.228   1.476
    1XTA   HL1735018  28.406   8.194   1.627
    1XTA   HL1835019  28.608   8.433   1.649
    1XTA   HL1935020  28.498   8.369   1.768
    1XTA   HL2035021  28.563   8.610   1.819
    1XTA   HL2135022  28.394   8.616   1.776
    1XTA   HL2235023  28.526   8.652   1.651
    1XTA   HL2335024  29.714   7.935   1.804
    1XTA   HL2435025  29.531   7.971   1.790
    1XTA   HL2535026  29.748   8.084   1.979
    1XTA   HL2635027  29.578   8.131   1.988
    1XTA   HL2735028  29.662   7.965   2.163
    1XTA   HL2835029  29.510   7.925   2.080
    1XTA   HL2935030  29.697   7.768   1.938
    1XTA   HL3035031  29.802   7.814   2.074
    1XTA   HL3135032  29.679   7.720   2.239
    1XTA   HL3235033  29.538   7.678   2.130
    1XTA   HL3335034  29.802   7.547   2.104
    1XTA   HL3435035  29.645   7.483   2.157
    1XTA   HL3535036  29.594   7.354   1.956
    1XTA   HL3635037  29.759   7.353   1.920
    1XTA   HL3735038  29.483   7.510   1.621
    1XTA   HL3835039  29.532   7.603   1.754
    1XTA   HL3935040  29.341   7.356   1.799
    1XTA   HL4035041  29.285   7.489   1.748
    1XTA   HL4135042  29.373   7.487   1.911
    1XTA    CO835043  28.267   8.424   1.640
    1XTA    CO935044  28.424   8.492   1.459
    1XTA    OA635045  28.350   8.472   1.375
    1XTA   HL4235046  28.275   8.422   1.747
    1XTA   HL4335047  28.226   8.559   1.621
    1XTA   HL4435048  29.710   7.202   1.729
    1XTA   HL4535049  29.534   7.214   1.752
    1XTA   CO1035050  29.614   7.262   1.700
    1XTA   CO1135051  29.742   7.475   1.683
    1XTA    OA735052  29.571   7.267   1.565
    1XTA   HL4635053  29.777   7.565   1.728
    1XTA   HL4735054  29.829   7.420   1.697
    1XTA   HL4835055  28.525   8.493   1.421
    1XTA   HL4935056  28.408   8.593   1.490
    1XTA     NT35057  32.723   5.129  -2.235
    1XTA    CN135058  32.723   5.214  -2.341
    1XTA     C135059  32.810   5.321  -2.350
    1XTA     C235060  32.810   5.404  -2.462
    1XTA     C335061  32.727   5.377  -2.576
    1XTA     C435062  32.651   5.257  -2.575
    1XTA     C535063  32.642   5.184  -2.455
    1XTA    CN235064  32.695   5.178  -2.111
    1XTA     C635065  32.796   5.226  -2.013
    1XTA     C735066  32.749   5.290  -1.899
    1XTA     C835067  32.614   5.293  -1.864
    1XTA     C935068  32.520   5.229  -1.949
    1XTA    C1035069  32.560   5.176  -2.073
    1XTA    CN335070  32.733   4.996  -2.248
    1XTA    C1135071  32.854   4.942  -2.286
    1XTA    C1235072  32.873   4.803  -2.303
    1XTA    C1335073  32.774   4.715  -2.269
    1XTA    C1435074  32.643   4.763  -2.233
    1XTA    C1535075  32.630   4.905  -2.220
    1XTA     H135076  32.864   5.343  -2.259
    1XTA     H235077  32.860   5.503  -2.468
    1XTA     H335078  32.589   5.229  -2.659
    1XTA     H435079  32.581   5.099  -2.452
    1XTA     H535080  32.900   5.215  -2.028
    1XTA     H635081  32.822   5.337  -1.836
    1XTA     H735082  32.416   5.222  -1.918
    1XTA     H835083  32.478   5.137  -2.141
    1XTA     H935084  32.936   5.006  -2.303
    1XTA    H1035085  32.964   4.759  -2.335
    1XTA    H1135086  32.561   4.704  -2.215
    1XTA    H1235087  32.530   4.942  -2.191
    1XTA    OA135088  32.752   5.446  -2.693
    1XTA    CO135089  32.642   5.463  -2.775
    1XTA    OA235090  32.573   5.343  -1.743
    1XTA    CO235091  32.482   5.260  -1.664
    1XTA    CL135092  32.335   5.296  -1.667
    1XTA    CL235093  32.317   5.426  -1.596
    1XTA    CL335094  32.167   5.463  -1.580
    1XTA    CL435095  32.138   5.593  -1.514
    1XTA    CO335096  32.180   5.602  -1.360
    1XTA    OA335097  32.134   5.488  -1.294
    1XTA    CO435098  32.186   5.454  -1.165
    1XTA    CT135099  32.164   5.305  -1.149
    1XTA    CL535100  32.224   5.219  -1.263
    1XTA    CL635101  32.373   5.242  -1.284
    1XTA    OA435102  32.803   4.581  -2.273
    1XTA    CO535103  32.730   4.502  -2.176
    1XTA    CL735104  32.602   4.436  -2.244
    1XTA    CL835105  32.552   4.306  -2.173
    1XTA    CL935106  32.542   4.292  -2.020
    1XTA   CL1035107  32.494   4.153  -1.979
    1XTA    CO635108  32.516   4.115  -1.829
    1XTA    OA535109  32.639   4.153  -1.784
    1XTA    CO735110  32.741   4.061  -1.825
    1XTA    CT235111  32.882   4.114  -1.793
    1XTA   CL1135112  32.985   4.011  -1.856
    1XTA   CL1235113  32.984   3.864  -1.819
    1XTA    HL135114  32.605   5.372  -2.807
    1XTA    HL235115  32.554   5.521  -2.732
    1XTA    HL335116  32.667   5.522  -2.866
    1XTA    HL435117  32.491   5.160  -1.707
    1XTA    HL535118  32.508   5.276  -1.563
    1XTA    HL635119  32.285   5.210  -1.615
    1XTA    HL735120  32.297   5.306  -1.766
    1XTA    HL835121  32.374   5.502  -1.648
    1XTA    HL935122  32.360   5.432  -1.498
    1XTA   HL1035123  32.114   5.456  -1.670
    1XTA   HL1135124  32.115   5.388  -1.518
    1XTA   HL1235125  32.031   5.617  -1.529
    1XTA   HL1335126  32.198   5.666  -1.570
    1XTA   HL1435127  32.288   5.602  -1.363
    1XTA   HL1535128  32.156   5.701  -1.319
    1XTA   HL1635129  32.296   5.481  -1.163
    1XTA   HL1735130  32.148   5.518  -1.081
    1XTA   HL1835131  32.180   5.245  -1.361
    1XTA   HL1935132  32.188   5.118  -1.246
    1XTA   HL2035133  32.442   5.199  -1.215
    1XTA   HL2135134  32.400   5.347  -1.293
    1XTA   HL2235135  32.410   5.206  -1.376
    1XTA   HL2335136  32.703   4.562  -2.090
    1XTA   HL2435137  32.799   4.418  -2.148
    1XTA   HL2535138  32.511   4.503  -2.248
    1XTA   HL2635139  32.633   4.420  -2.349
    1XTA   HL2735140  32.469   4.267  -2.231
    1XTA   HL2835141  32.626   4.226  -2.180
    1XTA   HL2935142  32.644   4.314  -1.990
    1XTA   HL3035143  32.484   4.376  -1.985
    1XTA   HL3135144  32.385   4.139  -2.004
    1XTA   HL3235145  32.538   4.077  -2.045
    1XTA   HL3335146  32.452   4.165  -1.768
    1XTA   HL3435147  32.500   4.014  -1.810
    1XTA   HL3535148  32.742   4.040  -1.931
    1XTA   HL3635149  32.711   3.964  -1.794
    1XTA   HL3735150  33.088   4.032  -1.830
    1XTA   HL3835151  32.986   4.025  -1.958
    1XTA   HL3935152  32.901   3.803  -1.862
    1XTA   HL4035153  32.986   3.834  -1.716
    1XTA   HL4135154  33.071   3.824  -1.863
    1XTA    CO835155  32.013   5.285  -1.140
    1XTA    CO935156  32.203   5.266  -1.003
    1XTA    OA635157  32.346   5.254  -1.005
    1XTA   HL4235158  31.962   5.313  -1.238
    1XTA   HL4335159  31.975   5.184  -1.129
    1XTA   HL4435160  32.914   4.025  -1.564
    1XTA   HL4535161  33.004   4.177  -1.625
    1XTA   CO1035162  32.903   4.140  -1.640
    1XTA   CO1135163  32.902   4.244  -1.872
    1XTA    OA735164  33.012   4.259  -1.882
    1XTA   HL4635165  32.855   4.237  -1.966
    1XTA   HL4735166  32.857   4.326  -1.814
    1XTA   HL4835167  32.162   5.168  -0.976
    1XTA   HL4935168  32.167   5.347  -0.936
    1XTA     NT35169  29.987   6.903   4.652
    1XTA    CN135170  30.076   6.916   4.555
    1XTA     C135171  30.063   6.842   4.437
    1XTA     C235172  30.163   6.866   4.334
    1XTA     C335173  30.273   6.948   4.352
    1XTA     C435174  30.279   7.025   4.469
    1XTA     C535175  30.191   7.004   4.573
    1XTA    CN235176  30.016   6.829   4.761
    1XTA     C635177  29.991   6.691   4.758
    1XTA     C735178  30.020   6.614   4.872
    1XTA     C835179  30.051   6.684   4.994
    1XTA     C935180  30.076   6.818   4.995
    1XTA    C1035181  30.065   6.891   4.875
    1XTA    CN335182  29.867   6.971   4.636
    1XTA    C1135183  29.866   7.114   4.618
    1XTA    C1235184  29.743   7.183   4.600
    1XTA    C1335185  29.621   7.109   4.602
    1XTA    C1435186  29.624   6.970   4.616
    1XTA    C1535187  29.748   6.903   4.636
    1XTA     H135188  29.992   6.761   4.427
    1XTA     H235189  30.160   6.807   4.248
    1XTA     H335190  30.365   7.091   4.482
    1XTA     H435191  30.198   7.057   4.666
    1XTA     H535192  29.960   6.643   4.661
    1XTA     H635193  30.021   6.502   4.867
    1XTA     H735194  30.122   6.871   5.078
    1XTA     H835195  30.099   6.989   4.876
    1XTA     H935196  29.953   7.175   4.622
    1XTA    H1035197  29.736   7.289   4.577
    1XTA    H1135198  29.534   6.905   4.621
    1XTA    H1235199  29.751   6.793   4.641
    1XTA    OA135200  30.372   6.971   4.264
    1XTA    CO135201  30.353   6.930   4.130
    1XTA    OA235202  30.060   6.609   5.106
    1XTA    CO235203  30.013   6.667   5.227
    1XTA    CL135204  29.997   6.575   5.348
    1XTA    CL235205  29.877   6.484   5.331
    1XTA    CL335206  29.876   6.373   5.434
    1XTA    CL435207  29.773   6.259   5.409
    1XTA    CO335208  29.823   6.168   5.305
    1XTA    OA335209  29.782   6.208   5.172
    1XTA    CO435210  29.812   6.107   5.073
    1XTA    CT135211  29.789   6.160   4.935
    1XTA    CL535212  29.640   6.176   4.917
    1XTA    CL635213  29.592   6.247   4.791
    1XTA    OA435214  29.502   7.179   4.591
    1XTA    CO535215  29.386   7.118   4.639
    1XTA    CL735216  29.323   7.075   4.511
    1XTA    CL835217  29.217   6.965   4.537
    1XTA    CL935218  29.165   6.918   4.394
    1XTA   CL1035219  29.097   6.778   4.393
    1XTA    CO635220  28.999   6.755   4.283
    1XTA    OA535221  28.950   6.626   4.300
    1XTA    CO735222  28.843   6.588   4.215
    1XTA    CT235223  28.852   6.427   4.207
    1XTA   CL1135224  28.993   6.378   4.160
    1XTA   CL1235225  29.023   6.428   4.018
    1XTA    HL135226  30.421   6.968   4.054
    1XTA    HL235227  30.357   6.823   4.123
    1XTA    HL335228  30.258   6.963   4.102
    1XTA    HL435229  30.084   6.741   5.252
    1XTA    HL535230  29.921   6.720   5.217
    1XTA    HL635231  29.988   6.633   5.442
    1XTA    HL735232  30.093   6.520   5.352
    1XTA    HL835233  29.874   6.448   5.229
    1XTA    HL935234  29.780   6.527   5.344
    1XTA   HL1035235  29.971   6.334   5.430
    1XTA   HL1135236  29.859   6.411   5.532
    1XTA   HL1235237  29.673   6.296   5.375
    1XTA   HL1335238  29.747   6.208   5.498
    1XTA   HL1435239  29.933   6.153   5.319
    1XTA   HL1535240  29.778   6.065   5.323
    1XTA   HL1635241  29.921   6.081   5.082
    1XTA   HL1735242  29.755   6.013   5.099
    1XTA   HL1835243  29.621   6.246   4.999
    1XTA   HL1935244  29.585   6.080   4.942
    1XTA   HL2035245  29.640   6.208   4.701
    1XTA   HL2135246  29.605   6.355   4.801
    1XTA   HL2235247  29.487   6.240   4.773
    1XTA   HL2335248  29.317   7.189   4.682
    1XTA   HL2435249  29.407   7.047   4.715
    1XTA   HL2535250  29.268   7.155   4.458
    1XTA   HL2635251  29.402   7.033   4.450
    1XTA   HL2735252  29.260   6.887   4.598
    1XTA   HL2835253  29.132   7.008   4.590
    1XTA   HL2935254  29.101   7.002   4.352
    1XTA   HL3035255  29.252   6.916   4.325
    1XTA   HL3135256  29.180   6.707   4.383
    1XTA   HL3235257  29.044   6.751   4.481
    1XTA   HL3335258  28.917   6.832   4.272
    1XTA   HL3435259  29.058   6.753   4.190
    1XTA   HL3535260  28.837   6.628   4.116
    1XTA   HL3635261  28.755   6.621   4.260
    1XTA   HL3735262  29.001   6.268   4.164
    1XTA   HL3835263  29.067   6.422   4.229
    1XTA   HL3935264  28.949   6.395   3.940
    1XTA   HL4035265  29.114   6.379   3.979
    1XTA   HL4135266  29.045   6.533   4.022
    1XTA    CO835267  29.844   6.051   4.845
    1XTA    CO935268  29.870   6.294   4.916
    1XTA    OA635269  29.780   5.928   4.891
    1XTA   HL4235270  29.951   6.043   4.861
    1XTA   HL4335271  29.827   6.071   4.737
    1XTA   HL4435272  28.762   6.412   4.030
    1XTA   HL4535273  28.763   6.262   4.094
    1XTA   CO1035274  28.744   6.368   4.118
    1XTA   CO1135275  28.821   6.376   4.349
    1XTA    OA735276  28.609   6.379   4.163
    1XTA   HL4635277  28.783   6.276   4.337
    1XTA   HL4735278  28.749   6.429   4.400
    1XTA   HL4835279  29.842   6.329   4.817
    1XTA   HL4935280  29.838   6.364   4.996
    1XTA     NT35281  28.454   5.761   3.423
    1XTA    CN135282  28.515   5.757   3.302
    1XTA     C135283  28.624   5.673   3.284
    1XTA     C235284  28.680   5.662   3.156
    1XTA     C335285  28.603   5.701   3.037
    1XTA     C435286  28.480   5.773   3.060
    1XTA     C535287  28.436   5.793   3.194
    1XTA    CN235288  28.344   5.692   3.450
    1XTA     C635289  28.339   5.548   3.452
    1XTA     C735290  28.210   5.486   3.478
    1XTA     C835291  28.093   5.556   3.506
    1XTA     C935292  28.100   5.690   3.518
    1XTA    C1035293  28.223   5.757   3.486
    1XTA    CN335294  28.514   5.826   3.523
    1XTA    C1135295  28.582   5.753   3.623
    1XTA    C1235296  28.643   5.821   3.734
    1XTA    C1335297  28.614   5.962   3.741
    1XTA    C1435298  28.556   6.028   3.632
    1XTA    C1535299  28.510   5.967   3.515
    1XTA     H135300  28.673   5.638   3.375
    1XTA     H235301  28.780   5.625   3.142
    1XTA     H335302  28.423   5.794   2.972
    1XTA     H435303  28.338   5.844   3.205
    1XTA     H535304  28.418   5.480   3.440
    1XTA     H635305  28.200   5.381   3.474
    1XTA     H735306  28.006   5.743   3.532
    1XTA     H835307  28.217   5.866   3.483
    1XTA     H935308  28.589   5.640   3.624
    1XTA    H1035309  28.694   5.762   3.804
    1XTA    H1135310  28.543   6.131   3.632
    1XTA    H1235311  28.455   6.018   3.429
    1XTA    OA135312  28.656   5.672   2.916
    1XTA    CO135313  28.604   5.736   2.804
    1XTA    OA235314  27.980   5.480   3.527
    1XTA    CO235315  27.856   5.551   3.540
    1XTA    CL135316  27.834   5.603   3.682
    1XTA    CL235317  27.701   5.679   3.701
    1XTA    CL335318  27.706   5.830   3.665
    1XTA    CL435319  27.805   5.910   3.745
    1XTA    CO335320  27.911   5.990   3.665
    1XTA    OA335321  28.020   6.014   3.750
    1XTA    CO435322  28.106   5.901   3.773
    1XTA    CT135323  28.175   5.917   3.911
    1XTA    CL535324  28.068   5.908   4.023
    1XTA    CL635325  27.993   5.771   4.039
    1XTA    OA435326  28.652   6.039   3.849
    1XTA    CO535327  28.742   5.995   3.947
    1XTA    CL735328  28.672   5.948   4.072
    1XTA    CL835329  28.771   5.876   4.163
    1XTA    CL935330  28.871   5.975   4.223
    1XTA   CL1035331  28.974   5.912   4.317
    1XTA    CO635332  29.030   6.026   4.398
    1XTA    OA535333  29.124   6.080   4.312
    1XTA    CO735334  29.217   6.171   4.368
    1XTA    CT235335  29.340   6.178   4.273
    1XTA   CL1135336  29.443   6.272   4.331
    1XTA   CL1235337  29.377   6.397   4.398
    1XTA    HL135338  28.651   5.692   2.720
    1XTA    HL235339  28.503   5.701   2.809
    1XTA    HL335340  28.620   5.852   2.812
    1XTA    HL435341  27.848   5.627   3.458
    1XTA    HL535342  27.777   5.487   3.523
    1XTA    HL635343  27.921   5.666   3.706
    1XTA    HL735344  27.851   5.513   3.743
    1XTA    HL835345  27.664   5.679   3.805
    1XTA    HL935346  27.623   5.631   3.643
    1XTA   HL1035347  27.720   5.838   3.551
    1XTA   HL1135348  27.609   5.872   3.702
    1XTA   HL1235349  27.854   5.853   3.822
    1XTA   HL1335350  27.745   5.981   3.810
    1XTA   HL1435351  27.939   5.936   3.576
    1XTA   HL1535352  27.866   6.083   3.631
    1XTA   HL1635353  28.055   5.806   3.780
    1XTA   HL1735354  28.182   5.876   3.697
    1XTA   HL1835355  27.992   5.990   4.024
    1XTA   HL1935356  28.124   5.916   4.111
    1XTA   HL2035357  27.977   5.732   3.945
    1XTA   HL2135358  27.901   5.787   4.088
    1XTA   HL2235359  28.054   5.711   4.100
    1XTA   HL2335360  28.811   6.075   3.969
    1XTA   HL2435361  28.801   5.912   3.910
    1XTA   HL2535362  28.630   6.036   4.123
    1XTA   HL2635363  28.591   5.884   4.055
    1XTA   HL2735364  28.711   5.822   4.243
    1XTA   HL2835365  28.811   5.799   4.093
    1XTA   HL2935366  28.922   6.025   4.143
    1XTA   HL3035367  28.811   6.053   4.275
    1XTA   HL3135368  28.924   5.850   4.385
    1XTA   HL3235369  29.040   5.866   4.247
    1XTA   HL3335370  28.953   6.101   4.422
    1XTA   HL3435371  29.070   5.991   4.492
    1XTA   HL3535372  29.252   6.121   4.462
    1XTA   HL3635373  29.173   6.269   4.391
    1XTA   HL3735374  29.511   6.296   4.251
    1XTA   HL3835375  29.507   6.230   4.407
    1XTA   HL3935376  29.451   6.469   4.417
    1XTA   HL4035377  29.333   6.373   4.499
    1XTA   HL4135378  29.297   6.434   4.330
    1XTA    CO835379  28.240   6.056   3.917
    1XTA    CO935380  28.289   5.818   3.943
    1XTA    OA635381  28.264   5.713   3.911
    1XTA   HL4235382  28.309   6.053   3.838
    1XTA   HL4335383  28.136   6.142   3.877
    1XTA   HL4435384  29.194   6.166   4.109
    1XTA   HL4535385  29.254   6.333   4.124
    1XTA   CO1035386  29.282   6.225   4.134
    1XTA   CO1135387  29.414   6.038   4.255
    1XTA    OA735388  29.374   6.206   4.023
    1XTA   HL4635389  29.339   5.976   4.217
    1XTA   HL4735390  29.484   6.048   4.174
    1XTA   HL4835391  28.304   5.831   4.053
    1XTA   HL4935392  28.379   5.861   3.898
    1XTA     NT35393  25.970   6.060   1.155
    1XTA    CN135394  25.921   5.953   1.223
    1XTA     C135395  25.787   5.911   1.196
    1XTA     C235396  25.734   5.804   1.270
    1XTA     C335397  25.814   5.733   1.355
    1XTA     C435398  25.942   5.775   1.385
    1XTA     C535399  25.994   5.886   1.322
    1XTA    CN235400  25.998   6.038   1.024
    1XTA     C635401  25.916   6.082   0.921
    1XTA     C735402  25.955   6.073   0.784
    1XTA     C835403  26.086   6.028   0.754
    1XTA     C935404  26.168   5.980   0.856
    1XTA    C1035405  26.121   5.976   0.988
    1XTA    CN335406  25.989   6.176   1.218
    1XTA    C1135407  25.894   6.233   1.314
    1XTA    C1235408  25.912   6.362   1.370
    1XTA    C1335409  26.041   6.429   1.356
    1XTA    C1435410  26.136   6.364   1.271
    1XTA    C1535411  26.111   6.244   1.201
    1XTA     H135412  25.723   5.956   1.121
    1XTA     H235413  25.634   5.767   1.239
    1XTA     H335414  26.001   5.708   1.459
    1XTA     H435415  26.094   5.911   1.346
    1XTA     H535416  25.817   6.123   0.943
    1XTA     H635417  25.883   6.110   0.714
    1XTA     H735418  26.264   5.939   0.830
    1XTA     H835419  26.194   5.945   1.062
    1XTA     H935420  25.809   6.179   1.345
    1XTA    H1035421  25.846   6.411   1.442
    1XTA    H1135422  26.236   6.401   1.272
    1XTA    H1235423  26.187   6.208   1.139
    1XTA    OA135424  25.755   5.627   1.414
    1XTA    CO135425  25.832   5.507   1.440
    1XTA    OA235426  26.118   6.025   0.618
    1XTA    CO235427  26.241   5.974   0.576
    1XTA    CL135428  26.347   6.077   0.586
    1XTA    CL235429  26.490   6.045   0.550
    1XTA    CL335430  26.552   5.930   0.627
    1XTA    CL435431  26.577   5.964   0.774
    1XTA    CO335432  26.610   5.846   0.858
    1XTA    OA335433  26.603   5.886   1.000
    1XTA    CO435434  26.644   5.787   1.094
    1XTA    CT135435  26.623   5.827   1.250
    1XTA    CL535436  26.488   5.899   1.274
    1XTA    CL635437  26.446   5.932   1.420
    1XTA    OA435438  26.079   6.549   1.410
    1XTA    CO535439  25.975   6.626   1.464
    1XTA    CL735440  26.028   6.757   1.528
    1XTA    CL835441  26.148   6.745   1.617
    1XTA    CL935442  26.211   6.870   1.662
    1XTA   CL1035443  26.351   6.837   1.707
    1XTA    CO635444  26.420   6.956   1.760
    1XTA    OA535445  26.441   7.045   1.649
    1XTA    CO735446  26.568   7.108   1.653
    1XTA    CT235447  26.593   7.180   1.520
    1XTA   CL1135448  26.521   7.112   1.401
    1XTA   CL1235449  26.524   7.180   1.260
    1XTA    HL135450  25.890   5.471   1.354
    1XTA    HL235451  25.902   5.516   1.521
    1XTA    HL335452  25.766   5.422   1.473
    1XTA    HL435453  26.253   5.878   0.628
    1XTA    HL535454  26.227   5.951   0.468
    1XTA    HL635455  26.353   6.114   0.685
    1XTA    HL735456  26.328   6.165   0.525
    1XTA    HL835457  26.550   6.133   0.561
    1XTA    HL935458  26.489   6.012   0.447
    1XTA   HL1035459  26.489   5.842   0.621
    1XTA   HL1135460  26.654   5.913   0.594
    1XTA   HL1235461  26.493   6.011   0.821
    1XTA   HL1335462  26.660   6.033   0.781
    1XTA   HL1435463  26.556   5.756   0.833
    1XTA   HL1535464  26.709   5.821   0.836
    1XTA   HL1635465  26.574   5.711   1.076
    1XTA   HL1735466  26.741   5.749   1.064
    1XTA   HL1835467  26.404   5.848   1.229
    1XTA   HL1935468  26.488   6.002   1.225
    1XTA   HL2035469  26.347   5.954   1.441
    1XTA   HL2135470  26.507   5.999   1.475
    1XTA   HL2235471  26.460   5.844   1.478
    1XTA   HL2335472  25.920   6.567   1.541
    1XTA   HL2435473  25.905   6.641   1.379
    1XTA   HL2535474  26.051   6.818   1.444
    1XTA   HL2635475  25.954   6.805   1.594
    1XTA   HL2735476  26.125   6.679   1.697
    1XTA   HL2835477  26.209   6.676   1.559
    1XTA   HL2935478  26.209   6.951   1.586
    1XTA   HL3035479  26.158   6.910   1.747
    1XTA   HL3135480  26.351   6.751   1.771
    1XTA   HL3235481  26.418   6.803   1.626
    1XTA   HL3335482  26.346   7.004   1.831
    1XTA   HL3435483  26.519   6.925   1.802
    1XTA   HL3535484  26.641   7.030   1.652
    1XTA   HL3635485  26.579   7.161   1.750
    1XTA   HL3735486  26.413   7.109   1.414
    1XTA   HL3835487  26.556   7.008   1.386
    1XTA   HL3935488  26.625   7.177   1.219
    1XTA   HL4035489  26.482   7.283   1.265
    1XTA   HL4135490  26.449   7.131   1.194
    1XTA    CO835491  26.745   5.911   1.289
    1XTA    CO935492  26.621   5.692   1.332
    1XTA    OA635493  26.529   5.597   1.267
    1XTA   HL4235494  26.745   5.947   1.391
    1XTA   HL4335495  26.836   5.856   1.279
    1XTA   HL4435496  26.771   7.282   1.438
    1XTA   HL4535497  26.795   7.201   1.589
    1XTA   CO1035498  26.749   7.193   1.495
    1XTA   CO1135499  26.541   7.325   1.550
    1XTA    OA735500  26.776   7.099   1.437
    1XTA   HL4635501  26.611   7.395   1.652
    1XTA   HL4735502  26.562   7.386   1.465
    1XTA   HL4835503  26.613   5.697   1.436
    1XTA   HL4935504  26.718   5.645   1.311
    1XTA     NT35505  28.525   5.364   6.696
    1XTA    CN135506  28.591   5.300   6.792
    1XTA     C135507  28.710   5.340   6.845
    1XTA     C235508  28.786   5.258   6.929
    1XTA     C335509  28.751   5.125   6.960
    1XTA     C435510  28.627   5.086   6.918
    1XTA     C535511  28.550   5.167   6.830
    1XTA    CN235512  28.434   5.458   6.726
    1XTA     C635513  28.306   5.450   6.677
    1XTA     C735514  28.220   5.560   6.685
    1XTA     C835515  28.255   5.677   6.761
    1XTA     C935516  28.382   5.671   6.821
    1XTA    C1035517  28.468   5.565   6.811
    1XTA    CN335518  28.558   5.346   6.570
    1XTA    C1135519  28.515   5.233   6.506
    1XTA    C1235520  28.562   5.203   6.374
    1XTA    C1335521  28.644   5.293   6.311
    1XTA    C1435522  28.689   5.407   6.384
    1XTA    C1535523  28.653   5.431   6.519
    1XTA     H135524  28.737   5.442   6.815
    1XTA     H235525  28.881   5.294   6.966
    1XTA     H335526  28.594   4.984   6.938
    1XTA     H435527  28.459   5.125   6.791
    1XTA     H535528  28.277   5.367   6.619
    1XTA     H635529  28.125   5.555   6.632
    1XTA     H735530  28.419   5.755   6.882
    1XTA     H835531  28.562   5.575   6.852
    1XTA     H935532  28.453   5.160   6.554
    1XTA    H1035533  28.542   5.107   6.333
    1XTA    H1135534  28.768   5.474   6.342
    1XTA    H1235535  28.683   5.515   6.576
    1XTA    OA135536  28.833   5.038   7.027
    1XTA    CO135537  28.965   5.083   7.039
    1XTA    OA235538  28.158   5.780   6.773
    1XTA    CO235539  28.213   5.907   6.809
    1XTA    CL135540  28.298   5.967   6.703
    1XTA    CL235541  28.356   6.099   6.743
    1XTA    CL335542  28.504   6.098   6.788
    1XTA    CL435543  28.519   6.030   6.919
    1XTA    CO335544  28.630   6.101   7.007
    1XTA    OA335545  28.599   6.244   7.042
    1XTA    CO435546  28.476   6.260   7.107
    1XTA    CT135547  28.466   6.386   7.196
    1XTA    CL535548  28.483   6.511   7.103
    1XTA    CL635549  28.459   6.648   7.172
    1XTA    OA435550  28.684   5.265   6.187
    1XTA    CO535551  28.705   5.379   6.108
    1XTA    CL735552  28.703   5.346   5.957
    1XTA    CL835553  28.759   5.459   5.869
    1XTA    CL935554  28.731   5.425   5.724
    1XTA   CL1035555  28.794   5.536   5.632
    1XTA    CO635556  28.746   5.526   5.486
    1XTA    OA535557  28.606   5.554   5.492
    1XTA    CO735558  28.534   5.526   5.378
    1XTA    CT235559  28.395   5.474   5.424
    1XTA   CL1135560  28.391   5.329   5.485
    1XTA   CL1235561  28.471   5.229   5.420
    1XTA    HL135562  28.978   5.166   7.107
    1XTA    HL235563  29.039   5.020   7.079
    1XTA    HL335564  29.015   5.114   6.941
    1XTA    HL435565  28.137   5.982   6.824
    1XTA    HL535566  28.267   5.892   6.907
    1XTA    HL635567  28.247   5.992   6.617
    1XTA    HL735568  28.381   5.907   6.677
    1XTA    HL835569  28.294   6.157   6.806
    1XTA    HL935570  28.365   6.149   6.647
    1XTA   HL1035571  28.573   6.050   6.714
    1XTA   HL1135572  28.551   6.197   6.796
    1XTA   HL1235573  28.529   5.927   6.903
    1XTA   HL1335574  28.436   6.030   6.981
    1XTA   HL1435575  28.644   6.045   7.105
    1XTA   HL1535576  28.730   6.097   6.961
    1XTA   HL1635577  28.388   6.257   7.042
    1XTA   HL1735578  28.454   6.182   7.179
    1XTA   HL1835579  28.415   6.507   7.021
    1XTA   HL1935580  28.588   6.505   7.072
    1XTA   HL2035581  28.354   6.671   7.203
    1XTA   HL2135582  28.481   6.731   7.104
    1XTA   HL2235583  28.521   6.680   7.253
    1XTA   HL2335584  28.797   5.420   6.138
    1XTA   HL2435585  28.627   5.456   6.126
    1XTA   HL2535586  28.765   5.256   5.941
    1XTA   HL2635587  28.598   5.321   5.925
    1XTA   HL2735588  28.710   5.552   5.895
    1XTA   HL2835589  28.866   5.461   5.891
    1XTA   HL2935590  28.782   5.337   5.690
    1XTA   HL3035591  28.621   5.411   5.709
    1XTA   HL3135592  28.775   5.636   5.669
    1XTA   HL3235593  28.903   5.519   5.631
    1XTA   HL3335594  28.790   5.612   5.427
    1XTA   HL3435595  28.769   5.433   5.434
    1XTA   HL3535596  28.579   5.448   5.316
    1XTA   HL3635597  28.516   5.615   5.321
    1XTA   HL3735598  28.288   5.298   5.483
    1XTA   HL3835599  28.405   5.330   5.597
    1XTA   HL3935600  28.580   5.254   5.432
    1XTA   HL4035601  28.451   5.228   5.317
    1XTA   HL4135602  28.459   5.123   5.451
    1XTA    CO835603  28.576   6.365   7.302
    1XTA    CO935604  28.323   6.391   7.266
    1XTA    OA635605  28.292   6.288   7.311
    1XTA   HL4235606  28.536   6.435   7.384
    1XTA   HL4335607  28.569   6.234   7.343
    1XTA   HL4435608  28.321   5.562   5.245
    1XTA   HL4535609  28.236   5.414   5.275
    1XTA   CO1035610  28.285   5.501   5.323
    1XTA   CO1135611  28.322   5.577   5.512
    1XTA    OA735612  28.208   5.571   5.420
    1XTA   HL4635613  28.296   5.545   5.611
    1XTA   HL4735614  28.375   5.667   5.525
    1XTA   HL4835615  28.257   6.414   7.190
    1XTA   HL4935616  28.323   6.472   7.337
    1XTA     NT35617  29.910   7.701   6.006
    1XTA    CN135618  30.040   7.714   5.957
    1XTA     C135619  30.086   7.607   5.872
    1XTA     C235620  30.218   7.606   5.826
    1XTA     C335621  30.304   7.706   5.850
    1XTA     C435622  30.267   7.814   5.940
    1XTA     C535623  30.129   7.820   5.990
    1XTA    CN235624  29.893   7.613   6.104
    1XTA     C635625  29.923   7.651   6.233
    1XTA     C735626  29.922   7.557   6.340
    1XTA     C835627  29.895   7.425   6.316
    1XTA     C935628  29.859   7.385   6.181
    1XTA    C1035629  29.866   7.477   6.074
    1XTA    CN335630  29.802   7.749   5.939
    1XTA    C1135631  29.789   7.717   5.804
    1XTA    C1235632  29.685   7.782   5.732
    1XTA    C1335633  29.597   7.880   5.787
    1XTA    C1435634  29.615   7.909   5.923
    1XTA    C1535635  29.713   7.842   5.998
    1XTA     H135636  30.037   7.519   5.846
    1XTA     H235637  30.252   7.527   5.764
    1XTA     H335638  30.332   7.891   5.964
    1XTA     H435639  30.106   7.907   6.052
    1XTA     H535640  29.965   7.755   6.243
    1XTA     H635641  29.977   7.583   6.436
    1XTA     H735642  29.841   7.282   6.156
    1XTA     H835643  29.841   7.450   5.974
    1XTA     H935644  29.856   7.655   5.753
    1XTA    H1035645  29.676   7.762   5.623
    1XTA    H1135646  29.549   7.979   5.975
    1XTA    H1235647  29.729   7.875   6.100
    1XTA    OA135648  30.438   7.699   5.819
    1XTA    CO135649  30.470   7.606   5.720
    1XTA    OA235650  29.904   7.339   6.424
    1XTA    CO235651  29.856   7.210   6.406
    1XTA    CL135652  29.854   7.149   6.550
    1XTA    CL235653  29.748   7.225   6.640
    1XTA    CL335654  29.612   7.232   6.571
    1XTA    CL435655  29.553   7.092   6.542
    1XTA    CO335656  29.420   7.101   6.468
    1XTA    OA335657  29.356   6.982   6.440
    1XTA    CO435658  29.301   6.909   6.545
    1XTA    CT135659  29.223   6.792   6.493
    1XTA    CL535660  29.090   6.848   6.443
    1XTA    CL635661  28.993   6.750   6.376
    1XTA    OA435662  29.501   7.944   5.712
    1XTA    CO535663  29.429   7.854   5.625
    1XTA    CL735664  29.290   7.913   5.603
    1XTA    CL835665  29.205   7.824   5.513
    1XTA    CL935666  29.056   7.864   5.519
    1XTA   CL1035667  28.995   7.845   5.658
    1XTA    CO635668  28.848   7.869   5.662
    1XTA    OA535669  28.810   7.830   5.790
    1XTA    CO735670  28.696   7.742   5.808
    1XTA    CT235671  28.642   7.750   5.947
    1XTA   CL1135672  28.541   7.871   5.970
    1XTA   CL1235673  28.608   8.012   5.949
    1XTA    HL135674  30.467   7.505   5.762
    1XTA    HL235675  30.413   7.613   5.629
    1XTA    HL335676  30.577   7.620   5.695
    1XTA    HL435677  29.756   7.228   6.355
    1XTA    HL535678  29.922   7.159   6.333
    1XTA    HL635679  29.952   7.162   6.587
    1XTA    HL735680  29.833   7.043   6.551
    1XTA    HL835681  29.783   7.330   6.648
    1XTA    HL935682  29.748   7.187   6.740
    1XTA   HL1035683  29.551   7.292   6.637
    1XTA   HL1135684  29.607   7.294   6.481
    1XTA   HL1235685  29.529   7.033   6.627
    1XTA   HL1335686  29.621   7.029   6.474
    1XTA   HL1435687  29.355   7.167   6.530
    1XTA   HL1535688  29.435   7.148   6.375
    1XTA   HL1635689  29.373   6.876   6.626
    1XTA   HL1735690  29.221   6.967   6.593
    1XTA   HL1835691  29.114   6.922   6.371
    1XTA   HL1935692  29.050   6.899   6.529
    1XTA   HL2035693  29.036   6.691   6.293
    1XTA   HL2135694  28.918   6.802   6.325
    1XTA   HL2235695  28.948   6.676   6.448
    1XTA   HL2335696  29.409   7.754   5.669
    1XTA   HL2435697  29.480   7.862   5.540
    1XTA   HL2535698  29.255   7.903   5.703
    1XTA   HL2635699  29.296   8.017   5.581
    1XTA   HL2735700  29.228   7.850   5.407
    1XTA   HL2835701  29.211   7.721   5.532
    1XTA   HL2935702  29.046   7.965   5.492
    1XTA   HL3035703  29.001   7.807   5.437
    1XTA   HL3135704  29.004   7.734   5.679
    1XTA   HL3235705  29.043   7.910   5.729
    1XTA   HL3335706  28.835   7.973   5.644
    1XTA   HL3435707  28.799   7.813   5.576
    1XTA   HL3535708  28.731   7.642   5.773
    1XTA   HL3635709  28.617   7.763   5.736
    1XTA   HL3735710  28.489   7.859   6.064
    1XTA   HL3835711  28.469   7.872   5.887
    1XTA   HL3935712  28.687   8.025   6.025
    1XTA   HL4035713  28.527   8.084   5.963
    1XTA   HL4135714  28.658   8.031   5.859
    1XTA    CO835715  29.197   6.678   6.592
    1XTA    CO935716  29.303   6.720   6.380
    1XTA    OA635717  29.094   6.709   6.689
    1XTA   HL4235718  29.294   6.651   6.647
    1XTA   HL4335719  29.165   6.587   6.540
    1XTA   HL4435720  28.829   7.692   6.022
    1XTA   HL4535721  28.791   7.857   6.052
    1XTA   CO1035722  28.752   7.757   6.052
    1XTA   CO1135723  28.574   7.615   5.979
    1XTA    OA735724  28.713   7.744   6.152
    1XTA   HL4635725  28.533   7.627   6.117
    1XTA   HL4735726  28.646   7.531   5.980
    1XTA   HL4835727  29.400   6.693   6.419
    1XTA   HL4935728  29.300   6.791   6.300
    1XTA     NT35729  33.347   6.514   7.570
    1XTA    CN135730  33.458   6.560   7.630
    1XTA     C135731  33.570   6.598   7.549
    1XTA     C235732  33.688   6.638   7.618
    1XTA     C335733  33.695   6.642   7.765
    1XTA     C435734  33.578   6.609   7.836
    1XTA     C535735  33.461   6.570   7.770
    1XTA    CN235736  33.362   6.421   7.469
    1XTA     C635737  33.368   6.280   7.491
    1XTA     C735738  33.394   6.191   7.383
    1XTA     C835739  33.398   6.245   7.250
    1XTA     C935740  33.382   6.381   7.229
    1XTA    C1035741  33.357   6.467   7.339
    1XTA    CN335742  33.221   6.554   7.587
    1XTA    C1135743  33.135   6.469   7.652
    1XTA    C1235744  33.003   6.512   7.682
    1XTA    C1335745  32.952   6.636   7.635
    1XTA    C1435746  33.036   6.719   7.555
    1XTA    C1535747  33.168   6.676   7.531
    1XTA     H135748  33.567   6.618   7.440
    1XTA     H235749  33.771   6.662   7.556
    1XTA     H335750  33.572   6.606   7.944
    1XTA     H435751  33.377   6.539   7.829
    1XTA     H535752  33.366   6.244   7.590
    1XTA     H635753  33.406   6.083   7.403
    1XTA     H735754  33.370   6.413   7.130
    1XTA     H835755  33.348   6.577   7.328
    1XTA     H935756  33.177   6.372   7.682
    1XTA    H1035757  32.931   6.453   7.739
    1XTA    H1135758  32.993   6.801   7.509
    1XTA    H1235759  33.232   6.730   7.462
    1XTA    OA135760  33.809   6.683   7.830
    1XTA    CO135761  33.931   6.669   7.754
    1XTA    OA235762  33.419   6.159   7.143
    1XTA    CO235763  33.313   6.092   7.091
    1XTA    CL135764  33.325   6.070   6.938
    1XTA    CL235765  33.213   5.981   6.891
    1XTA    CL335766  33.081   6.059   6.880
    1XTA    CL435767  32.971   5.984   6.800
    1XTA    CO335768  32.972   5.994   6.652
    1XTA    OA335769  32.883   6.101   6.597
    1XTA    CO435770  32.910   6.230   6.632
    1XTA    CT135771  32.789   6.319   6.600
    1XTA    CL535772  32.791   6.460   6.658
    1XTA    CL635773  32.925   6.526   6.637
    1XTA    OA435774  32.822   6.669   7.670
    1XTA    CO535775  32.722   6.609   7.590
    1XTA    CL735776  32.600   6.587   7.686
    1XTA    CL835777  32.479   6.524   7.620
    1XTA    CL935778  32.387   6.479   7.724
    1XTA   CL1035779  32.322   6.594   7.803
    1XTA    CO635780  32.199   6.667   7.736
    1XTA    OA535781  32.095   6.575   7.716
    1XTA    CO735782  32.023   6.559   7.834
    1XTA    CT235783  31.914   6.446   7.822
    1XTA   CL1135784  31.798   6.491   7.721
    1XTA   CL1235785  31.714   6.607   7.767
    1XTA    HL135786  34.020   6.674   7.815
    1XTA    HL235787  33.947   6.572   7.702
    1XTA    HL335788  33.922   6.750   7.683
    1XTA    HL435789  33.302   5.997   7.146
    1XTA    HL535790  33.235   6.163   7.106
    1XTA    HL635791  33.427   6.038   6.910
    1XTA    HL735792  33.318   6.177   6.897
    1XTA    HL835793  33.204   5.901   6.951
    1XTA    HL935794  33.240   5.942   6.789
    1XTA   HL1035795  33.041   6.093   6.977
    1XTA   HL1135796  33.106   6.150   6.832
    1XTA   HL1235797  32.869   6.020   6.824
    1XTA   HL1335798  32.985   5.878   6.829
    1XTA   HL1435799  33.069   6.015   6.624
    1XTA   HL1535800  32.928   5.901   6.610
    1XTA   HL1635801  32.923   6.232   6.735
    1XTA   HL1735802  33.005   6.265   6.596
    1XTA   HL1835803  32.778   6.457   6.768
    1XTA   HL1935804  32.714   6.512   6.600
    1XTA   HL2035805  32.916   6.628   6.684
    1XTA   HL2135806  32.948   6.550   6.535
    1XTA   HL2235807  33.008   6.478   6.681
    1XTA   HL2335808  32.761   6.515   7.541
    1XTA   HL2435809  32.691   6.679   7.512
    1XTA   HL2535810  32.632   6.522   7.770
    1XTA   HL2635811  32.571   6.684   7.736
    1XTA   HL2735812  32.439   6.599   7.552
    1XTA   HL2835813  32.533   6.451   7.566
    1XTA   HL2935814  32.311   6.401   7.693
    1XTA   HL3035815  32.435   6.427   7.803
    1XTA   HL3135816  32.296   6.559   7.902
    1XTA   HL3235817  32.398   6.670   7.837
    1XTA   HL3335818  32.172   6.759   7.782
    1XTA   HL3435819  32.233   6.701   7.637
    1XTA   HL3535820  31.987   6.660   7.855
    1XTA   HL3635821  32.092   6.537   7.918
    1XTA   HL3735822  31.736   6.409   7.695
    1XTA   HL3835823  31.835   6.532   7.624
    1XTA   HL3935824  31.772   6.697   7.748
    1XTA   HL4035825  31.693   6.617   7.874
    1XTA   HL4135826  31.624   6.610   7.708
    1XTA    CO835827  32.663   6.241   6.651
    1XTA    CO935828  32.790   6.324   6.446
    1XTA    OA635829  32.554   6.330   6.683
    1XTA   HL4235830  32.691   6.205   6.755
    1XTA   HL4335831  32.635   6.161   6.584
    1XTA   HL4435832  31.914   6.359   8.015
    1XTA   HL4535833  31.829   6.524   8.016
    1XTA   CO1035834  31.848   6.426   7.959
    1XTA   CO1135835  31.972   6.309   7.774
    1XTA    OA735836  31.751   6.373   7.950
    1XTA   HL4635837  31.898   6.203   7.837
    1XTA   HL4735838  32.068   6.303   7.826
    1XTA   HL4835839  32.877   6.375   6.399
    1XTA   HL4935840  32.799   6.222   6.409
    1XTA     NT35841  31.663   4.481   5.428
    1XTA    CN135842  31.722   4.600   5.438
    1XTA     C135843  31.805   4.655   5.338
    1XTA     C235844  31.873   4.778   5.355
    1XTA     C335845  31.853   4.853   5.469
    1XTA     C435846  31.764   4.811   5.568
    1XTA     C535847  31.711   4.682   5.553
    1XTA    CN235848  31.736   4.365   5.453
    1XTA     C635849  31.833   4.308   5.367
    1XTA     C735850  31.897   4.187   5.398
    1XTA     C835851  31.872   4.122   5.517
    1XTA     C935852  31.771   4.175   5.605
    1XTA    C1035853  31.711   4.297   5.576
    1XTA    CN335854  31.530   4.481   5.403
    1XTA    C1135855  31.479   4.404   5.298
    1XTA    C1235856  31.343   4.375   5.290
    1XTA    C1335857  31.255   4.418   5.393
    1XTA    C1435858  31.303   4.501   5.492
    1XTA    C1535859  31.440   4.526   5.503
    1XTA     H135860  31.824   4.599   5.253
    1XTA     H235861  31.948   4.801   5.285
    1XTA     H335862  31.751   4.868   5.656
    1XTA     H435863  31.650   4.647   5.645
    1XTA     H535864  31.855   4.354   5.270
    1XTA     H635865  31.976   4.150   5.339
    1XTA     H735866  31.762   4.125   5.700
    1XTA     H835867  31.632   4.344   5.632
    1XTA     H935868  31.545   4.370   5.227
    1XTA    H1035869  31.301   4.321   5.211
    1XTA    H1135870  31.224   4.530   5.561
    1XTA    H1235871  31.470   4.575   5.598
    1XTA    OA135872  31.930   4.971   5.481
    1XTA    CO135873  31.894   5.065   5.585
    1XTA    OA235874  31.940   4.013   5.562
    1XTA    CO235875  32.033   3.945   5.468
    1XTA    CL135876  32.108   3.828   5.535
    1XTA    CL235877  32.008   3.706   5.558
    1XTA    CL335878  31.950   3.645   5.422
    1XTA    CL435879  31.864   3.518   5.458
    1XTA    CO335880  31.802   3.464   5.325
    1XTA    OA335881  31.719   3.352   5.352
    1XTA    CO435882  31.778   3.238   5.410
    1XTA    CT135883  31.682   3.118   5.439
    1XTA    CL535884  31.625   3.074   5.299
    1XTA    CL635885  31.565   2.942   5.303
    1XTA    OA435886  31.125   4.379   5.406
    1XTA    CO535887  31.075   4.277   5.328
    1XTA    CL735888  30.932   4.250   5.366
    1XTA    CL835889  30.905   4.186   5.497
    1XTA    CL935890  30.956   4.042   5.509
    1XTA   CL1035891  30.870   3.975   5.624
    1XTA    CO635892  30.887   4.033   5.767
    1XTA    OA535893  31.017   4.074   5.800
    1XTA    CO735894  31.097   3.981   5.867
    1XTA    CT235895  31.239   4.041   5.873
    1XTA   CL1135896  31.296   4.042   5.729
    1XTA   CL1235897  31.442   4.068   5.727
    1XTA    HL135898  31.946   5.159   5.562
    1XTA    HL235899  31.786   5.080   5.591
    1XTA    HL335900  31.933   5.014   5.677
    1XTA    HL435901  31.988   3.904   5.379
    1XTA    HL535902  32.101   4.017   5.442
    1XTA    HL635903  32.154   3.869   5.621
    1XTA    HL735904  32.192   3.795   5.468
    1XTA    HL835905  31.927   3.737   5.624
    1XTA    HL935906  32.060   3.634   5.624
    1XTA   HL1035907  31.887   3.721   5.372
    1XTA   HL1135908  32.031   3.614   5.354
    1XTA   HL1235909  31.786   3.543   5.531
    1XTA   HL1335910  31.919   3.450   5.505
    1XTA   HL1435911  31.737   3.535   5.272
    1XTA   HL1535912  31.882   3.437   5.253
    1XTA   HL1635913  31.858   3.202   5.337
    1XTA   HL1735914  31.827   3.267   5.502
    1XTA   HL1835915  31.688   3.074   5.202
    1XTA   HL1935916  31.558   3.146   5.259
    1XTA   HL2035917  31.486   2.936   5.375
    1XTA   HL2135918  31.646   2.864   5.326
    1XTA   HL2235919  31.516   2.917   5.213
    1XTA   HL2335920  31.142   4.195   5.348
    1XTA   HL2435921  31.071   4.301   5.222
    1XTA   HL2535922  30.881   4.350   5.368
    1XTA   HL2635923  30.873   4.194   5.293
    1XTA   HL2735924  30.949   4.247   5.580
    1XTA   HL2835925  30.798   4.197   5.517
    1XTA   HL2935926  30.951   3.987   5.415
    1XTA   HL3035927  31.058   4.047   5.534
    1XTA   HL3135928  30.769   3.982   5.604
    1XTA   HL3235929  30.890   3.867   5.636
    1XTA   HL3335930  30.827   4.126   5.768
    1XTA   HL3435931  30.851   3.967   5.833
    1XTA   HL3535932  31.103   3.882   5.820
    1XTA   HL3635933  31.062   3.958   5.972
    1XTA   HL3735934  31.243   4.109   5.663
    1XTA   HL3835935  31.278   3.940   5.693
    1XTA   HL3935936  31.500   3.992   5.779
    1XTA   HL4035937  31.476   4.142   5.794
    1XTA   HL4135938  31.481   4.075   5.622
    1XTA    CO835939  31.564   3.140   5.537
    1XTA    CO935940  31.759   3.001   5.497
    1XTA    OA635941  31.827   3.018   5.620
    1XTA   HL4235942  31.508   3.046   5.552
    1XTA   HL4335943  31.617   3.148   5.630
    1XTA   HL4435944  31.289   3.846   5.933
    1XTA   HL4535945  31.416   3.963   5.964
    1XTA   CO1035946  31.307   3.944   5.959
    1XTA   CO1135947  31.234   4.180   5.945
    1XTA    OA735948  31.253   3.951   6.088
    1XTA   HL4635949  31.205   4.258   5.874
    1XTA   HL4735950  31.175   4.172   6.037
    1XTA   HL4835951  31.827   2.978   5.419
    1XTA   HL4935952  31.691   2.913   5.513
    1XTA     NT35953  29.887   5.764   6.177
    1XTA    CN135954  29.895   5.629   6.166
    1XTA     C135955  29.943   5.566   6.048
    1XTA     C235956  29.956   5.425   6.049
    1XTA     C335957  29.948   5.345   6.168
    1XTA     C435958  29.905   5.412   6.282
    1XTA     C535959  29.877   5.549   6.283
    1XTA    CN235960  29.981   5.834   6.242
    1XTA     C635961  29.954   5.967   6.282
    1XTA     C735962  30.060   6.045   6.330
    1XTA     C835963  30.187   5.992   6.351
    1XTA     C935964  30.213   5.864   6.303
    1XTA    C1035965  30.112   5.787   6.247
    1XTA    CN335966  29.794   5.826   6.102
    1XTA    C1135967  29.839   5.904   5.992
    1XTA    C1235968  29.745   5.978   5.918
    1XTA    C1335969  29.605   5.963   5.933
    1XTA    C1435970  29.562   5.873   6.032
    1XTA    C1535971  29.655   5.804   6.115
    1XTA     H135972  29.964   5.622   5.964
    1XTA     H235973  29.985   5.374   5.954
    1XTA     H335974  29.897   5.351   6.369
    1XTA     H435975  29.858   5.596   6.379
    1XTA     H535976  29.852   6.002   6.267
    1XTA     H635977  30.052   6.142   6.361
    1XTA     H735978  30.312   5.822   6.321
    1XTA     H835979  30.128   5.684   6.216
    1XTA     H935980  29.947   5.919   5.969
    1XTA    H1035981  29.789   6.033   5.838
    1XTA    H1135982  29.456   5.854   6.038
    1XTA    H1235983  29.622   5.729   6.186
    1XTA    OA135984  29.977   5.210   6.168
    1XTA    CO135985  30.001   5.139   6.288
    1XTA    OA235986  30.287   6.069   6.416
    1XTA    CO235987  30.419   6.010   6.422
    1XTA    CL135988  30.525   6.110   6.479
    1XTA    CL235989  30.668   6.065   6.482
    1XTA    CL335990  30.763   6.181   6.459
    1XTA    CL435991  30.911   6.143   6.434
    1XTA    CO335992  31.002   6.260   6.408
    1XTA    OA335993  31.127   6.203   6.373
    1XTA    CO435994  31.136   6.182   6.238
    1XTA    CT135995  31.256   6.089   6.213
    1XTA    CL535996  31.378   6.143   6.286
    1XTA    CL635997  31.447   6.260   6.210
    1XTA    OA435998  29.511   6.039   5.861
    1XTA    CO535999  29.567   6.150   5.789
    1XTA    CL736000  29.465   6.259   5.756
    1XTA    CL836001  29.342   6.206   5.681
    1XTA    CL936002  29.222   6.194   5.767
    1XTA   CL1036003  29.222   6.076   5.868
    1XTA    CO636004  29.087   6.015   5.909
    1XTA    OA536005  29.122   5.940   6.020
    1XTA    CO736006  29.009   5.900   6.087
    1XTA    CT236007  29.029   5.764   6.156
    1XTA   CL1136008  28.913   5.733   6.252
    1XTA   CL1236009  28.786   5.705   6.165
    1XTA    HL136010  30.039   5.037   6.266
    1XTA    HL236011  30.066   5.190   6.359
    1XTA    HL336012  29.908   5.121   6.340
    1XTA    HL436013  30.419   5.915   6.479
    1XTA    HL536014  30.446   5.982   6.320
    1XTA    HL636015  30.505   6.142   6.577
    1XTA    HL736016  30.524   6.208   6.423
    1XTA    HL836017  30.701   5.989   6.416
    1XTA    HL936018  30.686   6.017   6.581
    1XTA   HL1036019  30.733   6.242   6.369
    1XTA   HL1136020  30.751   6.252   6.540
    1XTA   HL1236021  30.913   6.077   6.348
    1XTA   HL1336022  30.953   6.083   6.517
    1XTA   HL1436023  30.950   6.329   6.339
    1XTA   HL1536024  31.001   6.327   6.495
    1XTA   HL1636025  31.048   6.131   6.205
    1XTA   HL1736026  31.140   6.272   6.184
    1XTA   HL1836027  31.447   6.060   6.293
    1XTA   HL1936028  31.368   6.175   6.392
    1XTA   HL2036029  31.468   6.230   6.106
    1XTA   HL2136030  31.553   6.281   6.241
    1XTA   HL2236031  31.388   6.350   6.215
    1XTA   HL2336032  29.619   6.107   5.705
    1XTA   HL2436033  29.639   6.209   5.850
    1XTA   HL2536034  29.448   6.328   5.837
    1XTA   HL2636035  29.503   6.322   5.672
    1XTA   HL2736036  29.321   6.281   5.598
    1XTA   HL2836037  29.358   6.115   5.619
    1XTA   HL2936038  29.202   6.288   5.812
    1XTA   HL3036039  29.148   6.178   5.689
    1XTA   HL3136040  29.264   5.997   5.811
    1XTA   HL3236041  29.298   6.111   5.943
    1XTA   HL3336042  29.017   6.096   5.939
    1XTA   HL3436043  29.046   5.946   5.833
    1XTA   HL3536044  28.921   5.909   6.031
    1XTA   HL3636045  28.990   5.971   6.170
    1XTA   HL3736046  28.904   5.813   6.329
    1XTA   HL3836047  28.929   5.636   6.305
    1XTA   HL3936048  28.799   5.638   6.086
    1XTA   HL4036049  28.746   5.793   6.114
    1XTA   HL4136050  28.710   5.668   6.234
    1XTA    CO836051  31.281   6.054   6.064
    1XTA    CO936052  31.217   5.957   6.282
    1XTA    OA636053  31.121   5.905   6.250
    1XTA   HL4236054  31.270   6.148   6.000
    1XTA   HL4336055  31.187   5.970   6.020
    1XTA   HL4436056  29.245   5.789   6.185
    1XTA   HL4536057  29.161   5.821   6.329
    1XTA   CO1036058  29.160   5.762   6.240
    1XTA   CO1136059  29.037   5.645   6.048
    1XTA    OA736060  29.154   5.646   5.971
    1XTA   HL4636061  29.026   5.544   6.092
    1XTA   HL4736062  28.957   5.649   5.975
    1XTA   HL4836063  31.221   5.964   6.395
    1XTA   HL4936064  31.303   5.899   6.265
    1XTA     NT36065  29.481  -2.758   1.477
    1XTA    CN136066  29.378  -2.821   1.414
    1XTA     C136067  29.322  -2.935   1.476
    1XTA     C236068  29.218  -3.009   1.413
    1XTA     C336069  29.165  -2.970   1.287
    1XTA     C436070  29.215  -2.850   1.233
    1XTA     C536071  29.327  -2.779   1.289
    1XTA    CN236072  29.481  -2.625   1.499
    1XTA     C636073  29.565  -2.537   1.424
    1XTA     C736074  29.556  -2.404   1.443
    1XTA     C836075  29.469  -2.344   1.536
    1XTA     C936076  29.375  -2.425   1.606
    1XTA    C1036077  29.376  -2.567   1.587
    1XTA    CN336078  29.589  -2.830   1.517
    1XTA    C1136079  29.670  -2.896   1.424
    1XTA    C1236080  29.783  -2.965   1.467
    1XTA    C1336081  29.805  -2.993   1.597
    1XTA    C1436082  29.720  -2.929   1.690
    1XTA    C1536083  29.606  -2.853   1.655
    1XTA     H136084  29.364  -2.974   1.564
    1XTA     H236085  29.185  -3.101   1.462
    1XTA     H336086  29.179  -2.814   1.140
    1XTA     H436087  29.369  -2.702   1.237
    1XTA     H536088  29.646  -2.581   1.360
    1XTA     H636089  29.615  -2.337   1.391
    1XTA     H736090  29.303  -2.370   1.660
    1XTA     H836091  29.298  -2.629   1.621
    1XTA     H936092  29.638  -2.879   1.318
    1XTA    H1036093  29.855  -3.004   1.394
    1XTA    H1136094  29.734  -2.929   1.792
    1XTA    H1236095  29.544  -2.805   1.725
    1XTA    OA136096  29.073  -3.049   1.222
    1XTA    CO136097  28.997  -2.970   1.124
    1XTA    OA236098  29.452  -2.208   1.553
    1XTA    CO236099  29.567  -2.126   1.564
    1XTA    CL136100  29.604  -2.111   1.710
    1XTA    CL236101  29.594  -2.242   1.782
    1XTA    CL336102  29.718  -2.336   1.758
    1XTA    CL436103  29.699  -2.473   1.835
    1XTA    CO336104  29.808  -2.568   1.778
    1XTA    OA336105  29.939  -2.536   1.810
    1XTA    CO436106  29.962  -2.519   1.949
    1XTA    CT136107  30.109  -2.549   1.997
    1XTA    CL536108  30.110  -2.696   2.021
    1XTA    CL636109  30.255  -2.743   2.053
    1XTA    OA436110  29.913  -3.046   1.656
    1XTA    CO536111  30.029  -3.080   1.570
    1XTA    CL736112  30.093  -2.955   1.519
    1XTA    CL836113  30.123  -2.845   1.625
    1XTA    CL936114  30.222  -2.743   1.570
    1XTA   CL1036115  30.180  -2.659   1.451
    1XTA    CO636116  30.098  -2.533   1.488
    1XTA    OA536117  30.180  -2.429   1.533
    1XTA    CO736118  30.102  -2.321   1.580
    1XTA    CT236119  30.188  -2.229   1.672
    1XTA   CL1136120  30.092  -2.136   1.756
    1XTA   CL1236121  30.139  -2.043   1.871
    1XTA    HL136122  28.905  -3.014   1.088
    1XTA    HL236123  28.969  -2.874   1.174
    1XTA    HL336124  29.062  -2.956   1.039
    1XTA    HL436125  29.659  -2.171   1.524
    1XTA    HL536126  29.545  -2.030   1.522
    1XTA    HL636127  29.537  -2.040   1.759
    1XTA    HL736128  29.703  -2.068   1.710
    1XTA    HL836129  29.502  -2.295   1.788
    1XTA    HL936130  29.600  -2.207   1.888
    1XTA   HL1036131  29.734  -2.352   1.656
    1XTA   HL1136132  29.813  -2.288   1.789
    1XTA   HL1236133  29.599  -2.515   1.827
    1XTA   HL1336134  29.702  -2.457   1.935
    1XTA   HL1436135  29.796  -2.664   1.821
    1XTA   HL1536136  29.793  -2.593   1.673
    1XTA   HL1636137  29.936  -2.413   1.956
    1XTA   HL1736138  29.890  -2.575   2.007
    1XTA   HL1836139  30.069  -2.752   1.938
    1XTA   HL1936140  30.034  -2.721   2.092
    1XTA   HL2036141  30.309  -2.698   2.138
    1XTA   HL2136142  30.330  -2.735   1.976
    1XTA   HL2236143  30.251  -2.843   2.073
    1XTA   HL2336144  29.986  -3.152   1.501
    1XTA   HL2436145  30.094  -3.140   1.636
    1XTA   HL2536146  30.186  -2.966   1.456
    1XTA   HL2636147  30.030  -2.898   1.455
    1XTA   HL2736148  30.025  -2.801   1.659
    1XTA   HL2836149  30.171  -2.890   1.716
    1XTA   HL2936150  30.261  -2.674   1.643
    1XTA   HL3036151  30.306  -2.802   1.538
    1XTA   HL3136152  30.264  -2.628   1.388
    1XTA   HL3236153  30.125  -2.728   1.380
    1XTA   HL3336154  30.043  -2.491   1.401
    1XTA   HL3436155  30.023  -2.564   1.559
    1XTA   HL3536156  30.020  -2.366   1.638
    1XTA   HL3636157  30.061  -2.261   1.504
    1XTA   HL3736158  30.010  -2.202   1.790
    1XTA   HL3836159  30.045  -2.074   1.685
    1XTA   HL3936160  30.213  -1.970   1.833
    1XTA   HL4036161  30.187  -2.102   1.953
    1XTA   HL4136162  30.055  -1.986   1.912
    1XTA    CO836163  30.127  -2.476   2.126
    1XTA    CO936164  30.210  -2.503   1.897
    1XTA    OA636165  30.188  -2.361   1.881
    1XTA   HL4236166  30.164  -2.543   2.205
    1XTA   HL4336167  30.215  -2.406   2.109
    1XTA   HL4436168  30.345  -2.218   1.536
    1XTA   HL4536169  30.235  -2.071   1.522
    1XTA   CO1036170  30.285  -2.146   1.585
    1XTA   CO1136171  30.268  -2.321   1.766
    1XTA    OA736172  30.362  -2.055   1.664
    1XTA   HL4636173  30.314  -2.407   1.717
    1XTA   HL4736174  30.352  -2.256   1.802
    1XTA   HL4836175  30.188  -2.550   1.802
    1XTA   HL4936176  30.310  -2.535   1.924
    1XTA     NT36177  31.933  -0.420   3.733
    1XTA    CN136178  31.988  -0.420   3.609
    1XTA     C136179  32.019  -0.294   3.555
    1XTA     C236180  32.063  -0.284   3.422
    1XTA     C336181  32.088  -0.398   3.338
    1XTA     C436182  32.070  -0.523   3.400
    1XTA     C536183  32.014  -0.536   3.530
    1XTA    CN236184  32.012  -0.449   3.837
    1XTA     C636185  32.095  -0.351   3.896
    1XTA     C736186  32.176  -0.373   4.011
    1XTA     C836187  32.186  -0.505   4.062
    1XTA     C936188  32.114  -0.603   4.000
    1XTA    C1036189  32.025  -0.579   3.893
    1XTA    CN336190  31.811  -0.369   3.756
    1XTA    C1136191  31.801  -0.257   3.840
    1XTA    C1236192  31.677  -0.193   3.869
    1XTA    C1336193  31.560  -0.255   3.813
    1XTA    C1436194  31.573  -0.363   3.723
    1XTA    C1536195  31.696  -0.424   3.699
    1XTA     H136196  31.989  -0.208   3.605
    1XTA     H236197  32.073  -0.178   3.395
    1XTA     H336198  32.092  -0.607   3.346
    1XTA     H436199  32.001  -0.635   3.583
    1XTA     H536200  32.086  -0.256   3.858
    1XTA     H636201  32.232  -0.294   4.054
    1XTA     H736202  32.124  -0.708   4.033
    1XTA     H836203  31.973  -0.669   3.848
    1XTA     H936204  31.891  -0.226   3.891
    1XTA    H1036205  31.667  -0.109   3.935
    1XTA    H1136206  31.482  -0.413   3.681
    1XTA    H1236207  31.703  -0.509   3.630
    1XTA    OA136208  32.132  -0.391   3.212
    1XTA    CO136209  32.120  -0.256   3.154
    1XTA    OA236210  32.268  -0.530   4.167
    1XTA    CO236211  32.384  -0.451   4.181
    1XTA    CL136212  32.367  -0.357   4.294
    1XTA    CL236213  32.491  -0.269   4.334
    1XTA    CL336214  32.610  -0.353   4.379
    1XTA    CL436215  32.720  -0.264   4.443
    1XTA    CO336216  32.741  -0.282   4.595
    1XTA    OA336217  32.605  -0.269   4.649
    1XTA    CO436218  32.594  -0.311   4.783
    1XTA    CT136219  32.443  -0.353   4.797
    1XTA    CL536220  32.409  -0.379   4.949
    1XTA    CL636221  32.388  -0.257   5.049
    1XTA    OA436222  31.432  -0.216   3.848
    1XTA    CO536223  31.380  -0.297   3.947
    1XTA    CL736224  31.380  -0.233   4.083
    1XTA    CL836225  31.308  -0.329   4.181
    1XTA    CL936226  31.333  -0.278   4.325
    1XTA   CL1036227  31.466  -0.325   4.371
    1XTA    CO636228  31.515  -0.295   4.516
    1XTA    OA536229  31.486  -0.167   4.572
    1XTA    CO736230  31.345  -0.125   4.599
    1XTA    CT236231  31.337  -0.010   4.697
    1XTA   CL1136232  31.449   0.090   4.676
    1XTA   CL1236233  31.467   0.139   4.533
    1XTA    HL136234  32.026  -0.212   3.171
    1XTA    HL236235  32.201  -0.191   3.198
    1XTA    HL336236  32.148  -0.255   3.046
    1XTA    HL436237  32.474  -0.511   4.194
    1XTA    HL536238  32.403  -0.389   4.091
    1XTA    HL636239  32.346  -0.422   4.376
    1XTA    HL736240  32.270  -0.296   4.279
    1XTA    HL836241  32.463  -0.203   4.412
    1XTA    HL936242  32.511  -0.200   4.248
    1XTA   HL1036243  32.564  -0.431   4.447
    1XTA   HL1136244  32.647  -0.423   4.306
    1XTA   HL1236245  32.696  -0.163   4.426
    1XTA   HL1336246  32.809  -0.277   4.377
    1XTA   HL1436247  32.770  -0.380   4.627
    1XTA   HL1536248  32.804  -0.205   4.636
    1XTA   HL1636249  32.657  -0.392   4.815
    1XTA   HL1736250  32.622  -0.233   4.848
    1XTA   HL1836251  32.482  -0.448   4.993
    1XTA   HL1936252  32.323  -0.448   4.950
    1XTA   HL2036253  32.474  -0.197   5.074
    1XTA   HL2136254  32.354  -0.293   5.142
    1XTA   HL2236255  32.305  -0.188   5.025
    1XTA   HL2336256  31.423  -0.401   3.952
    1XTA   HL2436257  31.275  -0.324   3.936
    1XTA   HL2536258  31.480  -0.199   4.112
    1XTA   HL2636259  31.329  -0.133   4.080
    1XTA   HL2736260  31.200  -0.339   4.163
    1XTA   HL2836261  31.358  -0.433   4.175
    1XTA   HL2936262  31.321  -0.168   4.331
    1XTA   HL3036263  31.245  -0.322   4.387
    1XTA   HL3136264  31.486  -0.424   4.343
    1XTA   HL3236265  31.534  -0.260   4.309
    1XTA   HL3336266  31.472  -0.376   4.573
    1XTA   HL3436267  31.619  -0.302   4.516
    1XTA   HL3536268  31.284  -0.214   4.628
    1XTA   HL3636269  31.295  -0.087   4.509
    1XTA   HL3736270  31.549   0.051   4.711
    1XTA   HL3836271  31.407   0.180   4.732
    1XTA   HL3936272  31.381   0.122   4.470
    1XTA   HL4036273  31.551   0.078   4.493
    1XTA   HL4136274  31.494   0.242   4.535
    1XTA    CO836275  32.426  -0.482   4.712
    1XTA    CO936276  32.351  -0.230   4.750
    1XTA    OA636277  32.495  -0.557   4.750
    1XTA   HL4236278  32.436  -0.452   4.608
    1XTA   HL4336279  32.323  -0.515   4.741
    1XTA   HL4436280  31.292  -0.151   4.862
    1XTA   HL4536281  31.463  -0.111   4.822
    1XTA   CO1036282  31.362  -0.072   4.833
    1XTA   CO1136283  31.203   0.053   4.693
    1XTA    OA736284  31.348  -0.002   4.917
    1XTA   HL4636285  31.181   0.126   4.570
    1XTA   HL4736286  31.200   0.126   4.767
    1XTA   HL4836287  32.324  -0.117   4.832
    1XTA   HL4936288  32.388  -0.179   4.665
    1XTA     NT36289  31.533   0.539   6.398
    1XTA    CN136290  31.442   0.609   6.472
    1XTA     C136291  31.415   0.743   6.453
    1XTA     C236292  31.316   0.814   6.524
    1XTA     C336293  31.253   0.752   6.633
    1XTA     C436294  31.278   0.619   6.652
    1XTA     C536295  31.382   0.548   6.584
    1XTA    CN236296  31.521   0.403   6.378
    1XTA     C636297  31.628   0.320   6.416
    1XTA     C736298  31.618   0.183   6.387
    1XTA     C836299  31.505   0.120   6.330
    1XTA     C936300  31.397   0.208   6.299
    1XTA    C1036301  31.407   0.344   6.322
    1XTA    CN336302  31.657   0.594   6.388
    1XTA    C1136303  31.731   0.613   6.501
    1XTA    C1236304  31.864   0.652   6.485
    1XTA    C1336305  31.924   0.686   6.358
    1XTA    C1436306  31.846   0.659   6.245
    1XTA    C1536307  31.712   0.619   6.262
    1XTA     H136308  31.485   0.794   6.389
    1XTA     H236309  31.298   0.919   6.507
    1XTA     H336310  31.241   0.578   6.736
    1XTA     H436311  31.405   0.448   6.597
    1XTA     H536312  31.723   0.354   6.463
    1XTA     H636313  31.707   0.130   6.412
    1XTA     H736314  31.309   0.165   6.258
    1XTA     H836315  31.332   0.405   6.285
    1XTA     H936316  31.686   0.585   6.596
    1XTA    H1036317  31.924   0.684   6.573
    1XTA    H1136318  31.883   0.677   6.146
    1XTA    H1236319  31.651   0.616   6.175
    1XTA    OA136320  31.158   0.812   6.713
    1XTA    CO136321  31.089   0.929   6.661
    1XTA    OA236322  31.492  -0.012   6.303
    1XTA    CO236323  31.614  -0.095   6.311
    1XTA    CL136324  31.591  -0.213   6.218
    1XTA    CL236325  31.710  -0.305   6.185
    1XTA    CL336326  31.691  -0.385   6.054
    1XTA    CL436327  31.560  -0.452   6.054
    1XTA    CO336328  31.523  -0.521   5.919
    1XTA    OA336329  31.416  -0.604   5.957
    1XTA    CO436330  31.392  -0.700   5.860
    1XTA    CT136331  31.301  -0.816   5.919
    1XTA    CL536332  31.295  -0.929   5.815
    1XTA    CL636333  31.256  -1.067   5.869
    1XTA    OA436334  32.049   0.735   6.361
    1XTA    CO536335  32.114   0.763   6.237
    1XTA    CL736336  32.264   0.779   6.274
    1XTA    CL836337  32.363   0.825   6.162
    1XTA    CL936338  32.510   0.813   6.206
    1XTA   CL1036339  32.606   0.828   6.086
    1XTA    CO636340  32.632   0.706   6.000
    1XTA    OA536341  32.523   0.664   5.924
    1XTA    CO736342  32.562   0.633   5.792
    1XTA    CT236343  32.439   0.566   5.713
    1XTA   CL1136344  32.463   0.550   5.569
    1XTA   CL1236345  32.542   0.668   5.497
    1XTA    HL136346  31.077   0.928   6.553
    1XTA    HL236347  30.997   0.948   6.722
    1XTA    HL336348  31.149   1.020   6.666
    1XTA    HL436349  31.696  -0.044   6.262
    1XTA    HL536350  31.651  -0.130   6.402
    1XTA    HL636351  31.545  -0.174   6.129
    1XTA    HL736352  31.522  -0.287   6.257
    1XTA    HL836353  31.725  -0.367   6.267
    1XTA    HL936354  31.794  -0.241   6.167
    1XTA   HL1036355  31.696  -0.323   5.966
    1XTA   HL1136356  31.780  -0.440   6.037
    1XTA   HL1236357  31.475  -0.389   6.096
    1XTA   HL1336358  31.559  -0.527   6.129
    1XTA   HL1436359  31.506  -0.442   5.844
    1XTA   HL1536360  31.606  -0.582   5.889
    1XTA   HL1636361  31.335  -0.657   5.777
    1XTA   HL1736362  31.484  -0.745   5.821
    1XTA   HL1836363  31.383  -0.937   5.751
    1XTA   HL1936364  31.213  -0.912   5.747
    1XTA   HL2036365  31.258  -1.143   5.793
    1XTA   HL2136366  31.145  -1.069   5.895
    1XTA   HL2236367  31.314  -1.112   5.945
    1XTA   HL2336368  32.071   0.862   6.201
    1XTA   HL2436369  32.101   0.687   6.158
    1XTA   HL2536370  32.273   0.837   6.370
    1XTA   HL2636371  32.289   0.681   6.313
    1XTA   HL2736372  32.353   0.763   6.074
    1XTA   HL2836373  32.340   0.924   6.122
    1XTA   HL2936374  32.539   0.894   6.262
    1XTA   HL3036375  32.534   0.717   6.260
    1XTA   HL3136376  32.566   0.904   6.019
    1XTA   HL3236377  32.708   0.881   6.111
    1XTA   HL3336378  32.709   0.737   5.928
    1XTA   HL3436379  32.681   0.630   6.064
    1XTA   HL3536380  32.650   0.574   5.799
    1XTA   HL3636381  32.596   0.723   5.736
    1XTA   HL3736382  32.367   0.533   5.516
    1XTA   HL3836383  32.512   0.459   5.556
    1XTA   HL3936384  32.504   0.766   5.500
    1XTA   HL4036385  32.575   0.645   5.400
    1XTA   HL4136386  32.635   0.664   5.555
    1XTA    CO836387  31.157  -0.766   5.939
    1XTA    CO936388  31.345  -0.860   6.070
    1XTA    OA636389  31.087  -0.845   5.969
    1XTA   HL4236390  31.117  -0.715   5.852
    1XTA   HL4336391  31.152  -0.691   6.011
    1XTA   HL4436392  32.329   0.756   5.679
    1XTA   HL4536393  32.295   0.695   5.833
    1XTA   CO1036394  32.309   0.661   5.730
    1XTA   CO1136395  32.404   0.427   5.761
    1XTA    OA736396  32.300   0.352   5.697
    1XTA   HL4636397  32.492   0.368   5.773
    1XTA   HL4736398  32.367   0.443   5.865
    1XTA   HL4836399  31.366  -0.746   6.152
    1XTA   HL4936400  31.270  -0.926   6.112
    1XTA     NT36401  30.518  -1.251   7.829
    1XTA    CN136402  30.418  -1.337   7.842
    1XTA     C136403  30.434  -1.473   7.893
    1XTA     C236404  30.323  -1.552   7.931
    1XTA     C336405  30.194  -1.510   7.906
    1XTA     C436406  30.177  -1.381   7.852
    1XTA     C536407  30.286  -1.293   7.817
    1XTA    CN236408  30.575  -1.214   7.943
    1XTA     C636409  30.501  -1.136   8.040
    1XTA     C736410  30.569  -1.098   8.159
    1XTA     C836411  30.704  -1.148   8.187
    1XTA     C936412  30.769  -1.218   8.088
    1XTA    C1036413  30.712  -1.251   7.966
    1XTA    CN336414  30.573  -1.214   7.715
    1XTA    C1136415  30.640  -1.307   7.640
    1XTA    C1236416  30.700  -1.269   7.521
    1XTA    C1336417  30.708  -1.137   7.484
    1XTA    C1436418  30.630  -1.041   7.550
    1XTA    C1536419  30.561  -1.079   7.670
    1XTA     H136420  30.532  -1.502   7.921
    1XTA     H236421  30.335  -1.644   7.979
    1XTA     H336422  30.082  -1.353   7.849
    1XTA     H436423  30.263  -1.196   7.769
    1XTA     H536424  30.400  -1.101   8.024
    1XTA     H636425  30.502  -1.058   8.233
    1XTA     H736426  30.878  -1.239   8.100
    1XTA     H836427  30.764  -1.301   7.888
    1XTA     H936428  30.646  -1.414   7.664
    1XTA    H1036429  30.757  -1.353   7.473
    1XTA    H1136430  30.640  -0.938   7.524
    1XTA    H1236431  30.515  -1.011   7.740
    1XTA    OA136432  30.074  -1.572   7.932
    1XTA    CO136433  30.087  -1.685   8.018
    1XTA    OA236434  30.772  -1.104   8.300
    1XTA    CO236435  30.843  -1.205   8.367
    1XTA    CL136436  30.995  -1.187   8.346
    1XTA    CL236437  31.083  -1.307   8.398
    1XTA    CL336438  31.236  -1.271   8.408
    1XTA    CL436439  31.309  -1.391   8.471
    1XTA    CO336440  31.461  -1.373   8.470
    1XTA    OA336441  31.492  -1.246   8.427
    1XTA    CO436442  31.557  -1.173   8.527
    1XTA    CT136443  31.597  -1.035   8.479
    1XTA    CL536444  31.674  -0.954   8.584
    1XTA    CL636445  31.611  -0.945   8.723
    1XTA    OA436446  30.787  -1.099   7.378
    1XTA    CO536447  30.915  -1.161   7.363
    1XTA    CL736448  31.021  -1.087   7.447
    1XTA    CL836449  31.028  -1.136   7.595
    1XTA    CL936450  31.043  -1.287   7.614
    1XTA   CL1036451  31.061  -1.332   7.759
    1XTA    CO636452  31.108  -1.476   7.767
    1XTA    OA536453  31.129  -1.541   7.891
    1XTA    CO736454  31.237  -1.482   7.967
    1XTA    CT236455  31.310  -1.585   8.058
    1XTA   CL1136456  31.205  -1.627   8.163
    1XTA   CL1236457  31.085  -1.720   8.114
    1XTA    HL136458  30.151  -1.753   7.960
    1XTA    HL236459  30.133  -1.676   8.115
    1XTA    HL336460  29.994  -1.732   8.027
    1XTA    HL436461  30.833  -1.180   8.468
    1XTA    HL536462  30.804  -1.302   8.337
    1XTA    HL636463  31.029  -1.111   8.426
    1XTA    HL736464  31.030  -1.172   8.248
    1XTA    HL836465  31.060  -1.406   8.352
    1XTA    HL936466  31.055  -1.328   8.498
    1XTA   HL1036467  31.275  -1.255   8.313
    1XTA   HL1136468  31.256  -1.182   8.473
    1XTA   HL1236469  31.293  -1.489   8.414
    1XTA   HL1336470  31.265  -1.407   8.571
    1XTA   HL1436471  31.486  -1.409   8.567
    1XTA   HL1536472  31.498  -1.455   8.406
    1XTA   HL1636473  31.478  -1.165   8.603
    1XTA   HL1736474  31.647  -1.222   8.562
    1XTA   HL1836475  31.679  -0.856   8.534
    1XTA   HL1936476  31.776  -0.982   8.600
    1XTA   HL2036477  31.605  -1.050   8.767
    1XTA   HL2136478  31.514  -0.888   8.730
    1XTA   HL2236479  31.678  -0.892   8.794
    1XTA   HL2336480  30.942  -1.146   7.257
    1XTA   HL2436481  30.903  -1.263   7.382
    1XTA   HL2536482  31.111  -1.104   7.391
    1XTA   HL2636483  30.998  -0.983   7.448
    1XTA   HL2736484  31.118  -1.094   7.639
    1XTA   HL2836485  30.940  -1.097   7.646
    1XTA   HL2936486  30.957  -1.340   7.567
    1XTA   HL3036487  31.127  -1.314   7.550
    1XTA   HL3136488  31.134  -1.275   7.819
    1XTA   HL3236489  30.964  -1.321   7.812
    1XTA   HL3336490  31.038  -1.535   7.701
    1XTA   HL3436491  31.203  -1.492   7.723
    1XTA   HL3536492  31.197  -1.396   8.031
    1XTA   HL3636493  31.311  -1.441   7.903
    1XTA   HL3736494  31.176  -1.536   8.202
    1XTA   HL3836495  31.250  -1.685   8.246
    1XTA   HL3936496  31.029  -1.697   8.013
    1XTA   HL4036497  31.017  -1.722   8.197
    1XTA   HL4136498  31.123  -1.827   8.108
    1XTA    CO836499  31.462  -0.946   8.449
    1XTA    CO936500  31.678  -1.047   8.350
    1XTA    OA636501  31.482  -0.842   8.418
    1XTA   HL4236502  31.392  -0.952   8.531
    1XTA   HL4336503  31.399  -1.003   8.372
    1XTA   HL4436504  31.393  -1.458   8.212
    1XTA   HL4536505  31.498  -1.577   8.183
    1XTA   CO1036506  31.434  -1.516   8.124
    1XTA   CO1136507  31.355  -1.707   7.972
    1XTA    OA736508  31.482  -1.444   8.046
    1XTA   HL4636509  31.456  -1.669   7.884
    1XTA   HL4736510  31.263  -1.736   7.916
    1XTA   HL4836511  31.704  -0.917   8.310
    1XTA   HL4936512  31.767  -1.088   8.384
    1XTA     NT36513  32.854  -0.148   5.147
    1XTA    CN136514  32.984  -0.148   5.179
    1XTA     C136515  33.067  -0.260   5.165
    1XTA     C236516  33.206  -0.261   5.199
    1XTA     C336517  33.255  -0.143   5.261
    1XTA     C436518  33.166  -0.033   5.283
    1XTA     C536519  33.036  -0.034   5.235
    1XTA    CN236520  32.798  -0.068   5.052
    1XTA     C636521  32.827  -0.082   4.918
    1XTA     C736522  32.763   0.000   4.825
    1XTA     C836523  32.649   0.074   4.856
    1XTA     C936524  32.623   0.090   4.994
    1XTA    C1036525  32.696   0.022   5.091
    1XTA    CN336526  32.777  -0.230   5.223
    1XTA    C1136527  32.737  -0.353   5.163
    1XTA    C1236528  32.668  -0.441   5.245
    1XTA    C1336529  32.637  -0.404   5.378
    1XTA    C1436530  32.674  -0.281   5.433
    1XTA    C1536531  32.744  -0.195   5.355
    1XTA     H136532  33.019  -0.346   5.122
    1XTA     H236533  33.257  -0.349   5.170
    1XTA     H336534  33.209   0.066   5.297
    1XTA     H436535  32.982   0.057   5.228
    1XTA     H536536  32.900  -0.151   4.864
    1XTA     H636537  32.795  -0.006   4.721
    1XTA     H736538  32.540   0.154   5.032
    1XTA     H836539  32.661   0.030   5.185
    1XTA     H936540  32.773  -0.373   5.066
    1XTA    H1036541  32.630  -0.534   5.199
    1XTA    H1136542  32.639  -0.242   5.534
    1XTA    H1236543  32.783  -0.105   5.396
    1XTA    OA136544  33.382  -0.118   5.306
    1XTA    CO136545  33.475  -0.220   5.276
    1XTA    OA236546  32.566   0.121   4.750
    1XTA    CO236547  32.614   0.092   4.620
    1XTA    CL136548  32.512   0.145   4.521
    1XTA    CL236549  32.484   0.297   4.513
    1XTA    CL336550  32.364   0.337   4.431
    1XTA    CL436551  32.356   0.488   4.389
    1XTA    CO336552  32.473   0.537   4.298
    1XTA    OA336553  32.445   0.658   4.233
    1XTA    CO436554  32.561   0.741   4.220
    1XTA    CT136555  32.533   0.872   4.142
    1XTA    CL536556  32.450   0.963   4.232
    1XTA    CL636557  32.307   0.920   4.271
    1XTA    OA436558  32.582  -0.489   5.466
    1XTA    CO536559  32.576  -0.629   5.439
    1XTA    CL736560  32.439  -0.677   5.410
    1XTA    CL836561  32.362  -0.590   5.306
    1XTA    CL936562  32.218  -0.630   5.276
    1XTA   CL1036563  32.138  -0.512   5.233
    1XTA    CO636564  31.992  -0.531   5.205
    1XTA    OA536565  31.895  -0.511   5.313
    1XTA    CO736566  31.924  -0.585   5.432
    1XTA    CT236567  31.822  -0.546   5.541
    1XTA   CL1136568  31.683  -0.548   5.471
    1XTA   CL1236569  31.564  -0.543   5.562
    1XTA    HL136570  33.459  -0.302   5.343
    1XTA    HL236571  33.489  -0.252   5.177
    1XTA    HL336572  33.574  -0.188   5.305
    1XTA    HL436573  32.702   0.152   4.586
    1XTA    HL536574  32.632  -0.015   4.602
    1XTA    HL636575  32.420   0.097   4.554
    1XTA    HL736576  32.524   0.105   4.419
    1XTA    HL836577  32.573   0.346   4.477
    1XTA    HL936578  32.464   0.336   4.611
    1XTA   HL1036579  32.362   0.280   4.340
    1XTA   HL1136580  32.273   0.312   4.482
    1XTA   HL1236581  32.343   0.556   4.474
    1XTA   HL1336582  32.264   0.504   4.322
    1XTA   HL1436583  32.558   0.548   4.371
    1XTA   HL1536584  32.500   0.461   4.227
    1XTA   HL1636585  32.594   0.769   4.324
    1XTA   HL1736586  32.649   0.690   4.167
    1XTA   HL1836587  32.452   1.069   4.183
    1XTA   HL1936588  32.501   0.983   4.327
    1XTA   HL2036589  32.240   0.994   4.320
    1XTA   HL2136590  32.307   0.837   4.335
    1XTA   HL2236591  32.262   0.887   4.178
    1XTA   HL2336592  32.600  -0.671   5.531
    1XTA   HL2436593  32.659  -0.668   5.374
    1XTA   HL2536594  32.452  -0.782   5.375
    1XTA   HL2636595  32.370  -0.666   5.497
    1XTA   HL2736596  32.359  -0.486   5.327
    1XTA   HL2836597  32.420  -0.585   5.206
    1XTA   HL2936598  32.212  -0.707   5.199
    1XTA   HL3036599  32.174  -0.682   5.357
    1XTA   HL3136600  32.136  -0.430   5.299
    1XTA   HL3236601  32.185  -0.476   5.139
    1XTA   HL3336602  31.964  -0.459   5.132
    1XTA   HL3436603  31.988  -0.624   5.159
    1XTA   HL3536604  32.026  -0.567   5.464
    1XTA   HL3636605  31.917  -0.694   5.410
    1XTA   HL3736606  31.687  -0.638   5.411
    1XTA   HL3836607  31.677  -0.475   5.386
    1XTA   HL3936608  31.577  -0.624   5.637
    1XTA   HL4036609  31.478  -0.576   5.503
    1XTA   HL4136610  31.556  -0.450   5.617
    1XTA    CO836611  32.476   0.843   4.004
    1XTA    CO936612  32.670   0.942   4.115
    1XTA    OA636613  32.447   0.970   3.939
    1XTA   HL4236614  32.384   0.787   4.016
    1XTA   HL4336615  32.543   0.779   3.944
    1XTA   HL4436616  31.843  -0.317   5.524
    1XTA   HL4536617  31.771  -0.388   5.668
    1XTA   CO1036618  31.849  -0.399   5.595
    1XTA   CO1136619  31.841  -0.651   5.656
    1XTA    OA736620  31.816  -0.788   5.616
    1XTA   HL4636621  31.945  -0.647   5.693
    1XTA   HL4736622  31.782  -0.620   5.739
    1XTA   HL4836623  32.733   0.882   4.052
    1XTA   HL4936624  32.661   1.041   4.054
    1XTA     NT36625  30.851  -2.641   0.369
    1XTA    CN136626  30.838  -2.777   0.369
    1XTA     C136627  30.925  -2.853   0.287
    1XTA     C236628  30.928  -2.994   0.280
    1XTA     C336629  30.836  -3.061   0.358
    1XTA     C436630  30.753  -2.989   0.451
    1XTA     C536631  30.751  -2.852   0.452
    1XTA    CN236632  30.923  -2.588   0.468
    1XTA     C636633  31.052  -2.628   0.491
    1XTA     C736634  31.139  -2.566   0.586
    1XTA     C836635  31.089  -2.454   0.658
    1XTA     C936636  30.959  -2.411   0.642
    1XTA    C1036637  30.876  -2.481   0.548
    1XTA    CN336638  30.808  -2.572   0.261
    1XTA    C1136639  30.671  -2.570   0.242
    1XTA    C1236640  30.609  -2.515   0.129
    1XTA    C1336641  30.696  -2.444   0.038
    1XTA    C1436642  30.834  -2.446   0.061
    1XTA    C1536643  30.895  -2.510   0.168
    1XTA     H136644  30.999  -2.809   0.231
    1XTA     H236645  30.996  -3.046   0.217
    1XTA     H336646  30.679  -3.032   0.518
    1XTA     H436647  30.680  -2.812   0.524
    1XTA     H536648  31.091  -2.711   0.428
    1XTA     H636649  31.239  -2.605   0.595
    1XTA     H736650  30.917  -2.320   0.690
    1XTA     H836651  30.764  -2.458   0.544
    1XTA     H936652  30.610  -2.638   0.308
    1XTA    H1036653  30.500  -2.507   0.116
    1XTA    H1136654  30.900  -2.398  -0.005
    1XTA    H1236655  31.006  -2.517   0.168
    1XTA    OA136656  30.823  -3.199   0.361
    1XTA    CO136657  30.885  -3.277   0.257
    1XTA    OA236658  31.181  -2.387   0.734
    1XTA    CO236659  31.155  -2.253   0.783
    1XTA    CL136660  31.262  -2.224   0.890
    1XTA    CL236661  31.300  -2.072   0.912
    1XTA    CL336662  31.350  -2.012   0.783
    1XTA    CL436663  31.395  -1.867   0.794
    1XTA    CO336664  31.461  -1.810   0.667
    1XTA    OA336665  31.560  -1.893   0.613
    1XTA    CO436666  31.579  -1.888   0.472
    1XTA    CT136667  31.710  -1.966   0.440
    1XTA    CL536668  31.717  -1.986   0.285
    1XTA    CL636669  31.590  -2.055   0.225
    1XTA    OA436670  30.655  -2.356  -0.063
    1XTA    CO536671  30.511  -2.351  -0.089
    1XTA    CL736672  30.453  -2.223  -0.023
    1XTA    CL836673  30.377  -2.135  -0.121
    1XTA    CL936674  30.374  -1.983  -0.079
    1XTA   CL1036675  30.233  -1.945  -0.054
    1XTA    CO636676  30.179  -1.970   0.091
    1XTA    OA536677  30.046  -1.914   0.099
    1XTA    CO736678  29.951  -1.975   0.187
    1XTA    CT236679  29.808  -1.966   0.134
    1XTA   CL1136680  29.786  -2.084   0.030
    1XTA   CL1236681  29.867  -2.064  -0.102
    1XTA    HL136682  30.829  -3.240   0.176
    1XTA    HL236683  30.992  -3.255   0.266
    1XTA    HL336684  30.877  -3.385   0.263
    1XTA    HL436685  31.157  -2.202   0.688
    1XTA    HL536686  31.058  -2.237   0.828
    1XTA    HL636687  31.359  -2.278   0.867
    1XTA    HL736688  31.232  -2.255   0.988
    1XTA    HL836689  31.374  -2.069   0.995
    1XTA    HL936690  31.212  -2.023   0.942
    1XTA   HL1036691  31.429  -2.079   0.734
    1XTA   HL1136692  31.274  -2.012   0.704
    1XTA   HL1236693  31.471  -1.850   0.875
    1XTA   HL1336694  31.308  -1.809   0.829
    1XTA   HL1436695  31.366  -1.787   0.616
    1XTA   HL1536696  31.510  -1.712   0.692
    1XTA   HL1636697  31.490  -1.936   0.438
    1XTA   HL1736698  31.573  -1.785   0.431
    1XTA   HL1836699  31.806  -2.041   0.252
    1XTA   HL1936700  31.726  -1.883   0.245
    1XTA   HL2036701  31.613  -2.070   0.121
    1XTA   HL2136702  31.512  -1.982   0.231
    1XTA   HL2236703  31.567  -2.155   0.277
    1XTA   HL2336704  30.464  -2.439  -0.059
    1XTA   HL2436705  30.492  -2.348  -0.192
    1XTA   HL2536706  30.388  -2.244   0.056
    1XTA   HL2636707  30.524  -2.157   0.023
    1XTA   HL2736708  30.427  -2.135  -0.218
    1XTA   HL2836709  30.281  -2.175  -0.142
    1XTA   HL2936710  30.441  -1.955   0.002
    1XTA   HL3036711  30.410  -1.933  -0.165
    1XTA   HL3136712  30.224  -1.841  -0.085
    1XTA   HL3236713  30.163  -2.006  -0.111
    1XTA   HL3336714  30.174  -2.078   0.090
    1XTA   HL3436715  30.255  -1.940   0.169
    1XTA   HL3536716  29.960  -1.928   0.277
    1XTA   HL3636717  29.977  -2.077   0.218
    1XTA   HL3736718  29.681  -2.090   0.023
    1XTA   HL3836719  29.805  -2.175   0.077
    1XTA   HL3936720  29.840  -2.139  -0.171
    1XTA   HL4036721  29.962  -2.083  -0.058
    1XTA   HL4136722  29.849  -1.966  -0.148
    1XTA    CO836723  31.710  -2.105   0.514
    1XTA    CO936724  31.828  -1.883   0.492
    1XTA    OA636725  31.788  -2.204   0.458
    1XTA   HL4236726  31.604  -2.136   0.518
    1XTA   HL4336727  31.732  -2.091   0.618
    1XTA   HL4436728  29.794  -1.742   0.148
    1XTA   HL4536729  29.834  -1.793  -0.007
    1XTA   CO1036730  29.775  -1.824   0.075
    1XTA   CO1136731  29.709  -1.989   0.252
    1XTA    OA736732  29.654  -1.822   0.009
    1XTA   HL4636733  29.707  -1.900   0.316
    1XTA   HL4736734  29.761  -2.067   0.318
    1XTA   HL4836735  31.825  -1.790   0.428
    1XTA   HL4936736  31.803  -1.855   0.591
    1XTA     NT36737  31.082  -1.735  -1.515
    1XTA    CN136738  31.180  -1.740  -1.610
    1XTA     C136739  31.243  -1.627  -1.656
    1XTA     C236740  31.335  -1.641  -1.761
    1XTA     C336741  31.362  -1.761  -1.823
    1XTA     C436742  31.304  -1.877  -1.772
    1XTA     C536743  31.208  -1.867  -1.669
    1XTA    CN236744  31.123  -1.754  -1.389
    1XTA     C636745  31.140  -1.639  -1.315
    1XTA     C736746  31.190  -1.640  -1.184
    1XTA     C836747  31.215  -1.764  -1.117
    1XTA     C936748  31.210  -1.884  -1.192
    1XTA    C1036749  31.157  -1.879  -1.323
    1XTA    CN336750  30.956  -1.764  -1.549
    1XTA    C1136751  30.896  -1.893  -1.536
    1XTA    C1236752  30.761  -1.921  -1.555
    1XTA    C1336753  30.680  -1.805  -1.586
    1XTA    C1436754  30.737  -1.673  -1.590
    1XTA    C1536755  30.871  -1.656  -1.574
    1XTA     H136756  31.222  -1.532  -1.611
    1XTA     H236757  31.380  -1.547  -1.789
    1XTA     H336758  31.334  -1.975  -1.799
    1XTA     H436759  31.156  -1.950  -1.625
    1XTA     H536760  31.122  -1.544  -1.367
    1XTA     H636761  31.205  -1.540  -1.146
    1XTA     H736762  31.227  -1.980  -1.153
    1XTA     H836763  31.129  -1.967  -1.380
    1XTA     H936764  30.960  -1.978  -1.516
    1XTA    H1036765  30.721  -2.023  -1.546
    1XTA    H1136766  30.676  -1.583  -1.611
    1XTA    H1236767  30.905  -1.554  -1.567
    1XTA    OA136768  31.467  -1.774  -1.909
    1XTA    CO136769  31.581  -1.693  -1.882
    1XTA    OA236770  31.241  -1.766  -0.981
    1XTA    CO236771  31.211  -1.656  -0.904
    1XTA    CL136772  31.316  -1.547  -0.899
    1XTA    CL236773  31.428  -1.572  -0.789
    1XTA    CL336774  31.534  -1.456  -0.782
    1XTA    CL436775  31.647  -1.465  -0.883
    1XTA    CO336776  31.764  -1.563  -0.843
    1XTA    OA336777  31.857  -1.567  -0.943
    1XTA    CO436778  31.838  -1.669  -1.046
    1XTA    CT136779  31.963  -1.692  -1.138
    1XTA    CL536780  31.921  -1.753  -1.271
    1XTA    CL636781  31.818  -1.860  -1.254
    1XTA    OA436782  30.549  -1.816  -1.632
    1XTA    CO536783  30.487  -1.939  -1.653
    1XTA    CL736784  30.346  -1.890  -1.675
    1XTA    CL836785  30.253  -1.996  -1.617
    1XTA    CL936786  30.108  -1.992  -1.666
    1XTA   CL1036787  30.018  -1.887  -1.589
    1XTA    CO636788  30.014  -1.893  -1.436
    1XTA    OA536789  30.138  -1.857  -1.373
    1XTA    CO736790  30.175  -1.717  -1.377
    1XTA    CT236791  30.277  -1.692  -1.266
    1XTA   CL1136792  30.228  -1.724  -1.122
    1XTA   CL1236793  30.078  -1.683  -1.108
    1XTA    HL136794  31.619  -1.719  -1.786
    1XTA    HL236795  31.659  -1.706  -1.963
    1XTA    HL336796  31.547  -1.592  -1.862
    1XTA    HL436797  31.118  -1.621  -0.943
    1XTA    HL536798  31.183  -1.691  -0.804
    1XTA    HL636799  31.270  -1.452  -0.872
    1XTA    HL736800  31.359  -1.520  -0.996
    1XTA    HL836801  31.469  -1.665  -0.825
    1XTA    HL936802  31.386  -1.594  -0.689
    1XTA   HL1036803  31.491  -1.357  -0.789
    1XTA   HL1136804  31.593  -1.469  -0.691
    1XTA   HL1236805  31.688  -1.365  -0.890
    1XTA   HL1336806  31.609  -1.497  -0.976
    1XTA   HL1436807  31.821  -1.540  -0.755
    1XTA   HL1536808  31.721  -1.658  -0.829
    1XTA   HL1636809  31.818  -1.763  -0.991
    1XTA   HL1736810  31.756  -1.639  -1.116
    1XTA   HL1836811  32.006  -1.804  -1.330
    1XTA   HL1936812  31.887  -1.665  -1.330
    1XTA   HL2036813  31.787  -1.898  -1.351
    1XTA   HL2136814  31.727  -1.822  -1.214
    1XTA   HL2236815  31.859  -1.947  -1.210
    1XTA   HL2336816  30.513  -1.998  -1.566
    1XTA   HL2436817  30.528  -1.985  -1.744
    1XTA   HL2536818  30.328  -1.786  -1.639
    1XTA   HL2636819  30.322  -1.871  -1.780
    1XTA   HL2736820  30.277  -2.092  -1.663
    1XTA   HL2836821  30.259  -2.007  -1.505
    1XTA   HL2936822  30.114  -1.983  -1.774
    1XTA   HL3036823  30.056  -2.088  -1.647
    1XTA   HL3136824  30.053  -1.787  -1.606
    1XTA   HL3236825  29.918  -1.894  -1.627
    1XTA   HL3336826  29.937  -1.842  -1.382
    1XTA   HL3436827  29.991  -1.995  -1.418
    1XTA   HL3536828  30.086  -1.657  -1.367
    1XTA   HL3636829  30.210  -1.689  -1.478
    1XTA   HL3736830  30.292  -1.685  -1.049
    1XTA   HL3836831  30.225  -1.831  -1.107
    1XTA   HL3936832  30.044  -1.711  -1.006
    1XTA   HL4036833  30.012  -1.739  -1.169
    1XTA   HL4136834  30.047  -1.583  -1.122
    1XTA    CO836835  32.074  -1.774  -1.072
    1XTA    CO936836  32.038  -1.559  -1.156
    1XTA    OA636837  32.043  -1.904  -1.040
    1XTA   HL4236838  32.097  -1.731  -0.968
    1XTA   HL4336839  32.163  -1.763  -1.127
    1XTA   HL4436840  30.391  -1.508  -1.209
    1XTA   HL4536841  30.373  -1.524  -1.373
    1XTA   CO1036842  30.324  -1.543  -1.281
    1XTA   CO1136843  30.399  -1.787  -1.289
    1XTA    OA736844  30.215  -1.453  -1.259
    1XTA   HL4636845  30.432  -1.777  -1.388
    1XTA   HL4736846  30.353  -1.887  -1.270
    1XTA   HL4836847  31.964  -1.486  -1.156
    1XTA   HL4936848  32.090  -1.547  -1.063
    1XTA     NT36849  27.054  -1.675   5.490
    1XTA    CN136850  27.144  -1.573   5.450
    1XTA     C136851  27.285  -1.600   5.428
    1XTA     C236852  27.369  -1.490   5.393
    1XTA     C336853  27.312  -1.360   5.374
    1XTA     C436854  27.178  -1.333   5.387
    1XTA     C536855  27.097  -1.441   5.425
    1XTA    CN236856  27.104  -1.801   5.518
    1XTA     C636857  27.195  -1.824   5.627
    1XTA     C736858  27.267  -1.948   5.644
    1XTA     C836859  27.245  -2.047   5.548
    1XTA     C936860  27.148  -2.023   5.445
    1XTA    C1036861  27.077  -1.907   5.429
    1XTA    CN336862  26.960  -1.630   5.578
    1XTA    C1136863  26.830  -1.608   5.531
    1XTA    C1236864  26.733  -1.541   5.605
    1XTA    C1336865  26.767  -1.498   5.736
    1XTA    C1436866  26.895  -1.521   5.785
    1XTA    C1536867  26.998  -1.576   5.703
    1XTA     H136868  27.342  -1.692   5.445
    1XTA     H236869  27.476  -1.497   5.379
    1XTA     H336870  27.132  -1.238   5.364
    1XTA     H436871  26.997  -1.416   5.435
    1XTA     H536872  27.225  -1.743   5.693
    1XTA     H636873  27.330  -1.959   5.732
    1XTA     H736874  27.107  -2.100   5.373
    1XTA     H836875  27.006  -1.896   5.351
    1XTA     H936876  26.798  -1.641   5.436
    1XTA    H1036877  26.633  -1.517   5.570
    1XTA    H1136878  26.925  -1.496   5.886
    1XTA    H1236879  27.087  -1.589   5.750
    1XTA    OA136880  27.402  -1.260   5.349
    1XTA    CO136881  27.458  -1.210   5.466
    1XTA    OA236882  27.311  -2.167   5.557
    1XTA    CO236883  27.263  -2.274   5.474
    1XTA    CL136884  27.357  -2.399   5.478
    1XTA    CL236885  27.370  -2.469   5.618
    1XTA    CL336886  27.463  -2.581   5.625
    1XTA    CL436887  27.469  -2.663   5.756
    1XTA    CO336888  27.558  -2.788   5.734
    1XTA    OA336889  27.527  -2.856   5.608
    1XTA    CO436890  27.398  -2.908   5.596
    1XTA    CT136891  27.373  -3.009   5.477
    1XTA    CL536892  27.421  -3.153   5.510
    1XTA    CL636893  27.571  -3.166   5.536
    1XTA    OA436894  26.661  -1.447   5.806
    1XTA    CO536895  26.694  -1.364   5.919
    1XTA    CL736896  26.600  -1.240   5.922
    1XTA    CL836897  26.619  -1.128   6.025
    1XTA    CL936898  26.563  -1.155   6.164
    1XTA   CL1036899  26.632  -1.268   6.239
    1XTA    CO636900  26.774  -1.227   6.271
    1XTA    OA536901  26.846  -1.317   6.355
    1XTA    CO736902  26.899  -1.429   6.291
    1XTA    CT236903  27.009  -1.491   6.377
    1XTA   CL1136904  27.124  -1.388   6.390
    1XTA   CL1236905  27.239  -1.414   6.486
    1XTA    HL136906  27.510  -1.288   5.514
    1XTA    HL236907  27.534  -1.131   5.446
    1XTA    HL336908  27.370  -1.174   5.521
    1XTA    HL436909  27.156  -2.301   5.494
    1XTA    HL536910  27.246  -2.241   5.371
    1XTA    HL636911  27.462  -2.370   5.458
    1XTA    HL736912  27.325  -2.476   5.405
    1XTA    HL836913  27.271  -2.511   5.643
    1XTA    HL936914  27.393  -2.386   5.687
    1XTA   HL1036915  27.431  -2.646   5.543
    1XTA   HL1136916  27.561  -2.551   5.597
    1XTA   HL1236917  27.366  -2.685   5.777
    1XTA   HL1336918  27.494  -2.606   5.841
    1XTA   HL1436919  27.656  -2.753   5.725
    1XTA   HL1536920  27.545  -2.857   5.820
    1XTA   HL1636921  27.364  -2.951   5.685
    1XTA   HL1736922  27.327  -2.830   5.577
    1XTA   HL1836923  27.380  -3.235   5.454
    1XTA   HL1936924  27.371  -3.184   5.605
    1XTA   HL2036925  27.599  -3.133   5.641
    1XTA   HL2136926  27.636  -3.119   5.463
    1XTA   HL2236927  27.608  -3.266   5.524
    1XTA   HL2336928  26.798  -1.329   5.915
    1XTA   HL2436929  26.688  -1.426   6.007
    1XTA   HL2536930  26.611  -1.187   5.832
    1XTA   HL2636931  26.499  -1.289   5.924
    1XTA   HL2736932  26.723  -1.094   6.025
    1XTA   HL2836933  26.554  -1.046   5.990
    1XTA   HL2936934  26.573  -1.065   6.224
    1XTA   HL3036935  26.460  -1.182   6.158
    1XTA   HL3136936  26.586  -1.273   6.337
    1XTA   HL3236937  26.620  -1.359   6.178
    1XTA   HL3336938  26.839  -1.221   6.182
    1XTA   HL3436939  26.774  -1.135   6.321
    1XTA   HL3536940  26.941  -1.401   6.196
    1XTA   HL3636941  26.820  -1.497   6.269
    1XTA   HL3736942  27.082  -1.296   6.416
    1XTA   HL3836943  27.162  -1.369   6.292
    1XTA   HL3936944  27.325  -1.473   6.450
    1XTA   HL4036945  27.211  -1.459   6.582
    1XTA   HL4136946  27.273  -1.315   6.515
    1XTA    CO836947  27.428  -2.961   5.342
    1XTA    CO936948  27.220  -3.009   5.445
    1XTA    OA636949  27.161  -3.047   5.527
    1XTA   HL4236950  27.435  -3.052   5.283
    1XTA   HL4336951  27.324  -2.888   5.275
    1XTA   HL4436952  27.080  -1.595   6.208
    1XTA   HL4536953  26.977  -1.689   6.296
    1XTA   CO1036954  27.061  -1.618   6.312
    1XTA   CO1136955  26.945  -1.546   6.517
    1XTA    OA736956  26.814  -1.584   6.501
    1XTA   HL4636957  26.999  -1.631   6.558
    1XTA   HL4736958  26.957  -1.464   6.581
    1XTA   HL4836959  27.201  -3.068   5.357
    1XTA   HL4936960  27.196  -2.907   5.420
    1XTA     NT36961  31.856  -2.430   2.667
    1XTA    CN136962  31.810  -2.393   2.789
    1XTA     C136963  31.689  -2.326   2.811
    1XTA     C236964  31.648  -2.290   2.943
    1XTA     C336965  31.726  -2.328   3.058
    1XTA     C436966  31.848  -2.399   3.035
    1XTA     C536967  31.884  -2.438   2.904
    1XTA    CN236968  31.886  -2.338   2.571
    1XTA     C636969  32.005  -2.262   2.587
    1XTA     C736970  32.036  -2.167   2.489
    1XTA     C836971  31.955  -2.148   2.384
    1XTA     C936972  31.842  -2.224   2.361
    1XTA    C1036973  31.809  -2.319   2.456
    1XTA    CN336974  31.908  -2.553   2.647
    1XTA    C1136975  31.831  -2.663   2.611
    1XTA    C1236976  31.883  -2.787   2.592
    1XTA    C1336977  32.022  -2.804   2.600
    1XTA    C1436978  32.110  -2.697   2.629
    1XTA    C1536979  32.049  -2.572   2.660
    1XTA     H136980  31.620  -2.300   2.729
    1XTA     H236981  31.557  -2.248   2.966
    1XTA     H336982  31.906  -2.446   3.113
    1XTA     H436983  31.977  -2.495   2.891
    1XTA     H536984  32.070  -2.278   2.671
    1XTA     H636985  32.128  -2.125   2.491
    1XTA     H736986  31.782  -2.223   2.267
    1XTA     H836987  31.725  -2.379   2.434
    1XTA     H936988  31.725  -2.641   2.613
    1XTA    H1036989  31.829  -2.876   2.575
    1XTA    H1136990  32.217  -2.717   2.637
    1XTA    H1236991  32.114  -2.486   2.689
    1XTA    OA136992  31.674  -2.299   3.181
    1XTA    CO136993  31.745  -2.339   3.287
    1XTA    OA236994  31.999  -2.059   2.291
    1XTA    CO236995  31.935  -2.051   2.170
    1XTA    CL136996  32.016  -1.951   2.085
    1XTA    CL236997  31.934  -1.915   1.962
    1XTA    CL336998  31.869  -2.025   1.885
    1XTA    CL436999  31.958  -2.094   1.781
    1XTA    CO337000  32.050  -2.197   1.847
    1XTA    OA337001  32.135  -2.259   1.751
    1XTA    CO437002  32.216  -2.358   1.823
    1XTA    CT137003  32.280  -2.468   1.742
    1XTA    CL537004  32.179  -2.518   1.642
    1XTA    CL637005  32.036  -2.535   1.691
    1XTA    OA437006  32.073  -2.928   2.577
    1XTA    CO537007  32.029  -3.027   2.674
    1XTA    CL737008  32.142  -3.096   2.749
    1XTA    CL837009  32.260  -2.998   2.751
    1XTA    CL937010  32.376  -3.046   2.843
    1XTA   CL1037011  32.486  -2.946   2.860
    1XTA    CO637012  32.593  -2.978   2.960
    1XTA    OA537013  32.700  -2.884   2.938
    1XTA    CO737014  32.811  -2.904   3.029
    1XTA    CT237015  32.934  -2.833   2.979
    1XTA   CL1137016  33.046  -2.832   3.074
    1XTA   CL1237017  33.104  -2.971   3.110
    1XTA    HL137018  31.741  -2.450   3.279
    1XTA    HL237019  31.846  -2.301   3.279
    1XTA    HL337020  31.707  -2.310   3.387
    1XTA    HL437021  31.926  -2.143   2.116
    1XTA    HL537022  31.829  -2.008   2.197
    1XTA    HL637023  32.118  -1.992   2.063
    1XTA    HL737024  32.032  -1.866   2.149
    1XTA    HL837025  32.008  -1.859   1.896
    1XTA    HL937026  31.857  -1.849   1.992
    1XTA   HL1037027  31.801  -2.086   1.945
    1XTA   HL1137028  31.805  -1.959   1.824
    1XTA   HL1237029  32.017  -2.029   1.720
    1XTA   HL1337030  31.901  -2.153   1.721
    1XTA   HL1437031  32.101  -2.133   1.911
    1XTA   HL1537032  31.996  -2.272   1.910
    1XTA   HL1637033  32.302  -2.306   1.874
    1XTA   HL1737034  32.156  -2.406   1.894
    1XTA   HL1837035  32.215  -2.615   1.601
    1XTA   HL1937036  32.182  -2.450   1.553
    1XTA   HL2037037  31.973  -2.563   1.598
    1XTA   HL2137038  31.991  -2.439   1.725
    1XTA   HL2237039  32.030  -2.615   1.768
    1XTA   HL2337040  31.989  -3.105   2.606
    1XTA   HL2437041  31.943  -2.997   2.738
    1XTA   HL2537042  32.114  -3.119   2.851
    1XTA   HL2637043  32.182  -3.188   2.701
    1XTA   HL2737044  32.302  -2.967   2.658
    1XTA   HL2837045  32.216  -2.912   2.803
    1XTA   HL2937046  32.342  -3.072   2.938
    1XTA   HL3037047  32.414  -3.138   2.799
    1XTA   HL3137048  32.517  -2.940   2.762
    1XTA   HL3237049  32.439  -2.847   2.884
    1XTA   HL3337050  32.548  -2.981   3.062
    1XTA   HL3437051  32.615  -3.084   2.939
    1XTA   HL3537052  32.844  -3.005   3.024
    1XTA   HL3637053  32.790  -2.881   3.138
    1XTA   HL3737054  33.017  -2.799   3.170
    1XTA   HL3837055  33.120  -2.763   3.048
    1XTA   HL3937056  33.191  -2.977   3.053
    1XTA   HL4037057  33.039  -3.053   3.080
    1XTA   HL4137058  33.133  -2.990   3.211
    1XTA    CO837059  32.316  -2.585   1.841
    1XTA    CO937060  32.401  -2.417   1.662
    1XTA    OA637061  32.478  -2.371   1.728
    1XTA   HL4237062  32.236  -2.660   1.829
    1XTA   HL4337063  32.431  -2.654   1.797
    1XTA   HL4437064  32.821  -2.676   2.878
    1XTA   HL4537065  32.972  -2.632   2.908
    1XTA   CO1037066  32.896  -2.682   2.954
    1XTA   CO1137067  32.984  -2.889   2.847
    1XTA    OA737068  32.896  -2.856   2.744
    1XTA   HL4637069  33.086  -2.844   2.824
    1XTA   HL4737070  33.009  -2.995   2.854
    1XTA   HL4837071  32.372  -2.343   1.591
    1XTA   HL4937072  32.451  -2.495   1.607
    1XTA     NT37073  32.620  -1.657   2.672
    1XTA    CN137074  32.600  -1.622   2.544
    1XTA     C137075  32.678  -1.666   2.433
    1XTA     C237076  32.642  -1.632   2.299
    1XTA     C337077  32.518  -1.567   2.274
    1XTA     C437078  32.439  -1.521   2.379
    1XTA     C537079  32.486  -1.548   2.510
    1XTA    CN237080  32.544  -1.753   2.719
    1XTA     C637081  32.575  -1.893   2.705
    1XTA     C737082  32.492  -1.989   2.769
    1XTA     C837083  32.372  -1.951   2.837
    1XTA     C937084  32.331  -1.817   2.832
    1XTA    C1037085  32.419  -1.719   2.777
    1XTA    CN337086  32.716  -1.614   2.753
    1XTA    C1137087  32.698  -1.494   2.832
    1XTA    C1237088  32.804  -1.432   2.903
    1XTA    C1337089  32.924  -1.506   2.907
    1XTA    C1437090  32.942  -1.629   2.839
    1XTA    C1537091  32.843  -1.673   2.752
    1XTA     H137092  32.770  -1.719   2.451
    1XTA     H237093  32.692  -1.670   2.220
    1XTA     H337094  32.346  -1.470   2.355
    1XTA     H437095  32.435  -1.519   2.598
    1XTA     H537096  32.665  -1.920   2.652
    1XTA     H637097  32.524  -2.093   2.767
    1XTA     H737098  32.243  -1.783   2.885
    1XTA     H837099  32.386  -1.615   2.789
    1XTA     H937100  32.606  -1.444   2.816
    1XTA    H1037101  32.781  -1.346   2.962
    1XTA    H1137102  33.032  -1.686   2.844
    1XTA    H1237103  32.860  -1.763   2.697
    1XTA    OA137104  32.468  -1.548   2.142
    1XTA    CO137105  32.327  -1.557   2.115
    1XTA    OA237106  32.296  -2.046   2.901
    1XTA    CO237107  32.340  -2.180   2.878
    1XTA    CL137108  32.244  -2.277   2.963
    1XTA    CL237109  32.313  -2.410   2.976
    1XTA    CL337110  32.250  -2.486   3.095
    1XTA    CL437111  32.330  -2.602   3.146
    1XTA    CO337112  32.443  -2.561   3.243
    1XTA    OA337113  32.541  -2.485   3.177
    1XTA    CO437114  32.667  -2.473   3.257
    1XTA    CT137115  32.779  -2.418   3.177
    1XTA    CL537116  32.905  -2.415   3.268
    1XTA    CL637117  32.952  -2.532   3.353
    1XTA    OA437118  33.036  -1.465   2.977
    1XTA    CO537119  33.007  -1.373   3.082
    1XTA    CL737120  33.138  -1.366   3.168
    1XTA    CL837121  33.127  -1.256   3.273
    1XTA    CL937122  33.255  -1.235   3.342
    1XTA   CL1037123  33.347  -1.147   3.259
    1XTA    CO637124  33.486  -1.127   3.317
    1XTA    OA537125  33.548  -1.256   3.331
    1XTA    CO737126  33.661  -1.240   3.414
    1XTA    CT237127  33.745  -1.367   3.418
    1XTA   CL1137128  33.809  -1.390   3.288
    1XTA   CL1237129  33.734  -1.379   3.150
    1XTA    HL137130  32.304  -1.569   2.006
    1XTA    HL237131  32.287  -1.645   2.168
    1XTA    HL337132  32.275  -1.464   2.149
    1XTA    HL437133  32.336  -2.200   2.772
    1XTA    HL537134  32.441  -2.195   2.917
    1XTA    HL637135  32.149  -2.268   2.913
    1XTA    HL737136  32.227  -2.233   3.058
    1XTA    HL837137  32.421  -2.404   3.001
    1XTA    HL937138  32.308  -2.464   2.880
    1XTA   HL1037139  32.248  -2.420   3.180
    1XTA   HL1137140  32.141  -2.512   3.077
    1XTA   HL1237141  32.357  -2.669   3.065
    1XTA   HL1337142  32.255  -2.666   3.206
    1XTA   HL1437143  32.388  -2.502   3.324
    1XTA   HL1537144  32.486  -2.646   3.290
    1XTA   HL1637145  32.650  -2.420   3.344
    1XTA   HL1737146  32.691  -2.577   3.290
    1XTA   HL1837147  32.894  -2.340   3.338
    1XTA   HL1937148  32.992  -2.391   3.213
    1XTA   HL2037149  33.055  -2.529   3.392
    1XTA   HL2137150  32.948  -2.614   3.291
    1XTA   HL2237151  32.899  -2.547   3.446
    1XTA   HL2337152  32.939  -1.413   3.148
    1XTA   HL2437153  32.988  -1.275   3.042
    1XTA   HL2537154  33.164  -1.461   3.225
    1XTA   HL2637155  33.211  -1.343   3.094
    1XTA   HL2737156  33.105  -1.159   3.230
    1XTA   HL2837157  33.046  -1.283   3.347
    1XTA   HL2937158  33.247  -1.179   3.434
    1XTA   HL3037159  33.292  -1.335   3.364
    1XTA   HL3137160  33.375  -1.178   3.159
    1XTA   HL3237161  33.295  -1.048   3.240
    1XTA   HL3337162  33.548  -1.065   3.251
    1XTA   HL3437163  33.487  -1.080   3.411
    1XTA   HL3537164  33.621  -1.214   3.513
    1XTA   HL3637165  33.726  -1.160   3.373
    1XTA   HL3737166  33.855  -1.491   3.291
    1XTA   HL3837167  33.890  -1.312   3.279
    1XTA   HL3937168  33.676  -1.286   3.137
    1XTA   HL4037169  33.669  -1.475   3.142
    1XTA   HL4137170  33.811  -1.392   3.070
    1XTA    CO837171  32.735  -2.275   3.129
    1XTA    CO937172  32.791  -2.501   3.043
    1XTA    OA637173  32.840  -2.605   3.067
    1XTA   HL4237174  32.716  -2.274   3.017
    1XTA   HL4337175  32.614  -2.236   3.184
    1XTA   HL4437176  33.723  -1.562   3.499
    1XTA   HL4537177  33.599  -1.443   3.542
    1XTA   CO1037178  33.655  -1.484   3.456
    1XTA   CO1137179  33.852  -1.352   3.530
    1XTA    OA737180  33.588  -1.532   3.385
    1XTA   HL4637181  33.792  -1.357   3.661
    1XTA   HL4737182  33.912  -1.446   3.517
    1XTA   HL4837183  32.869  -2.446   2.985
    1XTA   HL4937184  32.696  -2.507   2.986
    1XTA     NT37185  32.319  -1.101   5.475
    1XTA    CN137186  32.364  -1.041   5.589
    1XTA     C137187  32.488  -0.982   5.586
    1XTA     C237188  32.538  -0.913   5.696
    1XTA     C337189  32.465  -0.912   5.818
    1XTA     C437190  32.342  -0.972   5.821
    1XTA     C537191  32.290  -1.032   5.708
    1XTA    CN237192  32.196  -1.073   5.432
    1XTA     C637193  32.164  -0.943   5.392
    1XTA     C737194  32.045  -0.923   5.323
    1XTA     C837195  31.948  -1.022   5.302
    1XTA     C937196  31.976  -1.148   5.356
    1XTA    C1037197  32.093  -1.172   5.419
    1XTA    CN337198  32.370  -1.220   5.441
    1XTA    C1137199  32.390  -1.324   5.536
    1XTA    C1237200  32.435  -1.447   5.491
    1XTA    C1337201  32.466  -1.474   5.358
    1XTA    C1437202  32.459  -1.366   5.267
    1XTA    C1537203  32.407  -1.244   5.308
    1XTA     H137204  32.547  -0.980   5.497
    1XTA     H237205  32.641  -0.879   5.694
    1XTA     H337206  32.295  -0.976   5.917
    1XTA     H437207  32.186  -1.062   5.706
    1XTA     H537208  32.248  -0.868   5.409
    1XTA     H637209  32.036  -0.823   5.282
    1XTA     H737210  31.902  -1.226   5.364
    1XTA     H837211  32.110  -1.268   5.480
    1XTA     H937212  32.377  -1.297   5.641
    1XTA    H1037213  32.453  -1.529   5.563
    1XTA    H1137214  32.490  -1.374   5.164
    1XTA    H1237215  32.399  -1.167   5.233
    1XTA    OA137216  32.511  -0.846   5.931
    1XTA    CO137217  32.623  -0.765   5.912
    1XTA    OA237218  31.833  -1.000   5.229
    1XTA    CO237219  31.821  -0.873   5.164
    1XTA    CL137220  31.703  -0.885   5.080
    1XTA    CL237221  31.586  -0.972   5.144
    1XTA    CL337222  31.536  -0.916   5.277
    1XTA    CL437223  31.450  -1.019   5.349
    1XTA    CO337224  31.438  -0.982   5.503
    1XTA    OA337225  31.560  -0.949   5.575
    1XTA    CO437226  31.652  -1.057   5.589
    1XTA    CT137227  31.751  -1.032   5.707
    1XTA    CL537228  31.888  -1.104   5.678
    1XTA    CL637229  31.882  -1.258   5.654
    1XTA    OA437230  32.517  -1.591   5.321
    1XTA    CO537231  32.419  -1.686   5.265
    1XTA    CL737232  32.317  -1.730   5.370
    1XTA    CL837233  32.222  -1.840   5.325
    1XTA    CL937234  32.131  -1.891   5.440
    1XTA   CL1037235  32.212  -1.994   5.530
    1XTA    CO637236  32.238  -1.926   5.661
    1XTA    OA537237  32.307  -2.009   5.759
    1XTA    CO737238  32.447  -1.994   5.740
    1XTA    CT237239  32.532  -2.080   5.835
    1XTA   CL1137240  32.499  -2.227   5.818
    1XTA   CL1237241  32.542  -2.293   5.686
    1XTA    HL137242  32.711  -0.829   5.891
    1XTA    HL237243  32.605  -0.690   5.837
    1XTA    HL337244  32.639  -0.724   6.016
    1XTA    HL437245  31.800  -0.789   5.235
    1XTA    HL537246  31.905  -0.836   5.111
    1XTA    HL637247  31.733  -0.934   4.984
    1XTA    HL737248  31.658  -0.790   5.064
    1XTA    HL837249  31.637  -1.073   5.141
    1XTA    HL937250  31.497  -1.000   5.086
    1XTA   HL1037251  31.615  -0.895   5.345
    1XTA   HL1137252  31.474  -0.828   5.255
    1XTA   HL1237253  31.492  -1.118   5.340
    1XTA   HL1337254  31.360  -1.028   5.286
    1XTA   HL1437255  31.376  -0.894   5.504
    1XTA   HL1537256  31.383  -1.057   5.552
    1XTA   HL1637257  31.612  -1.153   5.613
    1XTA   HL1737258  31.701  -1.068   5.495
    1XTA   HL1837259  31.956  -1.090   5.770
    1XTA   HL1937260  31.932  -1.062   5.587
    1XTA   HL2037261  31.849  -1.306   5.742
    1XTA   HL2137262  31.980  -1.296   5.634
    1XTA   HL2237263  31.813  -1.283   5.573
    1XTA   HL2337264  32.471  -1.771   5.215
    1XTA   HL2437265  32.366  -1.638   5.175
    1XTA   HL2537266  32.374  -1.752   5.457
    1XTA   HL2637267  32.265  -1.636   5.386
    1XTA   HL2737268  32.144  -1.793   5.259
    1XTA   HL2837269  32.277  -1.920   5.270
    1XTA   HL2937270  32.082  -1.810   5.493
    1XTA   HL3037271  32.049  -1.952   5.406
    1XTA   HL3137272  32.152  -2.085   5.547
    1XTA   HL3237273  32.303  -2.014   5.488
    1XTA   HL3337274  32.291  -1.834   5.640
    1XTA   HL3437275  32.139  -1.902   5.706
    1XTA   HL3537276  32.470  -1.888   5.743
    1XTA   HL3637277  32.476  -2.028   5.639
    1XTA   HL3737278  32.386  -2.236   5.815
    1XTA   HL3837279  32.519  -2.290   5.902
    1XTA   HL3937280  32.508  -2.244   5.593
    1XTA   HL4037281  32.503  -2.390   5.684
    1XTA   HL4137282  32.645  -2.301   5.677
    1XTA    CO837283  31.679  -1.068   5.834
    1XTA    CO937284  31.783  -0.878   5.721
    1XTA    OA637285  31.752  -1.052   5.914
    1XTA   HL4237286  31.663  -1.174   5.830
    1XTA   HL4337287  31.580  -1.017   5.851
    1XTA   HL4437288  32.394  -2.029   5.989
    1XTA   HL4537289  32.535  -2.098   6.058
    1XTA   CO1037290  32.500  -2.035   5.979
    1XTA   CO1137291  32.686  -2.073   5.816
    1XTA    OA737292  32.561  -1.907   5.998
    1XTA   HL4637293  32.730  -1.990   5.872
    1XTA   HL4737294  32.739  -2.169   5.864
    1XTA   HL4837295  31.893  -0.868   5.811
    1XTA   HL4937296  31.693  -0.836   5.766
    1XTA     NT37297  30.795   0.846   6.360
    1XTA    CN137298  30.681   0.783   6.351
    1XTA     C137299  30.580   0.829   6.268
    1XTA     C237300  30.456   0.763   6.260
    1XTA     C337301  30.435   0.646   6.329
    1XTA     C437302  30.533   0.600   6.421
    1XTA     C537303  30.654   0.673   6.430
    1XTA    CN237304  30.894   0.786   6.296
    1XTA     C637305  30.874   0.769   6.157
    1XTA     C737306  30.973   0.720   6.070
    1XTA     C837307  31.096   0.676   6.123
    1XTA     C937308  31.116   0.693   6.263
    1XTA    C1037309  31.018   0.747   6.348
    1XTA    CN337310  30.804   0.959   6.432
    1XTA    C1137311  30.899   1.054   6.391
    1XTA    C1237312  30.947   1.149   6.486
    1XTA    C1337313  30.894   1.152   6.613
    1XTA    C1437314  30.785   1.071   6.647
    1XTA    C1537315  30.733   0.979   6.556
    1XTA     H137316  30.594   0.916   6.209
    1XTA     H237317  30.388   0.804   6.187
    1XTA     H337318  30.525   0.503   6.465
    1XTA     H437319  30.730   0.627   6.496
    1XTA     H537320  30.779   0.785   6.109
    1XTA     H637321  30.960   0.717   5.968
    1XTA     H737322  31.214   0.673   6.298
    1XTA     H837323  31.039   0.758   6.450
    1XTA     H937324  30.939   1.043   6.292
    1XTA    H1037325  31.034   1.215   6.464
    1XTA    H1137326  30.749   1.084   6.750
    1XTA    H1237327  30.649   0.920   6.591
    1XTA    OA137328  30.324   0.570   6.286
    1XTA    CO137329  30.281   0.475   6.375
    1XTA    OA237330  31.199   0.612   6.053
    1XTA    CO237331  31.210   0.655   5.924
    1XTA    CL137332  31.352   0.640   5.864
    1XTA    CL237333  31.450   0.741   5.926
    1XTA    CL337334  31.590   0.723   5.871
    1XTA    CL437335  31.666   0.595   5.887
    1XTA    CO337336  31.685   0.515   5.755
    1XTA    OA337337  31.754   0.598   5.668
    1XTA    CO437338  31.893   0.617   5.710
    1XTA    CT137339  31.964   0.656   5.582
    1XTA    CL537340  31.881   0.774   5.520
    1XTA    CL637341  31.885   0.901   5.594
    1XTA    OA437342  30.936   1.246   6.707
    1XTA    CO537343  31.009   1.360   6.660
    1XTA    CL737344  31.040   1.443   6.791
    1XTA    CL837345  31.152   1.377   6.877
    1XTA    CL937346  31.285   1.416   6.819
    1XTA   CL1037347  31.410   1.375   6.901
    1XTA    CO637348  31.534   1.409   6.819
    1XTA    OA537349  31.538   1.331   6.697
    1XTA    CO737350  31.596   1.201   6.721
    1XTA    CT237351  31.621   1.122   6.583
    1XTA   CL1137352  31.759   1.169   6.522
    1XTA   CL1237353  31.796   1.104   6.383
    1XTA    HL137354  30.198   0.427   6.328
    1XTA    HL237355  30.351   0.396   6.395
    1XTA    HL337356  30.249   0.515   6.470
    1XTA    HL437357  31.136   0.594   5.861
    1XTA    HL537358  31.188   0.763   5.922
    1XTA    HL637359  31.344   0.663   5.756
    1XTA    HL737360  31.401   0.544   5.873
    1XTA    HL837361  31.454   0.723   6.032
    1XTA    HL937362  31.412   0.839   5.903
    1XTA   HL1037363  31.572   0.743   5.765
    1XTA   HL1137364  31.660   0.798   5.905
    1XTA   HL1237365  31.616   0.528   5.952
    1XTA   HL1337366  31.760   0.619   5.932
    1XTA   HL1437367  31.747   0.428   5.754
    1XTA   HL1537368  31.587   0.477   5.715
    1XTA   HL1637369  31.906   0.702   5.780
    1XTA   HL1737370  31.939   0.526   5.756
    1XTA   HL1837371  31.771   0.756   5.505
    1XTA   HL1937372  31.908   0.791   5.414
    1XTA   HL2037373  31.978   0.964   5.573
    1XTA   HL2137374  31.870   0.890   5.703
    1XTA   HL2237375  31.802   0.960   5.557
    1XTA   HL2337376  30.946   1.420   6.594
    1XTA   HL2437377  31.098   1.327   6.610
    1XTA   HL2537378  31.080   1.544   6.766
    1XTA   HL2637379  30.945   1.467   6.844
    1XTA   HL2737380  31.157   1.387   6.985
    1XTA   HL2837381  31.145   1.263   6.867
    1XTA   HL2937382  31.278   1.358   6.725
    1XTA   HL3037383  31.301   1.523   6.793
    1XTA   HL3137384  31.396   1.421   7.003
    1XTA   HL3237385  31.408   1.269   6.917
    1XTA   HL3337386  31.533   1.509   6.775
    1XTA   HL3437387  31.634   1.397   6.867
    1XTA   HL3537388  31.531   1.143   6.795
    1XTA   HL3637389  31.688   1.217   6.770
    1XTA   HL3737390  31.840   1.158   6.594
    1XTA   HL3837391  31.744   1.273   6.509
    1XTA   HL3937392  31.877   1.150   6.339
    1XTA   HL4037393  31.715   1.101   6.312
    1XTA   HL4137394  31.818   0.994   6.400
    1XTA    CO837395  31.986   0.542   5.484
    1XTA    CO937396  32.108   0.702   5.607
    1XTA    OA637397  32.192   0.601   5.677
    1XTA   HL4237398  31.894   0.486   5.464
    1XTA   HL4337399  32.059   0.470   5.535
    1XTA   HL4437400  31.488   1.248   6.475
    1XTA   HL4537401  31.414   1.110   6.536
    1XTA   CO1037402  31.500   1.136   6.482
    1XTA   CO1137403  31.636   0.976   6.617
    1XTA    OA737404  31.723   0.949   6.727
    1XTA   HL4637405  31.531   0.933   6.632
    1XTA   HL4737406  31.689   0.921   6.537
    1XTA   HL4837407  32.119   0.785   5.673
    1XTA   HL4937408  32.147   0.730   5.515
    1XTA     NT37409  32.979  -0.710   3.957
    1XTA    CN137410  32.931  -0.587   3.948
    1XTA     C137411  33.008  -0.487   3.889
    1XTA     C237412  32.969  -0.351   3.899
    1XTA     C337413  32.847  -0.319   3.962
    1XTA     C437414  32.774  -0.419   4.022
    1XTA     C537415  32.820  -0.553   4.023
    1XTA    CN237416  33.065  -0.736   4.057
    1XTA     C637417  33.024  -0.832   4.155
    1XTA     C737418  33.120  -0.892   4.242
    1XTA     C837419  33.254  -0.850   4.240
    1XTA     C937420  33.288  -0.733   4.159
    1XTA    C1037421  33.194  -0.678   4.070
    1XTA    CN337422  32.927  -0.800   3.877
    1XTA    C1137423  32.803  -0.863   3.904
    1XTA    C1237424  32.747  -0.958   3.817
    1XTA    C1337425  32.815  -0.986   3.695
    1XTA    C1437426  32.935  -0.919   3.664
    1XTA    C1537427  32.991  -0.829   3.753
    1XTA     H137428  33.098  -0.515   3.840
    1XTA     H237429  33.044  -0.278   3.862
    1XTA     H337430  32.673  -0.402   4.058
    1XTA     H437431  32.757  -0.637   4.063
    1XTA     H537432  32.931  -0.877   4.150
    1XTA     H637433  33.086  -0.975   4.305
    1XTA     H737434  33.392  -0.697   4.159
    1XTA     H837435  33.227  -0.604   3.999
    1XTA     H937436  32.746  -0.845   4.000
    1XTA    H1037437  32.651  -1.005   3.850
    1XTA    H1137438  32.981  -0.948   3.573
    1XTA    H1237439  33.086  -0.775   3.733
    1XTA    OA137440  32.808  -0.188   3.957
    1XTA    CO137441  32.709  -0.148   4.049
    1XTA    OA237442  33.356  -0.912   4.306
    1XTA    CO237443  33.315  -1.020   4.386
    1XTA    CL137444  33.432  -1.076   4.463
    1XTA    CL237445  33.404  -1.210   4.537
    1XTA    CL337446  33.498  -1.234   4.655
    1XTA    CL437447  33.485  -1.369   4.734
    1XTA    CO337448  33.604  -1.397   4.832
    1XTA    OA337449  33.711  -1.430   4.745
    1XTA    CO437450  33.770  -1.551   4.760
    1XTA    CT137451  33.885  -1.589   4.663
    1XTA    CL537452  33.944  -1.723   4.720
    1XTA    CL637453  34.068  -1.774   4.655
    1XTA    OA437454  32.761  -1.070   3.603
    1XTA    CO537455  32.621  -1.067   3.585
    1XTA    CL737456  32.593  -1.105   3.435
    1XTA    CL837457  32.447  -1.089   3.388
    1XTA    CL937458  32.391  -0.953   3.421
    1XTA   CL1037459  32.457  -0.835   3.351
    1XTA    CO637460  32.427  -0.703   3.416
    1XTA    OA537461  32.505  -0.596   3.351
    1XTA    CO737462  32.460  -0.562   3.221
    1XTA    CT237463  32.565  -0.455   3.168
    1XTA   CL1137464  32.708  -0.507   3.178
    1XTA   CL1237465  32.817  -0.419   3.115
    1XTA    HL137466  32.677  -0.051   4.016
    1XTA    HL237467  32.628  -0.221   4.044
    1XTA    HL337468  32.747  -0.140   4.149
    1XTA    HL437469  33.233  -0.995   4.454
    1XTA    HL537470  33.280  -1.103   4.328
    1XTA    HL637471  33.470  -1.004   4.530
    1XTA    HL737472  33.516  -1.097   4.405
    1XTA    HL837473  33.413  -1.296   4.472
    1XTA    HL937474  33.303  -1.207   4.572
    1XTA   HL1037475  33.591  -1.228   4.593
    1XTA   HL1137476  33.486  -1.153   4.726
    1XTA   HL1237477  33.496  -1.444   4.657
    1XTA   HL1337478  33.394  -1.385   4.785
    1XTA   HL1437479  33.630  -1.316   4.898
    1XTA   HL1537480  33.564  -1.486   4.883
    1XTA   HL1637481  33.808  -1.553   4.861
    1XTA   HL1737482  33.696  -1.631   4.760
    1XTA   HL1837483  33.867  -1.804   4.713
    1XTA   HL1937484  33.958  -1.705   4.824
    1XTA   HL2037485  34.148  -1.706   4.666
    1XTA   HL2137486  34.062  -1.788   4.543
    1XTA   HL2237487  34.090  -1.867   4.699
    1XTA   HL2337488  32.586  -0.962   3.594
    1XTA   HL2437489  32.558  -1.129   3.649
    1XTA   HL2537490  32.665  -1.060   3.371
    1XTA   HL2637491  32.623  -1.208   3.425
    1XTA   HL2737492  32.457  -1.100   3.280
    1XTA   HL2837493  32.380  -1.164   3.429
    1XTA   HL2937494  32.285  -0.963   3.398
    1XTA   HL3037495  32.379  -0.943   3.530
    1XTA   HL3137496  32.565  -0.842   3.354
    1XTA   HL3237497  32.441  -0.833   3.243
    1XTA   HL3337498  32.319  -0.678   3.408
    1XTA   HL3437499  32.456  -0.704   3.523
    1XTA   HL3537500  32.360  -0.526   3.216
    1XTA   HL3637501  32.451  -0.649   3.158
    1XTA   HL3737502  32.710  -0.611   3.135
    1XTA   HL3837503  32.724  -0.521   3.289
    1XTA   HL3937504  32.919  -0.462   3.129
    1XTA   HL4037505  32.837  -0.323   3.164
    1XTA   HL4137506  32.807  -0.404   3.004
    1XTA    CO837507  33.987  -1.475   4.668
    1XTA    CO937508  33.824  -1.605   4.524
    1XTA    OA637509  33.758  -1.692   4.517
    1XTA   HL4237510  34.065  -1.494   4.591
    1XTA   HL4337511  33.940  -1.343   4.628
    1XTA   HL4437512  32.449  -0.304   3.282
    1XTA   HL4537513  32.587  -0.330   3.355
    1XTA   CO1037514  32.549  -0.326   3.253
    1XTA   CO1137515  32.517  -0.422   3.027
    1XTA    OA737516  32.614  -0.217   3.189
    1XTA   HL4637517  32.573  -0.345   2.975
    1XTA   HL4737518  32.417  -0.383   3.031
    1XTA   HL4837519  33.897  -1.618   4.451
    1XTA   HL4937520  33.761  -1.515   4.504
    1XTA     NT37521  30.516  -1.427   0.109
    1XTA    CN137522  30.564  -1.324   0.186
    1XTA     C137523  30.520  -1.193   0.162
    1XTA     C237524  30.552  -1.087   0.249
    1XTA     C337525  30.630  -1.109   0.361
    1XTA     C437526  30.681  -1.238   0.389
    1XTA     C537527  30.644  -1.345   0.305
    1XTA    CN237528  30.386  -1.426   0.080
    1XTA     C637529  30.293  -1.473   0.174
    1XTA     C737530  30.157  -1.493   0.139
    1XTA     C837531  30.109  -1.451   0.011
    1XTA     C937532  30.204  -1.396  -0.077
    1XTA    C1037533  30.341  -1.383  -0.046
    1XTA    CN337534  30.592  -1.529   0.054
    1XTA    C1137535  30.641  -1.632   0.137
    1XTA    C1237536  30.702  -1.744   0.083
    1XTA    C1337537  30.726  -1.754  -0.052
    1XTA    C1437538  30.684  -1.647  -0.139
    1XTA    C1537539  30.616  -1.535  -0.087
    1XTA     H137540  30.452  -1.177   0.082
    1XTA     H237541  30.501  -0.993   0.222
    1XTA     H337542  30.736  -1.241   0.482
    1XTA     H437543  30.665  -1.447   0.336
    1XTA     H537544  30.330  -1.493   0.271
    1XTA     H637545  30.089  -1.531   0.216
    1XTA     H737546  30.180  -1.367  -0.178
    1XTA     H837547  30.401  -1.342  -0.128
    1XTA     H937548  30.632  -1.629   0.238
    1XTA    H1037549  30.730  -1.812   0.155
    1XTA    H1137550  30.720  -1.642  -0.245
    1XTA    H1237551  30.589  -1.457  -0.157
    1XTA    OA137552  30.664  -1.012   0.446
    1XTA    CO137553  30.593  -0.889   0.443
    1XTA    OA237554  29.975  -1.463  -0.015
    1XTA    CO237555  29.922  -1.336  -0.057
    1XTA    CL137556  29.766  -1.338  -0.067
    1XTA    CL237557  29.690  -1.202  -0.038
    1XTA    CL337558  29.547  -1.230  -0.008
    1XTA    CL437559  29.453  -1.226  -0.129
    1XTA    CO337560  29.464  -1.347  -0.219
    1XTA    OA337561  29.471  -1.466  -0.138
    1XTA    CO437562  29.476  -1.575  -0.226
    1XTA    CT137563  29.484  -1.701  -0.137
    1XTA    CL537564  29.360  -1.702  -0.044
    1XTA    CL637565  29.221  -1.731  -0.109
    1XTA    OA437566  30.804  -1.857  -0.109
    1XTA    CO537567  30.828  -1.966  -0.023
    1XTA    CL737568  30.942  -2.055  -0.095
    1XTA    CL837569  30.892  -2.119  -0.222
    1XTA    CL937570  31.015  -2.187  -0.293
    1XTA   CL1037571  30.986  -2.273  -0.410
    1XTA    CO637572  30.948  -2.213  -0.550
    1XTA    OA537573  30.853  -2.119  -0.544
    1XTA    CO737574  30.798  -2.061  -0.661
    1XTA    CT237575  30.723  -1.925  -0.630
    1XTA   CL1137576  30.832  -1.820  -0.591
    1XTA   CL1237577  30.774  -1.679  -0.560
    1XTA    HL137578  30.622  -0.840   0.351
    1XTA    HL237579  30.487  -0.886   0.452
    1XTA    HL337580  30.621  -0.821   0.523
    1XTA    HL437581  29.944  -1.247   0.009
    1XTA    HL537582  29.966  -1.323  -0.153
    1XTA    HL637583  29.722  -1.413   0.003
    1XTA    HL737584  29.740  -1.381  -0.161
    1XTA    HL837585  29.718  -1.131  -0.115
    1XTA    HL937586  29.733  -1.166   0.050
    1XTA   HL1037587  29.536  -1.328   0.047
    1XTA   HL1137588  29.508  -1.162   0.065
    1XTA   HL1237589  29.453  -1.129  -0.179
    1XTA   HL1337590  29.347  -1.227  -0.087
    1XTA   HL1437591  29.388  -1.349  -0.302
    1XTA   HL1537592  29.561  -1.354  -0.270
    1XTA   HL1637593  29.391  -1.573  -0.298
    1XTA   HL1737594  29.563  -1.566  -0.288
    1XTA   HL1837595  29.353  -1.617   0.027
    1XTA   HL1937596  29.379  -1.784   0.026
    1XTA   HL2037597  29.160  -1.793  -0.044
    1XTA   HL2137598  29.234  -1.808  -0.191
    1XTA   HL2237599  29.167  -1.633  -0.143
    1XTA   HL2337600  30.740  -2.017   0.016
    1XTA   HL2437601  30.870  -1.925   0.072
    1XTA   HL2537602  31.021  -1.984  -0.124
    1XTA   HL2637603  30.973  -2.130  -0.025
    1XTA   HL2737604  30.800  -2.180  -0.220
    1XTA   HL2837605  30.868  -2.039  -0.284
    1XTA   HL2937606  31.084  -2.106  -0.320
    1XTA   HL3037607  31.054  -2.249  -0.216
    1XTA   HL3137608  31.056  -2.353  -0.427
    1XTA   HL3237609  30.902  -2.331  -0.377
    1XTA   HL3337610  31.039  -2.170  -0.600
    1XTA   HL3437611  30.911  -2.301  -0.614
    1XTA   HL3537612  30.728  -2.130  -0.712
    1XTA   HL3637613  30.869  -2.048  -0.743
    1XTA   HL3737614  30.911  -1.824  -0.663
    1XTA   HL3837615  30.887  -1.855  -0.507
    1XTA   HL3937616  30.707  -1.680  -0.476
    1XTA   HL4037617  30.726  -1.627  -0.646
    1XTA   HL4137618  30.857  -1.612  -0.529
    1XTA    CO837619  29.615  -1.691  -0.052
    1XTA    CO937620  29.494  -1.820  -0.229
    1XTA    OA637621  29.449  -1.940  -0.162
    1XTA   HL4237622  29.697  -1.656  -0.123
    1XTA   HL4337623  29.612  -1.610   0.027
    1XTA   HL4437624  30.558  -1.861  -0.500
    1XTA   HL4537625  30.690  -1.977  -0.399
    1XTA   CO1037626  30.621  -1.946  -0.509
    1XTA   CO1137627  30.642  -1.866  -0.757
    1XTA    OA737628  30.696  -1.856  -0.844
    1XTA   HL4637629  30.547  -1.926  -0.779
    1XTA   HL4737630  30.594  -1.773  -0.741
    1XTA   HL4837631  29.587  -1.836  -0.283
    1XTA   HL4937632  29.429  -1.808  -0.316
    1XTA     NT37633  30.000   0.048   1.396
    1XTA    CN137634  29.890   0.119   1.397
    1XTA     C137635  29.856   0.201   1.506
    1XTA     C237636  29.741   0.289   1.497
    1XTA     C337637  29.660   0.278   1.384
    1XTA     C437638  29.702   0.197   1.273
    1XTA     C537639  29.819   0.123   1.276
    1XTA    CN237640  30.109   0.086   1.332
    1XTA     C637641  30.136   0.028   1.204
    1XTA     C737642  30.258   0.053   1.138
    1XTA     C837643  30.349   0.146   1.189
    1XTA     C937644  30.316   0.216   1.310
    1XTA    C1037645  30.192   0.192   1.378
    1XTA    CN337646  30.002  -0.067   1.465
    1XTA    C1137647  29.979  -0.188   1.407
    1XTA    C1237648  29.975  -0.308   1.480
    1XTA    C1337649  29.998  -0.311   1.620
    1XTA    C1437650  30.011  -0.187   1.681
    1XTA    C1537651  30.018  -0.068   1.603
    1XTA     H137652  29.913   0.197   1.598
    1XTA     H237653  29.717   0.358   1.580
    1XTA     H337654  29.631   0.191   1.193
    1XTA     H437655  29.857   0.074   1.191
    1XTA     H537656  30.063  -0.042   1.175
    1XTA     H637657  30.274  -0.003   1.046
    1XTA     H737658  30.380   0.292   1.343
    1XTA     H837659  30.165   0.249   1.469
    1XTA     H937660  29.970  -0.185   1.301
    1XTA    H1037661  29.945  -0.398   1.441
    1XTA    H1137662  30.007  -0.188   1.783
    1XTA    H1237663  30.021   0.027   1.652
    1XTA    OA137664  29.541   0.349   1.367
    1XTA    CO137665  29.492   0.401   1.484
    1XTA    OA237666  30.466   0.162   1.125
    1XTA    CO237667  30.447   0.218   0.995
    1XTA    CL137668  30.558   0.186   0.898
    1XTA    CL237669  30.534   0.195   0.750
    1XTA    CL337670  30.583   0.324   0.684
    1XTA    CL437671  30.528   0.345   0.545
    1XTA    CO337672  30.392   0.412   0.545
    1XTA    OA337673  30.395   0.520   0.638
    1XTA    CO437674  30.266   0.557   0.681
    1XTA    CT137675  30.288   0.689   0.755
    1XTA    CL537676  30.327   0.797   0.660
    1XTA    CL637677  30.477   0.805   0.633
    1XTA    OA437678  29.989  -0.433   1.684
    1XTA    CO537679  30.049  -0.442   1.814
    1XTA    CL737680  30.066  -0.583   1.857
    1XTA    CL837681  30.134  -0.670   1.748
    1XTA    CL937682  30.162  -0.818   1.786
    1XTA   CL1037683  30.191  -0.896   1.662
    1XTA    CO637684  30.256  -1.037   1.686
    1XTA    OA537685  30.242  -1.112   1.563
    1XTA    CO737686  30.116  -1.169   1.535
    1XTA    CT237687  30.080  -1.195   1.389
    1XTA   CL1137688  29.976  -1.303   1.389
    1XTA   CL1237689  29.872  -1.320   1.275
    1XTA    HL137690  29.386   0.431   1.480
    1XTA    HL237691  29.495   0.321   1.565
    1XTA    HL337692  29.552   0.474   1.530
    1XTA    HL437693  30.350   0.197   0.951
    1XTA    HL537694  30.429   0.325   1.016
    1XTA    HL637695  30.573   0.077   0.913
    1XTA    HL737696  30.649   0.230   0.935
    1XTA    HL837697  30.427   0.179   0.725
    1XTA    HL937698  30.577   0.111   0.697
    1XTA   HL1037699  30.578   0.420   0.742
    1XTA   HL1137700  30.692   0.303   0.669
    1XTA   HL1237701  30.517   0.260   0.491
    1XTA   HL1337702  30.597   0.408   0.483
    1XTA   HL1437703  30.370   0.447   0.449
    1XTA   HL1537704  30.315   0.346   0.582
    1XTA   HL1637705  30.200   0.559   0.598
    1XTA   HL1737706  30.220   0.487   0.751
    1XTA   HL1837707  30.306   0.895   0.694
    1XTA   HL1937708  30.278   0.798   0.569
    1XTA   HL2037709  30.528   0.716   0.610
    1XTA   HL2137710  30.513   0.851   0.725
    1XTA   HL2237711  30.494   0.875   0.544
    1XTA   HL2337712  29.990  -0.392   1.886
    1XTA   HL2437713  30.152  -0.400   1.821
    1XTA   HL2537714  30.124  -0.594   1.958
    1XTA   HL2637715  29.972  -0.620   1.884
    1XTA   HL2737716  30.069  -0.679   1.656
    1XTA   HL2837717  30.222  -0.615   1.727
    1XTA   HL2937718  30.242  -0.817   1.859
    1XTA   HL3037719  30.075  -0.858   1.826
    1XTA   HL3137720  30.104  -0.896   1.597
    1XTA   HL3237721  30.273  -0.841   1.619
    1XTA   HL3337722  30.359  -1.021   1.709
    1XTA   HL3437723  30.219  -1.095   1.770
    1XTA   HL3537724  30.030  -1.118   1.580
    1XTA   HL3637725  30.125  -1.265   1.579
    1XTA   HL3737726  29.927  -1.314   1.493
    1XTA   HL3837727  30.031  -1.402   1.400
    1XTA   HL3937728  29.824  -1.415   1.292
    1XTA   HL4037729  29.920  -1.322   1.182
    1XTA   HL4137730  29.800  -1.234   1.288
    1XTA    CO837731  30.394   0.683   0.873
    1XTA    CO937732  30.153   0.722   0.828
    1XTA    OA637733  30.415   0.811   0.928
    1XTA   HL4237734  30.491   0.636   0.837
    1XTA   HL4337735  30.357   0.617   0.954
    1XTA   HL4437736  30.182  -1.256   1.175
    1XTA   HL4537737  30.280  -1.183   1.324
    1XTA   CO1037738  30.198  -1.258   1.314
    1XTA   CO1137739  30.047  -1.070   1.306
    1XTA    OA737740  29.959  -1.026   1.337
    1XTA   HL4637741  30.133  -1.004   1.327
    1XTA   HL4737742  30.050  -1.096   1.199
    1XTA   HL4837743  30.075   0.729   0.748
    1XTA   HL4937744  30.151   0.816   0.885
    1XTA     NT37745  33.582   1.956   4.326
    1XTA    CN137746  33.689   2.036   4.355
    1XTA     C137747  33.750   2.111   4.253
    1XTA     C237748  33.853   2.202   4.284
    1XTA     C337749  33.900   2.211   4.416
    1XTA     C437750  33.839   2.135   4.516
    1XTA     C537751  33.734   2.052   4.489
    1XTA    CN237752  33.567   1.882   4.216
    1XTA     C637753  33.463   1.927   4.123
    1XTA     C737754  33.423   1.836   4.018
    1XTA     C837755  33.464   1.708   4.012
    1XTA     C937756  33.569   1.672   4.101
    1XTA    C1037757  33.626   1.757   4.199
    1XTA    CN337758  33.479   1.965   4.412
    1XTA    C1137759  33.416   2.086   4.438
    1XTA    C1237760  33.317   2.092   4.540
    1XTA    C1337761  33.289   1.983   4.624
    1XTA    C1437762  33.349   1.858   4.594
    1XTA    C1537763  33.446   1.847   4.490
    1XTA     H137764  33.711   2.105   4.157
    1XTA     H237765  33.901   2.249   4.196
    1XTA     H337766  33.885   2.140   4.613
    1XTA     H437767  33.692   1.991   4.571
    1XTA     H537768  33.401   2.015   4.134
    1XTA     H637769  33.334   1.867   3.951
    1XTA     H737770  33.616   1.580   4.097
    1XTA     H837771  33.702   1.722   4.271
    1XTA     H937772  33.446   2.172   4.385
    1XTA    H1037773  33.268   2.189   4.563
    1XTA    H1137774  33.317   1.761   4.637
    1XTA    H1237775  33.497   1.756   4.465
    1XTA    OA137776  34.015   2.276   4.454
    1XTA    CO137777  34.064   2.374   4.359
    1XTA    OA237778  33.413   1.635   3.910
    1XTA    CO237779  33.380   1.507   3.945
    1XTA    CL137780  33.255   1.511   4.034
    1XTA    CL237781  33.236   1.382   4.111
    1XTA    CL337782  33.119   1.373   4.208
    1XTA    CL437783  33.137   1.471   4.316
    1XTA    CO337784  33.027   1.447   4.429
    1XTA    OA337785  32.902   1.476   4.370
    1XTA    CO437786  32.796   1.488   4.471
    1XTA    CT137787  32.673   1.546   4.406
    1XTA    CL537788  32.686   1.685   4.353
    1XTA    CL637789  32.728   1.803   4.441
    1XTA    OA437790  33.202   2.003   4.728
    1XTA    CO537791  33.113   1.891   4.755
    1XTA    CL737792  32.992   1.953   4.825
    1XTA    CL837793  32.886   1.967   4.715
    1XTA    CL937794  32.929   2.064   4.600
    1XTA   CL1037795  32.931   2.204   4.661
    1XTA    CO637796  32.976   2.308   4.558
    1XTA    OA537797  32.988   2.440   4.604
    1XTA    CO737798  33.071   2.460   4.717
    1XTA    CT237799  33.129   2.601   4.740
    1XTA   CL1137800  33.010   2.697   4.761
    1XTA   CL1237801  33.051   2.835   4.814
    1XTA    HL137802  34.136   2.435   4.408
    1XTA    HL237803  34.118   2.329   4.279
    1XTA    HL337804  33.989   2.431   4.303
    1XTA    HL437805  33.349   1.459   3.852
    1XTA    HL537806  33.460   1.457   3.988
    1XTA    HL637807  33.169   1.551   3.973
    1XTA    HL737808  33.252   1.596   4.107
    1XTA    HL837809  33.322   1.365   4.175
    1XTA    HL937810  33.237   1.298   4.034
    1XTA   HL1037811  33.025   1.391   4.159
    1XTA   HL1137812  33.105   1.274   4.251
    1XTA   HL1237813  33.129   1.572   4.283
    1XTA   HL1337814  33.236   1.458   4.358
    1XTA   HL1437815  33.025   1.352   4.473
    1XTA   HL1537816  33.032   1.524   4.509
    1XTA   HL1637817  32.780   1.389   4.516
    1XTA   HL1737818  32.827   1.554   4.556
    1XTA   HL1837819  32.586   1.709   4.312
    1XTA   HL1937820  32.742   1.678   4.256
    1XTA   HL2037821  32.836   1.804   4.458
    1XTA   HL2137822  32.681   1.810   4.532
    1XTA   HL2237823  32.715   1.900   4.390
    1XTA   HL2337824  33.170   1.824   4.821
    1XTA   HL2437825  33.084   1.836   4.670
    1XTA   HL2537826  32.952   1.888   4.902
    1XTA   HL2637827  33.015   2.044   4.878
    1XTA   HL2737828  32.876   1.873   4.669
    1XTA   HL2837829  32.784   1.984   4.763
    1XTA   HL2937830  33.026   2.045   4.548
    1XTA   HL3037831  32.858   2.058   4.519
    1XTA   HL3137832  32.835   2.236   4.704
    1XTA   HL3237833  33.008   2.214   4.737
    1XTA   HL3337834  33.058   2.267   4.502
    1XTA   HL3437835  32.905   2.313   4.472
    1XTA   HL3537836  33.156   2.386   4.721
    1XTA   HL3637837  33.022   2.441   4.808
    1XTA   HL3737838  32.953   2.652   4.841
    1XTA   HL3837839  32.940   2.695   4.674
    1XTA   HL3937840  32.958   2.880   4.849
    1XTA   HL4037841  33.084   2.907   4.739
    1XTA   HL4137842  33.121   2.843   4.888
    1XTA    CO837843  32.544   1.548   4.504
    1XTA    CO937844  32.636   1.450   4.287
    1XTA    OA637845  32.499   1.412   4.543
    1XTA   HL4237846  32.464   1.598   4.458
    1XTA   HL4337847  32.562   1.604   4.595
    1XTA   HL4437848  33.176   2.571   4.534
    1XTA   HL4537849  33.213   2.741   4.593
    1XTA   CO1037850  33.220   2.632   4.618
    1XTA   CO1137851  33.216   2.591   4.862
    1XTA    OA737852  33.147   2.584   4.980
    1XTA   HL4637853  33.284   2.500   4.848
    1XTA   HL4737854  33.280   2.674   4.861
    1XTA   HL4837855  32.720   1.441   4.223
    1XTA   HL4937856  32.615   1.350   4.331
    1XTA     NT37857  31.690  -1.603   2.315
    1XTA    CN137858  31.816  -1.631   2.358
    1XTA     C137859  31.909  -1.534   2.353
    1XTA     C237860  32.043  -1.553   2.399
    1XTA     C337861  32.083  -1.675   2.457
    1XTA     C437862  31.978  -1.771   2.467
    1XTA     C537863  31.851  -1.756   2.411
    1XTA    CN237864  31.583  -1.573   2.398
    1XTA     C637865  31.474  -1.493   2.347
    1XTA     C737866  31.368  -1.485   2.435
    1XTA     C837867  31.358  -1.534   2.566
    1XTA     C937868  31.473  -1.593   2.619
    1XTA    C1037869  31.585  -1.611   2.536
    1XTA    CN337870  31.662  -1.660   2.196
    1XTA    C1137871  31.616  -1.796   2.190
    1XTA    C1237872  31.576  -1.850   2.065
    1XTA    C1337873  31.579  -1.771   1.946
    1XTA    C1437874  31.627  -1.638   1.949
    1XTA    C1537875  31.664  -1.581   2.074
    1XTA     H137876  31.887  -1.441   2.304
    1XTA     H237877  32.113  -1.469   2.395
    1XTA     H337878  32.000  -1.868   2.506
    1XTA     H437879  31.783  -1.839   2.425
    1XTA     H537880  31.464  -1.446   2.257
    1XTA     H637881  31.276  -1.439   2.397
    1XTA     H737882  31.480  -1.611   2.731
    1XTA     H837883  31.675  -1.656   2.565
    1XTA     H937884  31.608  -1.863   2.277
    1XTA    H1037885  31.542  -1.953   2.053
    1XTA    H1137886  31.628  -1.578   1.861
    1XTA    H1237887  31.690  -1.477   2.063
    1XTA    OA137888  32.214  -1.694   2.483
    1XTA    CO137889  32.265  -1.827   2.500
    1XTA    OA237890  31.243  -1.501   2.636
    1XTA    CO237891  31.227  -1.559   2.765
    1XTA    CL137892  31.278  -1.462   2.879
    1XTA    CL237893  31.239  -1.493   3.026
    1XTA    CL337894  31.088  -1.475   3.052
    1XTA    CL437895  31.068  -1.468   3.209
    1XTA    CO337896  30.930  -1.420   3.250
    1XTA    OA337897  30.850  -1.526   3.201
    1XTA    CO437898  30.714  -1.501   3.226
    1XTA    CT137899  30.630  -1.615   3.162
    1XTA    CL537900  30.629  -1.595   3.009
    1XTA    CL637901  30.747  -1.657   2.931
    1XTA    OA437902  31.532  -1.813   1.827
    1XTA    CO537903  31.423  -1.901   1.843
    1XTA    CL737904  31.371  -1.922   1.702
    1XTA    CL837905  31.241  -2.010   1.718
    1XTA    CL937906  31.170  -2.032   1.581
    1XTA   CL1037907  31.020  -2.073   1.599
    1XTA    CO637908  30.929  -1.948   1.630
    1XTA    OA537909  30.794  -1.994   1.626
    1XTA    CO737910  30.702  -1.884   1.627
    1XTA    CT237911  30.572  -1.914   1.696
    1XTA   CL1137912  30.604  -1.990   1.825
    1XTA   CL1237913  30.662  -1.916   1.947
    1XTA    HL137914  32.200  -1.867   2.584
    1XTA    HL237915  32.238  -1.896   2.417
    1XTA    HL337916  32.370  -1.845   2.518
    1XTA    HL437917  31.119  -1.562   2.764
    1XTA    HL537918  31.279  -1.663   2.762
    1XTA    HL637919  31.242  -1.360   2.864
    1XTA    HL737920  31.386  -1.458   2.871
    1XTA    HL837921  31.283  -1.422   3.090
    1XTA    HL937922  31.287  -1.586   3.063
    1XTA   HL1037923  31.061  -1.375   3.016
    1XTA   HL1137924  31.040  -1.558   3.002
    1XTA   HL1237925  31.135  -1.387   3.247
    1XTA   HL1337926  31.089  -1.558   3.264
    1XTA   HL1437927  30.919  -1.419   3.362
    1XTA   HL1537928  30.895  -1.336   3.198
    1XTA   HL1637929  30.693  -1.491   3.331
    1XTA   HL1737930  30.685  -1.399   3.199
    1XTA   HL1837931  30.618  -1.482   2.994
    1XTA   HL1937932  30.543  -1.637   2.966
    1XTA   HL2037933  30.734  -1.632   2.822
    1XTA   HL2137934  30.753  -1.769   2.954
    1XTA   HL2237935  30.841  -1.615   2.966
    1XTA   HL2337936  31.343  -1.865   1.906
    1XTA   HL2437937  31.459  -1.997   1.878
    1XTA   HL2537938  31.354  -1.828   1.651
    1XTA   HL2637939  31.445  -1.981   1.647
    1XTA   HL2737940  31.270  -2.112   1.755
    1XTA   HL2837941  31.182  -1.957   1.795
    1XTA   HL2937942  31.183  -1.924   1.541
    1XTA   HL3037943  31.232  -2.104   1.530
    1XTA   HL3137944  30.976  -2.112   1.508
    1XTA   HL3237945  31.017  -2.158   1.677
    1XTA   HL3337946  30.956  -1.908   1.725
    1XTA   HL3437947  30.950  -1.866   1.555
    1XTA   HL3537948  30.674  -1.843   1.535
    1XTA   HL3637949  30.741  -1.795   1.670
    1XTA   HL3737950  30.657  -2.087   1.806
    1XTA   HL3837951  30.510  -2.019   1.870
    1XTA   HL3937952  30.768  -1.905   1.936
    1XTA   HL4037953  30.650  -1.980   2.038
    1XTA   HL4137954  30.630  -1.816   1.976
    1XTA    CO837955  30.483  -1.605   3.213
    1XTA    CO937956  30.692  -1.752   3.210
    1XTA    OA637957  30.686  -1.744   3.323
    1XTA   HL4237958  30.422  -1.695   3.189
    1XTA   HL4337959  30.483  -1.596   3.349
    1XTA   HL4437960  30.551  -2.094   1.580
    1XTA   HL4537961  30.463  -1.971   1.519
    1XTA   CO1037962  30.484  -2.011   1.611
    1XTA   CO1137963  30.488  -1.786   1.722
    1XTA    OA737964  30.435  -1.740   1.598
    1XTA   HL4637965  30.401  -1.809   1.790
    1XTA   HL4737966  30.555  -1.712   1.765
    1XTA   HL4837967  30.789  -1.773   3.175
    1XTA   HL4937968  30.619  -1.835   3.175
    1XTA     NT37969  31.447   2.526   4.181
    1XTA    CN137970  31.333   2.527   4.120
    1XTA     C137971  31.252   2.638   4.124
    1XTA     C237972  31.124   2.642   4.058
    1XTA     C337973  31.077   2.526   3.987
    1XTA     C437974  31.161   2.413   3.984
    1XTA     C537975  31.285   2.413   4.046
    1XTA    CN237976  31.554   2.566   4.108
    1XTA     C637977  31.561   2.693   4.044
    1XTA     C737978  31.674   2.733   3.967
    1XTA     C837979  31.785   2.649   3.966
    1XTA     C937980  31.776   2.517   4.023
    1XTA    C1037981  31.657   2.475   4.085
    1XTA    CN337982  31.454   2.532   4.314
    1XTA    C1137983  31.510   2.643   4.382
    1XTA    C1237984  31.503   2.643   4.522
    1XTA    C1337985  31.443   2.538   4.599
    1XTA    C1437986  31.395   2.424   4.528
    1XTA    C1537987  31.402   2.420   4.387
    1XTA     H137988  31.283   2.728   4.175
    1XTA     H237989  31.056   2.725   4.061
    1XTA     H337990  31.120   2.326   3.929
    1XTA     H437991  31.349   2.328   4.045
    1XTA     H537992  31.483   2.756   4.056
    1XTA     H637993  31.679   2.835   3.928
    1XTA     H737994  31.863   2.451   4.012
    1XTA     H837995  31.655   2.371   4.120
    1XTA     H937996  31.538   2.732   4.331
    1XTA    H1037997  31.544   2.725   4.572
    1XTA    H1137998  31.343   2.340   4.572
    1XTA    H1237999  31.377   2.336   4.324
    1XTA    OA138000  30.965   2.515   3.910
    1XTA    CO138001  30.883   2.621   3.889
    1XTA    OA238002  31.904   2.689   3.913
    1XTA    CO238003  31.901   2.758   3.788
    1XTA    CL138004  31.853   2.666   3.673
    1XTA    CL238005  31.862   2.739   3.539
    1XTA    CL338006  31.801   2.650   3.431
    1XTA    CL438007  31.872   2.519   3.396
    1XTA    CO338008  31.854   2.460   3.255
    1XTA    OA338009  31.719   2.438   3.230
    1XTA    CO438010  31.714   2.382   3.099
    1XTA    CT138011  31.595   2.290   3.093
    1XTA    CL538012  31.588   2.206   2.967
    1XTA    CL638013  31.565   2.298   2.837
    1XTA    OA438014  31.454   2.532   4.738
    1XTA    CO538015  31.376   2.438   4.814
    1XTA    CL738016  31.397   2.438   4.961
    1XTA    CL838017  31.300   2.353   5.041
    1XTA    CL938018  31.304   2.204   5.008
    1XTA   CL1038019  31.433   2.123   5.033
    1XTA    CO638020  31.423   1.973   4.989
    1XTA    OA538021  31.401   1.958   4.851
    1XTA    CO738022  31.431   1.833   4.805
    1XTA    CT238023  31.448   1.855   4.646
    1XTA   CL1138024  31.439   1.718   4.571
    1XTA   CL1238025  31.299   1.661   4.589
    1XTA    HL138026  30.815   2.597   3.808
    1XTA    HL238027  30.816   2.635   3.972
    1XTA    HL338028  30.931   2.714   3.869
    1XTA    HL438029  31.847   2.853   3.783
    1XTA    HL538030  32.002   2.770   3.756
    1XTA    HL638031  31.745   2.653   3.690
    1XTA    HL738032  31.904   2.568   3.673
    1XTA    HL838033  31.968   2.768   3.518
    1XTA    HL938034  31.813   2.832   3.559
    1XTA   HL1038035  31.697   2.635   3.465
    1XTA   HL1138036  31.799   2.702   3.332
    1XTA   HL1238037  31.843   2.449   3.476
    1XTA   HL1338038  31.979   2.534   3.409
    1XTA   HL1438039  31.891   2.535   3.179
    1XTA   HL1538040  31.924   2.368   3.251
    1XTA   HL1638041  31.704   2.458   3.023
    1XTA   HL1738042  31.810   2.343   3.070
    1XTA   HL1838043  31.511   2.126   2.969
    1XTA   HL1938044  31.685   2.151   2.956
    1XTA   HL2038045  31.460   2.337   2.836
    1XTA   HL2138046  31.575   2.234   2.753
    1XTA   HL2238047  31.647   2.376   2.827
    1XTA   HL2338048  31.411   2.341   4.780
    1XTA   HL2438049  31.268   2.453   4.788
    1XTA   HL2538050  31.492   2.400   4.990
    1XTA   HL2638051  31.396   2.539   4.998
    1XTA   HL2738052  31.309   2.358   5.145
    1XTA   HL2838053  31.199   2.391   5.010
    1XTA   HL2938054  31.222   2.164   5.063
    1XTA   HL3038055  31.276   2.180   4.902
    1XTA   HL3138056  31.525   2.171   4.992
    1XTA   HL3238057  31.445   2.127   5.135
    1XTA   HL3338058  31.525   1.930   5.003
    1XTA   HL3438059  31.352   1.913   5.046
    1XTA   HL3538060  31.345   1.781   4.837
    1XTA   HL3638061  31.523   1.787   4.845
    1XTA   HL3738062  31.518   1.665   4.628
    1XTA   HL3838063  31.460   1.730   4.466
    1XTA   HL3938064  31.226   1.736   4.574
    1XTA   HL4038065  31.287   1.616   4.686
    1XTA   HL4138066  31.274   1.578   4.525
    1XTA    CO838067  31.470   2.376   3.111
    1XTA    CO938068  31.594   2.199   3.216
    1XTA    OA638069  31.370   2.333   3.109
    1XTA   HL4238070  31.477   2.458   3.050
    1XTA   HL4338071  31.474   2.421   3.209
    1XTA   HL4438072  31.601   2.054   4.660
    1XTA   HL4538073  31.588   1.931   4.505
    1XTA   CO1038074  31.584   1.922   4.611
    1XTA   CO1138075  31.345   1.957   4.596
    1XTA    OA738076  31.346   1.976   4.484
    1XTA   HL4638077  31.241   1.926   4.621
    1XTA   HL4738078  31.344   2.050   4.655
    1XTA   HL4838079  31.599   2.262   3.338
    1XTA   HL4938080  31.504   2.135   3.218
    1XTA     NT38081  33.128   2.313   4.061
    1XTA    CN138082  33.094   2.185   4.086
    1XTA     C138083  33.072   2.094   3.979
    1XTA     C238084  33.030   1.964   3.998
    1XTA     C338085  33.010   1.918   4.123
    1XTA     C438086  33.040   2.001   4.235
    1XTA     C538087  33.083   2.134   4.215
    1XTA    CN238088  33.248   2.328   4.016
    1XTA     C638089  33.360   2.343   4.105
    1XTA     C738090  33.492   2.371   4.062
    1XTA     C838091  33.508   2.397   3.925
    1XTA     C938092  33.404   2.380   3.826
    1XTA    C1038093  33.274   2.358   3.881
    1XTA    CN338094  33.041   2.415   4.050
    1XTA    C1138095  33.012   2.506   4.158
    1XTA    C1238096  32.913   2.606   4.145
    1XTA    C1338097  32.838   2.618   4.027
    1XTA    C1438098  32.856   2.524   3.930
    1XTA    C1538099  32.959   2.432   3.939
    1XTA     H138100  33.090   2.131   3.876
    1XTA     H238101  33.014   1.892   3.914
    1XTA     H338102  33.044   1.958   4.327
    1XTA     H438103  33.108   2.201   4.293
    1XTA     H538104  33.342   2.322   4.216
    1XTA     H638105  33.569   2.375   4.139
    1XTA     H738106  33.418   2.398   3.721
    1XTA     H838107  33.197   2.345   3.808
    1XTA     H938108  33.064   2.497   4.253
    1XTA    H1038109  32.900   2.683   4.214
    1XTA    H1138110  32.800   2.544   3.841
    1XTA    H1238111  32.972   2.369   3.845
    1XTA    OA138112  32.968   1.787   4.158
    1XTA    CO138113  32.902   1.712   4.051
    1XTA    OA238114  33.628   2.433   3.877
    1XTA    CO238115  33.630   2.569   3.835
    1XTA    CL138116  33.738   2.587   3.730
    1XTA    CL238117  33.718   2.512   3.599
    1XTA    CL338118  33.711   2.361   3.601
    1XTA    CL438119  33.845   2.293   3.649
    1XTA    CO338120  33.838   2.133   3.677
    1XTA    OA338121  33.966   2.087   3.710
    1XTA    CO438122  33.974   1.943   3.721
    1XTA    CT138123  34.117   1.886   3.746
    1XTA    CL538124  34.209   1.935   3.642
    1XTA    CL638125  34.164   1.949   3.503
    1XTA    OA438126  32.748   2.716   4.008
    1XTA    CO538127  32.747   2.834   4.089
    1XTA    CL738128  32.660   2.934   4.016
    1XTA    CL838129  32.676   3.072   4.057
    1XTA    CL938130  32.601   3.178   3.967
    1XTA   CL1038131  32.654   3.315   4.018
    1XTA    CO638132  32.642   3.344   4.165
    1XTA    OA538133  32.737   3.273   4.235
    1XTA    CO738134  32.744   3.318   4.366
    1XTA    CT238135  32.831   3.221   4.450
    1XTA   CL1138136  32.763   3.084   4.461
    1XTA   CL1238137  32.863   2.973   4.503
    1XTA    HL138138  32.973   1.697   3.974
    1XTA    HL238139  32.891   1.612   4.093
    1XTA    HL338140  32.806   1.758   4.026
    1XTA    HL438141  33.527   2.601   3.809
    1XTA    HL538142  33.651   2.647   3.913
    1XTA    HL638143  33.833   2.558   3.773
    1XTA    HL738144  33.747   2.692   3.712
    1XTA    HL838145  33.808   2.540   3.540
    1XTA    HL938146  33.623   2.549   3.554
    1XTA   HL1038147  33.632   2.332   3.669
    1XTA   HL1138148  33.695   2.323   3.499
    1XTA   HL1238149  33.877   2.340   3.737
    1XTA   HL1338150  33.919   2.312   3.574
    1XTA   HL1438151  33.783   2.109   3.771
    1XTA   HL1538152  33.818   2.083   3.582
    1XTA   HL1638153  33.920   1.922   3.813
    1XTA   HL1738154  33.922   1.899   3.632
    1XTA   HL1838155  34.293   1.866   3.638
    1XTA   HL1938156  34.270   2.025   3.665
    1XTA   HL2038157  34.104   1.862   3.470
    1XTA   HL2138158  34.248   1.965   3.438
    1XTA   HL2238159  34.102   2.040   3.500
    1XTA   HL2338160  32.855   2.885   4.104
    1XTA   HL2438161  32.706   2.816   4.189
    1XTA   HL2538162  32.695   2.934   3.905
    1XTA   HL2638163  32.557   2.897   4.016
    1XTA   HL2738164  32.636   3.081   4.151
    1XTA   HL2838165  32.777   3.100   4.057
    1XTA   HL2938166  32.610   3.166   3.860
    1XTA   HL3038167  32.491   3.176   3.976
    1XTA   HL3138168  32.758   3.323   3.991
    1XTA   HL3238169  32.615   3.389   3.956
    1XTA   HL3338170  32.674   3.444   4.178
    1XTA   HL3438171  32.543   3.330   4.207
    1XTA   HL3538172  32.637   3.325   4.414
    1XTA   HL3638173  32.789   3.419   4.367
    1XTA   HL3738174  32.737   3.062   4.362
    1XTA   HL3838175  32.672   3.082   4.513
    1XTA   HL3938176  32.812   2.874   4.509
    1XTA   HL4038177  32.903   3.005   4.601
    1XTA   HL4138178  32.940   2.955   4.433
    1XTA    CO838179  34.102   1.735   3.734
    1XTA    CO938180  34.164   1.925   3.883
    1XTA    OA638181  34.137   1.853   3.967
    1XTA   HL4238182  34.198   1.687   3.743
    1XTA   HL4338183  34.030   1.681   3.845
    1XTA   HL4438184  32.951   3.391   4.565
    1XTA   HL4538185  32.952   3.206   4.624
    1XTA   CO1038186  32.875   3.276   4.588
    1XTA   CO1138187  32.965   3.197   4.361
    1XTA    OA738188  33.022   3.291   4.349
    1XTA   HL4638189  33.042   3.138   4.398
    1XTA   HL4738190  32.932   3.156   4.259
    1XTA   HL4838191  34.125   2.024   3.904
    1XTA   HL4938192  34.270   1.928   3.884
    1XTA     NT38193  30.449   2.262   7.663
    1XTA    CN138194  30.450   2.264   7.532
    1XTA     C138195  30.479   2.381   7.464
    1XTA     C238196  30.456   2.395   7.328
    1XTA     C338197  30.411   2.286   7.245
    1XTA     C438198  30.379   2.167   7.318
    1XTA     C538199  30.400   2.156   7.461
    1XTA    CN238200  30.353   2.332   7.739
    1XTA     C638201  30.220   2.302   7.729
    1XTA     C738202  30.126   2.371   7.810
    1XTA     C838203  30.169   2.476   7.897
    1XTA     C938204  30.299   2.514   7.900
    1XTA    C1038205  30.396   2.442   7.822
    1XTA    CN338206  30.504   2.158   7.729
    1XTA    C1138207  30.627   2.183   7.791
    1XTA    C1238208  30.684   2.079   7.867
    1XTA    C1338209  30.623   1.958   7.889
    1XTA    C1438210  30.497   1.940   7.832
    1XTA    C1538211  30.439   2.038   7.755
    1XTA     H138212  30.512   2.465   7.520
    1XTA     H238213  30.475   2.484   7.282
    1XTA     H338214  30.342   2.080   7.265
    1XTA     H438215  30.374   2.056   7.502
    1XTA     H538216  30.180   2.226   7.659
    1XTA     H638217  30.029   2.331   7.792
    1XTA     H738218  30.334   2.608   7.957
    1XTA     H838219  30.501   2.464   7.830
    1XTA     H938220  30.682   2.270   7.774
    1XTA    H1038221  30.780   2.101   7.921
    1XTA    H1138222  30.451   1.851   7.851
    1XTA    H1238223  30.342   2.018   7.726
    1XTA    OA138224  30.401   2.302   7.113
    1XTA    CO138225  30.308   2.221   7.048
    1XTA    OA238226  30.089   2.560   7.975
    1XTA    CO238227  29.960   2.512   7.979
    1XTA    CL138228  29.872   2.573   7.863
    1XTA    CL238229  29.733   2.493   7.850
    1XTA    CL338230  29.616   2.583   7.813
    1XTA    CL438231  29.490   2.507   7.778
    1XTA    CO338232  29.375   2.599   7.732
    1XTA    OA338233  29.409   2.678   7.620
    1XTA    CO438234  29.314   2.783   7.613
    1XTA    CT138235  29.377   2.905   7.538
    1XTA    CL538236  29.508   2.970   7.606
    1XTA    CL638237  29.495   3.036   7.743
    1XTA    OA438238  30.675   1.861   7.969
    1XTA    CO538239  30.806   1.861   8.014
    1XTA    CL738240  30.898   1.845   7.895
    1XTA    CL838241  31.048   1.846   7.932
    1XTA    CL938242  31.132   1.880   7.810
    1XTA   CL1038243  31.158   1.755   7.716
    1XTA    CO638244  31.165   1.803   7.575
    1XTA    OA538245  31.054   1.878   7.526
    1XTA    CO738246  30.928   1.816   7.522
    1XTA    CT238247  30.861   1.863   7.391
    1XTA   CL1138248  30.859   2.017   7.384
    1XTA   CL1238249  30.781   2.083   7.496
    1XTA    HL138250  30.300   2.250   6.940
    1XTA    HL238251  30.327   2.108   7.042
    1XTA    HL338252  30.205   2.230   7.091
    1XTA    HL438253  29.960   2.401   7.980
    1XTA    HL538254  29.926   2.549   8.076
    1XTA    HL638255  29.923   2.576   7.768
    1XTA    HL738256  29.862   2.682   7.879
    1XTA    HL838257  29.708   2.435   7.944
    1XTA    HL938258  29.745   2.424   7.768
    1XTA   HL1038259  29.605   2.648   7.899
    1XTA   HL1138260  29.640   2.646   7.723
    1XTA   HL1238261  29.441   2.447   7.860
    1XTA   HL1338262  29.522   2.433   7.701
    1XTA   HL1438263  29.288   2.544   7.706
    1XTA   HL1538264  29.353   2.662   7.820
    1XTA   HL1638265  29.225   2.751   7.563
    1XTA   HL1738266  29.284   2.818   7.711
    1XTA   HL1838267  29.542   3.049   7.528
    1XTA   HL1938268  29.577   2.886   7.613
    1XTA   HL2038269  29.439   3.128   7.732
    1XTA   HL2138270  29.596   3.065   7.787
    1XTA   HL2238271  29.442   2.964   7.813
    1XTA   HL2338272  30.819   1.776   8.088
    1XTA   HL2438273  30.810   1.949   8.079
    1XTA   HL2538274  30.870   1.757   7.830
    1XTA   HL2638275  30.884   1.929   7.832
    1XTA   HL2738276  31.073   1.903   8.016
    1XTA   HL2838277  31.071   1.747   7.965
    1XTA   HL2938278  31.088   1.968   7.750
    1XTA   HL3038279  31.225   1.919   7.857
    1XTA   HL3138280  31.258   1.707   7.740
    1XTA   HL3238281  31.074   1.688   7.724
    1XTA   HL3338282  31.241   1.878   7.579
    1XTA   HL3438283  31.196   1.731   7.499
    1XTA   HL3538284  30.867   1.840   7.611
    1XTA   HL3638285  30.938   1.707   7.513
    1XTA   HL3738286  30.811   2.053   7.295
    1XTA   HL3838287  30.957   2.069   7.377
    1XTA   HL3938288  30.697   2.029   7.537
    1XTA   HL4038289  30.752   2.187   7.480
    1XTA   HL4138290  30.847   2.084   7.587
    1XTA    CO838291  29.270   3.009   7.488
    1XTA    CO938292  29.397   2.881   7.388
    1XTA    OA638293  29.298   2.981   7.352
    1XTA   HL4238294  29.283   3.111   7.519
    1XTA   HL4338295  29.164   2.991   7.502
    1XTA   HL4438296  30.655   1.853   7.453
    1XTA   HL4538297  30.669   1.831   7.281
    1XTA   CO1038298  30.721   1.803   7.380
    1XTA   CO1138299  30.932   1.800   7.261
    1XTA    OA738300  30.735   1.667   7.413
    1XTA   HL4638301  30.856   1.736   7.213
    1XTA   HL4738302  31.006   1.729   7.295
    1XTA   HL4838303  29.379   2.779   7.362
    1XTA   HL4938304  29.498   2.905   7.370
    1XTA     NT38305  29.783   0.394   0.337
    1XTA    CN138306  29.906   0.345   0.299
    1XTA     C138307  29.994   0.428   0.228
    1XTA     C238308  30.122   0.380   0.195
    1XTA     C338309  30.158   0.247   0.225
    1XTA     C438310  30.065   0.157   0.285
    1XTA     C538311  29.936   0.210   0.323
    1XTA    CN238312  29.675   0.325   0.300
    1XTA     C638313  29.617   0.359   0.179
    1XTA     C738314  29.516   0.283   0.122
    1XTA     C838315  29.465   0.170   0.192
    1XTA     C938316  29.498   0.149   0.333
    1XTA    C1038317  29.609   0.229   0.381
    1XTA    CN338318  29.782   0.484   0.430
    1XTA    C1138319  29.780   0.617   0.394
    1XTA    C1238320  29.792   0.713   0.497
    1XTA    C1338321  29.798   0.667   0.629
    1XTA    C1438322  29.802   0.533   0.666
    1XTA    C1538323  29.792   0.440   0.562
    1XTA     H138324  29.960   0.521   0.197
    1XTA     H238325  30.195   0.439   0.150
    1XTA     H338326  30.095   0.051   0.310
    1XTA     H438327  29.861   0.145   0.370
    1XTA     H538328  29.658   0.444   0.119
    1XTA     H638329  29.485   0.304   0.024
    1XTA     H738330  29.452   0.079   0.398
    1XTA     H838331  29.652   0.211   0.481
    1XTA     H938332  29.758   0.654   0.298
    1XTA    H1038333  29.777   0.816   0.472
    1XTA    H1138334  29.807   0.508   0.773
    1XTA    H1238335  29.799   0.330   0.576
    1XTA    OA138336  30.293   0.207   0.205
    1XTA    CO138337  30.346   0.124   0.304
    1XTA    OA238338  29.383   0.084   0.126
    1XTA    CO238339  29.284   0.006   0.195
    1XTA    CL138340  29.151   0.086   0.187
    1XTA    CL238341  29.146   0.215   0.269
    1XTA    CL338342  29.036   0.317   0.240
    1XTA    CL438343  28.896   0.262   0.285
    1XTA    CO338344  28.781   0.367   0.287
    1XTA    OA338345  28.813   0.466   0.377
    1XTA    CO438346  28.749   0.455   0.502
    1XTA    CT138347  28.805   0.545   0.616
    1XTA    CL538348  28.902   0.465   0.701
    1XTA    CL638349  29.017   0.394   0.625
    1XTA    OA438350  29.824   0.748   0.738
    1XTA    CO538351  29.797   0.881   0.730
    1XTA    CL738352  29.814   0.941   0.874
    1XTA    CL838353  29.732   0.859   0.971
    1XTA    CL938354  29.759   0.908   1.114
    1XTA   CL1038355  29.695   0.843   1.238
    1XTA    CO638356  29.726   0.934   1.362
    1XTA    OA538357  29.846   0.999   1.339
    1XTA    CO738358  29.878   1.109   1.422
    1XTA    CT238359  29.831   1.247   1.365
    1XTA   CL1138360  29.680   1.258   1.347
    1XTA   CL1238361  29.620   1.396   1.303
    1XTA    HL138362  30.320   0.025   0.282
    1XTA    HL238363  30.461   0.117   0.319
    1XTA    HL338364  30.294   0.147   0.401
    1XTA    HL438365  29.269  -0.087   0.144
    1XTA    HL538366  29.316  -0.021   0.292
    1XTA    HL638367  29.072   0.026   0.231
    1XTA    HL738368  29.126   0.111   0.087
    1XTA    HL838369  29.236   0.277   0.251
    1XTA    HL938370  29.150   0.189   0.371
    1XTA   HL1038371  29.055   0.411   0.286
    1XTA   HL1138372  29.037   0.335   0.129
    1XTA   HL1238373  28.908   0.236   0.387
    1XTA   HL1338374  28.881   0.176   0.223
    1XTA   HL1438375  28.754   0.419   0.190
    1XTA   HL1538376  28.691   0.325   0.321
    1XTA   HL1638377  28.643   0.469   0.492
    1XTA   HL1738378  28.764   0.348   0.534
    1XTA   HL1838379  28.851   0.386   0.747
    1XTA   HL1938380  28.951   0.525   0.777
    1XTA   HL2038381  29.091   0.458   0.571
    1XTA   HL2138382  28.982   0.337   0.544
    1XTA   HL2238383  29.077   0.337   0.702
    1XTA   HL2338384  29.692   0.897   0.709
    1XTA   HL2438385  29.869   0.933   0.666
    1XTA   HL2538386  29.915   0.918   0.906
    1XTA   HL2638387  29.791   1.049   0.886
    1XTA   HL2738388  29.624   0.851   0.947
    1XTA   HL2838389  29.762   0.762   0.964
    1XTA   HL2938390  29.858   0.904   1.124
    1XTA   HL3038391  29.741   1.013   1.120
    1XTA   HL3138392  29.590   0.817   1.253
    1XTA   HL3238393  29.747   0.754   1.264
    1XTA   HL3338394  29.647   1.010   1.385
    1XTA   HL3438395  29.737   0.873   1.450
    1XTA   HL3538396  29.984   1.112   1.442
    1XTA   HL3638397  29.836   1.096   1.522
    1XTA   HL3738398  29.631   1.215   1.435
    1XTA   HL3838399  29.655   1.194   1.261
    1XTA   HL3938400  29.605   1.405   1.198
    1XTA   HL4038401  29.667   1.487   1.340
    1XTA   HL4138402  29.523   1.405   1.340
    1XTA    CO838403  28.689   0.596   0.695
    1XTA    CO938404  28.876   0.666   0.554
    1XTA    OA638405  28.919   0.758   0.655
    1XTA   HL4238406  28.724   0.651   0.787
    1XTA   HL4338407  28.624   0.663   0.645
    1XTA   HL4438408  29.887   1.370   1.202
    1XTA   HL4538409  29.841   1.199   1.133
    1XTA   CO1038410  29.906   1.266   1.233
    1XTA   CO1138411  29.882   1.351   1.460
    1XTA    OA738412  29.833   1.318   1.559
    1XTA   HL4638413  29.994   1.351   1.460
    1XTA   HL4738414  29.855   1.453   1.425
    1XTA   HL4838415  28.819   0.707   0.470
    1XTA   HL4938416  28.971   0.632   0.506
    1XTA     NT38417  26.433   1.655   4.200
    1XTA    CN138418  26.491   1.758   4.130
    1XTA     C138419  26.437   1.887   4.143
    1XTA     C238420  26.497   1.998   4.074
    1XTA     C338421  26.613   1.977   3.996
    1XTA     C438422  26.665   1.851   3.980
    1XTA     C538423  26.601   1.741   4.043
    1XTA    CN238424  26.356   1.572   4.125
    1XTA     C638425  26.226   1.620   4.092
    1XTA     C738426  26.136   1.533   4.023
    1XTA     C838427  26.176   1.408   3.972
    1XTA     C938428  26.309   1.368   3.997
    1XTA    C1038429  26.394   1.443   4.075
    1XTA    CN338430  26.490   1.627   4.323
    1XTA    C1138431  26.416   1.650   4.438
    1XTA    C1238432  26.481   1.639   4.559
    1XTA    C1338433  26.617   1.618   4.580
    1XTA    C1438434  26.685   1.580   4.466
    1XTA    C1538435  26.621   1.584   4.337
    1XTA     H138436  26.351   1.904   4.195
    1XTA     H238437  26.458   2.097   4.077
    1XTA     H338438  26.755   1.830   3.921
    1XTA     H438439  26.647   1.641   4.045
    1XTA     H538440  26.198   1.721   4.112
    1XTA     H638441  26.033   1.569   3.993
    1XTA     H738442  26.350   1.285   3.946
    1XTA     H838443  26.501   1.425   4.090
    1XTA     H938444  26.317   1.690   4.428
    1XTA    H1038445  26.428   1.672   4.652
    1XTA    H1138446  26.790   1.567   4.469
    1XTA    H1238447  26.676   1.578   4.240
    1XTA    OA138448  26.659   2.084   3.926
    1XTA    CO138449  26.798   2.082   3.890
    1XTA    OA238450  26.096   1.336   3.877
    1XTA    CO238451  25.965   1.316   3.918
    1XTA    CL138452  25.883   1.256   3.798
    1XTA    CL238453  25.839   1.108   3.836
    1XTA    CL338454  25.968   1.019   3.841
    1XTA    CL438455  25.935   0.880   3.877
    1XTA    CO338456  26.058   0.793   3.854
    1XTA    OA338457  26.166   0.849   3.932
    1XTA    CO438458  26.276   0.769   3.981
    1XTA    CT138459  26.398   0.760   3.881
    1XTA    CL538460  26.455   0.899   3.858
    1XTA    CL638461  26.364   1.014   3.812
    1XTA    OA438462  26.672   1.623   4.704
    1XTA    CO538463  26.822   1.620   4.706
    1XTA    CL738464  26.871   1.632   4.851
    1XTA    CL838465  26.795   1.736   4.930
    1XTA    CL938466  26.819   1.888   4.902
    1XTA   CL1038467  26.760   1.942   4.770
    1XTA    CO638468  26.632   2.023   4.781
    1XTA    OA538469  26.653   2.135   4.865
    1XTA    CO738470  26.664   2.262   4.798
    1XTA    CT238471  26.666   2.379   4.907
    1XTA   CL1138472  26.533   2.395   4.981
    1XTA   CL1238473  26.511   2.284   5.092
    1XTA    HL138474  26.828   2.176   3.842
    1XTA    HL238475  26.862   2.067   3.980
    1XTA    HL338476  26.813   1.999   3.823
    1XTA    HL438477  25.958   1.256   4.010
    1XTA    HL538478  25.915   1.410   3.943
    1XTA    HL638479  25.951   1.254   3.716
    1XTA    HL738480  25.805   1.323   3.764
    1XTA    HL838481  25.775   1.062   3.761
    1XTA    HL938482  25.771   1.109   3.927
    1XTA   HL1038483  26.015   1.027   3.747
    1XTA   HL1138484  26.044   1.065   3.904
    1XTA   HL1238485  25.859   0.847   3.811
    1XTA   HL1338486  25.906   0.870   3.983
    1XTA   HL1438487  26.037   0.692   3.887
    1XTA   HL1538488  26.085   0.787   3.748
    1XTA   HL1638489  26.309   0.817   4.078
    1XTA   HL1738490  26.234   0.672   4.002
    1XTA   HL1838491  26.537   0.886   3.788
    1XTA   HL1938492  26.505   0.928   3.948
    1XTA   HL2038493  26.290   0.975   3.743
    1XTA   HL2138494  26.427   1.091   3.767
    1XTA   HL2238495  26.320   1.060   3.904
    1XTA   HL2338496  26.868   1.708   4.660
    1XTA   HL2438497  26.862   1.529   4.666
    1XTA   HL2538498  26.847   1.535   4.897
    1XTA   HL2638499  26.987   1.657   4.859
    1XTA   HL2738500  26.689   1.725   4.913
    1XTA   HL2838501  26.827   1.718   5.027
    1XTA   HL2938502  26.776   1.940   4.980
    1XTA   HL3038503  26.928   1.900   4.905
    1XTA   HL3138504  26.829   2.008   4.720
    1XTA   HL3238505  26.732   1.858   4.700
    1XTA   HL3338506  26.581   2.043   4.685
    1XTA   HL3438507  26.563   1.961   4.827
    1XTA   HL3538508  26.578   2.285   4.733
    1XTA   HL3638509  26.755   2.269   4.730
    1XTA   HL3738510  26.453   2.405   4.904
    1XTA   HL3838511  26.532   2.490   5.037
    1XTA   HL3938512  26.411   2.274   5.132
    1XTA   HL4038513  26.562   2.311   5.184
    1XTA   HL4138514  26.547   2.187   5.055
    1XTA    CO838515  26.354   0.704   3.742
    1XTA    CO938516  26.504   0.669   3.941
    1XTA    OA638517  26.299   0.608   3.752
    1XTA   HL4238518  26.447   0.696   3.680
    1XTA   HL4338519  26.289   0.779   3.704
    1XTA   HL4438520  26.567   2.549   4.749
    1XTA   HL4538521  26.677   2.599   4.910
    1XTA   CO1038522  26.679   2.518   4.834
    1XTA   CO1138523  26.793   2.359   4.998
    1XTA    OA738524  26.792   2.447   5.068
    1XTA   HL4638525  26.789   2.268   5.062
    1XTA   HL4738526  26.895   2.352   4.945
    1XTA   HL4838527  26.466   0.534   3.930
    1XTA   HL4938528  26.585   0.679   3.867
    1XTA     NT38529  29.547   1.352   0.180
    1XTA    CN138530  29.589   1.473   0.140
    1XTA     C138531  29.499   1.553   0.066
    1XTA     C238532  29.526   1.686   0.042
    1XTA     C338533  29.643   1.744   0.094
    1XTA     C438534  29.719   1.665   0.177
    1XTA     C538535  29.693   1.534   0.208
    1XTA    CN238536  29.563   1.253   0.093
    1XTA     C638537  29.453   1.185   0.032
    1XTA     C738538  29.466   1.098  -0.075
    1XTA     C838539  29.590   1.073  -0.131
    1XTA     C938540  29.706   1.134  -0.072
    1XTA    C1038541  29.692   1.224   0.040
    1XTA    CN338542  29.538   1.335   0.312
    1XTA    C1138543  29.454   1.418   0.386
    1XTA    C1238544  29.429   1.402   0.523
    1XTA    C1338545  29.498   1.297   0.588
    1XTA    C1438546  29.586   1.211   0.512
    1XTA    C1538547  29.601   1.228   0.374
    1XTA     H138548  29.412   1.497   0.026
    1XTA     H238549  29.456   1.743  -0.017
    1XTA     H338550  29.807   1.706   0.222
    1XTA     H438551  29.753   1.469   0.268
    1XTA     H538552  29.354   1.211   0.069
    1XTA     H638553  29.383   1.053  -0.115
    1XTA     H738554  29.800   1.114  -0.117
    1XTA     H838555  29.779   1.283   0.069
    1XTA     H938556  29.406   1.496   0.338
    1XTA    H1038557  29.366   1.475   0.577
    1XTA    H1138558  29.640   1.131   0.558
    1XTA    H1238559  29.670   1.159   0.324
    1XTA    OA138560  29.690   1.867   0.056
    1XTA    CO138561  29.666   1.960   0.163
    1XTA    OA238562  29.608   0.996  -0.239
    1XTA    CO238563  29.498   0.920  -0.285
    1XTA    CL138564  29.506   0.842  -0.416
    1XTA    CL238565  29.372   0.777  -0.455
    1XTA    CL338566  29.386   0.698  -0.585
    1XTA    CL438567  29.252   0.629  -0.620
    1XTA    CO338568  29.190   0.529  -0.525
    1XTA    OA338569  29.091   0.469  -0.597
    1XTA    CO438570  29.003   0.393  -0.521
    1XTA    CT138571  28.884   0.346  -0.605
    1XTA    CL538572  28.947   0.290  -0.733
    1XTA    CL638573  28.862   0.216  -0.831
    1XTA    OA438574  29.484   1.291   0.723
    1XTA    CO538575  29.542   1.181   0.797
    1XTA    CL738576  29.496   1.186   0.945
    1XTA    CL838577  29.348   1.176   0.966
    1XTA    CL938578  29.304   1.171   1.112
    1XTA   CL1038579  29.169   1.116   1.146
    1XTA    CO638580  29.103   1.009   1.061
    1XTA    OA538581  29.074   1.059   0.927
    1XTA    CO738582  29.036   0.953   0.841
    1XTA    CT238583  29.006   0.999   0.701
    1XTA   CL1138584  29.126   1.092   0.652
    1XTA   CL1238585  29.123   1.127   0.503
    1XTA    HL138586  29.720   2.051   0.152
    1XTA    HL238587  29.559   1.981   0.168
    1XTA    HL338588  29.672   1.916   0.269
    1XTA    HL438589  29.467   0.847  -0.202
    1XTA    HL538590  29.414   0.989  -0.307
    1XTA    HL638591  29.581   0.760  -0.434
    1XTA    HL738592  29.531   0.916  -0.495
    1XTA    HL838593  29.289   0.848  -0.462
    1XTA    HL938594  29.339   0.699  -0.384
    1XTA   HL1038595  29.424   0.761  -0.666
    1XTA   HL1138596  29.458   0.616  -0.580
    1XTA   HL1238597  29.262   0.566  -0.710
    1XTA   HL1338598  29.167   0.701  -0.646
    1XTA   HL1438599  29.256   0.443  -0.492
    1XTA   HL1538600  29.139   0.581  -0.441
    1XTA   HL1638601  29.065   0.314  -0.472
    1XTA   HL1738602  28.975   0.456  -0.434
    1XTA   HL1838603  29.031   0.226  -0.722
    1XTA   HL1938604  28.985   0.376  -0.789
    1XTA   HL2038605  28.849   0.130  -0.774
    1XTA   HL2138606  28.914   0.184  -0.924
    1XTA   HL2238607  28.767   0.271  -0.843
    1XTA   HL2338608  29.648   1.158   0.786
    1XTA   HL2438609  29.491   1.090   0.754
    1XTA   HL2538610  29.537   1.090   0.984
    1XTA   HL2638611  29.540   1.269   1.005
    1XTA   HL2738612  29.296   1.253   0.912
    1XTA   HL2838613  29.320   1.080   0.912
    1XTA   HL2938614  29.363   1.090   1.162
    1XTA   HL3038615  29.322   1.257   1.168
    1XTA   HL3138616  29.161   1.096   1.256
    1XTA   HL3238617  29.100   1.210   1.147
    1XTA   HL3338618  29.164   0.922   1.052
    1XTA   HL3438619  29.012   0.979   1.100
    1XTA   HL3538620  28.944   0.909   0.882
    1XTA   HL3638621  29.108   0.876   0.841
    1XTA   HL3738622  29.220   1.045   0.681
    1XTA   HL3838623  29.132   1.187   0.703
    1XTA   HL3938624  29.195   1.198   0.470
    1XTA   HL4038625  29.034   1.158   0.465
    1XTA   HL4138626  29.134   1.035   0.437
    1XTA    CO838627  28.774   0.453  -0.631
    1XTA    CO938628  28.819   0.226  -0.536
    1XTA    OA638629  28.733   0.503  -0.510
    1XTA   HL4238630  28.696   0.417  -0.699
    1XTA   HL4338631  28.823   0.544  -0.682
    1XTA   HL4438632  28.882   1.165   0.743
    1XTA   HL4538633  28.842   1.079   0.582
    1XTA   CO1038634  28.874   1.069   0.690
    1XTA   CO1138635  28.989   0.876   0.610
    1XTA    OA738636  28.776   0.989   0.757
    1XTA   HL4638637  29.097   0.858   0.588
    1XTA   HL4738638  28.958   0.888   0.512
    1XTA   HL4838639  28.887   0.145  -0.559
    1XTA   HL4938640  28.735   0.189  -0.593
    1XTA     NT38641  31.405   1.827   0.835
    1XTA    CN138642  31.467   1.824   0.712
    1XTA     C138643  31.390   1.834   0.591
    1XTA     C238644  31.465   1.833   0.470
    1XTA     C338645  31.607   1.824   0.467
    1XTA     C438646  31.683   1.822   0.585
    1XTA     C538647  31.609   1.819   0.707
    1XTA    CN238648  31.427   1.926   0.920
    1XTA     C638649  31.453   1.894   1.054
    1XTA     C738650  31.453   1.994   1.155
    1XTA     C838651  31.452   2.125   1.116
    1XTA     C938652  31.437   2.165   0.982
    1XTA    C1038653  31.420   2.066   0.883
    1XTA    CN338654  31.306   1.735   0.853
    1XTA    C1138655  31.335   1.600   0.882
    1XTA    C1238656  31.234   1.516   0.921
    1XTA    C1338657  31.101   1.559   0.913
    1XTA    C1438658  31.072   1.693   0.880
    1XTA    C1538659  31.179   1.783   0.848
    1XTA     H138660  31.283   1.843   0.595
    1XTA     H238661  31.423   1.826   0.370
    1XTA     H338662  31.784   1.821   0.571
    1XTA     H438663  31.660   1.816   0.802
    1XTA     H538664  31.463   1.788   1.083
    1XTA     H638665  31.458   1.968   1.260
    1XTA     H738666  31.440   2.268   0.944
    1XTA     H838667  31.411   2.091   0.779
    1XTA     H938668  31.438   1.566   0.883
    1XTA    H1038669  31.250   1.413   0.952
    1XTA    H1138670  30.965   1.731   0.881
    1XTA    H1238671  31.158   1.883   0.813
    1XTA    OA138672  31.665   1.808   0.342
    1XTA    CO138673  31.802   1.753   0.331
    1XTA    OA238674  31.466   2.213   1.219
    1XTA    CO238675  31.495   2.349   1.192
    1XTA    CL138676  31.512   2.433   1.324
    1XTA    CL238677  31.528   2.582   1.292
    1XTA    CL338678  31.510   2.676   1.411
    1XTA    CL438679  31.569   2.814   1.391
    1XTA    CO338680  31.720   2.837   1.414
    1XTA    OA338681  31.781   2.806   1.290
    1XTA    CO438682  31.923   2.788   1.304
    1XTA    CT138683  31.998   2.754   1.171
    1XTA    CL538684  31.921   2.646   1.098
    1XTA    CL638685  31.913   2.508   1.172
    1XTA    OA438686  31.001   1.471   0.942
    1XTA    CO538687  30.927   1.507   1.058
    1XTA    CL738688  30.823   1.399   1.095
    1XTA    CL838689  30.865   1.252   1.080
    1XTA    CL938690  30.775   1.147   1.163
    1XTA   CL1038691  30.833   1.006   1.149
    1XTA    CO638692  30.808   0.909   1.260
    1XTA    OA538693  30.701   0.821   1.216
    1XTA    CO738694  30.576   0.861   1.264
    1XTA    CT238695  30.470   0.786   1.174
    1XTA   CL1138696  30.462   0.640   1.223
    1XTA   CL1238697  30.472   0.613   1.375
    1XTA    HL138698  31.866   1.813   0.395
    1XTA    HL238699  31.798   1.656   0.370
    1XTA    HL338700  31.833   1.753   0.227
    1XTA    HL438701  31.582   2.368   1.128
    1XTA    HL538702  31.413   2.381   1.132
    1XTA    HL638703  31.604   2.391   1.375
    1XTA    HL738704  31.432   2.409   1.393
    1XTA    HL838705  31.458   2.608   1.213
    1XTA    HL938706  31.627   2.592   1.239
    1XTA   HL1038707  31.408   2.674   1.445
    1XTA   HL1138708  31.552   2.635   1.499
    1XTA   HL1238709  31.508   2.859   1.463
    1XTA   HL1338710  31.544   2.855   1.290
    1XTA   HL1438711  31.759   2.926   1.466
    1XTA   HL1538712  31.749   2.753   1.475
    1XTA   HL1638713  31.949   2.878   1.357
    1XTA   HL1738714  31.947   2.713   1.380
    1XTA   HL1838715  31.951   2.640   0.995
    1XTA   HL1938716  31.819   2.676   1.082
    1XTA   HL2038717  32.012   2.453   1.175
    1XTA   HL2138718  31.849   2.448   1.110
    1XTA   HL2238719  31.859   2.508   1.267
    1XTA   HL2338720  30.878   1.599   1.038
    1XTA   HL2438721  30.997   1.517   1.143
    1XTA   HL2538722  30.788   1.403   1.204
    1XTA   HL2638723  30.732   1.403   1.031
    1XTA   HL2738724  30.877   1.220   0.974
    1XTA   HL2838725  30.963   1.249   1.116
    1XTA   HL2938726  30.788   1.166   1.266
    1XTA   HL3038727  30.673   1.164   1.139
    1XTA   HL3138728  30.811   0.962   1.052
    1XTA   HL3238729  30.940   1.030   1.155
    1XTA   HL3338730  30.904   0.857   1.269
    1XTA   HL3438731  30.795   0.948   1.370
    1XTA   HL3538732  30.565   0.966   1.246
    1XTA   HL3638733  30.565   0.854   1.375
    1XTA   HL3738734  30.549   0.584   1.194
    1XTA   HL3838735  30.378   0.595   1.169
    1XTA   HL3938736  30.395   0.672   1.422
    1XTA   HL4038737  30.577   0.614   1.422
    1XTA   HL4138738  30.446   0.504   1.396
    1XTA    CO838739  32.146   2.716   1.204
    1XTA    CO938740  32.008   2.885   1.085
    1XTA    OA638741  32.045   2.965   1.155
    1XTA   HL4238742  32.178   2.673   1.104
    1XTA   HL4338743  32.219   2.825   1.253
    1XTA   HL4438744  30.589   0.727   0.999
    1XTA   HL4538745  30.573   0.903   1.017
    1XTA   CO1038746  30.516   0.801   1.026
    1XTA   CO1138747  30.333   0.869   1.178
    1XTA    OA738748  30.359   1.002   1.142
    1XTA   HL4638749  30.251   0.832   1.110
    1XTA   HL4738750  30.290   0.861   1.277
    1XTA   HL4838751  31.917   2.915   1.045
    1XTA   HL4938752  32.084   2.861   1.011
    1XTA     NT38753  31.884   2.276   0.719
    1XTA    CN138754  31.987   2.279   0.629
    1XTA     C138755  32.064   2.394   0.616
    1XTA     C238756  32.168   2.397   0.530
    1XTA     C338757  32.209   2.282   0.454
    1XTA     C438758  32.139   2.164   0.484
    1XTA     C538759  32.032   2.160   0.574
    1XTA    CN238760  31.897   2.212   0.840
    1XTA     C638761  31.991   2.257   0.939
    1XTA     C738762  32.025   2.177   1.046
    1XTA     C838763  31.949   2.060   1.076
    1XTA     C938764  31.845   2.018   0.985
    1XTA    C1038765  31.817   2.096   0.875
    1XTA    CN338766  31.755   2.282   0.678
    1XTA    C1138767  31.699   2.193   0.584
    1XTA    C1238768  31.562   2.211   0.553
    1XTA    C1338769  31.492   2.318   0.607
    1XTA    C1438770  31.557   2.408   0.687
    1XTA    C1538771  31.687   2.389   0.729
    1XTA     H138772  32.026   2.483   0.658
    1XTA     H238773  32.219   2.494   0.524
    1XTA     H338774  32.179   2.076   0.438
    1XTA     H438775  31.979   2.067   0.599
    1XTA     H538776  32.041   2.357   0.926
    1XTA     H638777  32.108   2.188   1.112
    1XTA     H738778  31.782   1.929   0.995
    1XTA     H838779  31.736   2.065   0.816
    1XTA     H938780  31.752   2.109   0.540
    1XTA    H1038781  31.517   2.141   0.485
    1XTA    H1138782  31.510   2.494   0.722
    1XTA    H1238783  31.733   2.459   0.790
    1XTA    OA138784  32.325   2.283   0.378
    1XTA    CO138785  32.346   2.181   0.280
    1XTA    OA238786  31.969   1.990   1.199
    1XTA    CO238787  31.909   1.866   1.231
    1XTA    CL138788  31.958   1.754   1.138
    1XTA    CL238789  31.879   1.620   1.149
    1XTA    CL338790  31.744   1.615   1.069
    1XTA    CL438791  31.675   1.477   1.075
    1XTA    CO338792  31.600   1.445   1.201
    1XTA    OA338793  31.529   1.315   1.201
    1XTA    CO438794  31.416   1.305   1.115
    1XTA    CT138795  31.390   1.153   1.094
    1XTA    CL538796  31.395   1.087   1.234
    1XTA    CL638797  31.291   1.118   1.341
    1XTA    OA438798  31.362   2.339   0.568
    1XTA    CO538799  31.292   2.226   0.518
    1XTA    CL738800  31.147   2.264   0.486
    1XTA    CL838801  31.064   2.298   0.616
    1XTA    CL938802  30.919   2.330   0.590
    1XTA   CL1038803  30.828   2.369   0.708
    1XTA    CO638804  30.870   2.489   0.803
    1XTA    OA538805  30.779   2.502   0.903
    1XTA    CO738806  30.816   2.593   1.004
    1XTA    CT238807  30.696   2.684   1.035
    1XTA   CL1138808  30.657   2.760   0.907
    1XTA   CL1238809  30.514   2.812   0.904
    1XTA    HL138810  32.438   2.202   0.222
    1XTA    HL238811  32.369   2.091   0.329
    1XTA    HL338812  32.264   2.168   0.209
    1XTA    HL438813  31.942   1.836   1.329
    1XTA    HL538814  31.797   1.881   1.233
    1XTA    HL638815  32.067   1.749   1.153
    1XTA    HL738816  31.958   1.781   1.033
    1XTA    HL838817  31.855   1.588   1.255
    1XTA    HL938818  31.944   1.543   1.112
    1XTA   HL1038819  31.673   1.699   1.085
    1XTA   HL1138820  31.779   1.628   0.966
    1XTA   HL1238821  31.749   1.397   1.086
    1XTA   HL1338822  31.619   1.453   0.985
    1XTA   HL1438823  31.668   1.461   1.279
    1XTA   HL1538824  31.517   1.525   1.196
    1XTA   HL1638825  31.327   1.361   1.158
    1XTA   HL1738826  31.435   1.343   1.011
    1XTA   HL1838827  31.496   1.100   1.278
    1XTA   HL1938828  31.386   0.974   1.214
    1XTA   HL2038829  31.291   1.225   1.361
    1XTA   HL2138830  31.307   1.074   1.437
    1XTA   HL2238831  31.197   1.094   1.303
    1XTA   HL2338832  31.281   2.144   0.581
    1XTA   HL2438833  31.332   2.194   0.418
    1XTA   HL2538834  31.150   2.343   0.412
    1XTA   HL2638835  31.105   2.182   0.440
    1XTA   HL2738836  31.059   2.209   0.678
    1XTA   HL2838837  31.116   2.381   0.659
    1XTA   HL2938838  30.917   2.418   0.527
    1XTA   HL3038839  30.879   2.241   0.537
    1XTA   HL3138840  30.726   2.393   0.678
    1XTA   HL3238841  30.802   2.280   0.770
    1XTA   HL3338842  30.966   2.469   0.846
    1XTA   HL3438843  30.864   2.575   0.746
    1XTA   HL3538844  30.891   2.655   0.956
    1XTA   HL3638845  30.852   2.538   1.091
    1XTA   HL3738846  30.655   2.689   0.820
    1XTA   HL3838847  30.729   2.846   0.893
    1XTA   HL3938848  30.498   2.878   0.990
    1XTA   HL4038849  30.445   2.731   0.906
    1XTA   HL4138850  30.504   2.867   0.809
    1XTA    CO838851  31.492   1.086   1.005
    1XTA    CO938852  31.251   1.133   1.025
    1XTA    OA638853  31.533   1.155   0.886
    1XTA   HL4238854  31.447   0.990   0.976
    1XTA   HL4338855  31.586   1.063   1.055
    1XTA   HL4438856  30.836   2.850   1.088
    1XTA   HL4538857  30.679   2.879   1.143
    1XTA   CO1038858  30.745   2.794   1.131
    1XTA   CO1138859  30.582   2.604   1.098
    1XTA    OA738860  30.471   2.689   1.149
    1XTA   HL4638861  30.561   2.522   1.029
    1XTA   HL4738862  30.617   2.557   1.185
    1XTA   HL4838863  31.220   1.037   1.058
    1XTA   HL4938864  31.179   1.205   1.068
    1XTA     NT38865  31.243   3.148   6.639
    1XTA    CN138866  31.347   3.092   6.571
    1XTA     C138867  31.454   3.023   6.629
    1XTA     C238868  31.557   2.975   6.546
    1XTA     C338869  31.559   2.999   6.407
    1XTA     C438870  31.444   3.057   6.349
    1XTA     C538871  31.343   3.116   6.432
    1XTA    CN238872  31.128   3.078   6.651
    1XTA     C638873  31.093   3.034   6.783
    1XTA     C738874  30.966   2.981   6.818
    1XTA     C838875  30.873   2.963   6.713
    1XTA     C938876  30.917   2.988   6.580
    1XTA    C1038877  31.041   3.053   6.543
    1XTA    CN338878  31.260   3.253   6.718
    1XTA    C1138879  31.186   3.370   6.701
    1XTA    C1238880  31.190   3.474   6.792
    1XTA    C1338881  31.288   3.462   6.895
    1XTA    C1438882  31.364   3.347   6.914
    1XTA    C1538883  31.344   3.241   6.828
    1XTA     H138884  31.445   2.993   6.735
    1XTA     H238885  31.630   2.915   6.604
    1XTA     H338886  31.437   3.081   6.244
    1XTA     H438887  31.262   3.181   6.395
    1XTA     H538888  31.169   3.056   6.857
    1XTA     H638889  30.951   2.958   6.923
    1XTA     H738890  30.842   2.970   6.503
    1XTA     H838891  31.051   3.089   6.437
    1XTA     H938892  31.119   3.368   6.617
    1XTA    H1038893  31.113   3.549   6.798
    1XTA    H1138894  31.441   3.338   6.990
    1XTA    H1238895  31.395   3.149   6.855
    1XTA    OA138896  31.649   2.950   6.317
    1XTA    CO138897  31.754   2.875   6.373
    1XTA    OA238898  30.748   2.916   6.736
    1XTA    CO238899  30.720   2.872   6.865
    1XTA    CL138900  30.586   2.795   6.865
    1XTA    CL238901  30.552   2.727   7.003
    1XTA    CL338902  30.409   2.655   6.993
    1XTA    CL438903  30.366   2.575   6.861
    1XTA    CO338904  30.470   2.473   6.826
    1XTA    OA338905  30.429   2.404   6.704
    1XTA    CO438906  30.467   2.476   6.586
    1XTA    CT138907  30.389   2.415   6.463
    1XTA    CL538908  30.240   2.458   6.466
    1XTA    CL638909  30.216   2.609   6.446
    1XTA    OA438910  31.296   3.563   6.992
    1XTA    CO538911  31.308   3.528   7.124
    1XTA    CL738912  31.270   3.652   7.200
    1XTA    CL838913  31.119   3.671   7.218
    1XTA    CL938914  31.084   3.807   7.289
    1XTA   CL1038915  31.111   3.832   7.442
    1XTA    CO638916  31.030   3.734   7.524
    1XTA    OA538917  30.894   3.778   7.537
    1XTA    CO738918  30.795   3.684   7.576
    1XTA    CT238919  30.681   3.742   7.664
    1XTA   CL1138920  30.631   3.866   7.586
    1XTA   CL1238921  30.501   3.930   7.624
    1XTA    HL138922  31.733   2.781   6.426
    1XTA    HL238923  31.826   2.849   6.295
    1XTA    HL338924  31.810   2.947   6.434
    1XTA    HL438925  30.800   2.801   6.908
    1XTA    HL538926  30.715   2.950   6.937
    1XTA    HL638927  30.590   2.712   6.787
    1XTA    HL738928  30.500   2.862   6.838
    1XTA    HL838929  30.544   2.787   7.093
    1XTA    HL938930  30.629   2.652   7.021
    1XTA   HL1038931  30.404   2.594   7.090
    1XTA   HL1138932  30.330   2.727   7.017
    1XTA   HL1238933  30.355   2.652   6.782
    1XTA   HL1338934  30.269   2.525   6.881
    1XTA   HL1438935  30.570   2.504   6.835
    1XTA   HL1538936  30.475   2.406   6.912
    1XTA   HL1638937  30.448   2.579   6.599
    1XTA   HL1738938  30.576   2.463   6.565
    1XTA   HL1838939  30.195   2.437   6.564
    1XTA   HL1938940  30.180   2.421   6.388
    1XTA   HL2038941  30.109   2.640   6.459
    1XTA   HL2138942  30.244   2.647   6.348
    1XTA   HL2238943  30.291   2.666   6.512
    1XTA   HL2338944  31.414   3.497   7.137
    1XTA   HL2438945  31.261   3.441   7.151
    1XTA   HL2538946  31.315   3.644   7.302
    1XTA   HL2638947  31.316   3.743   7.169
    1XTA   HL2738948  31.064   3.670   7.125
    1XTA   HL2838949  31.076   3.596   7.283
    1XTA   HL2938950  31.144   3.881   7.236
    1XTA   HL3038951  30.982   3.833   7.257
    1XTA   HL3138952  31.216   3.824   7.476
    1XTA   HL3238953  31.098   3.934   7.463
    1XTA   HL3338954  31.016   3.635   7.477
    1XTA   HL3438955  31.078   3.712   7.619
    1XTA   HL3538956  30.833   3.594   7.626
    1XTA   HL3638957  30.747   3.645   7.489
    1XTA   HL3738958  30.619   3.831   7.482
    1XTA   HL3838959  30.703   3.949   7.582
    1XTA   HL3938960  30.516   3.979   7.719
    1XTA   HL4038961  30.428   3.847   7.630
    1XTA   HL4138962  30.466   4.020   7.556
    1XTA    CO838963  30.413   2.258   6.467
    1XTA    CO938964  30.466   2.462   6.333
    1XTA    OA638965  30.369   2.210   6.377
    1XTA   HL4238966  30.375   2.216   6.556
    1XTA   HL4338967  30.519   2.240   6.451
    1XTA   HL4438968  30.670   3.779   7.884
    1XTA   HL4538969  30.824   3.714   7.831
    1XTA   CO1038970  30.739   3.784   7.801
    1XTA   CO1138971  30.570   3.640   7.688
    1XTA    OA738972  30.798   3.910   7.786
    1XTA   HL4638973  30.536   3.601   7.593
    1XTA   HL4738974  30.489   3.686   7.740
    1XTA   HL4838975  30.434   2.385   6.219
    1XTA   HL4938976  30.438   2.566   6.310
    1XTA     NT38977  34.043  -0.572  -0.143
    1XTA    CN138978  34.102  -0.479  -0.218
    1XTA     C138979  34.211  -0.396  -0.174
    1XTA     C238980  34.261  -0.294  -0.251
    1XTA     C338981  34.205  -0.267  -0.375
    1XTA     C438982  34.092  -0.341  -0.420
    1XTA     C538983  34.038  -0.442  -0.331
    1XTA    CN238984  34.089  -0.696  -0.130
    1XTA     C638985  34.062  -0.790  -0.231
    1XTA     C738986  34.135  -0.916  -0.237
    1XTA     C838987  34.227  -0.958  -0.139
    1XTA     C938988  34.244  -0.867  -0.037
    1XTA    C1038989  34.183  -0.741  -0.033
    1XTA    CN338990  33.921  -0.550  -0.098
    1XTA    C1138991  33.904  -0.448   0.003
    1XTA    C1238992  33.777  -0.408   0.040
    1XTA    C1338993  33.666  -0.473  -0.009
    1XTA    C1438994  33.676  -0.569  -0.115
    1XTA    C1538995  33.807  -0.610  -0.157
    1XTA     H138996  34.255  -0.416  -0.082
    1XTA     H238997  34.343  -0.243  -0.203
    1XTA     H338998  34.051  -0.330  -0.520
    1XTA     H438999  33.949  -0.488  -0.372
    1XTA     H539000  34.001  -0.767  -0.317
    1XTA     H639001  34.109  -0.975  -0.323
    1XTA     H739002  34.323  -0.894   0.033
    1XTA     H839003  34.214  -0.666   0.041
    1XTA     H939004  33.996  -0.402   0.049
    1XTA    H1039005  33.763  -0.335   0.117
    1XTA    H1139006  33.592  -0.629  -0.153
    1XTA    H1239007  33.819  -0.687  -0.232
    1XTA    OA139008  34.244  -0.168  -0.455
    1XTA    CO139009  34.319  -0.068  -0.403
    1XTA    OA239010  34.302  -1.076  -0.143
    1XTA    CO239011  34.270  -1.179  -0.236
    1XTA    CL139012  34.389  -1.279  -0.252
    1XTA    CL239013  34.507  -1.207  -0.321
    1XTA    CL339014  34.624  -1.288  -0.355
    1XTA    CL439015  34.683  -1.342  -0.222
    1XTA    CO339016  34.775  -1.468  -0.239
    1XTA    OA339017  34.819  -1.520  -0.112
    1XTA    CO439018  34.931  -1.449  -0.063
    1XTA    CT139019  34.957  -1.486   0.084
    1XTA    CL539020  35.079  -1.411   0.144
    1XTA    CL639021  35.196  -1.428   0.047
    1XTA    OA439022  33.544  -0.428   0.047
    1XTA    CO539023  33.426  -0.417  -0.038
    1XTA    CL739024  33.320  -0.342   0.041
    1XTA    CL839025  33.356  -0.211   0.095
    1XTA    CL939026  33.413  -0.115  -0.018
    1XTA   CL1039027  33.442   0.025   0.025
    1XTA    CO639028  33.523   0.099  -0.085
    1XTA    OA539029  33.640   0.021  -0.095
    1XTA    CO739030  33.742   0.079  -0.178
    1XTA    CT239031  33.837  -0.034  -0.221
    1XTA   CL1139032  33.772  -0.171  -0.246
    1XTA   CL1239033  33.649  -0.181  -0.332
    1XTA    HL139034  34.322   0.018  -0.471
    1XTA    HL239035  34.288  -0.048  -0.300
    1XTA    HL339036  34.417  -0.113  -0.421
    1XTA    HL439037  34.180  -1.233  -0.204
    1XTA    HL539038  34.245  -1.145  -0.332
    1XTA    HL639039  34.356  -1.369  -0.315
    1XTA    HL739040  34.420  -1.314  -0.159
    1XTA    HL839041  34.542  -1.123  -0.264
    1XTA    HL939042  34.475  -1.149  -0.408
    1XTA   HL1039043  34.588  -1.366  -0.432
    1XTA   HL1139044  34.705  -1.235  -0.409
    1XTA   HL1239045  34.609  -1.352  -0.147
    1XTA   HL1339046  34.744  -1.261  -0.175
    1XTA   HL1439047  34.715  -1.542  -0.290
    1XTA   HL1539048  34.855  -1.451  -0.304
    1XTA   HL1639049  35.021  -1.482  -0.119
    1XTA   HL1739050  34.927  -1.344  -0.083
    1XTA   HL1839051  35.114  -1.460   0.234
    1XTA   HL1939052  35.067  -1.305   0.182
    1XTA   HL2039053  35.214  -1.528   0.022
    1XTA   HL2139054  35.291  -1.412   0.098
    1XTA   HL2239055  35.203  -1.379  -0.046
    1XTA   HL2339056  33.393  -0.512  -0.072
    1XTA   HL2439057  33.448  -0.350  -0.129
    1XTA   HL2539058  33.227  -0.344  -0.022
    1XTA   HL2639059  33.287  -0.407   0.122
    1XTA   HL2739060  33.269  -0.163   0.139
    1XTA   HL2839061  33.439  -0.222   0.166
    1XTA   HL2939062  33.502  -0.165  -0.060
    1XTA   HL3039063  33.341  -0.115  -0.095
    1XTA   HL3139064  33.355   0.085   0.049
    1XTA   HL3239065  33.512   0.010   0.107
    1XTA   HL3339066  33.475   0.097  -0.186
    1XTA   HL3439067  33.550   0.199  -0.058
    1XTA   HL3539068  33.797   0.160  -0.130
    1XTA   HL3639069  33.684   0.111  -0.263
    1XTA   HL3739070  33.748  -0.223  -0.155
    1XTA   HL3839071  33.847  -0.242  -0.281
    1XTA   HL3939072  33.653  -0.115  -0.418
    1XTA   HL4039073  33.556  -0.161  -0.273
    1XTA   HL4139074  33.643  -0.283  -0.370
    1XTA    CO839075  34.952  -1.634   0.102
    1XTA    CO939076  34.839  -1.483   0.172
    1XTA    OA639077  34.866  -1.614   0.211
    1XTA   HL4239078  35.038  -1.696   0.130
    1XTA   HL4339079  34.897  -1.691   0.024
    1XTA   HL4439080  33.964   0.024  -0.045
    1XTA   HL4539081  33.977  -0.148  -0.085
    1XTA   CO1039082  33.950  -0.051  -0.124
    1XTA   CO1139083  33.932   0.007  -0.328
    1XTA    OA739084  34.037  -0.018  -0.228
    1XTA   HL4639085  33.933  -0.074  -0.401
    1XTA   HL4739086  33.918   0.111  -0.371
    1XTA   HL4839087  34.748  -1.465   0.123
    1XTA   HL4939088  34.857  -1.418   0.263
    1XTA     NT39089  32.785   2.572   1.556
    1XTA    CN139090  32.901   2.637   1.584
    1XTA     C139091  33.020   2.587   1.522
    1XTA     C239092  33.140   2.649   1.555
    1XTA     C339093  33.143   2.751   1.654
    1XTA     C439094  33.024   2.797   1.715
    1XTA     C539095  32.903   2.739   1.680
    1XTA    CN239096  32.702   2.517   1.650
    1XTA     C639097  32.603   2.600   1.702
    1XTA     C739098  32.519   2.555   1.805
    1XTA     C839099  32.536   2.429   1.860
    1XTA     C939100  32.628   2.337   1.806
    1XTA    C1039101  32.714   2.387   1.703
    1XTA    CN339102  32.725   2.597   1.435
    1XTA    C1139103  32.696   2.731   1.401
    1XTA    C1239104  32.633   2.763   1.278
    1XTA    C1339105  32.598   2.658   1.191
    1XTA    C1439106  32.633   2.522   1.222
    1XTA    C1539107  32.690   2.492   1.345
    1XTA     H139108  33.012   2.523   1.445
    1XTA     H239109  33.239   2.625   1.518
    1XTA     H339110  33.031   2.869   1.797
    1XTA     H439111  32.812   2.785   1.712
    1XTA     H539112  32.582   2.702   1.672
    1XTA     H639113  32.456   2.631   1.851
    1XTA     H739114  32.635   2.242   1.852
    1XTA     H839115  32.783   2.318   1.655
    1XTA     H939116  32.724   2.805   1.476
    1XTA    H1039117  32.604   2.864   1.255
    1XTA    H1139118  32.609   2.438   1.151
    1XTA    H1239119  32.712   2.389   1.367
    1XTA    OA139120  33.272   2.797   1.688
    1XTA    CO139121  33.280   2.888   1.792
    1XTA    OA239122  32.450   2.379   1.957
    1XTA    CO239123  32.351   2.458   2.009
    1XTA    CL139124  32.286   2.396   2.133
    1XTA    CL239125  32.176   2.487   2.184
    1XTA    CL339126  32.105   2.424   2.298
    1XTA    CL439127  32.177   2.418   2.426
    1XTA    CO339128  32.231   2.271   2.469
    1XTA    OA339129  32.308   2.282   2.590
    1XTA    CO439130  32.437   2.342   2.576
    1XTA    CT139131  32.548   2.282   2.674
    1XTA    CL539132  32.551   2.131   2.658
    1XTA    CL639133  32.629   2.059   2.775
    1XTA    OA439134  32.535   2.678   1.074
    1XTA    CO539135  32.507   2.811   1.026
    1XTA    CL739136  32.629   2.870   0.949
    1XTA    CL839137  32.614   3.022   0.912
    1XTA    CL939138  32.626   3.102   1.043
    1XTA   CL1039139  32.567   3.237   1.026
    1XTA    CO639140  32.590   3.318   1.153
    1XTA    OA539141  32.489   3.422   1.144
    1XTA    CO739142  32.505   3.518   1.043
    1XTA    CT239143  32.428   3.646   1.075
    1XTA   CL1139144  32.405   3.738   0.949
    1XTA   CL1239145  32.527   3.773   0.860
    1XTA    HL139146  33.207   2.956   1.800
    1XTA    HL239147  33.268   2.832   1.879
    1XTA    HL339148  33.382   2.922   1.794
    1XTA    HL439149  32.383   2.560   2.031
    1XTA    HL539150  32.275   2.448   1.934
    1XTA    HL639151  32.356   2.375   2.210
    1XTA    HL739152  32.253   2.295   2.102
    1XTA    HL839153  32.111   2.507   2.105
    1XTA    HL939154  32.231   2.581   2.212
    1XTA   HL1039155  32.010   2.474   2.317
    1XTA   HL1139156  32.077   2.320   2.277
    1XTA   HL1239157  32.113   2.450   2.509
    1XTA   HL1339158  32.260   2.491   2.436
    1XTA   HL1439159  32.153   2.199   2.478
    1XTA   HL1539160  32.284   2.226   2.382
    1XTA   HL1639161  32.477   2.343   2.478
    1XTA   HL1739162  32.430   2.448   2.603
    1XTA   HL1839163  32.596   2.116   2.566
    1XTA   HL1939164  32.450   2.084   2.644
    1XTA   HL2039165  32.660   1.964   2.738
    1XTA   HL2139166  32.561   2.039   2.859
    1XTA   HL2239167  32.717   2.114   2.814
    1XTA   HL2339168  32.469   2.875   1.105
    1XTA   HL2439169  32.424   2.795   0.955
    1XTA   HL2539170  32.717   2.863   1.010
    1XTA   HL2639171  32.646   2.805   0.864
    1XTA   HL2739172  32.700   3.049   0.846
    1XTA   HL2839173  32.513   3.046   0.870
    1XTA   HL2939174  32.577   3.057   1.126
    1XTA   HL3039175  32.728   3.111   1.083
    1XTA   HL3139176  32.601   3.300   0.943
    1XTA   HL3239177  32.457   3.232   1.015
    1XTA   HL3339178  32.558   3.254   1.241
    1XTA   HL3439179  32.692   3.355   1.163
    1XTA   HL3539180  32.478   3.470   0.953
    1XTA   HL3639181  32.610   3.543   1.030
    1XTA   HL3739182  32.331   3.819   0.972
    1XTA   HL3839183  32.345   3.676   0.875
    1XTA   HL3939184  32.602   3.810   0.930
    1XTA   HL4039185  32.500   3.857   0.799
    1XTA   HL4139186  32.563   3.693   0.794
    1XTA    CO839187  32.526   2.334   2.817
    1XTA    CO939188  32.682   2.341   2.628
    1XTA    OA639189  32.413   2.268   2.863
    1XTA   HL4239190  32.507   2.442   2.814
    1XTA   HL4339191  32.606   2.310   2.896
    1XTA   HL4439192  32.414   3.806   1.211
    1XTA   HL4539193  32.485   3.658   1.270
    1XTA   CO1039194  32.485   3.724   1.189
    1XTA   CO1139195  32.285   3.593   1.113
    1XTA    OA739196  32.590   3.765   1.185
    1XTA   HL4639197  32.222   3.505   1.018
    1XTA   HL4739198  32.296   3.527   1.200
    1XTA   HL4839199  32.671   2.450   2.648
    1XTA   HL4939200  32.767   2.306   2.697
    1XTA     NT39201  35.170   3.783   3.493
    1XTA    CN139202  35.282   3.712   3.452
    1XTA     C139203  35.386   3.704   3.544
    1XTA     C239204  35.499   3.634   3.506
    1XTA     C339205  35.501   3.555   3.393
    1XTA     C439206  35.386   3.556   3.314
    1XTA     C539207  35.278   3.635   3.340
    1XTA    CN239208  35.185   3.912   3.526
    1XTA     C639209  35.136   4.001   3.427
    1XTA     C739210  35.135   4.143   3.460
    1XTA     C839211  35.192   4.191   3.577
    1XTA     C939212  35.252   4.102   3.666
    1XTA    C1039213  35.252   3.962   3.641
    1XTA    CN339214  35.064   3.718   3.554
    1XTA    C1139215  34.946   3.693   3.482
    1XTA    C1239216  34.832   3.639   3.542
    1XTA    C1339217  34.839   3.614   3.682
    1XTA    C1439218  34.962   3.633   3.755
    1XTA    C1539219  35.071   3.693   3.691
    1XTA     H139220  35.393   3.758   3.636
    1XTA     H239221  35.582   3.637   3.570
    1XTA     H339222  35.376   3.483   3.234
    1XTA     H439223  35.189   3.621   3.274
    1XTA     H539224  35.083   3.974   3.337
    1XTA     H639225  35.088   4.212   3.390
    1XTA     H739226  35.304   4.129   3.756
    1XTA     H839227  35.289   3.892   3.711
    1XTA     H939228  34.937   3.726   3.381
    1XTA    H1039229  34.741   3.608   3.493
    1XTA    H1139230  34.968   3.598   3.862
    1XTA    H1239231  35.155   3.716   3.748
    1XTA    OA139232  35.602   3.471   3.361
    1XTA    CO139233  35.725   3.491   3.433
    1XTA    OA239234  35.176   4.323   3.599
    1XTA    CO239235  35.153   4.356   3.731
    1XTA    CL139236  35.080   4.493   3.743
    1XTA    CL239237  34.949   4.498   3.661
    1XTA    CL339238  34.902   4.644   3.651
    1XTA    CL439239  34.755   4.649   3.615
    1XTA    CO339240  34.711   4.785   3.559
    1XTA    OA339241  34.733   4.882   3.667
    1XTA    CO439242  34.695   5.012   3.629
    1XTA    CT139243  34.756   5.117   3.711
    1XTA    CL539244  34.690   5.256   3.682
    1XTA    CL639245  34.698   5.303   3.535
    1XTA    OA439246  34.737   3.550   3.750
    1XTA    CO539247  34.616   3.614   3.747
    1XTA    CL739248  34.586   3.653   3.898
    1XTA    CL839249  34.459   3.735   3.905
    1XTA    CL939250  34.480   3.891   3.907
    1XTA   CL1039251  34.442   3.955   3.776
    1XTA    CO639252  34.440   4.110   3.781
    1XTA    OA539253  34.397   4.160   3.653
    1XTA    CO739254  34.405   4.296   3.640
    1XTA    CT239255  34.352   4.334   3.497
    1XTA   CL1139256  34.301   4.485   3.496
    1XTA   CL1239257  34.415   4.584   3.521
    1XTA    HL139258  35.812   3.452   3.384
    1XTA    HL239259  35.748   3.597   3.427
    1XTA    HL339260  35.725   3.458   3.534
    1XTA    HL439261  35.086   4.283   3.783
    1XTA    HL539262  35.251   4.374   3.779
    1XTA    HL639263  35.153   4.568   3.701
    1XTA    HL739264  35.057   4.509   3.849
    1XTA    HL839265  34.879   4.433   3.706
    1XTA    HL939266  34.959   4.453   3.559
    1XTA   HL1039267  34.898   4.713   3.729
    1XTA   HL1139268  34.950   4.694   3.570
    1XTA   HL1239269  34.699   4.627   3.706
    1XTA   HL1339270  34.738   4.560   3.544
    1XTA   HL1439271  34.773   4.808   3.468
    1XTA   HL1539272  34.608   4.786   3.523
    1XTA   HL1639273  34.695   5.040   3.530
    1XTA   HL1739274  34.588   5.006   3.649
    1XTA   HL1839275  34.737   5.323   3.751
    1XTA   HL1939276  34.578   5.255   3.700
    1XTA   HL2039277  34.799   5.330   3.515
    1XTA   HL2139278  34.658   5.407   3.524
    1XTA   HL2239279  34.659   5.253   3.448
    1XTA   HL2339280  34.556   3.538   3.701
    1XTA   HL2439281  34.614   3.703   3.689
    1XTA   HL2539282  34.587   3.568   3.964
    1XTA   HL2639283  34.666   3.706   3.946
    1XTA   HL2739284  34.399   3.706   3.821
    1XTA   HL2839285  34.400   3.714   4.003
    1XTA   HL2939286  34.401   3.924   3.973
    1XTA   HL3039287  34.577   3.923   3.938
    1XTA   HL3139288  34.516   3.933   3.695
    1XTA   HL3239289  34.350   3.911   3.733
    1XTA   HL3339290  34.363   4.151   3.852
    1XTA   HL3439291  34.535   4.157   3.803
    1XTA   HL3539292  34.511   4.324   3.662
    1XTA   HL3639293  34.326   4.330   3.710
    1XTA   HL3739294  34.240   4.502   3.584
    1XTA   HL3839295  34.247   4.510   3.408
    1XTA   HL3939296  34.503   4.585   3.457
    1XTA   HL4039297  34.464   4.575   3.621
    1XTA   HL4139298  34.376   4.683   3.512
    1XTA    CO839299  34.910   5.118   3.673
    1XTA    CO939300  34.754   5.079   3.856
    1XTA    OA639301  34.937   5.148   3.570
    1XTA   HL4239302  34.962   5.029   3.689
    1XTA   HL4339303  34.958   5.182   3.747
    1XTA   HL4439304  34.254   4.147   3.453
    1XTA   HL4539305  34.137   4.247   3.511
    1XTA   CO1039306  34.225   4.251   3.453
    1XTA   CO1139307  34.459   4.313   3.387
    1XTA    OA739308  34.491   4.177   3.378
    1XTA   HL4639309  34.427   4.346   3.293
    1XTA   HL4739310  34.548   4.370   3.413
    1XTA   HL4839311  34.825   4.960   3.889
    1XTA   HL4939312  34.814   5.157   3.902
    1XTA     NT39313  31.654   3.074   7.110
    1XTA    CN139314  31.522   3.081   7.135
    1XTA     C139315  31.423   3.002   7.072
    1XTA     C239316  31.289   3.016   7.093
    1XTA     C339317  31.241   3.120   7.181
    1XTA     C439318  31.336   3.197   7.248
    1XTA     C539319  31.474   3.183   7.224
    1XTA    CN239320  31.715   2.965   7.159
    1XTA     C639321  31.712   2.952   7.300
    1XTA     C739322  31.755   2.834   7.355
    1XTA     C839323  31.798   2.727   7.277
    1XTA     C939324  31.801   2.742   7.138
    1XTA    C1039325  31.762   2.862   7.077
    1XTA    CN339326  31.704   3.170   7.027
    1XTA    C1139327  31.692   3.166   6.886
    1XTA    C1239328  31.762   3.261   6.810
    1XTA    C1339329  31.840   3.362   6.867
    1XTA    C1439330  31.856   3.356   7.003
    1XTA    C1539331  31.783   3.268   7.080
    1XTA     H139332  31.460   2.928   7.005
    1XTA     H239333  31.225   2.951   7.038
    1XTA     H339334  31.306   3.271   7.311
    1XTA     H439335  31.553   3.241   7.269
    1XTA     H539336  31.663   3.029   7.358
    1XTA     H639337  31.736   2.818   7.460
    1XTA     H739338  31.851   2.662   7.080
    1XTA     H839339  31.766   2.876   6.970
    1XTA     H939340  31.619   3.091   6.848
    1XTA    H1039341  31.751   3.254   6.712
    1XTA    H1139342  31.919   3.440   7.046
    1XTA    H1239343  31.785   3.259   7.188
    1XTA    OA139344  31.103   3.127   7.195
    1XTA    CO139345  31.058   3.244   7.270
    1XTA    OA239346  31.862   2.613   7.326
    1XTA    CO239347  31.907   2.624   7.455
    1XTA    CL139348  31.985   2.500   7.485
    1XTA    CL239349  32.055   2.517   7.623
    1XTA    CL339350  32.141   2.391   7.668
    1XTA    CL439351  32.236   2.421   7.780
    1XTA    CO339352  32.165   2.421   7.918
    1XTA    OA339353  32.050   2.503   7.917
    1XTA    CO439354  32.010   2.556   8.041
    1XTA    CT139355  31.860   2.593   8.024
    1XTA    CL539356  31.845   2.701   7.911
    1XTA    CL639357  31.926   2.830   7.929
    1XTA    OA439358  31.901   3.461   6.794
    1XTA    CO539359  31.857   3.490   6.665
    1XTA    CL739360  31.937   3.601   6.605
    1XTA    CL839361  31.899   3.616   6.457
    1XTA    CL939362  31.754   3.659   6.436
    1XTA   CL1039363  31.727   3.801   6.470
    1XTA    CO639364  31.583   3.806   6.524
    1XTA    OA539365  31.509   3.814   6.405
    1XTA    CO739366  31.366   3.795   6.413
    1XTA    CT239367  31.286   3.891   6.330
    1XTA   CL1139368  31.309   4.032   6.375
    1XTA   CL1239369  31.267   4.074   6.517
    1XTA    HL139370  31.075   3.345   7.222
    1XTA    HL239371  30.946   3.243   7.280
    1XTA    HL339372  31.080   3.239   7.376
    1XTA    HL439373  31.982   2.713   7.458
    1XTA    HL539374  31.819   2.631   7.518
    1XTA    HL639375  32.077   2.478   7.419
    1XTA    HL739376  31.922   2.413   7.460
    1XTA    HL839377  31.974   2.543   7.686
    1XTA    HL939378  32.125   2.605   7.617
    1XTA   HL1039379  32.073   2.311   7.694
    1XTA   HL1139380  32.202   2.360   7.586
    1XTA   HL1239381  32.284   2.517   7.761
    1XTA   HL1339382  32.317   2.356   7.793
    1XTA   HL1439383  32.138   2.319   7.953
    1XTA   HL1539384  32.233   2.463   7.996
    1XTA   HL1639385  32.024   2.485   8.119
    1XTA   HL1739386  32.083   2.626   8.068
    1XTA   HL1839387  31.741   2.733   7.909
    1XTA   HL1939388  31.853   2.664   7.808
    1XTA   HL2039389  32.033   2.806   7.934
    1XTA   HL2139390  31.907   2.887   8.019
    1XTA   HL2239391  31.923   2.908   7.847
    1XTA   HL2339392  31.747   3.508   6.673
    1XTA   HL2439393  31.873   3.399   6.603
    1XTA   HL2539394  31.933   3.684   6.674
    1XTA   HL2639395  32.042   3.560   6.604
    1XTA   HL2739396  31.964   3.691   6.412
    1XTA   HL2839397  31.924   3.524   6.400
    1XTA   HL2939398  31.731   3.631   6.333
    1XTA   HL3039399  31.685   3.601   6.497
    1XTA   HL3139400  31.794   3.828   6.555
    1XTA   HL3239401  31.733   3.858   6.382
    1XTA   HL3339402  31.545   3.715   6.586
    1XTA   HL3439403  31.555   3.898   6.580
    1XTA   HL3539404  31.343   3.806   6.522
    1XTA   HL3639405  31.345   3.690   6.386
    1XTA   HL3739406  31.264   4.086   6.302
    1XTA   HL3839407  31.416   4.053   6.371
    1XTA   HL3939408  31.208   4.169   6.532
    1XTA   HL4039409  31.367   4.074   6.578
    1XTA   HL4139410  31.200   4.002   6.558
    1XTA    CO839411  31.792   2.640   8.149
    1XTA    CO939412  31.797   2.461   7.977
    1XTA    OA639413  31.694   2.481   7.931
    1XTA   HL4239414  31.688   2.667   8.133
    1XTA   HL4339415  31.779   2.536   8.242
    1XTA   HL4439416  31.116   3.843   6.432
    1XTA   HL4539417  31.071   3.923   6.287
    1XTA   CO1039418  31.144   3.860   6.330
    1XTA   CO1139419  31.328   3.881   6.188
    1XTA    OA739420  31.136   3.722   6.289
    1XTA   HL4639421  31.335   3.774   6.165
    1XTA   HL4739422  31.431   3.908   6.181
    1XTA   HL4839423  31.794   2.388   8.057
    1XTA   HL4939424  31.859   2.412   7.899
    1XTA     NT39425  28.302   1.374   3.087
    1XTA    CN139426  28.280   1.427   3.210
    1XTA     C139427  28.151   1.465   3.242
    1XTA     C239428  28.117   1.516   3.371
    1XTA     C339429  28.218   1.525   3.470
    1XTA     C439430  28.348   1.479   3.441
    1XTA     C539431  28.377   1.439   3.305
    1XTA    CN239432  28.231   1.265   3.046
    1XTA     C639433  28.120   1.287   2.960
    1XTA     C739434  28.064   1.179   2.879
    1XTA     C839435  28.123   1.048   2.891
    1XTA     C939436  28.233   1.028   2.980
    1XTA    C1039437  28.290   1.137   3.054
    1XTA    CN339438  28.381   1.442   2.998
    1XTA    C1139439  28.518   1.406   2.998
    1XTA    C1239440  28.608   1.495   2.942
    1XTA    C1339441  28.575   1.626   2.896
    1XTA    C1439442  28.439   1.654   2.888
    1XTA    C1539443  28.338   1.560   2.934
    1XTA     H139444  28.064   1.462   3.164
    1XTA     H239445  28.013   1.544   3.397
    1XTA     H339446  28.430   1.477   3.513
    1XTA     H439447  28.473   1.404   3.270
    1XTA     H539448  28.091   1.389   2.941
    1XTA     H639449  27.988   1.210   2.810
    1XTA     H739450  28.277   0.928   2.988
    1XTA     H839451  28.385   1.121   3.115
    1XTA     H939452  28.561   1.312   3.039
    1XTA    H1039453  28.713   1.470   2.925
    1XTA    H1139454  28.402   1.755   2.874
    1XTA    H1239455  28.233   1.579   2.941
    1XTA    OA139456  28.184   1.578   3.590
    1XTA    CO139457  28.299   1.609   3.676
    1XTA    OA239458  28.076   0.941   2.826
    1XTA    CO239459  27.977   0.968   2.730
    1XTA    CL139460  27.930   0.840   2.662
    1XTA    CL239461  27.840   0.875   2.546
    1XTA    CL339462  27.770   0.748   2.494
    1XTA    CL439463  27.663   0.787   2.394
    1XTA    CO339464  27.542   0.875   2.442
    1XTA    OA339465  27.502   0.854   2.574
    1XTA    CO439466  27.436   0.732   2.597
    1XTA    CT139467  27.408   0.706   2.751
    1XTA    CL539468  27.553   0.677   2.807
    1XTA    CL639469  27.579   0.637   2.947
    1XTA    OA439470  28.671   1.724   2.877
    1XTA    CO539471  28.633   1.860   2.860
    1XTA    CL739472  28.753   1.958   2.868
    1XTA    CL839473  28.871   1.931   2.770
    1XTA    CL939474  28.847   1.980   2.625
    1XTA   CL1039475  28.960   1.933   2.532
    1XTA    CO639476  28.933   1.927   2.383
    1XTA    OA539477  28.891   2.052   2.337
    1XTA    CO739478  28.926   2.069   2.203
    1XTA    CT239479  28.886   2.210   2.155
    1XTA   CL1139480  28.918   2.229   2.002
    1XTA   CL1239481  29.047   2.171   1.948
    1XTA    HL139482  28.334   1.515   3.717
    1XTA    HL239483  28.377   1.653   3.626
    1XTA    HL339484  28.278   1.670   3.766
    1XTA    HL439485  27.887   0.990   2.790
    1XTA    HL539486  27.991   1.047   2.654
    1XTA    HL639487  27.879   0.784   2.731
    1XTA    HL739488  28.023   0.803   2.620
    1XTA    HL839489  27.906   0.925   2.470
    1XTA    HL939490  27.762   0.937   2.590
    1XTA   HL1039491  27.837   0.672   2.444
    1XTA   HL1139492  27.721   0.698   2.575
    1XTA   HL1239493  27.624   0.691   2.358
    1XTA   HL1339494  27.707   0.825   2.300
    1XTA   HL1439495  27.577   0.982   2.421
    1XTA   HL1539496  27.457   0.864   2.377
    1XTA   HL1639497  27.342   0.752   2.547
    1XTA   HL1739498  27.483   0.642   2.548
    1XTA   HL1839499  27.606   0.762   2.794
    1XTA   HL1939500  27.602   0.608   2.736
    1XTA   HL2039501  27.548   0.536   2.969
    1XTA   HL2139502  27.530   0.696   3.026
    1XTA   HL2239503  27.680   0.646   2.967
    1XTA   HL2339504  28.569   1.881   2.946
    1XTA   HL2439505  28.586   1.871   2.764
    1XTA   HL2539506  28.722   2.063   2.872
    1XTA   HL2639507  28.807   1.944   2.963
    1XTA   HL2739508  28.954   1.981   2.814
    1XTA   HL2839509  28.906   1.824   2.764
    1XTA   HL2939510  28.745   1.952   2.596
    1XTA   HL3039511  28.851   2.091   2.628
    1XTA   HL3139512  29.056   1.985   2.551
    1XTA   HL3239513  28.978   1.833   2.559
    1XTA   HL3339514  29.027   1.895   2.336
    1XTA   HL3439515  28.849   1.853   2.364
    1XTA   HL3539516  28.866   1.996   2.152
    1XTA   HL3639517  29.035   2.057   2.192
    1XTA   HL3739518  28.921   2.332   1.974
    1XTA   HL3839519  28.826   2.191   1.956
    1XTA   HL3939520  29.076   2.210   1.854
    1XTA   HL4039521  29.030   2.066   1.940
    1XTA   HL4139522  29.123   2.198   2.025
    1XTA    CO839523  27.315   0.584   2.765
    1XTA    CO939524  27.344   0.836   2.810
    1XTA    OA639525  27.293   0.832   2.944
    1XTA   HL4239526  27.269   0.583   2.859
    1XTA   HL4339527  27.369   0.487   2.770
    1XTA   HL4439528  28.944   2.418   2.180
    1XTA   HL4539529  28.914   2.317   2.334
    1XTA   CO1039530  28.962   2.319   2.234
    1XTA   CO1139531  28.735   2.238   2.176
    1XTA    OA739532  29.064   2.293   2.255
    1XTA   HL4639533  28.669   2.122   2.128
    1XTA   HL4739534  28.709   2.242   2.284
    1XTA   HL4839535  27.262   0.854   2.743
    1XTA   HL4939536  27.408   0.920   2.788
    1XTA     NT39537  31.639  -2.282   4.165
    1XTA    CN139538  31.511  -2.308   4.188
    1XTA     C139539  31.438  -2.212   4.260
    1XTA     C239540  31.305  -2.233   4.292
    1XTA     C339541  31.243  -2.356   4.267
    1XTA     C439542  31.311  -2.456   4.194
    1XTA     C539543  31.446  -2.437   4.151
    1XTA    CN239544  31.674  -2.228   4.040
    1XTA     C639545  31.791  -2.274   3.973
    1XTA     C739546  31.835  -2.209   3.857
    1XTA     C839547  31.763  -2.100   3.799
    1XTA     C939548  31.649  -2.059   3.861
    1XTA    C1039549  31.598  -2.125   3.974
    1XTA    CN339550  31.730  -2.303   4.256
    1XTA    C1139551  31.770  -2.190   4.339
    1XTA    C1239552  31.872  -2.206   4.433
    1XTA    C1339553  31.931  -2.336   4.452
    1XTA    C1439554  31.887  -2.442   4.373
    1XTA    C1539555  31.782  -2.429   4.279
    1XTA     H139556  31.483  -2.114   4.275
    1XTA     H239557  31.248  -2.149   4.335
    1XTA     H339558  31.268  -2.551   4.157
    1XTA     H439559  31.492  -2.521   4.095
    1XTA     H539560  31.843  -2.357   4.016
    1XTA     H639561  31.929  -2.254   3.811
    1XTA     H739562  31.595  -1.981   3.810
    1XTA     H839563  31.511  -2.081   4.018
    1XTA     H939564  31.721  -2.102   4.321
    1XTA    H1039565  31.898  -2.128   4.504
    1XTA    H1139566  31.934  -2.542   4.386
    1XTA    H1239567  31.761  -2.518   4.214
    1XTA    OA139568  31.107  -2.363   4.301
    1XTA    CO139569  31.048  -2.495   4.306
    1XTA    OA239570  31.805  -2.034   3.687
    1XTA    CO239571  31.938  -2.056   3.645
    1XTA    CL139572  31.975  -1.944   3.545
    1XTA    CL239573  32.100  -1.977   3.462
    1XTA    CL339574  32.125  -1.863   3.361
    1XTA    CL439575  32.261  -1.870   3.293
    1XTA    CO339576  32.276  -1.743   3.214
    1XTA    OA339577  32.373  -1.660   3.280
    1XTA    CO439578  32.504  -1.690   3.237
    1XTA    CT139579  32.607  -1.636   3.339
    1XTA    CL539580  32.596  -1.482   3.366
    1XTA    CL639581  32.626  -1.403   3.238
    1XTA    OA439582  32.042  -2.354   4.528
    1XTA    CO539583  32.161  -2.388   4.451
    1XTA    CL739584  32.206  -2.269   4.365
    1XTA    CL839585  32.307  -2.315   4.257
    1XTA    CL939586  32.443  -2.363   4.311
    1XTA   CL1039587  32.440  -2.517   4.360
    1XTA    CO639588  32.554  -2.542   4.463
    1XTA    OA539589  32.510  -2.472   4.579
    1XTA    CO739590  32.572  -2.522   4.693
    1XTA    CT239591  32.516  -2.453   4.819
    1XTA   CL1139592  32.547  -2.307   4.853
    1XTA   CL1239593  32.495  -2.206   4.754
    1XTA    HL139594  30.943  -2.507   4.334
    1XTA    HL239595  31.054  -2.550   4.212
    1XTA    HL339596  31.101  -2.545   4.388
    1XTA    HL439597  32.013  -2.045   3.721
    1XTA    HL539598  31.947  -2.159   3.615
    1XTA    HL639599  31.987  -1.851   3.603
    1XTA    HL739600  31.893  -1.934   3.474
    1XTA    HL839601  32.076  -2.056   3.401
    1XTA    HL939602  32.190  -1.995   3.529
    1XTA   HL1039603  32.045  -1.873   3.283
    1XTA   HL1139604  32.109  -1.765   3.417
    1XTA   HL1239605  32.259  -1.960   3.228
    1XTA   HL1339606  32.342  -1.885   3.357
    1XTA   HL1439607  32.320  -1.778   3.119
    1XTA   HL1539608  32.173  -1.697   3.197
    1XTA   HL1639609  32.522  -1.800   3.230
    1XTA   HL1739610  32.520  -1.662   3.130
    1XTA   HL1839611  32.668  -1.446   3.449
    1XTA   HL1939612  32.498  -1.444   3.404
    1XTA   HL2039613  32.605  -1.298   3.229
    1XTA   HL2139614  32.571  -1.440   3.152
    1XTA   HL2239615  32.736  -1.402   3.216
    1XTA   HL2339616  32.136  -2.459   4.378
    1XTA   HL2439617  32.230  -2.415   4.528
    1XTA   HL2539618  32.119  -2.231   4.317
    1XTA   HL2639619  32.246  -2.192   4.429
    1XTA   HL2739620  32.271  -2.390   4.182
    1XTA   HL2839621  32.333  -2.231   4.200
    1XTA   HL2939622  32.524  -2.347   4.235
    1XTA   HL3039623  32.472  -2.311   4.400
    1XTA   HL3139624  32.345  -2.540   4.394
    1XTA   HL3239625  32.453  -2.577   4.271
    1XTA   HL3339626  32.549  -2.647   4.470
    1XTA   HL3439627  32.651  -2.515   4.414
    1XTA   HL3539628  32.677  -2.493   4.695
    1XTA   HL3639629  32.545  -2.624   4.704
    1XTA   HL3739630  32.656  -2.298   4.863
    1XTA   HL3839631  32.515  -2.277   4.954
    1XTA   HL3939632  32.394  -2.230   4.722
    1XTA   HL4039633  32.567  -2.226   4.674
    1XTA   HL4139634  32.502  -2.113   4.803
    1XTA    CO839635  32.747  -1.673   3.286
    1XTA    CO939636  32.582  -1.698   3.473
    1XTA    OA639637  32.770  -1.807   3.265
    1XTA   HL4239638  32.823  -1.639   3.354
    1XTA   HL4339639  32.770  -1.621   3.188
    1XTA   HL4439640  32.515  -2.518   5.032
    1XTA   HL4539641  32.552  -2.639   4.913
    1XTA   CO1039642  32.569  -2.535   4.942
    1XTA   CO1139643  32.360  -2.480   4.812
    1XTA    OA739644  32.675  -2.524   4.961
    1XTA   HL4639645  32.304  -2.441   4.937
    1XTA   HL4739646  32.323  -2.406   4.739
    1XTA   HL4839647  32.485  -1.668   3.509
    1XTA   HL4939648  32.584  -1.807   3.468
    1XTA     NT39649  29.745   4.788   1.794
    1XTA    CN139650  29.660   4.895   1.804
    1XTA     C139651  29.595   4.944   1.690
    1XTA     C239652  29.523   5.069   1.693
    1XTA     C339653  29.508   5.142   1.807
    1XTA     C439654  29.567   5.091   1.926
    1XTA     C539655  29.649   4.972   1.921
    1XTA    CN239656  29.700   4.660   1.827
    1XTA     C639657  29.746   4.546   1.759
    1XTA     C739658  29.687   4.420   1.799
    1XTA     C839659  29.590   4.409   1.900
    1XTA     C939660  29.558   4.524   1.963
    1XTA    C1039661  29.607   4.650   1.931
    1XTA    CN339662  29.879   4.801   1.755
    1XTA    C1139663  29.907   4.855   1.632
    1XTA    C1239664  30.041   4.885   1.593
    1XTA    C1339665  30.149   4.859   1.680
    1XTA    C1439666  30.112   4.822   1.811
    1XTA    C1539667  29.982   4.789   1.849
    1XTA     H139668  29.610   4.902   1.595
    1XTA     H239669  29.481   5.104   1.599
    1XTA     H339670  29.564   5.148   2.015
    1XTA     H439671  29.703   4.951   2.007
    1XTA     H539672  29.829   4.549   1.684
    1XTA     H639673  29.724   4.343   1.736
    1XTA     H739674  29.484   4.524   2.044
    1XTA     H839675  29.553   4.735   1.977
    1XTA     H939676  29.828   4.888   1.566
    1XTA    H1039677  30.059   4.930   1.494
    1XTA    H1139678  30.191   4.820   1.879
    1XTA    H1239679  29.979   4.736   1.944
    1XTA    OA139680  29.439   5.261   1.806
    1XTA    CO139681  29.441   5.343   1.928
    1XTA    OA239682  29.527   4.289   1.926
    1XTA    CO239683  29.608   4.176   1.942
    1XTA    CL139684  29.497   4.068   1.979
    1XTA    CL239685  29.550   3.924   1.973
    1XTA    CL339686  29.481   3.814   2.057
    1XTA    CL439687  29.567   3.691   2.067
    1XTA    CO339688  29.534   3.607   2.186
    1XTA    OA339689  29.640   3.616   2.292
    1XTA    CO439690  29.639   3.732   2.378
    1XTA    CT139691  29.759   3.717   2.479
    1XTA    CL539692  29.879   3.663   2.407
    1XTA    CL639693  29.903   3.742   2.277
    1XTA    OA439694  30.291   4.859   1.650
    1XTA    CO539695  30.327   4.879   1.516
    1XTA    CL739696  30.479   4.901   1.535
    1XTA    CL839697  30.557   4.946   1.410
    1XTA    CL939698  30.703   4.952   1.433
    1XTA   CL1039699  30.757   5.000   1.568
    1XTA    CO639700  30.911   5.020   1.563
    1XTA    OA539701  30.926   5.131   1.474
    1XTA    CO739702  31.056   5.165   1.454
    1XTA    CT239703  31.073   5.278   1.350
    1XTA   CL1139704  31.223   5.307   1.325
    1XTA   CL1239705  31.245   5.428   1.231
    1XTA    HL139706  29.544   5.351   1.957
    1XTA    HL239707  29.389   5.441   1.914
    1XTA    HL339708  29.386   5.300   2.004
    1XTA    HL439709  29.661   4.151   1.854
    1XTA    HL539710  29.679   4.195   2.023
    1XTA    HL639711  29.417   4.075   1.911
    1XTA    HL739712  29.454   4.097   2.070
    1XTA    HL839713  29.643   3.936   2.024
    1XTA    HL939714  29.565   3.889   1.862
    1XTA   HL1039715  29.461   3.846   2.154
    1XTA   HL1139716  29.383   3.782   2.014
    1XTA   HL1239717  29.669   3.720   2.062
    1XTA   HL1339718  29.553   3.635   1.974
    1XTA   HL1439719  29.440   3.643   2.236
    1XTA   HL1539720  29.520   3.507   2.150
    1XTA   HL1639721  29.650   3.826   2.318
    1XTA   HL1739722  29.548   3.740   2.442
    1XTA   HL1839723  29.855   3.555   2.385
    1XTA   HL1939724  29.966   3.653   2.471
    1XTA   HL2039725  29.920   3.848   2.294
    1XTA   HL2139726  29.835   3.710   2.199
    1XTA   HL2239727  30.001   3.709   2.250
    1XTA   HL2339728  30.280   4.970   1.484
    1XTA   HL2439729  30.301   4.803   1.444
    1XTA   HL2539730  30.503   4.974   1.612
    1XTA   HL2639731  30.519   4.810   1.587
    1XTA   HL2739732  30.534   4.888   1.320
    1XTA   HL2839733  30.505   5.036   1.375
    1XTA   HL2939734  30.731   4.855   1.429
    1XTA   HL3039735  30.751   5.005   1.354
    1XTA   HL3139736  30.704   5.090   1.597
    1XTA   HL3239737  30.746   4.920   1.632
    1XTA   HL3339738  30.940   5.064   1.657
    1XTA   HL3439739  30.969   4.931   1.544
    1XTA   HL3539740  31.111   5.085   1.412
    1XTA   HL3639741  31.112   5.178   1.545
    1XTA   HL3739742  31.279   5.230   1.278
    1XTA   HL3839743  31.267   5.319   1.424
    1XTA   HL3939744  31.344   5.435   1.196
    1XTA   HL4039745  31.216   5.522   1.285
    1XTA   HL4139746  31.177   5.439   1.141
    1XTA    CO839747  29.709   3.626   2.589
    1XTA    CO939748  29.792   3.852   2.543
    1XTA    OA639749  29.707   3.887   2.605
    1XTA   HL4239750  29.612   3.663   2.621
    1XTA   HL4339751  29.670   3.506   2.526
    1XTA   HL4439752  31.086   5.467   1.445
    1XTA   HL4539753  30.978   5.477   1.313
    1XTA   CO1039754  30.998   5.411   1.398
    1XTA   CO1139755  31.003   5.220   1.224
    1XTA    OA739756  31.068   5.100   1.182
    1XTA   HL4639757  30.897   5.199   1.237
    1XTA   HL4739758  31.019   5.294   1.142
    1XTA   HL4839759  29.801   3.922   2.465
    1XTA   HL4939760  29.884   3.852   2.602
    1XTA     NT39761  30.820   2.071   5.762
    1XTA    CN139762  30.810   2.003   5.645
    1XTA     C139763  30.887   1.887   5.621
    1XTA     C239764  30.876   1.811   5.510
    1XTA     C339765  30.790   1.848   5.408
    1XTA     C439766  30.702   1.955   5.427
    1XTA     C539767  30.710   2.037   5.544
    1XTA    CN239768  30.773   2.014   5.877
    1XTA     C639769  30.637   2.024   5.907
    1XTA     C739770  30.595   1.974   6.030
    1XTA     C839771  30.688   1.915   6.122
    1XTA     C939772  30.821   1.906   6.085
    1XTA    C1039773  30.866   1.953   5.964
    1XTA    CN339774  30.870   2.195   5.757
    1XTA    C1139775  30.784   2.312   5.785
    1XTA    C1239776  30.832   2.443   5.772
    1XTA    C1339777  30.971   2.463   5.755
    1XTA    C1439778  31.054   2.354   5.735
    1XTA    C1539779  31.006   2.220   5.725
    1XTA     H139780  30.959   1.856   5.695
    1XTA     H239781  30.958   1.739   5.489
    1XTA     H339782  30.627   1.982   5.353
    1XTA     H439783  30.646   2.119   5.561
    1XTA     H539784  30.566   2.065   5.833
    1XTA     H639785  30.499   1.978   6.065
    1XTA     H739786  30.889   1.869   6.157
    1XTA     H839787  30.969   1.941   5.937
    1XTA     H939788  30.683   2.296   5.819
    1XTA    H1039789  30.765   2.522   5.799
    1XTA    H1139790  31.154   2.391   5.724
    1XTA    H1239791  31.085   2.146   5.717
    1XTA    OA139792  30.783   1.766   5.299
    1XTA    CO139793  30.656   1.763   5.222
    1XTA    OA239794  30.633   1.884   6.242
    1XTA    CO239795  30.732   1.845   6.339
    1XTA    CL139796  30.655   1.795   6.467
    1XTA    CL239797  30.756   1.769   6.577
    1XTA    CL339798  30.878   1.688   6.529
    1XTA    CL439799  31.011   1.772   6.515
    1XTA    CO339800  31.118   1.693   6.457
    1XTA    OA339801  31.076   1.657   6.327
    1XTA    CO439802  31.170   1.573   6.255
    1XTA    CT139803  31.111   1.526   6.120
    1XTA    CL539804  31.065   1.644   6.034
    1XTA    CL639805  31.033   1.610   5.883
    1XTA    OA439806  31.029   2.581   5.770
    1XTA    CO539807  31.097   2.602   5.886
    1XTA    CL739808  31.113   2.756   5.885
    1XTA    CL839809  31.185   2.813   6.008
    1XTA    CL939810  31.196   2.972   6.007
    1XTA   CL1039811  31.251   3.036   5.873
    1XTA    CO639812  31.282   3.188   5.875
    1XTA    OA539813  31.321   3.234   5.750
    1XTA    CO739814  31.365   3.371   5.753
    1XTA    CT239815  31.382   3.430   5.615
    1XTA   CL1139816  31.437   3.571   5.638
    1XTA   CL1239817  31.475   3.641   5.508
    1XTA    HL139818  30.571   1.763   5.298
    1XTA    HL239819  30.658   1.851   5.164
    1XTA    HL339820  30.639   1.673   5.161
    1XTA    HL439821  30.796   1.767   6.300
    1XTA    HL539822  30.793   1.932   6.361
    1XTA    HL639823  30.587   1.712   6.449
    1XTA    HL739824  30.590   1.875   6.511
    1XTA    HL839825  30.706   1.719   6.655
    1XTA    HL939826  30.790   1.867   6.617
    1XTA   HL1039827  30.904   1.625   6.613
    1XTA   HL1139828  30.865   1.618   6.447
    1XTA   HL1239829  31.037   1.793   6.621
    1XTA   HL1339830  30.999   1.868   6.468
    1XTA   HL1439831  31.214   1.756   6.459
    1XTA   HL1539832  31.128   1.602   6.511
    1XTA   HL1639833  31.254   1.643   6.223
    1XTA   HL1739834  31.190   1.495   6.331
    1XTA   HL1839835  31.141   1.722   6.048
    1XTA   HL1939836  30.966   1.683   6.068
    1XTA   HL2039837  30.972   1.521   5.879
    1XTA   HL2139838  31.130   1.585   5.832
    1XTA   HL2239839  30.980   1.687   5.817
    1XTA   HL2339840  31.186   2.542   5.897
    1XTA   HL2439841  31.035   2.562   5.965
    1XTA   HL2539842  31.168   2.784   5.797
    1XTA   HL2639843  31.025   2.816   5.867
    1XTA   HL2739844  31.142   2.785   6.103
    1XTA   HL2839845  31.285   2.781   6.010
    1XTA   HL2939846  31.098   3.017   6.020
    1XTA   HL3039847  31.255   2.995   6.089
    1XTA   HL3139848  31.339   2.981   5.839
    1XTA   HL3239849  31.182   3.013   5.789
    1XTA   HL3339850  31.197   3.241   5.905
    1XTA   HL3439851  31.356   3.203   5.949
    1XTA   HL3539852  31.456   3.376   5.806
    1XTA   HL3639853  31.301   3.441   5.797
    1XTA   HL3739854  31.520   3.550   5.704
    1XTA   HL3839855  31.367   3.631   5.695
    1XTA   HL3939856  31.509   3.742   5.529
    1XTA   HL4039857  31.384   3.657   5.448
    1XTA   HL4139858  31.558   3.588   5.459
    1XTA    CO839859  30.993   1.431   6.135
    1XTA    CO939860  31.223   1.438   6.061
    1XTA    OA639861  31.240   1.334   6.104
    1XTA   HL4239862  30.981   1.389   6.038
    1XTA   HL4339863  31.030   1.327   6.225
    1XTA   HL4439864  31.208   3.301   5.521
    1XTA   HL4539865  31.277   3.457   5.437
    1XTA   CO1039866  31.253   3.429   5.536
    1XTA   CO1139867  31.487   3.347   5.538
    1XTA    OA739868  31.463   3.243   5.528
    1XTA   HL4639869  31.505   3.392   5.438
    1XTA   HL4739870  31.572   3.373   5.598
    1XTA   HL4839871  31.319   1.488   6.074
    1XTA   HL4939872  31.223   1.442   5.952
    1XTA     NT39873  29.818   3.381   4.971
    1XTA    CN139874  29.698   3.353   4.909
    1XTA     C139875  29.570   3.359   4.970
    1XTA     C239876  29.454   3.308   4.913
    1XTA     C339877  29.465   3.233   4.798
    1XTA     C439878  29.586   3.219   4.729
    1XTA     C539879  29.702   3.281   4.783
    1XTA    CN239880  29.898   3.295   5.033
    1XTA     C639881  30.031   3.288   4.987
    1XTA     C739882  30.115   3.199   5.054
    1XTA     C839883  30.071   3.118   5.160
    1XTA     C939884  29.932   3.120   5.196
    1XTA    C1039885  29.850   3.209   5.132
    1XTA    CN339886  29.861   3.505   4.990
    1XTA    C1139887  29.883   3.586   4.882
    1XTA    C1239888  29.920   3.723   4.905
    1XTA    C1339889  29.933   3.775   5.037
    1XTA    C1439890  29.903   3.693   5.147
    1XTA    C1539891  29.864   3.557   5.117
    1XTA     H139892  29.565   3.409   5.070
    1XTA     H239893  29.362   3.333   4.969
    1XTA     H339894  29.590   3.172   4.634
    1XTA     H439895  29.791   3.260   4.737
    1XTA     H539896  30.074   3.336   4.896
    1XTA     H639897  30.223   3.192   5.035
    1XTA     H739898  29.894   3.064   5.273
    1XTA     H839899  29.746   3.222   5.151
    1XTA     H939900  29.870   3.551   4.778
    1XTA    H1039901  29.942   3.791   4.823
    1XTA    H1139902  29.893   3.733   5.244
    1XTA    H1239903  29.840   3.485   5.199
    1XTA    OA139904  29.349   3.186   4.730
    1XTA    CO139905  29.232   3.196   4.810
    1XTA    OA239906  30.169   3.032   5.202
    1XTA    CO239907  30.122   2.906   5.229
    1XTA    CL139908  30.245   2.834   5.279
    1XTA    CL239909  30.252   2.679   5.291
    1XTA    CL339910  30.210   2.599   5.171
    1XTA    CL439911  30.064   2.600   5.127
    1XTA    CO339912  30.028   2.488   5.030
    1XTA    OA339913  30.121   2.495   4.928
    1XTA    CO439914  30.092   2.391   4.837
    1XTA    CT139915  30.193   2.414   4.722
    1XTA    CL539916  30.195   2.302   4.623
    1XTA    CL639917  30.064   2.251   4.561
    1XTA    OA439918  29.963   3.910   5.051
    1XTA    CO539919  30.063   3.932   5.152
    1XTA    CL739920  30.023   4.049   5.239
    1XTA    CL839921  29.889   4.019   5.304
    1XTA    CL939922  29.860   4.127   5.411
    1XTA   CL1039923  29.711   4.162   5.425
    1XTA    CO639924  29.627   4.044   5.494
    1XTA    OA539925  29.494   4.073   5.495
    1XTA    CO739926  29.456   4.166   5.594
    1XTA    CT239927  29.306   4.197   5.560
    1XTA   CL1139928  29.230   4.055   5.561
    1XTA   CL1239929  29.083   4.067   5.529
    1XTA    HL139930  29.249   3.174   4.910
    1XTA    HL239931  29.200   3.301   4.813
    1XTA    HL339932  29.136   3.152   4.770
    1XTA    HL439933  30.035   2.895   5.303
    1XTA    HL539934  30.094   2.873   5.133
    1XTA    HL639935  30.269   2.881   5.377
    1XTA    HL739936  30.328   2.855   5.218
    1XTA    HL839937  30.210   2.639   5.383
    1XTA    HL939938  30.362   2.652   5.297
    1XTA   HL1039939  30.280   2.621   5.092
    1XTA   HL1139940  30.235   2.492   5.204
    1XTA   HL1239941  30.039   2.683   5.069
    1XTA   HL1339942  29.997   2.603   5.211
    1XTA   HL1439943  30.010   2.392   5.085
    1XTA   HL1539944  29.929   2.512   4.982
    1XTA   HL1639945  30.102   2.292   4.879
    1XTA   HL1739946  29.992   2.408   4.810
    1XTA   HL1839947  30.236   2.223   4.684
    1XTA   HL1939948  30.269   2.311   4.549
    1XTA   HL2039949  29.984   2.261   4.633
    1XTA   HL2139950  30.079   2.146   4.548
    1XTA   HL2239951  30.026   2.299   4.468
    1XTA   HL2339952  30.155   3.953   5.099
    1XTA   HL2439953  30.091   3.852   5.215
    1XTA   HL2539954  30.102   4.054   5.314
    1XTA   HL2639955  30.013   4.150   5.196
    1XTA   HL2739956  29.812   4.003   5.237
    1XTA   HL2839957  29.892   3.918   5.346
    1XTA   HL2939958  29.911   4.095   5.502
    1XTA   HL3039959  29.906   4.225   5.386
    1XTA   HL3139960  29.713   4.256   5.487
    1XTA   HL3239961  29.666   4.192   5.327
    1XTA   HL3339962  29.640   3.951   5.433
    1XTA   HL3439963  29.666   4.023   5.594
    1XTA   HL3539964  29.508   4.258   5.579
    1XTA   HL3639965  29.463   4.130   5.697
    1XTA   HL3739966  29.241   4.003   5.647
    1XTA   HL3839967  29.277   3.997   5.483
    1XTA   HL3939968  29.039   4.148   5.585
    1XTA   HL4039969  29.032   3.972   5.563
    1XTA   HL4139970  29.050   4.071   5.431
    1XTA    CO839971  30.335   2.423   4.788
    1XTA    CO939972  30.169   2.551   4.648
    1XTA    OA639973  30.124   2.551   4.544
    1XTA   HL4239974  30.358   2.520   4.833
    1XTA   HL4339975  30.336   2.356   4.912
    1XTA   HL4439976  29.157   4.299   5.404
    1XTA   HL4539977  29.325   4.190   5.344
    1XTA   CO1039978  29.293   4.258   5.417
    1XTA   CO1139979  29.252   4.295   5.666
    1XTA    OA739980  29.315   4.389   5.674
    1XTA   HL4639981  29.145   4.318   5.638
    1XTA   HL4739982  29.244   4.251   5.768
    1XTA   HL4839983  30.254   2.619   4.651
    1XTA   HL4939984  30.110   2.615   4.708
    1XTA     NT39985  33.291   6.611   6.357
    1XTA    CN139986  33.393   6.635   6.277
    1XTA     C139987  33.439   6.766   6.256
    1XTA     C239988  33.543   6.785   6.164
    1XTA     C339989  33.598   6.682   6.089
    1XTA     C439990  33.556   6.547   6.113
    1XTA     C539991  33.454   6.531   6.202
    1XTA    CN239992  33.160   6.623   6.315
    1XTA     C639993  33.104   6.539   6.212
    1XTA     C739994  32.983   6.568   6.150
    1XTA     C839995  32.910   6.677   6.186
    1XTA     C939996  32.958   6.764   6.287
    1XTA    C1039997  33.085   6.740   6.345
    1XTA    CN339998  33.317   6.604   6.488
    1XTA    C1139999  33.305   6.477   6.545
    1XTA    C1240000  33.345   6.453   6.677
    1XTA    C1340001  33.393   6.555   6.758
    1XTA    C1440002  33.394   6.682   6.703
    1XTA    C1540003  33.353   6.712   6.572
    1XTA     H140004  33.394   6.845   6.309
    1XTA     H240005  33.587   6.884   6.143
    1XTA     H340006  33.607   6.467   6.063
    1XTA     H440007  33.411   6.436   6.214
    1XTA     H540008  33.173   6.448   6.189
    1XTA     H640009  32.948   6.523   6.064
    1XTA     H740010  32.910   6.863   6.296
    1XTA     H840011  33.134   6.812   6.406
    1XTA     H940012  33.261   6.399   6.484
    1XTA    H1040013  33.347   6.351   6.713
    1XTA    H1140014  33.424   6.769   6.768
    1XTA    H1240015  33.368   6.809   6.526
    1XTA    OA140016  33.708   6.709   6.007
    1XTA    CO140017  33.695   6.657   5.881
    1XTA    OA240018  32.805   6.710   6.100
    1XTA    CO240019  32.769   6.845   6.096
    1XTA    CL140020  32.654   6.850   5.986
    1XTA    CL240021  32.708   6.820   5.844
    1XTA    CL340022  32.729   6.949   5.764
    1XTA    CL440023  32.817   6.939   5.635
    1XTA    CO340024  32.961   6.908   5.655
    1XTA    OA340025  33.033   6.938   5.535
    1XTA    CO440026  33.030   6.839   5.429
    1XTA    CT140027  33.143   6.857   5.323
    1XTA    CL540028  33.285   6.827   5.377
    1XTA    CL640029  33.297   6.692   5.443
    1XTA    OA440030  33.436   6.531   6.884
    1XTA    CO540031  33.557   6.601   6.913
    1XTA    CL740032  33.611   6.545   7.046
    1XTA    CL840033  33.739   6.613   7.086
    1XTA    CL940034  33.786   6.577   7.224
    1XTA   CL1040035  33.895   6.669   7.278
    1XTA    CO640036  33.856   6.820   7.287
    1XTA    OA540037  33.732   6.844   7.348
    1XTA    CO740038  33.642   6.913   7.262
    1XTA    CT240039  33.550   7.002   7.344
    1XTA   CL1140040  33.635   7.133   7.378
    1XTA   CL1240041  33.765   7.115   7.456
    1XTA    HL140042  33.671   6.542   5.872
    1XTA    HL240043  33.614   6.697   5.817
    1XTA    HL340044  33.786   6.687   5.832
    1XTA    HL440045  32.745   6.880   6.194
    1XTA    HL540046  32.861   6.892   6.056
    1XTA    HL640047  32.613   6.953   5.981
    1XTA    HL740048  32.561   6.788   6.001
    1XTA    HL840049  32.639   6.760   5.788
    1XTA    HL940050  32.786   6.750   5.857
    1XTA   HL1040051  32.638   6.992   5.735
    1XTA   HL1140052  32.779   7.008   5.846
    1XTA   HL1240053  32.814   7.029   5.576
    1XTA   HL1340054  32.769   6.863   5.572
    1XTA   HL1440055  33.017   6.970   5.733
    1XTA   HL1540056  32.974   6.803   5.691
    1XTA   HL1640057  33.030   6.734   5.467
    1XTA   HL1740058  32.929   6.863   5.390
    1XTA   HL1840059  33.306   6.892   5.462
    1XTA   HL1940060  33.360   6.832   5.300
    1XTA   HL2040061  33.397   6.687   5.497
    1XTA   HL2140062  33.294   6.605   5.372
    1XTA   HL2240063  33.212   6.685   5.512
    1XTA   HL2340064  33.530   6.707   6.926
    1XTA   HL2440065  33.634   6.583   6.837
    1XTA   HL2540066  33.550   6.569   7.130
    1XTA   HL2640067  33.602   6.435   7.039
    1XTA   HL2740068  33.820   6.603   7.010
    1XTA   HL2840069  33.698   6.714   7.083
    1XTA   HL2940070  33.699   6.568   7.295
    1XTA   HL3040071  33.828   6.479   7.236
    1XTA   HL3140072  33.916   6.626   7.377
    1XTA   HL3240073  33.983   6.649   7.221
    1XTA   HL3340074  33.936   6.871   7.339
    1XTA   HL3440075  33.856   6.865   7.191
    1XTA   HL3540076  33.585   6.848   7.196
    1XTA   HL3640077  33.693   6.968   7.185
    1XTA   HL3740078  33.568   7.198   7.437
    1XTA   HL3840079  33.673   7.186   7.283
    1XTA   HL3940080  33.751   7.049   7.536
    1XTA   HL4040081  33.796   7.211   7.494
    1XTA   HL4140082  33.842   7.088   7.384
    1XTA    CO840083  33.151   7.007   5.281
    1XTA    CO940084  33.122   6.778   5.191
    1XTA    OA640085  33.094   6.648   5.230
    1XTA   HL4240086  33.246   7.018   5.226
    1XTA   HL4340087  33.159   7.056   5.378
    1XTA   HL4440088  33.413   6.864   7.443
    1XTA   HL4540089  33.569   6.874   7.525
    1XTA   CO1040090  33.491   6.933   7.476
    1XTA   CO1140091  33.424   7.032   7.265
    1XTA    OA740092  33.453   6.994   7.559
    1XTA   HL4640093  33.466   7.092   7.149
    1XTA   HL4740094  33.371   7.112   7.314
    1XTA   HL4840095  33.210   6.779   5.125
    1XTA   HL4940096  33.040   6.821   5.133
    1XTA     NT40097  33.588   4.912   4.713
    1XTA    CN140098  33.481   4.897   4.796
    1XTA     C140099  33.484   4.797   4.907
    1XTA     C240100  33.365   4.775   4.976
    1XTA     C340101  33.250   4.855   4.960
    1XTA     C440102  33.259   4.962   4.870
    1XTA     C540103  33.371   4.981   4.781
    1XTA    CN240104  33.603   4.806   4.630
    1XTA     C640105  33.668   4.693   4.666
    1XTA     C740106  33.676   4.583   4.581
    1XTA     C840107  33.613   4.588   4.455
    1XTA     C940108  33.539   4.701   4.421
    1XTA    C1040109  33.538   4.809   4.506
    1XTA    CN340110  33.659   5.024   4.721
    1XTA    C1140111  33.732   5.059   4.837
    1XTA    C1240112  33.820   5.166   4.839
    1XTA    C1340113  33.828   5.248   4.727
    1XTA    C1440114  33.749   5.218   4.618
    1XTA    C1540115  33.672   5.103   4.613
    1XTA     H140116  33.566   4.737   4.935
    1XTA     H240117  33.361   4.698   5.050
    1XTA     H340118  33.173   5.019   4.857
    1XTA     H440119  33.391   5.062   4.712
    1XTA     H540120  33.723   4.690   4.759
    1XTA     H640121  33.736   4.502   4.617
    1XTA     H740122  33.490   4.711   4.320
    1XTA     H840123  33.492   4.908   4.479
    1XTA     H940124  33.726   4.992   4.921
    1XTA    H1040125  33.874   5.187   4.927
    1XTA    H1140126  33.763   5.281   4.523
    1XTA    H1240127  33.629   5.089   4.519
    1XTA    OA140128  33.133   4.838   5.025
    1XTA    CO140129  33.150   4.772   5.154
    1XTA    OA240130  33.614   4.481   4.366
    1XTA    CO240131  33.612   4.355   4.435
    1XTA    CL140132  33.490   4.333   4.514
    1XTA    CL240133  33.492   4.194   4.579
    1XTA    CL340134  33.594   4.156   4.694
    1XTA    CL440135  33.563   4.024   4.766
    1XTA    CO340136  33.656   4.000   4.883
    1XTA    OA340137  33.611   3.893   4.962
    1XTA    CO440138  33.690   3.865   5.072
    1XTA    CT140139  33.653   3.742   5.163
    1XTA    CL540140  33.749   3.755   5.276
    1XTA    CL640141  33.737   3.650   5.386
    1XTA    OA440142  33.912   5.355   4.718
    1XTA    CO540143  34.032   5.356   4.799
    1XTA    CL740144  34.133   5.272   4.739
    1XTA    CL840145  34.160   5.301   4.594
    1XTA    CL940146  34.280   5.217   4.533
    1XTA   CL1040147  34.251   5.070   4.502
    1XTA    CO640148  34.366   5.000   4.441
    1XTA    OA540149  34.385   5.060   4.320
    1XTA    CO740150  34.497   5.032   4.249
    1XTA    CT240151  34.493   5.093   4.105
    1XTA   CL1140152  34.472   5.245   4.099
    1XTA   CL1240153  34.576   5.334   4.169
    1XTA    HL140154  33.051   4.777   5.205
    1XTA    HL240155  33.177   4.669   5.148
    1XTA    HL340156  33.221   4.820   5.221
    1XTA    HL440157  33.629   4.273   4.364
    1XTA    HL540158  33.694   4.340   4.510
    1XTA    HL640159  33.392   4.342   4.459
    1XTA    HL740160  33.479   4.409   4.590
    1XTA    HL840161  33.491   4.114   4.500
    1XTA    HL940162  33.390   4.190   4.621
    1XTA   HL1040163  33.693   4.156   4.645
    1XTA   HL1140164  33.575   4.239   4.766
    1XTA   HL1240165  33.561   3.933   4.698
    1XTA   HL1340166  33.455   4.036   4.783
    1XTA   HL1440167  33.751   3.981   4.835
    1XTA   HL1540168  33.670   4.095   4.930
    1XTA   HL1640169  33.789   3.851   5.041
    1XTA   HL1740170  33.694   3.954   5.132
    1XTA   HL1840171  33.736   3.853   5.320
    1XTA   HL1940172  33.852   3.751   5.246
    1XTA   HL2040173  33.805   3.668   5.469
    1XTA   HL2140174  33.754   3.558   5.340
    1XTA   HL2240175  33.644   3.651   5.443
    1XTA   HL2340176  34.018   5.335   4.905
    1XTA   HL2440177  34.061   5.457   4.799
    1XTA   HL2540178  34.224   5.283   4.794
    1XTA   HL2640179  34.105   5.167   4.751
    1XTA   HL2740180  34.067   5.289   4.539
    1XTA   HL2840181  34.184   5.406   4.597
    1XTA   HL2940182  34.312   5.269   4.443
    1XTA   HL3040183  34.365   5.225   4.599
    1XTA   HL3140184  34.216   5.021   4.591
    1XTA   HL3240185  34.165   5.065   4.436
    1XTA   HL3340186  34.453   4.994   4.501
    1XTA   HL3440187  34.344   4.895   4.424
    1XTA   HL3540188  34.523   4.927   4.249
    1XTA   HL3640189  34.582   5.075   4.297
    1XTA   HL3740190  34.383   5.273   4.153
    1XTA   HL3840191  34.440   5.274   4.001
    1XTA   HL3940192  34.680   5.319   4.129
    1XTA   HL4040193  34.581   5.305   4.268
    1XTA   HL4140194  34.570   5.441   4.160
    1XTA    CO840195  33.676   3.614   5.079
    1XTA    CO940196  33.511   3.750   5.206
    1XTA    OA640197  33.497   3.881   5.264
    1XTA   HL4240198  33.598   3.622   5.005
    1XTA   HL4340199  33.644   3.524   5.136
    1XTA   HL4440200  34.393   5.029   3.917
    1XTA   HL4540201  34.401   4.915   4.036
    1XTA   CO1040202  34.384   5.021   4.024
    1XTA   CO1140203  34.630   5.050   4.041
    1XTA    OA740204  34.623   5.082   3.902
    1XTA   HL4640205  34.726   5.096   4.089
    1XTA   HL4740206  34.641   4.943   4.042
    1XTA   HL4840207  33.487   3.670   5.277
    1XTA   HL4940208  33.442   3.748   5.116
    1XTA     NT40209  33.187   5.320   4.232
    1XTA    CN140210  33.300   5.384   4.210
    1XTA     C140211  33.343   5.483   4.302
    1XTA     C240212  33.467   5.546   4.281
    1XTA     C340213  33.554   5.509   4.177
    1XTA     C440214  33.509   5.407   4.088
    1XTA     C540215  33.378   5.351   4.098
    1XTA    CN240216  33.183   5.188   4.269
    1XTA     C640217  33.168   5.150   4.407
    1XTA     C740218  33.169   5.017   4.451
    1XTA     C840219  33.189   4.912   4.355
    1XTA     C940220  33.211   4.948   4.220
    1XTA    C1040221  33.202   5.085   4.175
    1XTA    CN340222  33.071   5.375   4.190
    1XTA    C1140223  33.050   5.411   4.049
    1XTA    C1240224  32.921   5.443   4.005
    1XTA    C1340225  32.809   5.455   4.094
    1XTA    C1440226  32.837   5.437   4.231
    1XTA    C1540227  32.958   5.389   4.277
    1XTA     H140228  33.278   5.523   4.380
    1XTA     H240229  33.496   5.624   4.352
    1XTA     H340230  33.565   5.366   4.012
    1XTA     H440231  33.354   5.289   4.015
    1XTA     H540232  33.148   5.230   4.470
    1XTA     H640233  33.166   4.989   4.553
    1XTA     H740234  33.243   4.877   4.144
    1XTA     H840235  33.215   5.104   4.069
    1XTA     H940236  33.131   5.401   3.984
    1XTA    H1040237  32.917   5.471   3.901
    1XTA    H1140238  32.761   5.430   4.301
    1XTA    H1240239  32.973   5.363   4.388
    1XTA    OA140240  33.682   5.552   4.170
    1XTA    CO140241  33.771   5.478   4.089
    1XTA    OA240242  33.218   4.784   4.398
    1XTA    CO240243  33.185   4.760   4.537
    1XTA    CL140244  33.214   4.613   4.581
    1XTA    CL240245  33.176   4.592   4.727
    1XTA    CL340246  33.174   4.444   4.759
    1XTA    CL440247  33.049   4.378   4.698
    1XTA    CO340248  33.036   4.230   4.718
    1XTA    OA340249  33.043   4.196   4.856
    1XTA    CO440250  33.007   4.058   4.886
    1XTA    CT140251  33.029   4.030   5.038
    1XTA    CL540252  33.025   3.882   5.067
    1XTA    CL640253  32.920   3.795   4.996
    1XTA    OA440254  32.683   5.462   4.037
    1XTA    CO540255  32.566   5.494   4.115
    1XTA    CL740256  32.453   5.521   4.012
    1XTA    CL840257  32.313   5.566   4.067
    1XTA    CL940258  32.263   5.492   4.193
    1XTA   CL1040259  32.121   5.535   4.234
    1XTA    CO640260  32.074   5.468   4.367
    1XTA    OA540261  32.136   5.536   4.481
    1XTA    CO740262  32.079   5.501   4.606
    1XTA    CT240263  32.188   5.533   4.710
    1XTA   CL1140264  32.307   5.446   4.678
    1XTA   CL1240265  32.412   5.433   4.788
    1XTA    HL140266  33.737   5.493   3.984
    1XTA    HL240267  33.864   5.519   4.116
    1XTA    HL340268  33.772   5.368   4.112
    1XTA    HL440269  33.250   4.822   4.593
    1XTA    HL540270  33.083   4.788   4.553
    1XTA    HL640271  33.326   4.600   4.582
    1XTA    HL740272  33.173   4.545   4.504
    1XTA    HL840273  33.073   4.627   4.725
    1XTA    HL940274  33.236   4.650   4.792
    1XTA   HL1040275  33.257   4.398   4.698
    1XTA   HL1140276  33.180   4.424   4.871
    1XTA   HL1240277  33.048   4.399   4.587
    1XTA   HL1340278  32.966   4.423   4.747
    1XTA   HL1440279  32.940   4.201   4.667
    1XTA   HL1540280  33.115   4.181   4.673
    1XTA   HL1640281  32.902   4.035   4.844
    1XTA   HL1740282  33.061   3.985   4.826
    1XTA   HL1840283  33.013   3.873   5.175
    1XTA   HL1940284  33.126   3.846   5.034
    1XTA   HL2040285  32.944   3.764   4.897
    1XTA   HL2140286  32.818   3.840   5.011
    1XTA   HL2240287  32.912   3.696   5.041
    1XTA   HL2340288  32.580   5.587   4.168
    1XTA   HL2440289  32.544   5.415   4.185
    1XTA   HL2540290  32.500   5.596   3.947
    1XTA   HL2640291  32.442   5.433   3.942
    1XTA   HL2740292  32.320   5.669   4.077
    1XTA   HL2840293  32.248   5.539   3.981
    1XTA   HL2940294  32.277   5.389   4.187
    1XTA   HL3040295  32.338   5.520   4.270
    1XTA   HL3140296  32.114   5.642   4.239
    1XTA   HL3240297  32.047   5.504   4.150
    1XTA   HL3340298  31.961   5.477   4.359
    1XTA   HL3440299  32.097   5.365   4.352
    1XTA   HL3540300  32.037   5.404   4.607
    1XTA   HL3640301  31.994   5.563   4.627
    1XTA   HL3740302  32.348   5.483   4.586
    1XTA   HL3840303  32.279   5.346   4.642
    1XTA   HL3940304  32.501   5.385   4.749
    1XTA   HL4040305  32.376   5.361   4.865
    1XTA   HL4140306  32.433   5.523   4.850
    1XTA    CO840307  32.925   4.105   5.130
    1XTA    CO940308  33.172   4.091   5.080
    1XTA    OA640309  32.919   4.218   5.117
    1XTA   HL4240310  32.946   4.075   5.234
    1XTA   HL4340311  32.827   4.054   5.102
    1XTA   HL4440312  32.048   5.569   4.869
    1XTA   HL4540313  32.214   5.537   4.923
    1XTA   CO1040314  32.138   5.508   4.855
    1XTA   CO1140315  32.232   5.681   4.691
    1XTA    OA740316  32.341   5.709   4.778
    1XTA   HL4640317  32.261   5.703   4.590
    1XTA   HL4740318  32.150   5.750   4.703
    1XTA   HL4840319  33.276   4.084   4.986
    1XTA   HL4940320  33.165   4.200   5.074
    1XTA     NT40321  30.300   5.516  -1.810
    1XTA    CN140322  30.339   5.539  -1.939
    1XTA     C140323  30.270   5.473  -2.040
    1XTA     C240324  30.299   5.503  -2.171
    1XTA     C340325  30.397   5.601  -2.205
    1XTA     C440326  30.475   5.654  -2.100
    1XTA     C540327  30.449   5.624  -1.965
    1XTA    CN240328  30.277   5.611  -1.722
    1XTA     C640329  30.358   5.616  -1.605
    1XTA     C740330  30.331   5.713  -1.508
    1XTA     C840331  30.221   5.801  -1.523
    1XTA     C940332  30.133   5.788  -1.635
    1XTA    C1040333  30.164   5.697  -1.736
    1XTA    CN340334  30.279   5.389  -1.765
    1XTA    C1140335  30.389   5.307  -1.729
    1XTA    C1240336  30.367   5.174  -1.678
    1XTA    C1340337  30.235   5.128  -1.657
    1XTA    C1440338  30.127   5.207  -1.701
    1XTA    C1540339  30.154   5.335  -1.759
    1XTA     H140340  30.188   5.400  -2.016
    1XTA     H240341  30.245   5.450  -2.243
    1XTA     H340342  30.556   5.710  -2.132
    1XTA     H440343  30.503   5.674  -1.887
    1XTA     H540344  30.443   5.559  -1.594
    1XTA     H640345  30.398   5.725  -1.427
    1XTA     H740346  30.040   5.844  -1.636
    1XTA     H840347  30.095   5.693  -1.820
    1XTA     H940348  30.494   5.339  -1.728
    1XTA    H1040349  30.458   5.122  -1.651
    1XTA    H1140350  30.026   5.168  -1.677
    1XTA    H1240351  30.070   5.399  -1.781
    1XTA    OA140352  30.419   5.630  -2.336
    1XTA    CO140353  30.389   5.759  -2.378
    1XTA    OA240354  30.202   5.891  -1.418
    1XTA    CO240355  30.198   6.024  -1.457
    1XTA    CL140356  30.175   6.104  -1.331
    1XTA    CL240357  30.289   6.079  -1.226
    1XTA    CL340358  30.267   6.174  -1.106
    1XTA    CL440359  30.368   6.170  -0.995
    1XTA    CO340360  30.339   6.270  -0.881
    1XTA    OA340361  30.405   6.220  -0.762
    1XTA    CO440362  30.320   6.160  -0.669
    1XTA    CT140363  30.399   6.098  -0.544
    1XTA    CL540364  30.299   6.031  -0.447
    1XTA    CL640365  30.182   6.118  -0.401
    1XTA    OA440366  30.198   5.009  -1.610
    1XTA    CO540367  30.305   4.921  -1.584
    1XTA    CL740368  30.248   4.781  -1.537
    1XTA    CL840369  30.183   4.701  -1.644
    1XTA    CL940370  30.149   4.559  -1.603
    1XTA   CL1040371  30.132   4.467  -1.726
    1XTA    CO640372  30.141   4.318  -1.690
    1XTA    OA540373  30.246   4.297  -1.593
    1XTA    CO740374  30.243   4.159  -1.553
    1XTA    CT240375  30.375   4.122  -1.499
    1XTA   CL1140376  30.370   3.982  -1.426
    1XTA   CL1240377  30.281   3.973  -1.301
    1XTA    HL140378  30.426   5.775  -2.477
    1XTA    HL240379  30.281   5.774  -2.383
    1XTA    HL340380  30.431   5.837  -2.318
    1XTA    HL440381  30.291   6.062  -1.509
    1XTA    HL540382  30.117   6.046  -1.531
    1XTA    HL640383  30.087   6.073  -1.270
    1XTA    HL740384  30.154   6.208  -1.355
    1XTA    HL840385  30.382   6.091  -1.277
    1XTA    HL940386  30.291   5.976  -1.189
    1XTA   HL1040387  30.247   6.280  -1.136
    1XTA   HL1140388  30.166   6.150  -1.069
    1XTA   HL1240389  30.474   6.175  -1.035
    1XTA   HL1340390  30.369   6.069  -0.951
    1XTA   HL1440391  30.380   6.360  -0.917
    1XTA   HL1540392  30.231   6.272  -0.883
    1XTA   HL1640393  30.256   6.239  -0.631
    1XTA   HL1740394  30.257   6.087  -0.721
    1XTA   HL1840395  30.357   5.989  -0.363
    1XTA   HL1940396  30.271   5.952  -0.515
    1XTA   HL2040397  30.110   6.045  -0.351
    1XTA   HL2140398  30.126   6.155  -0.492
    1XTA   HL2240399  30.216   6.202  -0.335
    1XTA   HL2340400  30.388   4.962  -1.523
    1XTA   HL2440401  30.345   4.902  -1.684
    1XTA   HL2540402  30.333   4.726  -1.499
    1XTA   HL2640403  30.181   4.785  -1.450
    1XTA   HL2740404  30.087   4.748  -1.679
    1XTA   HL2840405  30.242   4.692  -1.737
    1XTA   HL2940406  30.235   4.521  -1.544
    1XTA   HL3040407  30.057   4.550  -1.542
    1XTA   HL3140408  30.041   4.492  -1.770
    1XTA   HL3240409  30.208   4.487  -1.797
    1XTA   HL3340410  30.044   4.283  -1.651
    1XTA   HL3440411  30.150   4.265  -1.784
    1XTA   HL3540412  30.215   4.096  -1.635
    1XTA   HL3640413  30.164   4.154  -1.481
    1XTA   HL3740414  30.473   3.954  -1.417
    1XTA   HL3840415  30.345   3.901  -1.497
    1XTA   HL3940416  30.176   3.979  -1.341
    1XTA   HL4040417  30.288   4.056  -1.227
    1XTA   HL4140418  30.289   3.881  -1.241
    1XTA    CO840419  30.486   6.206  -0.469
    1XTA    CO940420  30.489   5.986  -0.604
    1XTA    OA640421  30.537   6.264  -0.540
    1XTA   HL4240422  30.558   6.156  -0.407
    1XTA   HL4340423  30.425   6.272  -0.407
    1XTA   HL4440424  30.435   4.319  -1.447
    1XTA   HL4540425  30.345   4.250  -1.328
    1XTA   CO1040426  30.423   4.226  -1.397
    1XTA   CO1140427  30.488   4.122  -1.605
    1XTA    OA740428  30.540   4.189  -1.326
    1XTA   HL4640429  30.502   4.216  -1.661
    1XTA   HL4740430  30.581   4.099  -1.554
    1XTA   HL4840431  30.416   5.903  -0.691
    1XTA   HL4940432  30.550   6.047  -0.674
    1XTA     NT40433  29.910   4.366   1.096
    1XTA    CN140434  29.826   4.358   1.196
    1XTA     C140435  29.782   4.472   1.270
    1XTA     C240436  29.687   4.449   1.371
    1XTA     C340437  29.627   4.319   1.396
    1XTA     C440438  29.664   4.211   1.315
    1XTA     C540439  29.766   4.232   1.221
    1XTA    CN240440  29.875   4.366   0.965
    1XTA     C640441  29.848   4.242   0.902
    1XTA     C740442  29.815   4.239   0.770
    1XTA     C840443  29.795   4.356   0.694
    1XTA     C940444  29.810   4.477   0.754
    1XTA    C1040445  29.852   4.484   0.887
    1XTA    CN340446  30.041   4.369   1.131
    1XTA    C1140447  30.094   4.483   1.196
    1XTA    C1240448  30.222   4.479   1.256
    1XTA    C1340449  30.301   4.362   1.259
    1XTA    C1440450  30.252   4.254   1.189
    1XTA    C1540451  30.126   4.258   1.129
    1XTA     H140452  29.836   4.567   1.266
    1XTA     H240453  29.656   4.531   1.432
    1XTA     H340454  29.635   4.107   1.328
    1XTA     H440455  29.805   4.147   1.175
    1XTA     H540456  29.863   4.149   0.960
    1XTA     H640457  29.799   4.145   0.719
    1XTA     H740458  29.791   4.561   0.697
    1XTA     H840459  29.870   4.579   0.927
    1XTA     H940460  30.046   4.576   1.183
    1XTA    H1040461  30.263   4.568   1.293
    1XTA    H1140462  30.305   4.160   1.179
    1XTA    H1240463  30.089   4.167   1.088
    1XTA    OA140464  29.546   4.303   1.505
    1XTA    CO140465  29.554   4.177   1.566
    1XTA    OA240466  29.764   4.345   0.561
    1XTA    CO240467  29.825   4.239   0.486
    1XTA    CL140468  29.862   4.257   0.342
    1XTA    CL240469  29.932   4.139   0.284
    1XTA    CL340470  29.954   4.141   0.126
    1XTA    CL440471  30.065   4.229   0.065
    1XTA    CO340472  30.071   4.376   0.116
    1XTA    OA340473  29.947   4.444   0.081
    1XTA    CO440474  29.946   4.578   0.094
    1XTA    CT140475  29.805   4.636   0.114
    1XTA    CL540476  29.711   4.574   0.006
    1XTA    CL640477  29.742   4.615  -0.141
    1XTA    OA440478  30.435   4.362   1.313
    1XTA    CO540479  30.456   4.423   1.439
    1XTA    CL740480  30.589   4.493   1.457
    1XTA    CL840481  30.635   4.581   1.335
    1XTA    CL940482  30.792   4.596   1.318
    1XTA   CL1040483  30.831   4.670   1.189
    1XTA    CO640484  30.962   4.746   1.191
    1XTA    OA540485  30.999   4.812   1.068
    1XTA    CO740486  30.908   4.919   1.035
    1XTA    CT240487  30.983   5.032   0.951
    1XTA   CL1140488  31.042   4.977   0.819
    1XTA   CL1240489  31.044   5.077   0.695
    1XTA    HL140490  29.517   4.191   1.669
    1XTA    HL240491  29.505   4.094   1.514
    1XTA    HL340492  29.651   4.130   1.583
    1XTA    HL440493  29.920   4.219   0.534
    1XTA    HL540494  29.769   4.150   0.495
    1XTA    HL640495  29.921   4.350   0.330
    1XTA    HL740496  29.766   4.264   0.294
    1XTA    HL840497  29.866   4.049   0.298
    1XTA    HL940498  30.028   4.121   0.335
    1XTA   HL1040499  29.984   4.039   0.090
    1XTA   HL1140500  29.866   4.163   0.071
    1XTA   HL1240501  30.056   4.228  -0.041
    1XTA   HL1340502  30.167   4.194   0.080
    1XTA   HL1440503  30.091   4.383   0.226
    1XTA   HL1540504  30.144   4.431   0.065
    1XTA   HL1640505  30.008   4.603   0.176
    1XTA   HL1740506  29.997   4.628   0.008
    1XTA   HL1840507  29.607   4.602   0.032
    1XTA   HL1940508  29.717   4.465   0.011
    1XTA   HL2040509  29.838   4.577  -0.167
    1XTA   HL2140510  29.745   4.722  -0.149
    1XTA   HL2240511  29.664   4.583  -0.203
    1XTA   HL2340512  30.454   4.347   1.516
    1XTA   HL2440513  30.369   4.488   1.470
    1XTA   HL2540514  30.583   4.557   1.549
    1XTA   HL2640515  30.671   4.429   1.470
    1XTA   HL2740516  30.602   4.544   1.235
    1XTA   HL2840517  30.581   4.676   1.346
    1XTA   HL2940518  30.825   4.643   1.401
    1XTA   HL3040519  30.833   4.502   1.301
    1XTA   HL3140520  30.832   4.589   1.113
    1XTA   HL3240521  30.744   4.740   1.162
    1XTA   HL3340522  30.962   4.815   1.270
    1XTA   HL3440523  31.045   4.679   1.199
    1XTA   HL3540524  30.862   4.974   1.125
    1XTA   HL3640525  30.830   4.885   0.971
    1XTA   HL3740526  30.978   4.896   0.785
    1XTA   HL3840527  31.140   4.928   0.835
    1XTA   HL3940528  31.108   5.033   0.630
    1XTA   HL4040529  31.106   5.159   0.735
    1XTA   HL4140530  30.943   5.112   0.668
    1XTA    CO840531  29.819   4.787   0.117
    1XTA    CO940532  29.759   4.588   0.252
    1XTA    OA640533  29.615   4.620   0.268
    1XTA   HL4240534  29.724   4.829   0.080
    1XTA   HL4340535  29.890   4.821   0.039
    1XTA   HL4440536  31.142   5.215   0.981
    1XTA   HL4540537  31.179   5.032   1.024
    1XTA   CO1040538  31.094   5.093   1.036
    1XTA   CO1140539  30.873   5.143   0.923
    1XTA    OA740540  30.789   5.100   0.861
    1XTA   HL4640541  30.835   5.173   1.021
    1XTA   HL4740542  30.926   5.229   0.873
    1XTA   HL4840543  29.818   4.635   0.333
    1XTA   HL4940544  29.772   4.481   0.260
    1XTA     NT40545  27.345   4.358   3.700
    1XTA    CN140546  27.459   4.420   3.741
    1XTA     C140547  27.449   4.541   3.803
    1XTA     C240548  27.561   4.597   3.872
    1XTA     C340549  27.680   4.526   3.875
    1XTA     C440550  27.688   4.401   3.806
    1XTA     C540551  27.578   4.345   3.737
    1XTA    CN240552  27.259   4.419   3.612
    1XTA     C640553  27.158   4.501   3.661
    1XTA     C740554  27.072   4.572   3.577
    1XTA     C840555  27.086   4.560   3.435
    1XTA     C940556  27.181   4.474   3.386
    1XTA    C1040557  27.276   4.405   3.468
    1XTA    CN340558  27.314   4.230   3.731
    1XTA    C1140559  27.314   4.132   3.634
    1XTA    C1240560  27.280   3.996   3.663
    1XTA    C1340561  27.244   3.967   3.800
    1XTA    C1440562  27.235   4.073   3.903
    1XTA    C1540563  27.276   4.201   3.864
    1XTA     H140564  27.357   4.597   3.809
    1XTA     H240565  27.543   4.691   3.928
    1XTA     H340566  27.789   4.376   3.795
    1XTA     H440567  27.574   4.250   3.683
    1XTA     H540568  27.147   4.502   3.771
    1XTA     H640569  26.989   4.637   3.617
    1XTA     H740570  27.196   4.455   3.276
    1XTA     H840571  27.343   4.333   3.435
    1XTA     H940572  27.337   4.164   3.532
    1XTA    H1040573  27.290   3.918   3.584
    1XTA    H1140574  27.213   4.056   4.004
    1XTA    H1240575  27.276   4.278   3.944
    1XTA    OA140576  27.789   4.567   3.938
    1XTA    CO140577  27.780   4.675   4.025
    1XTA    OA240578  27.000   4.619   3.346
    1XTA    CO240579  26.857   4.608   3.377
    1XTA    CL140580  26.777   4.628   3.249
    1XTA    CL240581  26.627   4.599   3.258
    1XTA    CL340582  26.558   4.612   3.123
    1XTA    CL440583  26.496   4.744   3.071
    1XTA    CO340584  26.530   4.761   2.921
    1XTA    OA340585  26.669   4.783   2.911
    1XTA    CO440586  26.715   4.824   2.780
    1XTA    CT140587  26.866   4.832   2.773
    1XTA    CL540588  26.927   4.686   2.778
    1XTA    CL640589  26.884   4.598   2.902
    1XTA    OA440590  27.211   3.833   3.816
    1XTA    CO540591  27.168   3.783   3.941
    1XTA    CL740592  27.088   3.653   3.927
    1XTA    CL840593  27.014   3.592   4.056
    1XTA    CL940594  26.937   3.691   4.144
    1XTA   CL1040595  26.818   3.752   4.067
    1XTA    CO640596  26.837   3.900   4.078
    1XTA    OA540597  26.866   3.952   4.205
    1XTA    CO740598  26.949   4.073   4.194
    1XTA    CT240599  26.941   4.147   4.331
    1XTA   CL1140600  26.799   4.210   4.330
    1XTA   CL1240601  26.761   4.305   4.435
    1XTA    HL140602  27.705   4.652   4.100
    1XTA    HL240603  27.875   4.698   4.080
    1XTA    HL340604  27.765   4.773   3.974
    1XTA    HL440605  26.839   4.504   3.412
    1XTA    HL540606  26.812   4.671   3.450
    1XTA    HL640607  26.808   4.564   3.166
    1XTA    HL740608  26.795   4.730   3.212
    1XTA    HL840609  26.576   4.652   3.333
    1XTA    HL940610  26.608   4.491   3.280
    1XTA   HL1040611  26.622   4.571   3.043
    1XTA   HL1140612  26.488   4.539   3.116
    1XTA   HL1240613  26.548   4.826   3.130
    1XTA   HL1340614  26.391   4.751   3.081
    1XTA   HL1440615  26.522   4.661   2.861
    1XTA   HL1540616  26.477   4.839   2.870
    1XTA   HL1640617  26.667   4.763   2.702
    1XTA   HL1740618  26.677   4.925   2.760
    1XTA   HL1840619  27.031   4.698   2.766
    1XTA   HL1940620  26.900   4.625   2.690
    1XTA   HL2040621  26.936   4.505   2.887
    1XTA   HL2140622  26.782   4.582   2.910
    1XTA   HL2240623  26.916   4.633   2.999
    1XTA   HL2340624  27.099   3.848   3.986
    1XTA   HL2440625  27.252   3.769   4.003
    1XTA   HL2540626  27.021   3.663   3.841
    1XTA   HL2640627  27.167   3.575   3.902
    1XTA   HL2740628  26.947   3.508   4.035
    1XTA   HL2840629  27.089   3.544   4.115
    1XTA   HL2940630  26.886   3.630   4.216
    1XTA   HL3040631  26.991   3.768   4.198
    1XTA   HL3140632  26.800   3.710   3.968
    1XTA   HL3240633  26.734   3.735   4.125
    1XTA   HL3340634  26.904   3.932   4.002
    1XTA   HL3440635  26.743   3.938   4.046
    1XTA   HL3540636  26.929   4.141   4.115
    1XTA   HL3640637  27.047   4.032   4.176
    1XTA   HL3740638  26.730   4.133   4.329
    1XTA   HL3840639  26.773   4.266   4.235
    1XTA   HL3940640  26.761   4.255   4.538
    1XTA   HL4040641  26.664   4.348   4.414
    1XTA   HL4140642  26.821   4.400   4.440
    1XTA    CO840643  26.928   4.908   2.892
    1XTA    CO940644  26.909   4.913   2.645
    1XTA    OA640645  27.066   4.917   2.888
    1XTA   HL4240646  26.886   4.853   2.970
    1XTA   HL4340647  26.880   5.005   2.900
    1XTA   HL4440648  27.056   4.303   4.249
    1XTA   HL4540649  27.028   4.329   4.449
    1XTA   CO1040650  27.057   4.246   4.339
    1XTA   CO1140651  26.955   4.044   4.455
    1XTA    OA740652  26.945   4.099   4.551
    1XTA   HL4640653  26.887   3.967   4.437
    1XTA   HL4740654  27.054   3.990   4.441
    1XTA   HL4840655  26.871   5.011   2.651
    1XTA   HL4940656  27.017   4.920   2.638
    1XTA     NT40657  32.402   2.085   4.655
    1XTA    CN140658  32.473   2.102   4.544
    1XTA     C140659  32.579   2.194   4.533
    1XTA     C240660  32.639   2.219   4.407
    1XTA     C340661  32.592   2.148   4.289
    1XTA     C440662  32.494   2.050   4.303
    1XTA     C540663  32.444   2.023   4.429
    1XTA    CN240664  32.300   2.171   4.692
    1XTA     C640665  32.204   2.119   4.784
    1XTA     C740666  32.090   2.197   4.819
    1XTA     C840667  32.085   2.332   4.781
    1XTA     C940668  32.182   2.385   4.696
    1XTA    C1040669  32.281   2.305   4.643
    1XTA    CN340670  32.476   2.021   4.748
    1XTA    C1140671  32.499   1.890   4.730
    1XTA    C1240672  32.565   1.817   4.828
    1XTA    C1340673  32.616   1.875   4.942
    1XTA    C1440674  32.590   2.015   4.959
    1XTA    C1540675  32.526   2.091   4.857
    1XTA     H140676  32.611   2.264   4.610
    1XTA     H240677  32.711   2.297   4.387
    1XTA     H340678  32.468   2.005   4.208
    1XTA     H440679  32.380   1.943   4.438
    1XTA     H540680  32.220   2.013   4.805
    1XTA     H640681  32.016   2.154   4.883
    1XTA     H740682  32.176   2.488   4.661
    1XTA     H840683  32.348   2.355   4.571
    1XTA     H940684  32.453   1.839   4.645
    1XTA    H1040685  32.579   1.712   4.825
    1XTA    H1140686  32.620   2.065   5.050
    1XTA    H1240687  32.491   2.196   4.867
    1XTA    OA140688  32.636   2.165   4.162
    1XTA    CO140689  32.731   2.272   4.157
    1XTA    OA240690  31.977   2.406   4.823
    1XTA    CO240691  31.941   2.526   4.771
    1XTA    CL140692  31.858   2.595   4.874
    1XTA    CL240693  31.864   2.746   4.859
    1XTA    CL340694  31.791   2.823   4.979
    1XTA    CL440695  31.876   2.822   5.112
    1XTA    CO340696  32.029   2.852   5.100
    1XTA    OA340697  32.064   2.987   5.094
    1XTA    CO440698  32.077   3.037   4.959
    1XTA    CT140699  32.108   3.190   4.956
    1XTA    CL540700  32.146   3.234   4.811
    1XTA    CL640701  32.262   3.163   4.747
    1XTA    OA440702  32.702   1.812   5.024
    1XTA    CO540703  32.649   1.721   5.121
    1XTA    CL740704  32.762   1.621   5.149
    1XTA    CL840705  32.819   1.556   5.019
    1XTA    CL940706  32.721   1.465   4.939
    1XTA   CL1040707  32.782   1.406   4.820
    1XTA    CO640708  32.860   1.276   4.839
    1XTA    OA540709  32.977   1.286   4.919
    1XTA    CO740710  33.086   1.353   4.851
    1XTA    CT240711  33.229   1.303   4.883
    1XTA   CL1140712  33.343   1.380   4.822
    1XTA   CL1240713  33.301   1.463   4.700
    1XTA    HL140714  32.817   2.256   4.221
    1XTA    HL240715  32.770   2.268   4.055
    1XTA    HL340716  32.682   2.366   4.165
    1XTA    HL440717  32.023   2.586   4.741
    1XTA    HL540718  31.879   2.503   4.681
    1XTA    HL640719  31.896   2.566   4.970
    1XTA    HL740720  31.758   2.562   4.858
    1XTA    HL840721  31.820   2.758   4.758
    1XTA    HL940722  31.964   2.780   4.838
    1XTA   HL1040723  31.752   2.917   4.951
    1XTA   HL1140724  31.705   2.760   5.018
    1XTA   HL1240725  31.865   2.718   5.142
    1XTA   HL1340726  31.831   2.881   5.192
    1XTA   HL1440727  32.067   2.826   5.196
    1XTA   HL1540728  32.081   2.796   5.022
    1XTA   HL1640729  32.161   2.981   4.911
    1XTA   HL1740730  31.991   3.019   4.890
    1XTA   HL1840731  32.157   3.346   4.817
    1XTA   HL1940732  32.053   3.221   4.754
    1XTA   HL2040733  32.286   3.220   4.654
    1XTA   HL2140734  32.233   3.068   4.718
    1XTA   HL2240735  32.352   3.158   4.807
    1XTA   HL2340736  32.566   1.662   5.081
    1XTA   HL2440737  32.602   1.769   5.206
    1XTA   HL2540738  32.841   1.672   5.201
    1XTA   HL2640739  32.732   1.535   5.216
    1XTA   HL2740740  32.839   1.647   4.956
    1XTA   HL2840741  32.910   1.512   5.040
    1XTA   HL2940742  32.694   1.393   5.016
    1XTA   HL3040743  32.629   1.521   4.908
    1XTA   HL3140744  32.706   1.391   4.741
    1XTA   HL3240745  32.841   1.489   4.779
    1XTA   HL3340746  32.800   1.202   4.889
    1XTA   HL3440747  32.881   1.238   4.738
    1XTA   HL3540748  33.086   1.461   4.848
    1XTA   HL3640749  33.065   1.324   4.738
    1XTA   HL3740750  33.420   1.310   4.793
    1XTA   HL3840751  33.391   1.445   4.890
    1XTA   HL3940752  33.228   1.535   4.730
    1XTA   HL4040753  33.271   1.407   4.611
    1XTA   HL4140754  33.392   1.524   4.673
    1XTA    CO840755  32.240   3.211   5.050
    1XTA    CO940756  31.993   3.279   5.013
    1XTA    OA640757  31.892   3.299   4.921
    1XTA   HL4240758  32.291   3.311   5.048
    1XTA   HL4340759  32.317   3.156   4.999
    1XTA   HL4440760  33.313   1.103   4.897
    1XTA   HL4540761  33.148   1.104   4.854
    1XTA   CO1040762  33.236   1.156   4.843
    1XTA   CO1140763  33.242   1.309   5.040
    1XTA    OA740764  33.261   1.152   4.702
    1XTA   HL4640765  33.165   1.250   5.086
    1XTA   HL4740766  33.236   1.409   5.079
    1XTA   HL4840767  32.019   3.384   5.041
    1XTA   HL4940768  31.957   3.231   5.107
    1XTA     NT40769  31.494   5.604   4.633
    1XTA    CN140770  31.513   5.532   4.522
    1XTA     C140771  31.573   5.593   4.414
    1XTA     C240772  31.592   5.520   4.298
    1XTA     C340773  31.552   5.382   4.282
    1XTA     C440774  31.490   5.319   4.393
    1XTA     C540775  31.485   5.390   4.518
    1XTA    CN240776  31.582   5.594   4.738
    1XTA     C640777  31.545   5.520   4.855
    1XTA     C740778  31.629   5.522   4.971
    1XTA     C840779  31.744   5.600   4.976
    1XTA     C940780  31.777   5.670   4.857
    1XTA    C1040781  31.705   5.668   4.740
    1XTA    CN340782  31.381   5.676   4.646
    1XTA    C1140783  31.377   5.811   4.618
    1XTA    C1240784  31.253   5.882   4.621
    1XTA    C1340785  31.136   5.823   4.666
    1XTA    C1440786  31.144   5.685   4.699
    1XTA    C1540787  31.263   5.613   4.685
    1XTA     H140788  31.611   5.695   4.425
    1XTA     H240789  31.638   5.572   4.219
    1XTA     H340790  31.456   5.220   4.393
    1XTA     H440791  31.442   5.347   4.601
    1XTA     H540792  31.449   5.465   4.848
    1XTA     H640793  31.605   5.463   5.061
    1XTA     H740794  31.859   5.745   4.859
    1XTA     H840795  31.733   5.734   4.657
    1XTA     H940796  31.468   5.856   4.578
    1XTA    H1040797  31.255   5.990   4.589
    1XTA    H1140798  31.055   5.646   4.735
    1XTA    H1240799  31.261   5.515   4.713
    1XTA    OA140800  31.568   5.309   4.166
    1XTA    CO140801  31.571   5.382   4.050
    1XTA    OA240802  31.821   5.617   5.088
    1XTA    CO240803  31.757   5.632   5.210
    1XTA    CL140804  31.858   5.662   5.321
    1XTA    CL240805  31.799   5.706   5.455
    1XTA    CL340806  31.719   5.848   5.450
    1XTA    CL440807  31.805   5.970   5.420
    1XTA    CO340808  31.730   6.104   5.425
    1XTA    OA340809  31.711   6.154   5.554
    1XTA    CO440810  31.601   6.241   5.575
    1XTA    CT140811  31.614   6.323   5.702
    1XTA    CL540812  31.702   6.449   5.691
    1XTA    CL640813  31.667   6.544   5.581
    1XTA    OA440814  31.019   5.892   4.678
    1XTA    CO540815  31.032   5.982   4.786
    1XTA    CL740816  30.921   6.084   4.784
    1XTA    CL840817  30.797   6.038   4.862
    1XTA    CL940818  30.704   6.162   4.868
    1XTA   CL1040819  30.638   6.215   4.737
    1XTA    CO640820  30.507   6.292   4.750
    1XTA    OA540821  30.419   6.222   4.840
    1XTA    CO740822  30.292   6.283   4.862
    1XTA    CT240823  30.237   6.213   4.990
    1XTA   CL1140824  30.214   6.064   4.976
    1XTA   CL1240825  30.335   5.971   4.944
    1XTA    HL140826  31.663   5.438   4.050
    1XTA    HL240827  31.542   5.338   3.954
    1XTA    HL340828  31.494   5.455   4.052
    1XTA    HL440829  31.694   5.721   5.206
    1XTA    HL540830  31.697   5.541   5.228
    1XTA    HL640831  31.922   5.740   5.296
    1XTA    HL740832  31.904   5.560   5.328
    1XTA    HL840833  31.869   5.713   5.537
    1XTA    HL940834  31.720   5.632   5.480
    1XTA   HL1040835  31.640   5.831   5.378
    1XTA   HL1140836  31.664   5.863   5.548
    1XTA   HL1240837  31.834   5.959   5.320
    1XTA   HL1340838  31.899   5.967   5.474
    1XTA   HL1440839  31.783   6.177   5.375
    1XTA   HL1540840  31.637   6.092   5.379
    1XTA   HL1640841  31.588   6.301   5.482
    1XTA   HL1740842  31.516   6.177   5.576
    1XTA   HL1840843  31.795   6.402   5.661
    1XTA   HL1940844  31.717   6.494   5.790
    1XTA   HL2040845  31.735   6.627   5.591
    1XTA   HL2140846  31.562   6.578   5.590
    1XTA   HL2240847  31.689   6.521   5.476
    1XTA   HL2340848  31.126   6.037   4.789
    1XTA   HL2440849  31.020   5.927   4.881
    1XTA   HL2540850  30.953   6.162   4.843
    1XTA   HL2640851  30.884   6.124   4.689
    1XTA   HL2740852  30.738   5.963   4.810
    1XTA   HL2840853  30.818   6.006   4.965
    1XTA   HL2940854  30.612   6.116   4.913
    1XTA   HL3040855  30.739   6.238   4.940
    1XTA   HL3140856  30.705   6.274   4.679
    1XTA   HL3240857  30.601   6.128   4.678
    1XTA   HL3340858  30.521   6.400   4.767
    1XTA   HL3440859  30.464   6.284   4.649
    1XTA   HL3540860  30.228   6.257   4.776
    1XTA   HL3640861  30.302   6.393   4.865
    1XTA   HL3740862  30.157   6.046   4.884
    1XTA   HL3840863  30.161   6.012   5.059
    1XTA   HL3940864  30.413   6.001   4.873
    1XTA   HL4040865  30.298   5.880   4.901
    1XTA   HL4140866  30.385   5.950   5.038
    1XTA    CO840867  31.658   6.237   5.826
    1XTA    CO940868  31.471   6.375   5.731
    1XTA    OA640869  31.601   6.155   5.863
    1XTA   HL4240870  31.660   6.308   5.903
    1XTA   HL4340871  31.761   6.207   5.801
    1XTA   HL4440872  30.051   6.244   5.116
    1XTA   HL4540873  30.103   6.380   5.059
    1XTA   CO1040874  30.099   6.275   5.028
    1XTA   CO1140875  30.333   6.235   5.112
    1XTA    OA740876  30.012   6.263   4.919
    1XTA   HL4640877  30.358   6.337   5.139
    1XTA   HL4740878  30.433   6.192   5.085
    1XTA   HL4840879  31.481   6.486   5.808
    1XTA   HL4940880  31.424   6.301   5.794
    1XTA     NT40881  32.293   4.519   5.271
    1XTA    CN140882  32.293   4.653   5.300
    1XTA     C140883  32.227   4.713   5.410
    1XTA     C240884  32.222   4.855   5.426
    1XTA     C340885  32.283   4.940   5.331
    1XTA     C440886  32.348   4.878   5.225
    1XTA     C540887  32.358   4.741   5.212
    1XTA    CN240888  32.315   4.419   5.360
    1XTA     C640889  32.219   4.347   5.423
    1XTA     C740890  32.253   4.246   5.520
    1XTA     C840891  32.387   4.211   5.538
    1XTA     C940892  32.486   4.284   5.472
    1XTA    C1040893  32.453   4.379   5.384
    1XTA    CN340894  32.224   4.487   5.163
    1XTA    C1140895  32.083   4.503   5.149
    1XTA    C1240896  32.016   4.462   5.036
    1XTA    C1340897  32.090   4.398   4.928
    1XTA    C1440898  32.228   4.382   4.936
    1XTA    C1540899  32.289   4.417   5.059
    1XTA     H140900  32.186   4.655   5.487
    1XTA     H240901  32.179   4.912   5.513
    1XTA     H340902  32.408   4.937   5.159
    1XTA     H440903  32.401   4.710   5.118
    1XTA     H540904  32.120   4.385   5.404
    1XTA     H640905  32.179   4.201   5.581
    1XTA     H740906  32.590   4.265   5.476
    1XTA     H840907  32.527   4.447   5.343
    1XTA     H940908  32.030   4.542   5.230
    1XTA    H1040909  31.910   4.486   5.024
    1XTA    H1140910  32.296   4.345   4.862
    1XTA    H1240911  32.393   4.395   5.082
    1XTA    OA140912  32.286   5.076   5.360
    1XTA    CO140913  32.315   5.164   5.253
    1XTA    OA240914  32.420   4.100   5.610
    1XTA    CO240915  32.548   4.085   5.659
    1XTA    CL140916  32.563   3.937   5.718
    1XTA    CL240917  32.522   3.833   5.616
    1XTA    CL340918  32.552   3.689   5.662
    1XTA    CL440919  32.466   3.600   5.579
    1XTA    CO340920  32.518   3.456   5.589
    1XTA    OA340921  32.427   3.383   5.512
    1XTA    CO440922  32.478   3.260   5.472
    1XTA    CT140923  32.376   3.171   5.397
    1XTA    CL540924  32.435   3.032   5.397
    1XTA    CL640925  32.377   2.915   5.313
    1XTA    OA440926  32.036   4.372   4.804
    1XTA    CO540927  31.900   4.354   4.794
    1XTA    CL740928  31.867   4.361   4.649
    1XTA    CL840929  31.757   4.265   4.610
    1XTA    CL940930  31.608   4.319   4.584
    1XTA   CL1040931  31.557   4.416   4.690
    1XTA    CO640932  31.419   4.464   4.663
    1XTA    OA540933  31.389   4.561   4.756
    1XTA    CO740934  31.266   4.623   4.726
    1XTA    CT240935  31.220   4.696   4.851
    1XTA   CL1140936  31.184   4.587   4.961
    1XTA   CL1240937  31.152   4.626   5.101
    1XTA    HL140938  32.233   5.166   5.179
    1XTA    HL240939  32.322   5.268   5.282
    1XTA    HL340940  32.408   5.136   5.195
    1XTA    HL440941  32.617   4.099   5.578
    1XTA    HL540942  32.584   4.153   5.735
    1XTA    HL640943  32.503   3.942   5.804
    1XTA    HL740944  32.669   3.922   5.739
    1XTA    HL840945  32.563   3.845   5.511
    1XTA    HL940946  32.412   3.857   5.611
    1XTA   HL1040947  32.660   3.672   5.645
    1XTA   HL1140948  32.529   3.673   5.765
    1XTA   HL1240949  32.464   3.628   5.476
    1XTA   HL1340950  32.358   3.610   5.604
    1XTA   HL1440951  32.609   3.444   5.529
    1XTA   HL1540952  32.523   3.413   5.693
    1XTA   HL1640953  32.574   3.267   5.408
    1XTA   HL1740954  32.507   3.206   5.558
    1XTA   HL1840955  32.459   3.007   5.504
    1XTA   HL1940956  32.540   3.040   5.372
    1XTA   HL2040957  32.339   2.941   5.216
    1XTA   HL2140958  32.288   2.868   5.368
    1XTA   HL2240959  32.445   2.829   5.297
    1XTA   HL2340960  31.858   4.441   4.845
    1XTA   HL2440961  31.892   4.263   4.853
    1XTA   HL2540962  31.833   4.466   4.619
    1XTA   HL2640963  31.960   4.332   4.598
    1XTA   HL2740964  31.796   4.221   4.523
    1XTA   HL2840965  31.754   4.178   4.677
    1XTA   HL2940966  31.602   4.377   4.492
    1XTA   HL3040967  31.546   4.226   4.550
    1XTA   HL3140968  31.539   4.382   4.790
    1XTA   HL3240969  31.630   4.498   4.706
    1XTA   HL3340970  31.406   4.507   4.560
    1XTA   HL3440971  31.348   4.384   4.659
    1XTA   HL3540972  31.204   4.538   4.715
    1XTA   HL3640973  31.266   4.681   4.636
    1XTA   HL3740974  31.266   4.510   4.953
    1XTA   HL3840975  31.099   4.534   4.925
    1XTA   HL3940976  31.239   4.644   5.166
    1XTA   HL4040977  31.106   4.531   5.142
    1XTA   HL4140978  31.089   4.705   5.117
    1XTA    CO840979  32.354   3.231   5.255
    1XTA    CO940980  32.237   3.179   5.468
    1XTA    OA640981  32.239   3.176   5.185
    1XTA   HL4240982  32.438   3.206   5.194
    1XTA   HL4340983  32.334   3.337   5.262
    1XTA   HL4440984  31.133   4.866   4.750
    1XTA   HL4540985  31.050   4.854   4.919
    1XTA   CO1040986  31.100   4.781   4.810
    1XTA   CO1140987  31.329   4.784   4.907
    1XTA    OA740988  31.364   4.858   4.833
    1XTA   HL4640989  31.299   4.836   4.996
    1XTA   HL4740990  31.411   4.724   4.946
    1XTA   HL4840991  32.196   3.279   5.435
    1XTA   HL4940992  32.180   3.094   5.434
    1XTA     NT40993  30.013   3.772   7.684
    1XTA    CN140994  29.896   3.707   7.714
    1XTA     C140995  29.897   3.567   7.716
    1XTA     C240996  29.790   3.491   7.756
    1XTA     C340997  29.673   3.553   7.807
    1XTA     C440998  29.669   3.696   7.809
    1XTA     C540999  29.784   3.772   7.765
    1XTA    CN241000  30.086   3.838   7.778
    1XTA     C641001  30.180   3.936   7.741
    1XTA     C741002  30.258   3.993   7.842
    1XTA     C841003  30.243   3.962   7.977
    1XTA     C941004  30.136   3.875   8.014
    1XTA    C1041005  30.064   3.812   7.915
    1XTA    CN341006  30.074   3.741   7.563
    1XTA    C1141007  30.168   3.635   7.557
    1XTA    C1241008  30.233   3.608   7.432
    1XTA    C1341009  30.203   3.680   7.321
    1XTA    C1441010  30.110   3.787   7.325
    1XTA    C1541011  30.044   3.820   7.449
    1XTA     H141012  29.984   3.522   7.682
    1XTA     H241013  29.800   3.378   7.756
    1XTA     H341014  29.578   3.747   7.857
    1XTA     H441015  29.778   3.881   7.786
    1XTA     H541016  30.205   3.964   7.639
    1XTA     H641017  30.342   4.049   7.813
    1XTA     H741018  30.132   3.847   8.123
    1XTA     H841019  29.988   3.739   7.935
    1XTA     H941020  30.183   3.577   7.648
    1XTA    H1041021  30.294   3.521   7.436
    1XTA    H1141022  30.092   3.849   7.236
    1XTA    H1241023  29.983   3.909   7.463
    1XTA    OA141024  29.581   3.478   7.879
    1XTA    CO141025  29.592   3.333   7.864
    1XTA    OA241026  30.332   4.017   8.069
    1XTA    CO241027  30.292   4.036   8.202
    1XTA    CL141028  30.407   4.108   8.262
    1XTA    CL241029  30.454   4.232   8.188
    1XTA    CL341030  30.573   4.305   8.254
    1XTA    CL441031  30.655   4.412   8.174
    1XTA    CO341032  30.689   4.385   8.029
    1XTA    OA341033  30.777   4.276   8.024
    1XTA    CO441034  30.800   4.226   7.890
    1XTA    CT141035  30.919   4.117   7.886
    1XTA    CL541036  31.002   4.133   7.753
    1XTA    CL641037  30.924   4.107   7.619
    1XTA    OA441038  30.268   3.651   7.202
    1XTA    CO541039  30.400   3.597   7.213
    1XTA    CL741040  30.470   3.601   7.076
    1XTA    CL841041  30.619   3.566   7.082
    1XTA    CL941042  30.711   3.655   7.176
    1XTA   CL1041043  30.731   3.797   7.127
    1XTA    CO641044  30.699   3.900   7.245
    1XTA    OA541045  30.684   4.021   7.177
    1XTA    CO741046  30.706   4.136   7.253
    1XTA    CT241047  30.712   4.260   7.160
    1XTA   CL1141048  30.757   4.385   7.231
    1XTA   CL1241049  30.756   4.521   7.158
    1XTA    HL141050  29.585   3.303   7.759
    1XTA    HL241051  29.684   3.292   7.901
    1XTA    HL341052  29.506   3.276   7.907
    1XTA    HL441053  30.197   4.092   8.207
    1XTA    HL541054  30.270   3.940   8.251
    1XTA    HL641055  30.483   4.039   8.282
    1XTA    HL741056  30.374   4.141   8.356
    1XTA    HL841057  30.373   4.309   8.182
    1XTA    HL941058  30.489   4.208   8.080
    1XTA   HL1041059  30.553   4.340   8.357
    1XTA   HL1141060  30.649   4.227   8.263
    1XTA   HL1241061  30.754   4.446   8.208
    1XTA   HL1341062  30.616   4.510   8.165
    1XTA   HL1441063  30.608   4.359   7.966
    1XTA   HL1541064  30.735   4.474   7.980
    1XTA   HL1641065  30.711   4.176   7.854
    1XTA   HL1741066  30.825   4.312   7.826
    1XTA   HL1841067  31.092   4.071   7.768
    1XTA   HL1941068  31.041   4.241   7.760
    1XTA   HL2041069  30.822   4.152   7.617
    1XTA   HL2141070  30.902   4.003   7.598
    1XTA   HL2241071  30.988   4.146   7.544
    1XTA   HL2341072  30.388   3.485   7.229
    1XTA   HL2441073  30.448   3.646   7.300
    1XTA   HL2541074  30.421   3.528   7.001
    1XTA   HL2641075  30.461   3.706   7.046
    1XTA   HL2741076  30.626   3.462   7.122
    1XTA   HL2841077  30.657   3.564   6.979
    1XTA   HL2941078  30.678   3.656   7.277
    1XTA   HL3041079  30.812   3.614   7.173
    1XTA   HL3141080  30.832   3.816   7.096
    1XTA   HL3241081  30.665   3.816   7.037
    1XTA   HL3341082  30.605   3.880   7.283
    1XTA   HL3441083  30.780   3.903   7.319
    1XTA   HL3541084  30.802   4.130   7.304
    1XTA   HL3641085  30.637   4.154   7.332
    1XTA   HL3741086  30.858   4.371   7.260
    1XTA   HL3841087  30.710   4.390   7.327
    1XTA   HL3941088  30.649   4.548   7.133
    1XTA   HL4041089  30.806   4.507   7.063
    1XTA   HL4141090  30.803   4.594   7.224
    1XTA    CO841091  30.860   3.974   7.901
    1XTA    CO941092  31.014   4.139   8.004
    1XTA    OA641093  31.113   4.037   7.997
    1XTA   HL4241094  30.780   3.983   7.975
    1XTA   HL4341095  30.935   3.909   7.942
    1XTA   HL4441096  30.579   4.389   7.039
    1XTA   HL4541097  30.472   4.312   7.183
    1XTA   CO1041098  30.577   4.290   7.089
    1XTA   CO1141099  30.817   4.227   7.046
    1XTA    OA741100  30.918   4.257   7.071
    1XTA   HL4641101  30.820   4.118   7.028
    1XTA   HL4741102  30.794   4.273   6.950
    1XTA   HL4841103  30.974   4.139   8.109
    1XTA   HL4941104  31.054   4.237   7.995
    1XTA     NT41105  30.270   4.875   7.307
    1XTA    CN141106  30.302   4.970   7.216
    1XTA     C141107  30.205   5.046   7.148
    1XTA     C241108  30.240   5.123   7.036
    1XTA     C341109  30.375   5.148   7.016
    1XTA     C441110  30.469   5.099   7.105
    1XTA     C541111  30.437   4.999   7.196
    1XTA    CN241112  30.250   4.748   7.259
    1XTA     C641113  30.328   4.697   7.151
    1XTA     C741114  30.299   4.569   7.105
    1XTA     C841115  30.197   4.490   7.168
    1XTA     C941116  30.116   4.547   7.270
    1XTA    C1041117  30.150   4.672   7.318
    1XTA    CN341118  30.293   4.907   7.438
    1XTA    C1141119  30.424   4.905   7.484
    1XTA    C1241120  30.441   4.941   7.622
    1XTA    C1341121  30.329   4.973   7.700
    1XTA    C1441122  30.196   4.972   7.650
    1XTA    C1541123  30.179   4.938   7.518
    1XTA     H141124  30.109   5.010   7.152
    1XTA     H241125  30.153   5.158   6.971
    1XTA     H341126  30.570   5.113   7.098
    1XTA     H441127  30.515   4.937   7.240
    1XTA     H541128  30.399   4.754   7.102
    1XTA     H641129  30.349   4.514   7.027
    1XTA     H741130  30.038   4.489   7.316
    1XTA     H841131  30.100   4.719   7.406
    1XTA     H941132  30.508   4.863   7.425
    1XTA    H1041133  30.538   4.946   7.658
    1XTA    H1141134  30.114   5.000   7.708
    1XTA    H1241135  30.089   4.956   7.468
    1XTA    OA141136  30.410   5.248   6.924
    1XTA    CO141137  30.541   5.302   6.930
    1XTA    OA241138  30.170   4.367   7.107
    1XTA    CO241139  30.036   4.323   7.098
    1XTA    CL141140  30.009   4.194   7.179
    1XTA    CL241141  29.868   4.149   7.176
    1XTA    CL341142  29.790   4.162   7.042
    1XTA    CL441143  29.645   4.110   7.049
    1XTA    CO341144  29.565   4.136   6.926
    1XTA    OA341145  29.427   4.096   6.950
    1XTA    CO441146  29.343   4.153   6.851
    1XTA    CT141147  29.254   4.267   6.905
    1XTA    CL541148  29.194   4.220   7.046
    1XTA    CL641149  29.102   4.320   7.113
    1XTA    OA441150  30.358   5.011   7.831
    1XTA    CO541151  30.271   5.115   7.881
    1XTA    CL741152  30.298   5.116   8.035
    1XTA    CL841153  30.233   5.247   8.095
    1XTA    CL941154  30.114   5.224   8.186
    1XTA   CL1041155  30.036   5.343   8.240
    1XTA    CO641156  29.906   5.298   8.309
    1XTA    OA541157  29.809   5.397   8.293
    1XTA    CO741158  29.680   5.357   8.350
    1XTA    CT241159  29.568   5.327   8.244
    1XTA   CL1141160  29.513   5.454   8.173
    1XTA   CL1241161  29.621   5.553   8.129
    1XTA    HL141162  30.567   5.348   7.023
    1XTA    HL241163  30.612   5.223   6.907
    1XTA    HL341164  30.551   5.384   6.861
    1XTA    HL441165  29.961   4.384   7.143
    1XTA    HL541166  30.004   4.322   6.998
    1XTA    HL641167  30.050   4.207   7.285
    1XTA    HL741168  30.068   4.119   7.131
    1XTA    HL841169  29.814   4.195   7.257
    1XTA    HL941170  29.878   4.039   7.218
    1XTA   HL1041171  29.792   4.260   6.998
    1XTA   HL1141172  29.834   4.113   6.955
    1XTA   HL1241173  29.602   4.142   7.146
    1XTA   HL1341174  29.652   3.999   7.061
    1XTA   HL1441175  29.555   4.242   6.897
    1XTA   HL1541176  29.607   4.087   6.841
    1XTA   HL1641177  29.387   4.165   6.759
    1XTA   HL1741178  29.282   4.073   6.823
    1XTA   HL1841179  29.277   4.200   7.119
    1XTA   HL1941180  29.135   4.130   7.043
    1XTA   HL2041181  29.064   4.295   7.212
    1XTA   HL2141182  29.016   4.329   7.045
    1XTA   HL2241183  29.156   4.420   7.120
    1XTA   HL2341184  30.164   5.102   7.865
    1XTA   HL2441185  30.310   5.206   7.837
    1XTA   HL2541186  30.259   5.033   8.088
    1XTA   HL2641187  30.403   5.133   8.056
    1XTA   HL2741188  30.305   5.328   8.126
    1XTA   HL2841189  30.189   5.300   8.004
    1XTA   HL2941190  30.034   5.168   8.136
    1XTA   HL3041191  30.154   5.159   8.262
    1XTA   HL3141192  30.096   5.393   8.319
    1XTA   HL3241193  30.008   5.415   8.161
    1XTA   HL3341194  29.878   5.197   8.269
    1XTA   HL3441195  29.928   5.286   8.408
    1XTA   HL3541196  29.651   5.439   8.415
    1XTA   HL3641197  29.684   5.271   8.420
    1XTA   HL3741198  29.453   5.505   8.247
    1XTA   HL3841199  29.446   5.430   8.091
    1XTA   HL3941200  29.681   5.579   8.215
    1XTA   HL4041201  29.585   5.643   8.084
    1XTA   HL4141202  29.687   5.505   8.052
    1XTA    CO841203  29.145   4.297   6.804
    1XTA    CO941204  29.334   4.393   6.922
    1XTA    OA641205  29.064   4.226   6.794
    1XTA   HL4241206  29.197   4.330   6.710
    1XTA   HL4341207  29.099   4.391   6.823
    1XTA   HL4441208  29.476   5.166   8.340
    1XTA   HL4541209  29.327   5.260   8.244
    1XTA   CO1041210  29.445   5.266   8.316
    1XTA   CO1141211  29.616   5.216   8.137
    1XTA    OA741212  29.700   5.236   8.068
    1XTA   HL4641213  29.645   5.124   8.182
    1XTA   HL4741214  29.528   5.190   8.078
    1XTA   HL4841215  29.253   4.503   6.961
    1XTA   HL4941216  29.406   4.387   7.003
    1XTA     NT41217  32.920   5.487   4.702
    1XTA    CN141218  32.840   5.412   4.626
    1XTA     C141219  32.872   5.278   4.607
    1XTA     C241220  32.794   5.189   4.532
    1XTA     C341221  32.668   5.234   4.483
    1XTA     C441222  32.635   5.370   4.499
    1XTA     C541223  32.729   5.461   4.560
    1XTA    CN241224  32.959   5.613   4.673
    1XTA     C641225  33.045   5.641   4.568
    1XTA     C741226  33.068   5.772   4.530
    1XTA     C841227  33.015   5.882   4.604
    1XTA     C941228  32.939   5.852   4.718
    1XTA    C1041229  32.915   5.717   4.753
    1XTA    CN341230  32.933   5.451   4.834
    1XTA    C1141231  32.817   5.419   4.907
    1XTA    C1241232  32.827   5.406   5.045
    1XTA    C1341233  32.957   5.401   5.106
    1XTA    C1441234  33.073   5.420   5.034
    1XTA    C1541235  33.060   5.441   4.897
    1XTA     H141236  32.958   5.252   4.667
    1XTA     H241237  32.822   5.087   4.510
    1XTA     H341238  32.535   5.401   4.463
    1XTA     H441239  32.695   5.562   4.571
    1XTA     H541240  33.080   5.567   4.507
    1XTA     H641241  33.139   5.782   4.443
    1XTA     H741242  32.895   5.926   4.793
    1XTA     H841243  32.860   5.703   4.838
    1XTA     H941244  32.718   5.440   4.867
    1XTA    H1041245  32.739   5.386   5.102
    1XTA    H1141246  33.166   5.420   5.088
    1XTA    H1241247  33.143   5.465   4.841
    1XTA    OA141248  32.581   5.154   4.412
    1XTA    CO141249  32.575   5.017   4.454
    1XTA    OA241250  33.060   6.010   4.573
    1XTA    CO241251  33.001   6.112   4.652
    1XTA    CL141252  32.859   6.141   4.603
    1XTA    CL241253  32.853   6.230   4.477
    1XTA    CL341254  32.826   6.383   4.504
    1XTA    CL441255  32.891   6.471   4.390
    1XTA    CO341256  33.043   6.478   4.372
    1XTA    OA341257  33.085   6.358   4.319
    1XTA    CO441258  33.222   6.367   4.289
    1XTA    CT141259  33.283   6.242   4.228
    1XTA    CL541260  33.272   6.124   4.325
    1XTA    CL641261  33.336   6.142   4.462
    1XTA    OA441262  32.975   5.389   5.241
    1XTA    CO541263  32.872   5.335   5.322
    1XTA    CL741264  32.837   5.185   5.289
    1XTA    CL841265  32.743   5.121   5.396
    1XTA    CL941266  32.678   4.980   5.362
    1XTA   CL1041267  32.784   4.872   5.363
    1XTA    CO641268  32.728   4.746   5.298
    1XTA    OA541269  32.841   4.658   5.285
    1XTA    CO741270  32.796   4.520   5.286
    1XTA    CT241271  32.884   4.435   5.192
    1XTA   CL1141272  32.884   4.496   5.048
    1XTA   CL1241273  32.751   4.474   4.978
    1XTA    HL141274  32.469   4.981   4.432
    1XTA    HL241275  32.656   4.963   4.405
    1XTA    HL341276  32.582   5.011   4.558
    1XTA    HL441277  33.009   6.090   4.765
    1XTA    HL541278  33.057   6.200   4.620
    1XTA    HL641279  32.805   6.182   4.686
    1XTA    HL741280  32.794   6.056   4.578
    1XTA    HL841281  32.775   6.203   4.407
    1XTA    HL941282  32.945   6.211   4.423
    1XTA   HL1041283  32.719   6.392   4.518
    1XTA   HL1141284  32.869   6.412   4.603
    1XTA   HL1241285  32.842   6.572   4.404
    1XTA   HL1341286  32.847   6.437   4.296
    1XTA   HL1441287  33.071   6.557   4.306
    1XTA   HL1541288  33.093   6.506   4.467
    1XTA   HL1641289  33.249   6.459   4.229
    1XTA   HL1741290  33.275   6.373   4.382
    1XTA   HL1841291  33.301   6.025   4.278
    1XTA   HL1941292  33.168   6.097   4.335
    1XTA   HL2041293  33.298   6.227   4.508
    1XTA   HL2141294  33.441   6.141   4.446
    1XTA   HL2241295  33.307   6.055   4.527
    1XTA   HL2341296  32.775   5.396   5.319
    1XTA   HL2441297  32.908   5.340   5.424
    1XTA   HL2541298  32.792   5.172   5.190
    1XTA   HL2641299  32.929   5.121   5.289
    1XTA   HL2741300  32.811   5.123   5.485
    1XTA   HL2841301  32.668   5.189   5.413
    1XTA   HL2941302  32.596   4.957   5.436
    1XTA   HL3041303  32.626   4.993   5.265
    1XTA   HL3141304  32.868   4.906   5.300
    1XTA   HL3241305  32.822   4.847   5.463
    1XTA   HL3341306  32.645   4.711   5.355
    1XTA   HL3441307  32.687   4.787   5.201
    1XTA   HL3541308  32.691   4.517   5.258
    1XTA   HL3641309  32.793   4.477   5.386
    1XTA   HL3741310  32.951   4.444   4.981
    1XTA   HL3841311  32.914   4.600   5.053
    1XTA   HL3941312  32.735   4.373   4.961
    1XTA   HL4041313  32.749   4.529   4.880
    1XTA   HL4141314  32.667   4.519   5.030
    1XTA    CO841315  33.436   6.249   4.190
    1XTA    CO941316  33.198   6.207   4.097
    1XTA    OA641317  33.147   6.324   4.036
    1XTA   HL4241318  33.460   6.142   4.153
    1XTA   HL4341319  33.458   6.309   4.101
    1XTA   HL4441320  32.833   4.248   5.309
    1XTA   HL4541321  32.729   4.264   5.173
    1XTA   CO1041322  32.831   4.284   5.202
    1XTA   CO1141323  33.028   4.431   5.256
    1XTA    OA741324  33.039   4.333   5.355
    1XTA   HL4641325  33.100   4.392   5.182
    1XTA   HL4741326  33.063   4.525   5.292
    1XTA   HL4841327  33.117   6.140   4.117
    1XTA   HL4941328  33.261   6.153   4.031
    1XTA     NT41329  33.104   2.128   0.908
    1XTA    CN141330  33.210   2.088   0.827
    1XTA     C141331  33.338   2.140   0.849
    1XTA     C241332  33.446   2.133   0.763
    1XTA     C341333  33.441   2.044   0.659
    1XTA     C441334  33.316   1.989   0.634
    1XTA     C541335  33.198   2.014   0.713
    1XTA    CN241336  33.099   2.248   0.963
    1XTA     C641337  33.163   2.264   1.089
    1XTA     C741338  33.180   2.391   1.142
    1XTA     C841339  33.133   2.505   1.070
    1XTA     C941340  33.069   2.492   0.941
    1XTA    C1041341  33.053   2.360   0.892
    1XTA    CN341342  33.020   2.028   0.951
    1XTA    C1141343  32.901   2.002   0.879
    1XTA    C1241344  32.819   1.894   0.920
    1XTA    C1341345  32.848   1.816   1.033
    1XTA    C1441346  32.972   1.847   1.103
    1XTA    C1541347  33.056   1.954   1.061
    1XTA     H141348  33.353   2.207   0.930
    1XTA     H241349  33.536   2.191   0.784
    1XTA     H341350  33.315   1.921   0.547
    1XTA     H441351  33.102   1.969   0.684
    1XTA     H541352  33.181   2.175   1.145
    1XTA     H641353  33.231   2.397   1.237
    1XTA     H741354  33.038   2.573   0.879
    1XTA     H841355  33.012   2.347   0.798
    1XTA     H941356  32.870   2.041   0.783
    1XTA    H1041357  32.730   1.856   0.870
    1XTA    H1141358  32.991   1.785   1.187
    1XTA    H1241359  33.148   1.959   1.119
    1XTA    OA141360  33.535   1.998   0.574
    1XTA    CO141361  33.670   2.037   0.607
    1XTA    OA241362  33.164   2.626   1.125
    1XTA    CO241363  33.086   2.741   1.084
    1XTA    CL141364  33.075   2.840   1.202
    1XTA    CL241365  33.011   2.968   1.158
    1XTA    CL341366  33.011   3.076   1.268
    1XTA    CL441367  32.929   3.041   1.394
    1XTA    CO341368  32.982   3.113   1.515
    1XTA    OA341369  32.985   3.252   1.479
    1XTA    CO441370  33.024   3.339   1.582
    1XTA    CT141371  33.052   3.477   1.513
    1XTA    CL541372  33.077   3.585   1.628
    1XTA    CL641373  33.216   3.568   1.689
    1XTA    OA441374  32.755   1.722   1.070
    1XTA    CO541375  32.781   1.654   1.191
    1XTA    CL741376  32.692   1.523   1.194
    1XTA    CL841377  32.708   1.440   1.312
    1XTA    CL941378  32.681   1.513   1.445
    1XTA   CL1041379  32.811   1.580   1.497
    1XTA    CO641380  32.767   1.685   1.608
    1XTA    OA541381  32.717   1.804   1.539
    1XTA    CO741382  32.822   1.892   1.506
    1XTA    CT241383  32.754   2.023   1.453
    1XTA   CL1141384  32.864   2.133   1.471
    1XTA   CL1241385  32.996   2.113   1.382
    1XTA    HL141386  33.679   2.142   0.589
    1XTA    HL241387  33.702   2.019   0.710
    1XTA    HL341388  33.752   1.992   0.549
    1XTA    HL441389  33.127   2.793   1.001
    1XTA    HL541390  32.989   2.713   1.053
    1XTA    HL641391  33.166   2.861   1.247
    1XTA    HL741392  33.013   2.794   1.279
    1XTA    HL841393  32.911   2.941   1.125
    1XTA    HL941394  33.062   3.006   1.073
    1XTA   HL1041395  33.111   3.109   1.277
    1XTA   HL1141396  32.951   3.147   1.216
    1XTA   HL1241397  32.938   2.935   1.396
    1XTA   HL1341398  32.821   3.056   1.363
    1XTA   HL1441399  32.923   3.100   1.600
    1XTA   HL1541400  33.083   3.074   1.536
    1XTA   HL1641401  32.937   3.344   1.649
    1XTA   HL1741402  33.118   3.300   1.635
    1XTA   HL1841403  32.997   3.583   1.710
    1XTA   HL1941404  33.065   3.686   1.588
    1XTA   HL2041405  33.295   3.586   1.618
    1XTA   HL2141406  33.232   3.466   1.722
    1XTA   HL2241407  33.229   3.637   1.775
    1XTA   HL2341408  32.755   1.721   1.274
    1XTA   HL2441409  32.877   1.618   1.205
    1XTA   HL2541410  32.581   1.545   1.181
    1XTA   HL2641411  32.719   1.472   1.099
    1XTA   HL2741412  32.646   1.351   1.304
    1XTA   HL2841413  32.812   1.399   1.306
    1XTA   HL2941414  32.608   1.595   1.429
    1XTA   HL3041415  32.650   1.449   1.522
    1XTA   HL3141416  32.864   1.496   1.543
    1XTA   HL3241417  32.876   1.615   1.419
    1XTA   HL3341418  32.688   1.643   1.656
    1XTA   HL3441419  32.846   1.711   1.686
    1XTA   HL3541420  32.900   1.855   1.434
    1XTA   HL3641421  32.877   1.914   1.602
    1XTA   HL3741422  32.896   2.138   1.572
    1XTA   HL3841423  32.813   2.229   1.441
    1XTA   HL3941424  33.053   2.023   1.402
    1XTA   HL4041425  33.061   2.200   1.395
    1XTA   HL4141426  32.965   2.096   1.277
    1XTA    CO841427  32.924   3.517   1.438
    1XTA    CO941428  33.167   3.459   1.415
    1XTA    OA641429  33.233   3.538   1.400
    1XTA   HL4241430  32.919   3.462   1.343
    1XTA   HL4341431  32.814   3.470   1.511
    1XTA   HL4441432  32.640   2.055   1.647
    1XTA   HL4541433  32.605   2.156   1.524
    1XTA   CO1041434  32.630   2.055   1.539
    1XTA   CO1141435  32.710   2.001   1.310
    1XTA    OA741436  32.513   1.977   1.521
    1XTA   HL4641437  32.645   1.905   1.311
    1XTA   HL4741438  32.792   1.958   1.253
    1XTA   HL4841439  33.125   3.421   1.326
    1XTA   HL4941440  33.223   3.380   1.463
    1XTA     NT41441  30.448   6.439   0.951
    1XTA    CN141442  30.494   6.316   0.930
    1XTA     C141443  30.602   6.273   1.013
    1XTA     C241444  30.656   6.144   1.002
    1XTA     C341445  30.611   6.057   0.901
    1XTA     C441446  30.505   6.100   0.822
    1XTA     C541447  30.448   6.231   0.828
    1XTA    CN241448  30.309   6.465   0.956
    1XTA     C641449  30.243   6.519   0.849
    1XTA     C741450  30.103   6.542   0.857
    1XTA     C841451  30.035   6.542   0.980
    1XTA     C941452  30.109   6.495   1.092
    1XTA    C1041453  30.241   6.453   1.082
    1XTA    CN341454  30.527   6.550   0.954
    1XTA    C1141455  30.513   6.647   1.059
    1XTA    C1241456  30.599   6.760   1.049
    1XTA    C1341457  30.685   6.781   0.933
    1XTA    C1441458  30.689   6.683   0.834
    1XTA    C1541459  30.611   6.566   0.844
    1XTA     H141460  30.627   6.341   1.097
    1XTA     H241461  30.738   6.121   1.067
    1XTA     H341462  30.464   6.022   0.758
    1XTA     H441463  30.374   6.258   0.745
    1XTA     H541464  30.287   6.538   0.752
    1XTA     H641465  30.056   6.563   0.762
    1XTA     H741466  30.052   6.504   1.182
    1XTA     H841467  30.290   6.431   1.178
    1XTA     H941468  30.450   6.620   1.143
    1XTA    H1041469  30.592   6.838   1.126
    1XTA    H1141470  30.757   6.706   0.748
    1XTA    H1241471  30.613   6.500   0.763
    1XTA    OA141472  30.666   5.931   0.876
    1XTA    CO141473  30.778   5.887   0.959
    1XTA    OA241474  29.908   6.582   0.992
    1XTA    CO241475  29.858   6.677   0.903
    1XTA    CL141476  29.727   6.724   0.967
    1XTA    CL241477  29.671   6.843   0.888
    1XTA    CL341478  29.540   6.886   0.948
    1XTA    CL441479  29.543   6.888   1.098
    1XTA    CO341480  29.438   6.972   1.155
    1XTA    OA341481  29.452   6.971   1.297
    1XTA    CO441482  29.376   7.082   1.349
    1XTA    CT141483  29.409   7.091   1.495
    1XTA    CL541484  29.409   6.955   1.571
    1XTA    CL641485  29.270   6.894   1.559
    1XTA    OA441486  30.759   6.888   0.912
    1XTA    CO541487  30.767   6.984   1.013
    1XTA    CL741488  30.843   7.103   0.958
    1XTA    CL841489  30.795   7.146   0.816
    1XTA    CL941490  30.818   7.294   0.781
    1XTA   CL1041491  30.949   7.356   0.842
    1XTA    CO641492  31.086   7.309   0.787
    1XTA    OA541493  31.185   7.386   0.849
    1XTA    CO741494  31.227   7.312   0.962
    1XTA    CT241495  31.283   7.407   1.067
    1XTA   CL1141496  31.313   7.326   1.196
    1XTA   CL1241497  31.195   7.314   1.293
    1XTA    HL141498  30.817   5.798   0.908
    1XTA    HL241499  30.857   5.960   0.955
    1XTA    HL341500  30.752   5.849   1.062
    1XTA    HL441501  29.930   6.760   0.890
    1XTA    HL541502  29.849   6.624   0.808
    1XTA    HL641503  29.763   6.760   1.061
    1XTA    HL741504  29.660   6.654   0.998
    1XTA    HL841505  29.653   6.829   0.786
    1XTA    HL941506  29.743   6.920   0.884
    1XTA   HL1041507  29.510   6.986   0.910
    1XTA   HL1141508  29.459   6.813   0.924
    1XTA   HL1241509  29.645   6.923   1.139
    1XTA   HL1341510  29.526   6.782   1.132
    1XTA   HL1441511  29.461   7.070   1.120
    1XTA   HL1541512  29.341   6.932   1.122
    1XTA   HL1641513  29.390   7.180   1.302
    1XTA   HL1741514  29.278   7.069   1.345
    1XTA   HL1841515  29.427   6.970   1.672
    1XTA   HL1941516  29.474   6.869   1.546
    1XTA   HL2041517  29.269   6.800   1.599
    1XTA   HL2141518  29.242   6.891   1.458
    1XTA   HL2241519  29.194   6.941   1.617
    1XTA   HL2341520  30.815   6.949   1.102
    1XTA   HL2441521  30.665   7.010   1.031
    1XTA   HL2541522  30.829   7.185   1.029
    1XTA   HL2641523  30.948   7.071   0.964
    1XTA   HL2741524  30.857   7.087   0.756
    1XTA   HL2841525  30.695   7.103   0.783
    1XTA   HL2941526  30.818   7.301   0.675
    1XTA   HL3041527  30.727   7.332   0.823
    1XTA   HL3141528  30.923   7.453   0.811
    1XTA   HL3241529  30.946   7.361   0.950
    1XTA   HL3341530  31.106   7.203   0.801
    1XTA   HL3441531  31.093   7.315   0.679
    1XTA   HL3541532  31.305   7.243   0.931
    1XTA   HL3641533  31.140   7.260   1.007
    1XTA   HL3741534  31.402   7.370   1.246
    1XTA   HL3841535  31.351   7.222   1.171
    1XTA   HL3941536  31.100   7.286   1.244
    1XTA   HL4041537  31.173   7.411   1.345
    1XTA   HL4141538  31.222   7.246   1.376
    1XTA    CO841539  29.322   7.203   1.557
    1XTA    CO941540  29.555   7.142   1.501
    1XTA    OA641541  29.186   7.183   1.542
    1XTA   HL4241542  29.342   7.298   1.515
    1XTA   HL4341543  29.346   7.205   1.667
    1XTA   HL4441544  31.080   7.503   1.070
    1XTA   HL4541545  31.200   7.571   1.175
    1XTA   CO1041546  31.187   7.527   1.080
    1XTA   CO1141547  31.429   7.462   1.014
    1XTA    OA741548  31.199   7.613   0.999
    1XTA   HL4641549  31.482   7.536   1.124
    1XTA   HL4741550  31.418   7.521   0.922
    1XTA   HL4841551  29.595   7.155   1.398
    1XTA   HL4941552  29.623   7.068   1.547
    1XTA     NT41553  24.867   7.081   6.020
    1XTA    CN141554  24.895   7.100   6.152
    1XTA     C141555  24.795   7.111   6.251
    1XTA     C241556  24.828   7.121   6.386
    1XTA     C341557  24.957   7.105   6.431
    1XTA     C441558  25.057   7.095   6.336
    1XTA     C541559  25.026   7.097   6.198
    1XTA    CN241560  24.894   6.965   5.963
    1XTA     C641561  24.816   6.851   5.987
    1XTA     C741562  24.846   6.732   5.933
    1XTA     C841563  24.949   6.727   5.831
    1XTA     C941564  25.025   6.848   5.796
    1XTA    C1041565  24.989   6.965   5.861
    1XTA    CN341566  24.803   7.168   5.941
    1XTA    C1141567  24.664   7.154   5.921
    1XTA    C1241568  24.591   7.252   5.849
    1XTA    C1341569  24.660   7.361   5.790
    1XTA    C1441570  24.797   7.372   5.805
    1XTA    C1541571  24.868   7.275   5.875
    1XTA     H141572  24.694   7.109   6.226
    1XTA     H241573  24.749   7.131   6.458
    1XTA     H341574  25.150   7.095   6.377
    1XTA     H441575  25.109   7.089   6.129
    1XTA     H541576  24.742   6.860   6.060
    1XTA     H641577  24.799   6.637   5.967
    1XTA     H741578  25.090   6.845   5.708
    1XTA     H841579  25.019   7.062   5.825
    1XTA     H941580  24.604   7.084   5.975
    1XTA    H1041581  24.485   7.254   5.842
    1XTA    H1141582  24.851   7.454   5.770
    1XTA    H1241583  24.979   7.290   5.882
    1XTA    OA141584  24.979   7.094   6.562
    1XTA    CO141585  25.097   7.168   6.606
    1XTA    OA241586  24.971   6.612   5.754
    1XTA    CO241587  24.876   6.511   5.764
    1XTA    CL141588  24.939   6.414   5.871
    1XTA    CL241589  24.858   6.278   5.901
    1XTA    CL341590  24.821   6.198   5.772
    1XTA    CL441591  24.947   6.151   5.701
    1XTA    CO341592  24.918   6.052   5.590
    1XTA    OA341593  24.823   5.972   5.638
    1XTA    CO441594  24.770   5.891   5.538
    1XTA    CT141595  24.673   5.785   5.598
    1XTA    CL541596  24.559   5.858   5.670
    1XTA    CL641597  24.455   5.769   5.741
    1XTA    OA441598  24.586   7.462   5.731
    1XTA    CO541599  24.654   7.580   5.679
    1XTA    CL741600  24.562   7.680   5.610
    1XTA    CL841601  24.631   7.798   5.544
    1XTA    CL941602  24.704   7.906   5.625
    1XTA   CL1041603  24.846   7.881   5.678
    1XTA    CO641604  24.949   7.876   5.573
    1XTA    OA541605  25.083   7.901   5.604
    1XTA    CO741606  25.176   7.810   5.555
    1XTA    CT241607  25.321   7.853   5.595
    1XTA   CL1141608  25.358   7.999   5.569
    1XTA   CL1241609  25.284   8.113   5.644
    1XTA    HL141610  25.103   7.183   6.716
    1XTA    HL241611  25.188   7.126   6.563
    1XTA    HL341612  25.088   7.271   6.566
    1XTA    HL441613  24.773   6.538   5.787
    1XTA    HL541614  24.881   6.465   5.666
    1XTA    HL641615  24.947   6.475   5.965
    1XTA    HL741616  25.040   6.392   5.845
    1XTA    HL841617  24.768   6.307   5.965
    1XTA    HL941618  24.927   6.204   5.950
    1XTA   HL1041619  24.759   6.103   5.791
    1XTA   HL1141620  24.756   6.257   5.705
    1XTA   HL1241621  25.005   6.092   5.771
    1XTA   HL1341622  25.015   6.231   5.672
    1XTA   HL1441623  24.877   6.108   5.506
    1XTA   HL1541624  25.005   5.996   5.554
    1XTA   HL1641625  24.709   5.946   5.471
    1XTA   HL1741626  24.854   5.839   5.486
    1XTA   HL1841627  24.511   5.928   5.606
    1XTA   HL1941628  24.598   5.922   5.740
    1XTA   HL2041629  24.499   5.707   5.818
    1XTA   HL2141630  24.394   5.706   5.674
    1XTA   HL2241631  24.395   5.851   5.783
    1XTA   HL2341632  24.736   7.541   5.613
    1XTA   HL2441633  24.707   7.632   5.769
    1XTA   HL2541634  24.519   7.639   5.522
    1XTA   HL2641635  24.492   7.708   5.688
    1XTA   HL2741636  24.703   7.755   5.476
    1XTA   HL2841637  24.563   7.847   5.482
    1XTA   HL2941638  24.704   8.003   5.580
    1XTA   HL3041639  24.641   7.935   5.714
    1XTA   HL3141640  24.883   7.966   5.730
    1XTA   HL3241641  24.851   7.786   5.734
    1XTA   HL3341642  24.939   7.787   5.518
    1XTA   HL3441643  24.917   7.953   5.500
    1XTA   HL3541644  25.162   7.806   5.447
    1XTA   HL3641645  25.147   7.715   5.597
    1XTA   HL3741646  25.336   8.013   5.466
    1XTA   HL3841647  25.461   8.018   5.577
    1XTA   HL3941648  25.277   8.099   5.754
    1XTA   HL4041649  25.180   8.118   5.613
    1XTA   HL4141650  25.325   8.213   5.627
    1XTA    CO841651  24.744   5.692   5.703
    1XTA    CO941652  24.612   5.700   5.486
    1XTA    OA641653  24.819   5.622   5.660
    1XTA   HL4241654  24.673   5.619   5.750
    1XTA   HL4341655  24.782   5.757   5.785
    1XTA   HL4441656  25.525   7.790   5.533
    1XTA   HL4541657  25.400   7.661   5.532
    1XTA   CO1041658  25.419   7.767   5.505
    1XTA   CO1141659  25.352   7.825   5.746
    1XTA    OA741660  25.480   7.876   5.779
    1XTA   HL4641661  25.273   7.870   5.810
    1XTA   HL4741662  25.339   7.713   5.751
    1XTA   HL4841663  24.709   5.617   5.424
    1XTA   HL4941664  24.539   5.627   5.520
    1XTA     NT41665  31.035   3.174   1.916
    1XTA    CN141666  30.912   3.138   1.956
    1XTA     C141667  30.801   3.199   1.898
    1XTA     C241668  30.673   3.171   1.950
    1XTA     C341669  30.656   3.075   2.048
    1XTA     C441670  30.767   3.015   2.110
    1XTA     C541671  30.897   3.047   2.067
    1XTA    CN241672  31.063   3.299   1.888
    1XTA     C641673  31.086   3.352   1.764
    1XTA     C741674  31.122   3.486   1.749
    1XTA     C841675  31.139   3.570   1.858
    1XTA     C941676  31.113   3.519   1.991
    1XTA    C1041677  31.070   3.384   1.999
    1XTA    CN341678  31.144   3.091   1.905
    1XTA    C1141679  31.234   3.077   2.009
    1XTA    C1241680  31.342   2.989   1.996
    1XTA    C1341681  31.369   2.919   1.877
    1XTA    C1441682  31.273   2.934   1.772
    1XTA    C1541683  31.162   3.018   1.791
    1XTA     H141684  30.820   3.281   1.831
    1XTA     H241685  30.590   3.226   1.908
    1XTA     H341686  30.752   2.960   2.206
    1XTA     H441687  30.975   3.003   2.126
    1XTA     H541688  31.053   3.295   1.676
    1XTA     H641689  31.123   3.513   1.645
    1XTA     H741690  31.126   3.586   2.067
    1XTA     H841691  31.043   3.340   2.091
    1XTA     H941692  31.216   3.130   2.099
    1XTA    H1041693  31.407   2.964   2.088
    1XTA    H1141694  31.266   2.871   1.680
    1XTA    H1241695  31.087   3.024   1.714
    1XTA    OA141696  30.523   3.052   2.072
    1XTA    CO141697  30.486   2.925   2.130
    1XTA    OA241698  31.163   3.702   1.847
    1XTA    CO241699  31.252   3.749   1.752
    1XTA    CL141700  31.397   3.729   1.785
    1XTA    CL241701  31.492   3.804   1.694
    1XTA    CL341702  31.639   3.796   1.749
    1XTA    CL441703  31.743   3.854   1.653
    1XTA    CO341704  31.728   4.004   1.628
    1XTA    OA341705  31.729   4.079   1.754
    1XTA    CO441706  31.762   4.220   1.735
    1XTA    CT141707  31.698   4.303   1.844
    1XTA    CL541708  31.548   4.331   1.821
    1XTA    CL641709  31.466   4.204   1.823
    1XTA    OA441710  31.475   2.827   1.874
    1XTA    CO541711  31.603   2.866   1.923
    1XTA    CL741712  31.714   2.779   1.867
    1XTA    CL841713  31.846   2.845   1.886
    1XTA    CL941714  31.965   2.742   1.862
    1XTA   CL1041715  32.095   2.814   1.839
    1XTA    CO641716  32.213   2.724   1.794
    1XTA    OA541717  32.182   2.664   1.673
    1XTA    CO741718  32.266   2.561   1.622
    1XTA    CT241719  32.226   2.513   1.488
    1XTA   CL1141720  32.332   2.410   1.439
    1XTA   CL1241721  32.326   2.274   1.514
    1XTA    HL141722  30.382   2.928   2.145
    1XTA    HL241723  30.504   2.860   2.045
    1XTA    HL341724  30.532   2.896   2.226
    1XTA    HL441725  31.247   3.684   1.663
    1XTA    HL541726  31.233   3.854   1.720
    1XTA    HL641727  31.422   3.624   1.779
    1XTA    HL741728  31.413   3.758   1.886
    1XTA    HL841729  31.475   3.911   1.703
    1XTA    HL941730  31.483   3.784   1.587
    1XTA   HL1041731  31.647   3.859   1.839
    1XTA   HL1141732  31.673   3.702   1.780
    1XTA   HL1241733  31.747   3.806   1.550
    1XTA   HL1341734  31.844   3.842   1.700
    1XTA   HL1441735  31.794   4.052   1.560
    1XTA   HL1541736  31.626   4.012   1.583
    1XTA   HL1641737  31.868   4.237   1.728
    1XTA   HL1741738  31.717   4.249   1.641
    1XTA   HL1841739  31.530   4.388   1.728
    1XTA   HL1941740  31.513   4.394   1.898
    1XTA   HL2041741  31.368   4.241   1.833
    1XTA   HL2141742  31.484   4.148   1.906
    1XTA   HL2241743  31.472   4.140   1.733
    1XTA   HL2341744  31.603   2.865   2.035
    1XTA   HL2441745  31.625   2.967   1.888
    1XTA   HL2541746  31.716   2.676   1.906
    1XTA   HL2641747  31.699   2.764   1.761
    1XTA   HL2741748  31.866   2.932   1.825
    1XTA   HL2841749  31.845   2.884   1.988
    1XTA   HL2941750  31.978   2.690   1.960
    1XTA   HL3041751  31.949   2.677   1.776
    1XTA   HL3141752  32.088   2.884   1.763
    1XTA   HL3241753  32.121   2.864   1.936
    1XTA   HL3341754  32.305   2.782   1.782
    1XTA   HL3441755  32.235   2.655   1.883
    1XTA   HL3541756  32.281   2.483   1.698
    1XTA   HL3641757  32.358   2.608   1.604
    1XTA   HL3741758  32.430   2.459   1.445
    1XTA   HL3841759  32.320   2.391   1.327
    1XTA   HL3941760  32.393   2.203   1.468
    1XTA   HL4041761  32.236   2.219   1.497
    1XTA   HL4141762  32.344   2.270   1.622
    1XTA    CO841763  31.766   4.438   1.837
    1XTA    CO941764  31.730   4.247   1.984
    1XTA    OA641765  31.781   4.485   1.706
    1XTA   HL4241766  31.866   4.425   1.884
    1XTA   HL4341767  31.707   4.515   1.888
    1XTA   HL4441768  32.175   2.720   1.434
    1XTA   HL4541769  32.332   2.657   1.370
    1XTA   CO1041770  32.228   2.630   1.389
    1XTA   CO1141771  32.079   2.455   1.481
    1XTA    OA741772  32.160   2.608   1.299
    1XTA   HL4641773  32.081   2.361   1.375
    1XTA   HL4741774  32.004   2.534   1.460
    1XTA   HL4841775  31.828   4.198   1.987
    1XTA   HL4941776  31.667   4.153   2.005
    1XTA     NT41777  33.432   5.588   2.753
    1XTA    CN141778  33.389   5.464   2.731
    1XTA     C141779  33.311   5.430   2.619
    1XTA     C241780  33.252   5.305   2.613
    1XTA     C341781  33.270   5.205   2.710
    1XTA     C441782  33.349   5.239   2.822
    1XTA     C541783  33.397   5.366   2.833
    1XTA    CN241784  33.543   5.639   2.694
    1XTA     C641785  33.663   5.567   2.682
    1XTA     C741786  33.775   5.615   2.624
    1XTA     C841787  33.786   5.749   2.584
    1XTA     C941788  33.669   5.827   2.594
    1XTA    C1041789  33.547   5.771   2.642
    1XTA    CN341790  33.393   5.658   2.863
    1XTA    C1141791  33.484   5.683   2.967
    1XTA    C1241792  33.450   5.771   3.068
    1XTA    C1341793  33.317   5.824   3.073
    1XTA    C1441794  33.226   5.785   2.977
    1XTA    C1541795  33.266   5.712   2.867
    1XTA     H141796  33.292   5.499   2.542
    1XTA     H241797  33.201   5.282   2.517
    1XTA     H341798  33.361   5.167   2.900
    1XTA     H441799  33.436   5.402   2.923
    1XTA     H541800  33.661   5.459   2.716
    1XTA     H641801  33.863   5.550   2.619
    1XTA     H741802  33.672   5.932   2.561
    1XTA     H841803  33.456   5.826   2.642
    1XTA     H941804  33.584   5.638   2.968
    1XTA    H1041805  33.523   5.797   3.145
    1XTA    H1141806  33.123   5.817   2.992
    1XTA    H1241807  33.189   5.696   2.791
    1XTA    OA141808  33.206   5.091   2.719
    1XTA    CO141809  33.150   5.053   2.593
    1XTA    OA241810  33.895   5.812   2.527
    1XTA    CO241811  34.023   5.763   2.548
    1XTA    CL141812  34.078   5.787   2.696
    1XTA    CL241813  34.079   5.924   2.754
    1XTA    CL341814  33.936   5.951   2.819
    1XTA    CL441815  33.903   5.848   2.932
    1XTA    CO341816  33.780   5.883   3.015
    1XTA    OA341817  33.804   6.004   3.078
    1XTA    CO441818  33.700   6.044   3.167
    1XTA    CT141819  33.670   6.191   3.138
    1XTA    CL541820  33.791   6.286   3.176
    1XTA    CL641821  33.930   6.245   3.120
    1XTA    OA441822  33.281   5.911   3.172
    1XTA    CO541823  33.318   5.875   3.297
    1XTA    CL741824  33.269   5.983   3.394
    1XTA    CL841825  33.274   5.943   3.539
    1XTA    CL941826  33.246   6.057   3.640
    1XTA   CL1041827  33.125   6.140   3.590
    1XTA    CO641828  33.172   6.268   3.514
    1XTA    OA541829  33.054   6.323   3.447
    1XTA    CO741830  33.012   6.266   3.328
    1XTA    CT241831  32.872   6.325   3.290
    1XTA   CL1141832  32.776   6.309   3.414
    1XTA   CL1241833  32.742   6.171   3.471
    1XTA    HL141834  33.062   5.101   2.567
    1XTA    HL241835  33.222   5.068   2.515
    1XTA    HL341836  33.121   4.940   2.596
    1XTA    HL441837  34.036   5.659   2.513
    1XTA    HL541838  34.082   5.842   2.489
    1XTA    HL641839  34.187   5.763   2.699
    1XTA    HL741840  34.036   5.711   2.766
    1XTA    HL841841  34.117   6.005   2.689
    1XTA    HL941842  34.153   5.924   2.838
    1XTA   HL1041843  33.945   6.051   2.863
    1XTA   HL1141844  33.853   5.943   2.747
    1XTA   HL1241845  33.992   5.857   2.997
    1XTA   HL1341846  33.892   5.753   2.891
    1XTA   HL1441847  33.686   5.889   2.952
    1XTA   HL1541848  33.763   5.808   3.087
    1XTA   HL1641849  33.611   5.985   3.154
    1XTA   HL1741850  33.740   6.026   3.272
    1XTA   HL1841851  33.791   6.269   3.287
    1XTA   HL1941852  33.767   6.392   3.149
    1XTA   HL2041853  33.976   6.158   3.159
    1XTA   HL2141854  33.998   6.327   3.151
    1XTA   HL2241855  33.927   6.232   3.011
    1XTA   HL2341856  33.427   5.874   3.307
    1XTA   HL2441857  33.280   5.772   3.330
    1XTA   HL2541858  33.327   6.073   3.370
    1XTA   HL2641859  33.162   6.008   3.372
    1XTA   HL2741860  33.215   5.850   3.553
    1XTA   HL2841861  33.371   5.903   3.554
    1XTA   HL2941862  33.227   6.012   3.743
    1XTA   HL3041863  33.345   6.112   3.645
    1XTA   HL3141864  33.047   6.073   3.552
    1XTA   HL3241865  33.065   6.171   3.680
    1XTA   HL3341866  33.203   6.339   3.595
    1XTA   HL3441867  33.254   6.247   3.442
    1XTA   HL3541868  33.009   6.160   3.343
    1XTA   HL3641869  33.084   6.289   3.249
    1XTA   HL3741870  32.676   6.338   3.384
    1XTA   HL3841871  32.810   6.377   3.493
    1XTA   HL3941872  32.718   6.101   3.388
    1XTA   HL4041873  32.652   6.178   3.530
    1XTA   HL4141874  32.816   6.135   3.543
    1XTA    CO841875  33.560   6.230   3.238
    1XTA    CO941876  33.620   6.207   2.991
    1XTA    OA641877  33.532   6.148   2.964
    1XTA   HL4241878  33.580   6.182   3.336
    1XTA   HL4341879  33.430   6.183   3.187
    1XTA   HL4441880  32.715   6.283   3.134
    1XTA   HL4541881  32.869   6.281   3.069
    1XTA   CO1041882  32.814   6.252   3.161
    1XTA   CO1141883  32.906   6.474   3.252
    1XTA    OA741884  32.836   6.140   3.176
    1XTA   HL4641885  32.947   6.494   3.114
    1XTA   HL4741886  32.977   6.517   3.328
    1XTA   HL4841887  33.703   6.177   2.934
    1XTA   HL4941888  33.595   6.311   2.972
    1XTA     NT41889  31.007   4.786  -0.057
    1XTA    CN141890  31.040   4.697  -0.154
    1XTA     C141891  31.171   4.658  -0.165
    1XTA     C241892  31.211   4.587  -0.279
    1XTA     C341893  31.115   4.532  -0.371
    1XTA     C441894  30.982   4.577  -0.361
    1XTA     C541895  30.955   4.665  -0.257
    1XTA    CN241896  31.092   4.866   0.010
    1XTA     C641897  31.157   4.972  -0.055
    1XTA     C741898  31.242   5.058   0.019
    1XTA     C841899  31.282   5.027   0.158
    1XTA     C941900  31.214   4.920   0.217
    1XTA    C1041901  31.120   4.839   0.145
    1XTA    CN341902  30.889   4.762   0.004
    1XTA    C1141903  30.860   4.645   0.080
    1XTA    C1241904  30.734   4.613   0.126
    1XTA    C1341905  30.628   4.705   0.111
    1XTA    C1441906  30.657   4.827   0.048
    1XTA    C1541907  30.781   4.855  -0.011
    1XTA     H141908  31.243   4.687  -0.095
    1XTA     H241909  31.322   4.565  -0.299
    1XTA     H341910  30.905   4.560  -0.441
    1XTA     H441911  30.854   4.706  -0.246
    1XTA     H541912  31.142   4.986  -0.157
    1XTA     H641913  31.278   5.147  -0.025
    1XTA     H741914  31.218   4.907   0.318
    1XTA     H841915  31.063   4.758   0.193
    1XTA     H941916  30.935   4.567   0.087
    1XTA    H1041917  30.701   4.519   0.174
    1XTA    H1141918  30.580   4.899   0.026
    1XTA    H1241919  30.784   4.951  -0.069
    1XTA    OA141920  31.151   4.461  -0.479
    1XTA    CO141921  31.290   4.461  -0.522
    1XTA    OA241922  31.349   5.122   0.224
    1XTA    CO241923  31.292   5.171   0.345
    1XTA    CL141924  31.312   5.324   0.353
    1XTA    CL241925  31.265   5.373   0.491
    1XTA    CL341926  31.372   5.359   0.596
    1XTA    CL441927  31.317   5.400   0.736
    1XTA    CO341928  31.417   5.381   0.850
    1XTA    OA341929  31.483   5.259   0.836
    1XTA    CO441930  31.530   5.213   0.958
    1XTA    CT141931  31.601   5.081   0.933
    1XTA    CL541932  31.507   4.960   0.914
    1XTA    CL641933  31.407   4.962   0.800
    1XTA    OA441934  30.508   4.696   0.171
    1XTA    CO541935  30.463   4.572   0.216
    1XTA    CL741936  30.319   4.583   0.266
    1XTA    CL841937  30.308   4.654   0.399
    1XTA    CL941938  30.166   4.650   0.446
    1XTA   CL1041939  30.144   4.715   0.581
    1XTA    CO641940  30.003   4.759   0.598
    1XTA    OA541941  29.989   4.856   0.495
    1XTA    CO741942  29.862   4.924   0.493
    1XTA    CT241943  29.874   5.037   0.387
    1XTA   CL1141944  29.745   5.119   0.386
    1XTA   CL1241945  29.624   5.081   0.301
    1XTA    HL141946  31.319   4.421  -0.619
    1XTA    HL241947  31.329   4.565  -0.532
    1XTA    HL341948  31.342   4.412  -0.442
    1XTA    HL441949  31.187   5.164   0.353
    1XTA    HL541950  31.340   5.131   0.426
    1XTA    HL641951  31.255   5.375   0.276
    1XTA    HL741952  31.413   5.359   0.342
    1XTA    HL841953  31.178   5.316   0.522
    1XTA    HL941954  31.243   5.483   0.495
    1XTA   HL1041955  31.414   5.263   0.602
    1XTA   HL1141956  31.466   5.414   0.575
    1XTA   HL1241957  31.227   5.345   0.758
    1XTA   HL1341958  31.287   5.502   0.734
    1XTA   HL1441959  31.481   5.467   0.870
    1XTA   HL1541960  31.359   5.371   0.948
    1XTA   HL1641961  31.595   5.292   0.996
    1XTA   HL1741962  31.460   5.201   1.038
    1XTA   HL1841963  31.458   4.953   1.011
    1XTA   HL1941964  31.562   4.871   0.921
    1XTA   HL2041965  31.462   4.980   0.711
    1XTA   HL2141966  31.349   5.055   0.805
    1XTA   HL2241967  31.353   4.869   0.804
    1XTA   HL2341968  30.529   4.530   0.298
    1XTA   HL2441969  30.472   4.501   0.136
    1XTA   HL2541970  30.249   4.630   0.198
    1XTA   HL2641971  30.281   4.482   0.281
    1XTA   HL2741972  30.384   4.618   0.474
    1XTA   HL2841973  30.339   4.755   0.392
    1XTA   HL2941974  30.106   4.699   0.361
    1XTA   HL3041975  30.129   4.545   0.451
    1XTA   HL3141976  30.171   4.658   0.669
    1XTA   HL3241977  30.198   4.810   0.585
    1XTA   HL3341978  29.939   4.669   0.589
    1XTA   HL3441979  29.984   4.816   0.692
    1XTA   HL3541980  29.843   4.963   0.598
    1XTA   HL3641981  29.772   4.854   0.468
    1XTA   HL3741982  29.775   5.221   0.354
    1XTA   HL3841983  29.721   5.157   0.485
    1XTA   HL3941984  29.555   5.163   0.278
    1XTA   HL4041985  29.555   5.010   0.344
    1XTA   HL4141986  29.647   5.048   0.197
    1XTA    CO841987  31.687   5.046   1.054
    1XTA    CO941988  31.702   5.088   0.806
    1XTA    OA641989  31.802   5.193   0.837
    1XTA   HL4241990  31.750   4.961   1.022
    1XTA   HL4341991  31.764   5.129   1.071
    1XTA   HL4441992  29.876   5.043   0.161
    1XTA   HL4541993  30.009   4.953   0.224
    1XTA   CO1041994  29.906   4.973   0.243
    1XTA   CO1141995  29.988   5.134   0.421
    1XTA    OA741996  29.836   4.847   0.245
    1XTA   HL4641997  30.077   5.066   0.402
    1XTA   HL4741998  29.994   5.150   0.529
    1XTA   HL4841999  31.653   5.097   0.715
    1XTA   HL4942000  31.756   4.995   0.792
    1XTA     NT42001  30.900   5.178   7.827
    1XTA    CN142002  30.929   5.240   7.943
    1XTA     C142003  30.958   5.379   7.943
    1XTA     C242004  31.003   5.445   8.063
    1XTA     C342005  31.021   5.374   8.182
    1XTA     C442006  30.972   5.242   8.189
    1XTA     C542007  30.929   5.173   8.068
    1XTA    CN242008  30.988   5.087   7.782
    1XTA     C642009  31.098   5.135   7.703
    1XTA     C742010  31.193   5.053   7.653
    1XTA     C842011  31.188   4.922   7.696
    1XTA     C942012  31.084   4.871   7.784
    1XTA    C1042013  30.974   4.951   7.820
    1XTA    CN342014  30.797   5.222   7.748
    1XTA    C1142015  30.668   5.236   7.800
    1XTA    C1242016  30.573   5.293   7.719
    1XTA    C1342017  30.602   5.335   7.585
    1XTA    C1442018  30.731   5.338   7.541
    1XTA    C1542019  30.831   5.284   7.623
    1XTA     H142020  30.962   5.431   7.851
    1XTA     H242021  31.028   5.553   8.054
    1XTA     H342022  30.979   5.203   8.290
    1XTA     H442023  30.908   5.070   8.071
    1XTA     H542024  31.118   5.243   7.680
    1XTA     H642025  31.275   5.106   7.597
    1XTA     H742026  31.096   4.769   7.813
    1XTA     H842027  30.885   4.920   7.874
    1XTA     H942028  30.635   5.198   7.893
    1XTA    H1042029  30.477   5.303   7.757
    1XTA    H1142030  30.737   5.362   7.436
    1XTA    H1242031  30.932   5.291   7.584
    1XTA    OA142032  31.072   5.432   8.290
    1XTA    CO142033  31.195   5.496   8.267
    1XTA    OA242034  31.291   4.832   7.664
    1XTA    CO242035  31.378   4.870   7.554
    1XTA    CL142036  31.306   4.828   7.422
    1XTA    CL242037  31.359   4.898   7.295
    1XTA    CL342038  31.344   5.048   7.303
    1XTA    CL442039  31.485   5.112   7.324
    1XTA    CO342040  31.471   5.255   7.386
    1XTA    OA342041  31.597   5.298   7.375
    1XTA    CO442042  31.629   5.434   7.408
    1XTA    CT142043  31.786   5.452   7.409
    1XTA    CL542044  31.852   5.417   7.546
    1XTA    CL642045  31.806   5.494   7.669
    1XTA    OA442046  30.510   5.415   7.532
    1XTA    CO542047  30.449   5.348   7.423
    1XTA    CL742048  30.343   5.428   7.354
    1XTA    CL842049  30.395   5.547   7.276
    1XTA    CL942050  30.296   5.616   7.187
    1XTA   CL1042051  30.251   5.525   7.072
    1XTA    CO642052  30.104   5.552   7.031
    1XTA    OA542053  30.008   5.546   7.134
    1XTA    CO742054  29.991   5.419   7.186
    1XTA    CT242055  29.851   5.407   7.253
    1XTA   CL1142056  29.839   5.290   7.353
    1XTA   CL1242057  29.889   5.154   7.302
    1XTA    HL142058  31.275   5.424   8.239
    1XTA    HL242059  31.200   5.564   8.186
    1XTA    HL342060  31.227   5.544   8.366
    1XTA    HL442061  31.410   4.973   7.552
    1XTA    HL542062  31.470   4.811   7.582
    1XTA    HL642063  31.202   4.856   7.427
    1XTA    HL742064  31.300   4.727   7.400
    1XTA    HL842065  31.296   4.866   7.205
    1XTA    HL942066  31.467   4.872   7.277
    1XTA   HL1042067  31.295   5.083   7.209
    1XTA   HL1142068  31.279   5.072   7.389
    1XTA   HL1242069  31.535   5.124   7.227
    1XTA   HL1342070  31.548   5.045   7.386
    1XTA   HL1442071  31.395   5.317   7.333
    1XTA   HL1542072  31.431   5.240   7.484
    1XTA   HL1642073  31.585   5.494   7.328
    1XTA   HL1742074  31.584   5.451   7.503
    1XTA   HL1842075  31.959   5.431   7.527
    1XTA   HL1942076  31.837   5.315   7.566
    1XTA   HL2042077  31.841   5.591   7.665
    1XTA   HL2142078  31.860   5.454   7.745
    1XTA   HL2242079  31.705   5.480   7.696
    1XTA   HL2342080  30.408   5.250   7.459
    1XTA   HL2442081  30.516   5.307   7.346
    1XTA   HL2542082  30.287   5.361   7.292
    1XTA   HL2642083  30.259   5.458   7.419
    1XTA   HL2742084  30.432   5.623   7.345
    1XTA   HL2842085  30.482   5.514   7.213
    1XTA   HL2942086  30.217   5.652   7.248
    1XTA   HL3042087  30.346   5.709   7.160
    1XTA   HL3142088  30.319   5.538   6.980
    1XTA   HL3242089  30.251   5.425   7.107
    1XTA   HL3342090  30.105   5.653   6.997
    1XTA   HL3442091  30.086   5.475   6.951
    1XTA   HL3542092  30.068   5.408   7.256
    1XTA   HL3642093  30.001   5.340   7.108
    1XTA   HL3742094  29.742   5.283   7.395
    1XTA   HL3842095  29.902   5.323   7.436
    1XTA   HL3942096  29.804   5.117   7.245
    1XTA   HL4042097  29.901   5.084   7.388
    1XTA   HL4142098  29.987   5.156   7.247
    1XTA    CO842099  31.818   5.600   7.366
    1XTA    CO942100  31.838   5.354   7.296
    1XTA    OA642101  31.952   5.362   7.286
    1XTA   HL4242102  31.775   5.657   7.447
    1XTA   HL4342103  31.961   5.623   7.352
    1XTA   HL4442104  29.649   5.432   7.168
    1XTA   HL4542105  29.774   5.483   7.070
    1XTA   CO1042106  29.745   5.403   7.140
    1XTA   CO1142107  29.818   5.542   7.333
    1XTA    OA742108  29.756   5.304   7.093
    1XTA   HL4642109  29.932   5.570   7.414
    1XTA   HL4742110  29.830   5.610   7.247
    1XTA   HL4842111  31.782   5.366   7.206
    1XTA   HL4942112  31.820   5.253   7.325
    1XTA     NT42113  31.993   6.416   6.073
    1XTA    CN142114  32.021   6.300   6.013
    1XTA     C142115  31.985   6.281   5.876
    1XTA     C242116  32.014   6.159   5.803
    1XTA     C342117  32.089   6.053   5.873
    1XTA     C442118  32.130   6.074   6.008
    1XTA     C542119  32.099   6.196   6.071
    1XTA    CN242120  31.958   6.428   6.201
    1XTA     C642121  32.016   6.520   6.295
    1XTA     C742122  31.983   6.521   6.427
    1XTA     C842123  31.862   6.464   6.469
    1XTA     C942124  31.800   6.377   6.380
    1XTA    C1042125  31.846   6.352   6.250
    1XTA    CN342126  32.009   6.533   6.011
    1XTA    C1142127  32.133   6.569   5.949
    1XTA    C1242128  32.156   6.704   5.908
    1XTA    C1342129  32.049   6.795   5.914
    1XTA    C1442130  31.920   6.745   5.947
    1XTA    C1542131  31.898   6.623   6.001
    1XTA     H142132  31.943   6.372   5.831
    1XTA     H242133  31.980   6.144   5.702
    1XTA     H342134  32.184   5.997   6.063
    1XTA     H442135  32.137   6.218   6.168
    1XTA     H542136  32.093   6.583   6.256
    1XTA     H642137  32.040   6.579   6.496
    1XTA     H742138  31.719   6.314   6.403
    1XTA     H842139  31.791   6.290   6.185
    1XTA     H942140  32.211   6.495   5.942
    1XTA    H1042141  32.245   6.730   5.859
    1XTA    H1142142  31.841   6.816   5.948
    1XTA    H1242143  31.808   6.585   6.041
    1XTA    OA142144  32.113   5.930   5.810
    1XTA    CO142145  32.056   5.907   5.683
    1XTA    OA242146  31.819   6.468   6.604
    1XTA    CO242147  31.870   6.570   6.690
    1XTA    CL142148  31.820   6.711   6.672
    1XTA    CL242149  31.863   6.786   6.549
    1XTA    CL342150  31.839   6.932   6.564
    1XTA    CL442151  31.861   7.004   6.432
    1XTA    CO342152  31.820   7.153   6.438
    1XTA    OA342153  31.757   7.180   6.313
    1XTA    CO442154  31.776   7.317   6.274
    1XTA    CT142155  31.705   7.351   6.141
    1XTA    CL542156  31.758   7.483   6.087
    1XTA    CL642157  31.764   7.594   6.191
    1XTA    OA442158  32.055   6.927   5.887
    1XTA    CO542159  32.186   6.986   5.902
    1XTA    CL742160  32.179   7.084   6.022
    1XTA    CL842161  32.150   7.016   6.157
    1XTA    CL942162  32.268   6.936   6.200
    1XTA   CL1042163  32.250   6.882   6.343
    1XTA    CO642164  32.371   6.793   6.386
    1XTA    OA542165  32.373   6.667   6.314
    1XTA    CO742166  32.492   6.586   6.352
    1XTA    CT242167  32.516   6.458   6.271
    1XTA   CL1142168  32.419   6.344   6.313
    1XTA   CL1242169  32.269   6.372   6.317
    1XTA    HL142170  31.948   5.909   5.694
    1XTA    HL242171  32.095   5.989   5.623
    1XTA    HL342172  32.091   5.814   5.649
    1XTA    HL442173  31.832   6.550   6.789
    1XTA    HL542174  31.984   6.568   6.696
    1XTA    HL642175  31.861   6.767   6.755
    1XTA    HL742176  31.712   6.716   6.687
    1XTA    HL842177  31.797   6.759   6.466
    1XTA    HL942178  31.964   6.763   6.524
    1XTA   HL1042179  31.743   6.938   6.596
    1XTA   HL1142180  31.908   6.968   6.642
    1XTA   HL1242181  31.798   6.943   6.369
    1XTA   HL1342182  31.961   6.984   6.401
    1XTA   HL1442183  31.747   7.184   6.520
    1XTA   HL1542184  31.907   7.211   6.445
    1XTA   HL1642185  31.748   7.381   6.355
    1XTA   HL1742186  31.888   7.333   6.274
    1XTA   HL1842187  31.693   7.512   6.006
    1XTA   HL1942188  31.859   7.468   6.039
    1XTA   HL2042189  31.799   7.688   6.147
    1XTA   HL2142190  31.840   7.571   6.266
    1XTA   HL2242191  31.670   7.615   6.251
    1XTA   HL2342192  32.208   7.042   5.808
    1XTA   HL2442193  32.262   6.911   5.910
    1XTA   HL2542194  32.257   7.154   6.024
    1XTA   HL2642195  32.090   7.141   6.000
    1XTA   HL2742196  32.139   7.094   6.229
    1XTA   HL2842197  32.053   6.955   6.161
    1XTA   HL2942198  32.294   6.859   6.126
    1XTA   HL3042199  32.357   7.004   6.212
    1XTA   HL3142200  32.230   6.968   6.411
    1XTA   HL3242201  32.155   6.827   6.335
    1XTA   HL3342202  32.465   6.840   6.356
    1XTA   HL3442203  32.376   6.787   6.489
    1XTA   HL3542204  32.485   6.557   6.456
    1XTA   HL3642205  32.582   6.649   6.349
    1XTA   HL3742206  32.447   6.299   6.404
    1XTA   HL3842207  32.427   6.267   6.234
    1XTA   HL3942208  32.232   6.431   6.234
    1XTA   HL4042209  32.243   6.430   6.408
    1XTA   HL4142210  32.209   6.283   6.334
    1XTA    CO842211  31.549   7.375   6.168
    1XTA    CO942212  31.722   7.225   6.051
    1XTA    OA642213  31.476   7.404   6.046
    1XTA   HL4242214  31.542   7.457   6.236
    1XTA   HL4342215  31.503   7.284   6.213
    1XTA   HL4442216  32.672   6.304   6.256
    1XTA   HL4542217  32.733   6.470   6.271
    1XTA   CO1042218  32.657   6.401   6.301
    1XTA   CO1142219  32.512   6.485   6.112
    1XTA    OA742220  32.667   6.383   6.409
    1XTA   HL4642221  32.396   6.542   6.067
    1XTA   HL4742222  32.555   6.580   6.099
    1XTA   HL4842223  31.628   7.170   6.048
    1XTA   HL4942224  31.803   7.155   6.074
    1XTA     NT42225  31.875   4.493   0.191
    1XTA    CN142226  31.884   4.400   0.083
    1XTA     C142227  31.865   4.262   0.108
    1XTA     C242228  31.883   4.171   0.003
    1XTA     C342229  31.916   4.216  -0.127
    1XTA     C442230  31.933   4.356  -0.139
    1XTA     C542231  31.927   4.447  -0.041
    1XTA    CN242232  31.963   4.592   0.210
    1XTA     C642233  31.908   4.724   0.207
    1XTA     C742234  32.001   4.835   0.221
    1XTA     C842235  32.141   4.810   0.243
    1XTA     C942236  32.187   4.681   0.253
    1XTA    C1042237  32.098   4.571   0.232
    1XTA    CN342238  31.772   4.480   0.281
    1XTA    C1142239  31.802   4.431   0.410
    1XTA    C1242240  31.700   4.415   0.505
    1XTA    C1342241  31.567   4.451   0.477
    1XTA    C1442242  31.537   4.498   0.349
    1XTA    C1542243  31.637   4.502   0.246
    1XTA     H142244  31.844   4.236   0.214
    1XTA     H242245  31.862   4.070   0.017
    1XTA     H342246  31.965   4.389  -0.236
    1XTA     H442247  31.938   4.549  -0.061
    1XTA     H542248  31.804   4.738   0.194
    1XTA     H642249  31.960   4.931   0.208
    1XTA     H742250  32.292   4.662   0.265
    1XTA     H842251  32.139   4.469   0.237
    1XTA     H942252  31.904   4.400   0.429
    1XTA    H1042253  31.718   4.384   0.612
    1XTA    H1142254  31.441   4.533   0.325
    1XTA    H1242255  31.612   4.533   0.147
    1XTA    OA142256  31.938   4.126  -0.232
    1XTA    CO142257  31.965   4.170  -0.366
    1XTA    OA242258  32.221   4.916   0.276
    1XTA    CO242259  32.359   4.897   0.263
    1XTA    CL142260  32.427   5.036   0.280
    1XTA    CL242261  32.574   5.021   0.312
    1XTA    CL342262  32.643   4.929   0.213
    1XTA    CL442263  32.790   4.942   0.223
    1XTA    CO342264  32.853   4.855   0.118
    1XTA    OA342265  32.979   4.804   0.161
    1XTA    CO442266  33.089   4.871   0.116
    1XTA    CT142267  33.220   4.828   0.187
    1XTA    CL542268  33.358   4.882   0.136
    1XTA    CL642269  33.486   4.817   0.195
    1XTA    OA442270  31.472   4.440   0.573
    1XTA    CO542271  31.465   4.306   0.624
    1XTA    CL742272  31.315   4.276   0.653
    1XTA    CL842273  31.275   4.126   0.677
    1XTA    CL942274  31.282   4.039   0.545
    1XTA   CL1042275  31.252   3.893   0.570
    1XTA    CO642276  31.296   3.801   0.447
    1XTA    OA542277  31.232   3.862   0.334
    1XTA    CO742278  31.265   3.788   0.215
    1XTA    CT242279  31.263   3.890   0.096
    1XTA   CL1142280  31.354   4.015   0.127
    1XTA   CL1242281  31.511   4.002   0.116
    1XTA    HL142282  31.885   4.239  -0.415
    1XTA    HL242283  32.062   4.213  -0.368
    1XTA    HL342284  31.980   4.088  -0.426
    1XTA    HL442285  32.377   4.839   0.342
    1XTA    HL542286  32.380   4.849   0.171
    1XTA    HL642287  32.361   5.076   0.361
    1XTA    HL742288  32.395   5.090   0.194
    1XTA    HL842289  32.594   4.972   0.409
    1XTA    HL942290  32.619   5.114   0.319
    1XTA   HL1042291  32.598   4.835   0.247
    1XTA   HL1142292  32.610   4.941   0.112
    1XTA   HL1242293  32.817   4.911   0.323
    1XTA   HL1342294  32.828   5.041   0.206
    1XTA   HL1442295  32.789   4.765   0.102
    1XTA   HL1542296  32.858   4.908   0.024
    1XTA   HL1642297  33.095   4.852   0.008
    1XTA   HL1742298  33.075   4.975   0.133
    1XTA   HL1842299  33.370   4.984   0.152
    1XTA   HL1942300  33.356   4.892   0.025
    1XTA   HL2042301  33.484   4.705   0.187
    1XTA   HL2142302  33.489   4.857   0.291
    1XTA   HL2242303  33.567   4.857   0.145
    1XTA   HL2342304  31.532   4.290   0.712
    1XTA   HL2442305  31.499   4.236   0.541
    1XTA   HL2542306  31.292   4.345   0.723
    1XTA   HL2642307  31.249   4.310   0.580
    1XTA   HL2742308  31.325   4.069   0.754
    1XTA   HL2842309  31.169   4.133   0.705
    1XTA   HL2942310  31.223   4.079   0.469
    1XTA   HL3042311  31.379   4.051   0.507
    1XTA   HL3142312  31.295   3.861   0.663
    1XTA   HL3242313  31.144   3.883   0.575
    1XTA   HL3342314  31.401   3.808   0.439
    1XTA   HL3442315  31.256   3.702   0.451
    1XTA   HL3542316  31.195   3.697   0.188
    1XTA   HL3642317  31.366   3.748   0.225
    1XTA   HL3742318  31.330   4.053   0.226
    1XTA   HL3842319  31.316   4.090   0.061
    1XTA   HL3942320  31.555   4.100   0.141
    1XTA   HL4042321  31.533   3.982   0.012
    1XTA   HL4142322  31.548   3.917   0.171
    1XTA    CO842323  33.211   4.678   0.163
    1XTA    CO942324  33.208   4.851   0.335
    1XTA    OA642325  33.221   4.642   0.055
    1XTA   HL4242326  33.117   4.628   0.195
    1XTA   HL4342327  33.278   4.629   0.227
    1XTA   HL4442328  31.147   4.021  -0.014
    1XTA   HL4542329  31.050   3.878   0.021
    1XTA   CO1042330  31.124   3.947   0.058
    1XTA   CO1142331  31.315   3.825  -0.038
    1XTA    OA742332  31.087   3.993   0.150
    1XTA   HL4642333  31.242   3.712  -0.075
    1XTA   HL4742334  31.415   3.794  -0.017
    1XTA   HL4842335  33.100   4.778   0.387
    1XTA   HL4942336  33.276   4.805   0.399
    1XTA     NT42337  31.630   4.517   1.036
    1XTA    CN142338  31.699   4.598   0.948
    1XTA     C142339  31.792   4.687   0.993
    1XTA     C242340  31.889   4.746   0.905
    1XTA     C342341  31.883   4.721   0.768
    1XTA     C442342  31.781   4.636   0.723
    1XTA     C542343  31.686   4.577   0.812
    1XTA    CN242344  31.494   4.516   1.025
    1XTA     C642345  31.436   4.393   1.008
    1XTA     C742346  31.299   4.380   1.016
    1XTA     C842347  31.218   4.495   1.012
    1XTA     C942348  31.281   4.619   1.027
    1XTA    C1042349  31.418   4.627   1.052
    1XTA    CN342350  31.700   4.437   1.122
    1XTA    C1142351  31.796   4.349   1.068
    1XTA    C1242352  31.874   4.276   1.156
    1XTA    C1342353  31.871   4.301   1.293
    1XTA    C1442354  31.767   4.376   1.341
    1XTA    C1542355  31.678   4.444   1.261
    1XTA     H142356  31.799   4.716   1.095
    1XTA     H242357  31.957   4.820   0.942
    1XTA     H342358  31.769   4.601   0.628
    1XTA     H442359  31.611   4.511   0.775
    1XTA     H542360  31.493   4.303   0.990
    1XTA     H642361  31.264   4.270   1.013
    1XTA     H742362  31.224   4.717   1.015
    1XTA     H842363  31.463   4.721   1.071
    1XTA     H942364  31.802   4.350   0.958
    1XTA    H1042365  31.958   4.213   1.123
    1XTA    H1142366  31.770   4.396   1.451
    1XTA    H1242367  31.607   4.517   1.306
    1XTA    OA142368  31.970   4.788   0.685
    1XTA    CO142369  31.983   4.727   0.560
    1XTA    OA242370  31.079   4.486   0.988
    1XTA    CO242371  31.048   4.558   0.873
    1XTA    CL142372  30.903   4.532   0.830
    1XTA    CL242373  30.889   4.536   0.675
    1XTA    CL342374  30.745   4.584   0.637
    1XTA    CL442375  30.720   4.734   0.657
    1XTA    CO342376  30.592   4.795   0.617
    1XTA    OA342377  30.578   4.935   0.634
    1XTA    CO442378  30.568   4.960   0.775
    1XTA    CT142379  30.551   5.112   0.816
    1XTA    CL542380  30.491   5.113   0.963
    1XTA    CL642381  30.572   5.057   1.075
    1XTA    OA442382  31.958   4.246   1.386
    1XTA    CO542383  32.092   4.258   1.350
    1XTA    CL742384  32.182   4.202   1.466
    1XTA    CL842385  32.169   4.289   1.589
    1XTA    CL942386  32.260   4.251   1.705
    1XTA   CL1042387  32.230   4.340   1.832
    1XTA    CO642388  32.288   4.283   1.956
    1XTA    OA542389  32.295   4.385   2.062
    1XTA    CO742390  32.182   4.383   2.147
    1XTA    CT242391  32.153   4.529   2.188
    1XTA   CL1142392  32.121   4.614   2.060
    1XTA   CL1242393  32.094   4.763   2.086
    1XTA    HL142394  32.065   4.767   0.502
    1XTA    HL242395  32.001   4.617   0.571
    1XTA    HL342396  31.893   4.745   0.502
    1XTA    HL442397  31.071   4.657   0.874
    1XTA    HL542398  31.117   4.511   0.807
    1XTA    HL642399  30.830   4.593   0.878
    1XTA    HL742400  30.869   4.431   0.858
    1XTA    HL842401  30.924   4.444   0.630
    1XTA    HL942402  30.956   4.605   0.635
    1XTA   HL1042403  30.710   4.564   0.533
    1XTA   HL1142404  30.667   4.529   0.689
    1XTA   HL1242405  30.801   4.792   0.616
    1XTA   HL1342406  30.733   4.750   0.763
    1XTA   HL1442407  30.584   4.788   0.509
    1XTA   HL1542408  30.510   4.746   0.669
    1XTA   HL1642409  30.477   4.902   0.796
    1XTA   HL1742410  30.641   4.912   0.834
    1XTA   HL1842411  30.401   5.054   0.953
    1XTA   HL1942412  30.476   5.222   0.983
    1XTA   HL2042413  30.594   4.949   1.053
    1XTA   HL2142414  30.516   5.064   1.172
    1XTA   HL2242415  30.672   5.093   1.098
    1XTA   HL2342416  32.119   4.360   1.339
    1XTA   HL2442417  32.116   4.202   1.257
    1XTA   HL2542418  32.146   4.101   1.489
    1XTA   HL2642419  32.291   4.203   1.442
    1XTA   HL2742420  32.186   4.397   1.570
    1XTA   HL2842421  32.066   4.284   1.620
    1XTA   HL2942422  32.250   4.146   1.740
    1XTA   HL3042423  32.362   4.272   1.666
    1XTA   HL3142424  32.264   4.441   1.828
    1XTA   HL3242425  32.122   4.361   1.851
    1XTA   HL3342426  32.242   4.190   1.999
    1XTA   HL3442427  32.388   4.255   1.938
    1XTA   HL3542428  32.211   4.322   2.235
    1XTA   HL3642429  32.094   4.344   2.093
    1XTA   HL3742430  32.035   4.571   2.009
    1XTA   HL3842431  32.207   4.600   1.989
    1XTA   HL3942432  32.183   4.821   2.107
    1XTA   HL4042433  32.030   4.764   2.175
    1XTA   HL4142434  32.046   4.803   2.001
    1XTA    CO842435  30.456   5.187   0.721
    1XTA    CO942436  30.688   5.183   0.800
    1XTA    OA642437  30.429   5.318   0.778
    1XTA   HL4242438  30.367   5.138   0.696
    1XTA   HL4342439  30.502   5.210   0.623
    1XTA   HL4442440  32.355   4.592   2.191
    1XTA   HL4542441  32.335   4.511   2.366
    1XTA   CO1042442  32.275   4.595   2.264
    1XTA   CO1142443  32.031   4.525   2.281
    1XTA    OA742444  31.938   4.494   2.233
    1XTA   HL4642445  32.038   4.461   2.376
    1XTA   HL4742446  32.005   4.622   2.322
    1XTA   HL4842447  30.712   5.175   0.695
    1XTA   HL4942448  30.691   5.294   0.816
    1XTA     NT42449  30.056   1.301   0.361
    1XTA    CN142450  30.007   1.295   0.485
    1XTA     C142451  29.914   1.389   0.524
    1XTA     C242452  29.869   1.405   0.652
    1XTA     C342453  29.919   1.309   0.744
    1XTA     C442454  30.011   1.209   0.711
    1XTA     C542455  30.049   1.195   0.577
    1XTA    CN242456  30.072   1.183   0.300
    1XTA     C642457  30.202   1.133   0.277
    1XTA     C742458  30.214   1.002   0.227
    1XTA     C842459  30.102   0.928   0.180
    1XTA     C942460  29.976   0.989   0.191
    1XTA    C1042461  29.958   1.112   0.249
    1XTA    CN342462  30.103   1.418   0.305
    1XTA    C1142463  30.212   1.488   0.361
    1XTA    C1242464  30.255   1.615   0.304
    1XTA    C1342465  30.191   1.669   0.193
    1XTA    C1442466  30.093   1.591   0.129
    1XTA    C1542467  30.046   1.473   0.185
    1XTA     H142468  29.879   1.461   0.447
    1XTA     H242469  29.805   1.485   0.680
    1XTA     H342470  30.053   1.140   0.781
    1XTA     H442471  30.128   1.129   0.550
    1XTA     H542472  30.285   1.196   0.316
    1XTA     H642473  30.312   0.972   0.238
    1XTA     H742474  29.893   0.928   0.159
    1XTA     H842475  29.859   1.161   0.247
    1XTA     H942476  30.244   1.452   0.458
    1XTA    H1042477  30.331   1.670   0.357
    1XTA    H1142478  30.058   1.631   0.037
    1XTA    H1242479  29.971   1.418   0.133
    1XTA    OA142480  29.894   1.319   0.877
    1XTA    CO142481  29.814   1.427   0.927
    1XTA    OA242482  30.107   0.798   0.126
    1XTA    CO242483  30.232   0.736   0.130
    1XTA    CL142484  30.279   0.696   0.270
    1XTA    CL242485  30.436   0.710   0.289
    1XTA    CL342486  30.524   0.650   0.183
    1XTA    CL442487  30.500   0.506   0.170
    1XTA    CO342488  30.550   0.459   0.028
    1XTA    OA342489  30.477   0.342  -0.002
    1XTA    CO442490  30.363   0.379  -0.081
    1XTA    CT142491  30.391   0.337  -0.228
    1XTA    CL542492  30.266   0.381  -0.308
    1XTA    CL642493  30.240   0.525  -0.301
    1XTA    OA442494  30.229   1.774   0.120
    1XTA    CO542495  30.361   1.815   0.120
    1XTA    CL742496  30.443   1.772  -0.003
    1XTA    CL842497  30.430   1.619  -0.035
    1XTA    CL942498  30.519   1.586  -0.153
    1XTA   CL1042499  30.447   1.599  -0.291
    1XTA    CO642500  30.540   1.554  -0.405
    1XTA    OA542501  30.480   1.603  -0.529
    1XTA    CO742502  30.582   1.605  -0.637
    1XTA    CT242503  30.516   1.612  -0.768
    1XTA   CL1142504  30.435   1.748  -0.778
    1XTA   CL1242505  30.385   1.790  -0.914
    1XTA    HL142506  29.809   1.428   1.037
    1XTA    HL242507  29.865   1.516   0.898
    1XTA    HL342508  29.717   1.432   0.873
    1XTA    HL442509  30.232   0.656   0.059
    1XTA    HL542510  30.307   0.808   0.093
    1XTA    HL642511  30.255   0.593   0.304
    1XTA    HL742512  30.214   0.752   0.334
    1XTA    HL842513  30.448   0.662   0.384
    1XTA    HL942514  30.464   0.813   0.306
    1XTA   HL1042515  30.509   0.698   0.093
    1XTA   HL1142516  30.630   0.671   0.199
    1XTA   HL1242517  30.393   0.488   0.161
    1XTA   HL1342518  30.534   0.449   0.258
    1XTA   HL1442519  30.533   0.536  -0.046
    1XTA   HL1542520  30.653   0.424   0.027
    1XTA   HL1642521  30.285   0.315  -0.049
    1XTA   HL1742522  30.327   0.475  -0.071
    1XTA   HL1842523  30.180   0.331  -0.272
    1XTA   HL1942524  30.273   0.343  -0.413
    1XTA   HL2042525  30.166   0.557  -0.383
    1XTA   HL2142526  30.326   0.595  -0.304
    1XTA   HL2242527  30.190   0.548  -0.207
    1XTA   HL2342528  30.416   1.784   0.206
    1XTA   HL2442529  30.372   1.924   0.126
    1XTA   HL2542530  30.411   1.821  -0.094
    1XTA   HL2642531  30.546   1.794   0.011
    1XTA   HL2742532  30.465   1.570   0.053
    1XTA   HL2842533  30.330   1.598  -0.056
    1XTA   HL2942534  30.617   1.631  -0.153
    1XTA   HL3042535  30.549   1.477  -0.139
    1XTA   HL3142536  30.358   1.540  -0.295
    1XTA   HL3242537  30.416   1.704  -0.306
    1XTA   HL3342538  30.632   1.610  -0.402
    1XTA   HL3442539  30.562   1.451  -0.419
    1XTA   HL3542540  30.642   1.516  -0.627
    1XTA   HL3642541  30.641   1.698  -0.622
    1XTA   HL3742542  30.502   1.830  -0.742
    1XTA   HL3842543  30.356   1.746  -0.703
    1XTA   HL3942544  30.341   1.893  -0.909
    1XTA   HL4042545  30.316   1.710  -0.938
    1XTA   HL4142546  30.453   1.786  -1.000
    1XTA    CO842547  30.397   0.186  -0.226
    1XTA    CO942548  30.520   0.389  -0.294
    1XTA    OA642549  30.407   0.128  -0.358
    1XTA   HL4242550  30.304   0.148  -0.172
    1XTA   HL4342551  30.480   0.146  -0.169
    1XTA   HL4442552  30.336   1.513  -0.716
    1XTA   HL4542553  30.367   1.505  -0.869
    1XTA   CO1042554  30.419   1.500  -0.778
    1XTA   CO1142555  30.615   1.596  -0.892
    1XTA    OA742556  30.472   1.371  -0.760
    1XTA   HL4642557  30.646   1.495  -0.882
    1XTA   HL4742558  30.564   1.596  -0.987
    1XTA   HL4842559  30.607   0.342  -0.248
    1XTA   HL4942560  30.519   0.372  -0.397
    1XTA     NT42561  25.447   3.482   1.536
    1XTA    CN142562  25.492   3.579   1.456
    1XTA     C142563  25.447   3.589   1.322
    1XTA     C242564  25.492   3.681   1.224
    1XTA     C342565  25.588   3.776   1.270
    1XTA     C442566  25.651   3.761   1.394
    1XTA     C542567  25.600   3.664   1.488
    1XTA    CN242568  25.412   3.506   1.669
    1XTA     C642569  25.509   3.518   1.772
    1XTA     C742570  25.468   3.553   1.897
    1XTA     C842571  25.331   3.574   1.930
    1XTA     C942572  25.232   3.556   1.826
    1XTA    C1042573  25.274   3.523   1.698
    1XTA    CN342574  25.470   3.356   1.502
    1XTA    C1142575  25.376   3.281   1.426
    1XTA    C1242576  25.406   3.147   1.378
    1XTA    C1342577  25.533   3.095   1.390
    1XTA    C1442578  25.631   3.171   1.462
    1XTA    C1542579  25.601   3.300   1.513
    1XTA     H142580  25.370   3.513   1.300
    1XTA     H242581  25.451   3.691   1.121
    1XTA     H342582  25.732   3.819   1.429
    1XTA     H442583  25.649   3.654   1.579
    1XTA     H542584  25.611   3.492   1.747
    1XTA     H642585  25.550   3.570   1.967
    1XTA     H742586  25.127   3.551   1.844
    1XTA     H842587  25.199   3.513   1.619
    1XTA     H942588  25.281   3.336   1.416
    1XTA    H1042589  25.329   3.103   1.327
    1XTA    H1142590  25.725   3.119   1.486
    1XTA    H1242591  25.675   3.352   1.565
    1XTA    OA142592  25.637   3.876   1.188
    1XTA    CO142593  25.586   3.870   1.050
    1XTA    OA242594  25.292   3.592   2.062
    1XTA    CO242595  25.391   3.564   2.167
    1XTA    CL142596  25.326   3.590   2.307
    1XTA    CL242597  25.426   3.595   2.421
    1XTA    CL342598  25.368   3.644   2.553
    1XTA    CL442599  25.461   3.746   2.624
    1XTA    CO342600  25.408   3.755   2.768
    1XTA    OA342601  25.470   3.872   2.818
    1XTA    CO442602  25.471   3.875   2.964
    1XTA    CT142603  25.602   3.828   3.026
    1XTA    CL542604  25.589   3.818   3.187
    1XTA    CL642605  25.472   3.730   3.240
    1XTA    OA442606  25.552   2.971   1.341
    1XTA    CO542607  25.683   2.926   1.315
    1XTA    CL742608  25.682   2.802   1.225
    1XTA    CL842609  25.817   2.756   1.182
    1XTA    CL942610  25.898   2.691   1.299
    1XTA   CL1042611  26.048   2.737   1.313
    1XTA    CO642612  26.144   2.665   1.223
    1XTA    OA542613  26.116   2.685   1.085
    1XTA    CO742614  26.185   2.795   1.037
    1XTA    CT242615  26.146   2.811   0.889
    1XTA   CL1142616  26.227   2.924   0.834
    1XTA   CL1242617  26.209   3.060   0.902
    1XTA    HL142618  25.635   3.950   0.990
    1XTA    HL242619  25.611   3.773   1.009
    1XTA    HL342620  25.482   3.885   1.037
    1XTA    HL442621  25.421   3.465   2.169
    1XTA    HL542622  25.470   3.628   2.147
    1XTA    HL642623  25.241   3.523   2.329
    1XTA    HL742624  25.279   3.688   2.295
    1XTA    HL842625  25.509   3.658   2.388
    1XTA    HL942626  25.475   3.503   2.429
    1XTA   HL1042627  25.272   3.700   2.535
    1XTA   HL1142628  25.342   3.564   2.625
    1XTA   HL1242629  25.451   3.844   2.577
    1XTA   HL1342630  25.570   3.734   2.632
    1XTA   HL1442631  25.303   3.764   2.769
    1XTA   HL1542632  25.430   3.667   2.821
    1XTA   HL1642633  25.447   3.976   3.011
    1XTA   HL1742634  25.393   3.822   2.998
    1XTA   HL1842635  25.572   3.918   3.234
    1XTA   HL1942636  25.683   3.789   3.226
    1XTA   HL2042637  25.374   3.759   3.200
    1XTA   HL2142638  25.464   3.747   3.348
    1XTA   HL2242639  25.503   3.623   3.218
    1XTA   HL2342640  25.745   2.909   1.407
    1XTA   HL2442641  25.731   3.005   1.264
    1XTA   HL2542642  25.614   2.728   1.278
    1XTA   HL2642643  25.639   2.827   1.130
    1XTA   HL2742644  25.804   2.671   1.113
    1XTA   HL2842645  25.883   2.826   1.132
    1XTA   HL2942646  25.841   2.708   1.401
    1XTA   HL3042647  25.884   2.580   1.301
    1XTA   HL3142648  26.052   2.846   1.306
    1XTA   HL3242649  26.065   2.709   1.415
    1XTA   HL3342650  26.246   2.669   1.254
    1XTA   HL3442651  26.125   2.556   1.235
    1XTA   HL3542652  26.290   2.779   1.053
    1XTA   HL3642653  26.160   2.879   1.091
    1XTA   HL3742654  26.199   2.944   0.732
    1XTA   HL3842655  26.330   2.900   0.835
    1XTA   HL3942656  26.110   3.109   0.888
    1XTA   HL4042657  26.279   3.142   0.872
    1XTA   HL4142658  26.229   3.045   1.007
    1XTA    CO842659  25.713   3.928   2.988
    1XTA    CO942660  25.643   3.693   2.961
    1XTA    OA642661  25.714   4.043   3.069
    1XTA   HL4242662  25.703   3.952   2.883
    1XTA   HL4342663  25.809   3.881   2.998
    1XTA   HL4442664  25.987   2.942   0.948
    1XTA   HL4542665  25.948   2.769   0.925
    1XTA   CO1042666  25.999   2.852   0.880
    1XTA   CO1142667  26.168   2.680   0.812
    1XTA    OA742668  26.303   2.636   0.823
    1XTA   HL4642669  26.094   2.605   0.848
    1XTA   HL4742670  26.142   2.695   0.706
    1XTA   HL4842671  25.558   3.625   2.984
    1XTA   HL4942672  25.664   3.696   2.850
    1XTA     NT42673  32.724   0.744   3.306
    1XTA    CN142674  32.788   0.857   3.344
    1XTA     C142675  32.825   0.888   3.480
    1XTA     C242676  32.881   1.013   3.514
    1XTA     C342677  32.901   1.112   3.415
    1XTA     C442678  32.876   1.071   3.279
    1XTA     C542679  32.822   0.949   3.245
    1XTA    CN242680  32.603   0.732   3.362
    1XTA     C642681  32.491   0.796   3.308
    1XTA     C742682  32.365   0.768   3.367
    1XTA     C842683  32.354   0.683   3.480
    1XTA     C942684  32.463   0.614   3.530
    1XTA    C1042685  32.588   0.641   3.471
    1XTA    CN342686  32.789   0.639   3.257
    1XTA    C1142687  32.741   0.589   3.132
    1XTA    C1242688  32.807   0.473   3.081
    1XTA    C1342689  32.913   0.409   3.147
    1XTA    C1442690  32.958   0.464   3.273
    1XTA    C1542691  32.888   0.568   3.332
    1XTA     H142692  32.813   0.809   3.556
    1XTA     H242693  32.919   1.014   3.611
    1XTA     H342694  32.898   1.142   3.199
    1XTA     H442695  32.815   0.942   3.133
    1XTA     H542696  32.494   0.865   3.221
    1XTA     H642697  32.286   0.822   3.321
    1XTA     H742698  32.462   0.549   3.618
    1XTA     H842699  32.672   0.586   3.506
    1XTA     H942700  32.667   0.638   3.077
    1XTA    H1042701  32.790   0.439   2.980
    1XTA    H1142702  33.041   0.412   3.327
    1XTA    H1242703  32.918   0.605   3.430
    1XTA    OA142704  32.947   1.240   3.434
    1XTA    CO142705  33.018   1.265   3.564
    1XTA    OA242706  32.230   0.668   3.538
    1XTA    CO242707  32.189   0.534   3.563
    1XTA    CL142708  32.110   0.513   3.689
    1XTA    CL242709  32.169   0.595   3.808
    1XTA    CL342710  32.059   0.642   3.906
    1XTA    CL442711  31.956   0.742   3.855
    1XTA    CO342712  32.006   0.849   3.761
    1XTA    OA342713  32.134   0.900   3.800
    1XTA    CO442714  32.194   0.961   3.692
    1XTA    CT142715  32.312   1.044   3.748
    1XTA    CL542716  32.360   1.137   3.637
    1XTA    CL642717  32.409   1.073   3.506
    1XTA    OA442718  32.960   0.288   3.088
    1XTA    CO542719  33.080   0.234   3.147
    1XTA    CL742720  33.113   0.118   3.049
    1XTA    CL842721  33.198   0.004   3.102
    1XTA    CL942722  33.223  -0.096   2.999
    1XTA   CL1042723  33.273  -0.234   3.050
    1XTA    CO642724  33.401  -0.225   3.135
    1XTA    OA542725  33.354  -0.212   3.266
    1XTA    CO742726  33.451  -0.238   3.362
    1XTA    CT242727  33.434  -0.145   3.480
    1XTA   CL1142728  33.565  -0.170   3.557
    1XTA   CL1242729  33.579  -0.113   3.699
    1XTA    HL142730  33.070   1.180   3.613
    1XTA    HL242731  33.093   1.336   3.533
    1XTA    HL342732  32.949   1.298   3.644
    1XTA    HL442733  32.114   0.497   3.493
    1XTA    HL542734  32.270   0.462   3.561
    1XTA    HL642735  32.097   0.405   3.701
    1XTA    HL742736  32.007   0.542   3.671
    1XTA    HL842737  32.228   0.677   3.777
    1XTA    HL942738  32.244   0.538   3.868
    1XTA   HL1042739  31.994   0.553   3.942
    1XTA   HL1142740  32.101   0.688   3.994
    1XTA   HL1242741  31.915   0.800   3.946
    1XTA   HL1342742  31.870   0.679   3.816
    1XTA   HL1442743  32.022   0.798   3.669
    1XTA   HL1542744  31.937   0.930   3.744
    1XTA   HL1642745  32.214   0.896   3.602
    1XTA   HL1742746  32.128   1.038   3.647
    1XTA   HL1842747  32.451   1.194   3.658
    1XTA   HL1942748  32.285   1.214   3.617
    1XTA   HL2042749  32.475   0.990   3.533
    1XTA   HL2142750  32.463   1.140   3.440
    1XTA   HL2242751  32.322   1.032   3.445
    1XTA   HL2342752  33.062   0.191   3.247
    1XTA   HL2442753  33.157   0.301   3.151
    1XTA   HL2542754  33.030   0.075   3.002
    1XTA   HL2642755  33.170   0.164   2.967
    1XTA   HL2742756  33.282   0.035   3.157
    1XTA   HL2842757  33.140  -0.042   3.182
    1XTA   HL2942758  33.137  -0.112   2.942
    1XTA   HL3042759  33.294  -0.055   2.927
    1XTA   HL3142760  33.200  -0.276   3.113
    1XTA   HL3242761  33.278  -0.306   2.968
    1XTA   HL3342762  33.460  -0.318   3.123
    1XTA   HL3442763  33.468  -0.132   3.129
    1XTA   HL3542764  33.547  -0.221   3.319
    1XTA   HL3642765  33.440  -0.343   3.396
    1XTA   HL3742766  33.651  -0.132   3.501
    1XTA   HL3842767  33.575  -0.280   3.554
    1XTA   HL3942768  33.579  -0.004   3.708
    1XTA   HL4042769  33.673  -0.140   3.750
    1XTA   HL4142770  33.500  -0.164   3.756
    1XTA    CO842771  32.432   0.959   3.804
    1XTA    CO942772  32.246   1.138   3.852
    1XTA    OA642773  32.323   1.253   3.886
    1XTA   HL4242774  32.519   0.991   3.750
    1XTA   HL4342775  32.411   0.857   3.770
    1XTA   HL4442776  33.324  -0.123   3.650
    1XTA   HL4542777  33.316  -0.317   3.606
    1XTA   CO1042778  33.313  -0.185   3.555
    1XTA   CO1142779  33.400  -0.001   3.431
    1XTA    OA742780  33.413   0.083   3.503
    1XTA   HL4642781  33.474   0.025   3.353
    1XTA   HL4742782  33.302   0.015   3.392
    1XTA   HL4842783  32.219   1.079   3.938
    1XTA   HL4942784  32.157   1.175   3.817
    1XTA     NT42785  33.432   0.367   6.442
    1XTA    CN142786  33.544   0.441   6.464
    1XTA     C142787  33.535   0.563   6.536
    1XTA     C242788  33.658   0.629   6.579
    1XTA     C342789  33.783   0.580   6.542
    1XTA     C442790  33.793   0.465   6.467
    1XTA     C542791  33.676   0.393   6.426
    1XTA    CN242792  33.386   0.288   6.536
    1XTA     C642793  33.443   0.161   6.536
    1XTA     C742794  33.410   0.069   6.638
    1XTA     C842795  33.331   0.111   6.739
    1XTA     C942796  33.281   0.242   6.752
    1XTA    C1042797  33.310   0.328   6.645
    1XTA    CN342798  33.368   0.357   6.322
    1XTA    C1142799  33.242   0.394   6.305
    1XTA    C1242800  33.181   0.385   6.177
    1XTA    C1342801  33.255   0.340   6.069
    1XTA    C1442802  33.383   0.288   6.087
    1XTA    C1542803  33.439   0.295   6.214
    1XTA     H142804  33.434   0.603   6.567
    1XTA     H242805  33.654   0.716   6.644
    1XTA     H342806  33.888   0.437   6.427
    1XTA     H442807  33.683   0.293   6.377
    1XTA     H542808  33.503   0.126   6.449
    1XTA     H642809  33.443  -0.033   6.635
    1XTA     H742810  33.224   0.277   6.832
    1XTA     H842811  33.275   0.435   6.659
    1XTA     H942812  33.183   0.433   6.387
    1XTA    H1042813  33.076   0.413   6.162
    1XTA    H1142814  33.439   0.246   6.009
    1XTA    H1242815  33.533   0.246   6.237
    1XTA    OA142816  33.901   0.633   6.586
    1XTA    CO142817  33.901   0.750   6.673
    1XTA    OA242818  33.308   0.016   6.841
    1XTA    CO242819  33.288   0.059   6.969
    1XTA    CL142820  33.326  -0.058   7.071
    1XTA    CL242821  33.469  -0.107   7.066
    1XTA    CL342822  33.483  -0.248   7.120
    1XTA    CL442823  33.627  -0.291   7.148
    1XTA    CO342824  33.641  -0.447   7.144
    1XTA    OA342825  33.773  -0.468   7.191
    1XTA    CO442826  33.806  -0.603   7.208
    1XTA    CT142827  33.943  -0.630   7.268
    1XTA    CL542828  33.982  -0.767   7.221
    1XTA    CL642829  33.882  -0.883   7.261
    1XTA    OA442830  33.195   0.319   5.946
    1XTA    CO542831  33.101   0.425   5.917
    1XTA    CL742832  33.058   0.426   5.773
    1XTA    CL842833  32.969   0.552   5.742
    1XTA    CL942834  33.047   0.681   5.743
    1XTA   CL1042835  32.967   0.791   5.674
    1XTA    CO642836  33.021   0.926   5.696
    1XTA    OA542837  33.155   0.943   5.644
    1XTA    CO742838  33.208   1.059   5.681
    1XTA    CT242839  33.360   1.063   5.650
    1XTA   CL1142840  33.440   0.931   5.670
    1XTA   CL1242841  33.410   0.879   5.810
    1XTA    HL142842  33.861   0.724   6.770
    1XTA    HL242843  34.006   0.780   6.680
    1XTA    HL342844  33.849   0.831   6.627
    1XTA    HL442845  33.348   0.146   6.992
    1XTA    HL542846  33.183   0.088   6.979
    1XTA    HL642847  33.257  -0.144   7.067
    1XTA    HL742848  33.300  -0.018   7.172
    1XTA    HL842849  33.527  -0.036   7.128
    1XTA    HL942850  33.503  -0.103   6.965
    1XTA   HL1042851  33.420  -0.258   7.208
    1XTA   HL1142852  33.436  -0.306   7.035
    1XTA   HL1242853  33.657  -0.250   7.249
    1XTA   HL1342854  33.694  -0.244   7.068
    1XTA   HL1442855  33.562  -0.496   7.203
    1XTA   HL1542856  33.626  -0.468   7.039
    1XTA   HL1642857  33.737  -0.641   7.282
    1XTA   HL1742858  33.783  -0.657   7.113
    1XTA   HL1842859  34.067  -0.803   7.271
    1XTA   HL1942860  34.000  -0.758   7.113
    1XTA   HL2042861  33.867  -0.900   7.371
    1XTA   HL2142862  33.933  -0.976   7.242
    1XTA   HL2242863  33.790  -0.886   7.205
    1XTA   HL2342864  33.144   0.522   5.947
    1XTA   HL2442865  33.009   0.404   5.969
    1XTA   HL2542866  33.147   0.448   5.721
    1XTA   HL2642867  33.029   0.329   5.731
    1XTA   HL2742868  32.932   0.550   5.649
    1XTA   HL2842869  32.889   0.543   5.806
    1XTA   HL2942870  33.072   0.699   5.845
    1XTA   HL3042871  33.132   0.677   5.680
    1XTA   HL3142872  32.964   0.773   5.564
    1XTA   HL3242873  32.861   0.795   5.715
    1XTA   HL3342874  32.964   0.996   5.640
    1XTA   HL3442875  33.018   0.959   5.801
    1XTA   HL3542876  33.180   1.060   5.791
    1XTA   HL3642877  33.157   1.142   5.628
    1XTA   HL3742878  33.545   0.950   5.654
    1XTA   HL3842879  33.414   0.851   5.602
    1XTA   HL3942880  33.315   0.828   5.811
    1XTA   HL4042881  33.394   0.951   5.888
    1XTA   HL4142882  33.480   0.807   5.850
    1XTA    CO842883  33.941  -0.611   7.423
    1XTA    CO942884  34.039  -0.526   7.216
    1XTA    OA642885  34.034  -0.629   7.472
    1XTA   HL4242886  33.862  -0.682   7.462
    1XTA   HL4342887  33.906  -0.506   7.438
    1XTA   HL4442888  33.335   1.308   5.692
    1XTA   HL4542889  33.516   1.208   5.709
    1XTA   CO1042890  33.410   1.191   5.718
    1XTA   CO1142891  33.376   1.098   5.502
    1XTA    OA742892  33.482   1.086   5.462
    1XTA   HL4642893  33.305   1.047   5.433
    1XTA   HL4742894  33.344   1.207   5.489
    1XTA   HL4842895  33.999  -0.512   7.084
    1XTA   HL4942896  34.002  -0.435   7.262
    1XTA     NT42897  31.310   7.204   6.500
    1XTA    CN142898  31.365   7.328   6.504
    1XTA     C142899  31.304   7.436   6.443
    1XTA     C242900  31.367   7.565   6.449
    1XTA     C342901  31.486   7.587   6.515
    1XTA     C442902  31.542   7.477   6.581
    1XTA     C542903  31.487   7.348   6.575
    1XTA    CN242904  31.229   7.162   6.598
    1XTA     C642905  31.098   7.199   6.604
    1XTA     C742906  31.013   7.146   6.704
    1XTA     C842907  31.059   7.052   6.803
    1XTA     C942908  31.198   7.019   6.793
    1XTA    C1042909  31.276   7.073   6.695
    1XTA    CN342910  31.343   7.117   6.396
    1XTA    C1142911  31.460   7.043   6.406
    1XTA    C1242912  31.508   6.963   6.300
    1XTA    C1342913  31.420   6.954   6.182
    1XTA    C1442914  31.302   7.026   6.180
    1XTA    C1542915  31.267   7.109   6.285
    1XTA     H142916  31.215   7.425   6.385
    1XTA     H242917  31.323   7.647   6.393
    1XTA     H342918  31.640   7.489   6.625
    1XTA     H442919  31.529   7.264   6.622
    1XTA     H542920  31.054   7.256   6.522
    1XTA     H642921  30.910   7.179   6.706
    1XTA     H742922  31.242   6.943   6.860
    1XTA     H842923  31.375   7.032   6.684
    1XTA     H942924  31.514   7.045   6.500
    1XTA    H1042925  31.602   6.908   6.317
    1XTA    H1142926  31.233   7.018   6.100
    1XTA    H1242927  31.176   7.169   6.278
    1XTA    OA142928  31.568   7.700   6.524
    1XTA    CO142929  31.532   7.807   6.435
    1XTA    OA242930  30.987   6.986   6.901
    1XTA    CO242931  30.851   7.022   6.910
    1XTA    CL142932  30.795   6.906   6.998
    1XTA    CL242933  30.655   6.939   7.035
    1XTA    CL342934  30.645   7.011   7.170
    1XTA    CL442935  30.512   7.085   7.188
    1XTA    CO342936  30.503   7.204   7.097
    1XTA    OA342937  30.399   7.298   7.140
    1XTA    CO442938  30.449   7.397   7.233
    1XTA    CT142939  30.347   7.469   7.322
    1XTA    CL542940  30.242   7.543   7.237
    1XTA    CL642941  30.304   7.658   7.156
    1XTA    OA442942  31.443   6.864   6.085
    1XTA    CO542943  31.511   6.745   6.101
    1XTA    CL742944  31.467   6.648   6.000
    1XTA    CL842945  31.313   6.623   6.000
    1XTA    CL942946  31.259   6.540   6.114
    1XTA   CL1042947  31.163   6.606   6.204
    1XTA    CO642948  31.028   6.633   6.144
    1XTA    OA542949  30.984   6.756   6.199
    1XTA    CO742950  30.859   6.788   6.136
    1XTA    CT242951  30.807   6.928   6.159
    1XTA   CL1142952  30.771   6.945   6.304
    1XTA   CL1242953  30.891   6.986   6.392
    1XTA    HL142954  31.435   7.851   6.480
    1XTA    HL242955  31.618   7.872   6.459
    1XTA    HL342956  31.514   7.784   6.329
    1XTA    HL442957  30.835   7.125   6.946
    1XTA    HL542958  30.810   7.009   6.810
    1XTA    HL642959  30.851   6.884   7.085
    1XTA    HL742960  30.801   6.814   6.950
    1XTA    HL842961  30.591   6.844   7.044
    1XTA    HL942962  30.613   7.002   6.958
    1XTA   HL1042963  30.647   6.928   7.240
    1XTA   HL1142964  30.734   7.065   7.189
    1XTA   HL1242965  30.512   7.137   7.289
    1XTA   HL1342966  30.427   7.013   7.185
    1XTA   HL1442967  30.595   7.256   7.085
    1XTA   HL1542968  30.477   7.188   7.001
    1XTA   HL1642969  30.535   7.360   7.294
    1XTA   HL1742970  30.491   7.479   7.167
    1XTA   HL1842971  30.173   7.582   7.307
    1XTA   HL1942972  30.182   7.467   7.183
    1XTA   HL2042973  30.353   7.740   7.221
    1XTA   HL2142974  30.232   7.695   7.082
    1XTA   HL2242975  30.388   7.626   7.090
    1XTA   HL2342976  31.485   6.704   6.196
    1XTA   HL2442977  31.618   6.757   6.088
    1XTA   HL2542978  31.480   6.689   5.905
    1XTA   HL2642979  31.524   6.556   6.005
    1XTA   HL2742980  31.263   6.718   5.991
    1XTA   HL2842981  31.292   6.578   5.902
    1XTA   HL2942982  31.234   6.439   6.083
    1XTA   HL3042983  31.343   6.520   6.179
    1XTA   HL3142984  31.136   6.539   6.282
    1XTA   HL3242985  31.202   6.700   6.249
    1XTA   HL3342986  31.024   6.636   6.036
    1XTA   HL3442987  30.953   6.556   6.159
    1XTA   HL3542988  30.790   6.706   6.155
    1XTA   HL3642989  30.880   6.795   6.024
    1XTA   HL3742990  30.738   6.844   6.331
    1XTA   HL3842991  30.694   7.022   6.322
    1XTA   HL3942992  30.969   6.916   6.406
    1XTA   HL4042993  30.864   6.990   6.488
    1XTA   HL4142994  30.958   7.070   6.355
    1XTA    CO842995  30.417   7.564   7.436
    1XTA    CO942996  30.274   7.361   7.401
    1XTA    OA642997  30.548   7.607   7.412
    1XTA   HL4242998  30.425   7.500   7.533
    1XTA   HL4342999  30.352   7.656   7.459
    1XTA   HL4443000  30.628   6.855   6.095
    1XTA   HL4543001  30.622   7.023   6.095
    1XTA   CO1043002  30.688   6.941   6.071
    1XTA   CO1143003  30.902   7.042   6.102
    1XTA    OA743004  30.712   6.945   5.959
    1XTA   HL4643005  30.933   7.015   5.969
    1XTA   HL4743006  31.003   7.030   6.144
    1XTA   HL4843007  30.355   7.311   7.457
    1XTA   HL4943008  30.228   7.413   7.483
    1XTA     NT43009  34.036   5.178   5.309
    1XTA    CN143010  34.067   5.096   5.205
    1XTA     C143011  34.195   5.098   5.148
    1XTA     C243012  34.218   5.015   5.039
    1XTA     C343013  34.126   4.914   4.992
    1XTA     C443014  33.999   4.915   5.052
    1XTA     C543015  33.970   5.007   5.156
    1XTA    CN243016  33.968   5.121   5.415
    1XTA     C643017  34.033   5.071   5.528
    1XTA     C743018  33.968   5.032   5.645
    1XTA     C843019  33.833   5.048   5.656
    1XTA     C943020  33.762   5.103   5.549
    1XTA    C1043021  33.830   5.140   5.426
    1XTA    CN343022  34.041   5.313   5.297
    1XTA    C1143023  33.970   5.380   5.196
    1XTA    C1243024  33.984   5.518   5.180
    1XTA    C1343025  34.071   5.595   5.255
    1XTA    C1443026  34.147   5.529   5.352
    1XTA    C1543027  34.131   5.389   5.372
    1XTA     H143028  34.275   5.159   5.193
    1XTA     H243029  34.318   5.016   5.003
    1XTA     H343030  33.930   4.842   5.020
    1XTA     H443031  33.877   4.998   5.203
    1XTA     H543032  34.140   5.068   5.522
    1XTA     H643033  34.024   4.984   5.724
    1XTA     H743034  33.653   5.114   5.553
    1XTA     H843035  33.771   5.171   5.349
    1XTA     H943036  33.891   5.336   5.130
    1XTA    H1043037  33.928   5.570   5.106
    1XTA    H1143038  34.223   5.569   5.416
    1XTA    H1243039  34.194   5.339   5.441
    1XTA    OA143040  34.156   4.839   4.884
    1XTA    CO143041  34.081   4.714   4.863
    1XTA    OA243042  33.751   5.005   5.763
    1XTA    CO243043  33.813   4.945   5.867
    1XTA    CL143044  33.707   4.897   5.953
    1XTA    CL243045  33.761   4.847   6.084
    1XTA    CL343046  33.839   4.710   6.074
    1XTA    CL443047  33.985   4.736   6.061
    1XTA    CO343048  34.061   4.610   6.051
    1XTA    OA343049  34.182   4.639   5.982
    1XTA    CO443050  34.270   4.529   5.978
    1XTA    CT143051  34.420   4.559   5.950
    1XTA    CL543052  34.483   4.656   6.058
    1XTA    CL643053  34.635   4.682   6.038
    1XTA    OA443054  34.081   5.729   5.235
    1XTA    CO543055  34.103   5.811   5.355
    1XTA    CL743056  33.972   5.802   5.438
    1XTA    CL843057  33.852   5.867   5.359
    1XTA    CL943058  33.737   5.913   5.447
    1XTA   CL1043059  33.704   5.805   5.536
    1XTA    CO643060  33.567   5.819   5.592
    1XTA    OA543061  33.542   5.697   5.666
    1XTA    CO743062  33.414   5.688   5.711
    1XTA    CT243063  33.365   5.540   5.715
    1XTA   CL1143064  33.379   5.492   5.568
    1XTA   CL1243065  33.305   5.360   5.525
    1XTA    HL143066  34.092   4.645   4.947
    1XTA    HL243067  33.982   4.747   4.862
    1XTA    HL343068  34.089   4.668   4.765
    1XTA    HL443069  33.873   4.864   5.818
    1XTA    HL543070  33.884   5.023   5.904
    1XTA    HL643071  33.648   4.822   5.904
    1XTA    HL743072  33.627   4.970   5.969
    1XTA    HL843073  33.672   4.837   6.149
    1XTA    HL943074  33.824   4.921   6.130
    1XTA   HL1043075  33.814   4.659   6.170
    1XTA   HL1143076  33.803   4.643   5.997
    1XTA   HL1243077  34.023   4.797   6.144
    1XTA   HL1343078  34.004   4.785   5.965
    1XTA   HL1443079  34.065   4.558   6.149
    1XTA   HL1543080  34.010   4.538   5.990
    1XTA   HL1643081  34.266   4.464   6.070
    1XTA   HL1743082  34.236   4.455   5.913
    1XTA   HL1843083  34.470   4.616   6.161
    1XTA   HL1943084  34.440   4.756   6.050
    1XTA   HL2043085  34.659   4.694   5.933
    1XTA   HL2143086  34.706   4.600   6.074
    1XTA   HL2243087  34.664   4.776   6.076
    1XTA   HL2343088  34.107   5.908   5.317
    1XTA   HL2443089  34.192   5.783   5.410
    1XTA   HL2543090  33.947   5.698   5.465
    1XTA   HL2643091  33.982   5.860   5.529
    1XTA   HL2743092  33.896   5.944   5.293
    1XTA   HL2843093  33.812   5.796   5.291
    1XTA   HL2943094  33.766   6.007   5.503
    1XTA   HL3043095  33.653   5.941   5.378
    1XTA   HL3143096  33.711   5.713   5.486
    1XTA   HL3243097  33.776   5.800   5.617
    1XTA   HL3343098  33.563   5.902   5.659
    1XTA   HL3443099  33.500   5.833   5.509
    1XTA   HL3543100  33.339   5.758   5.659
    1XTA   HL3643101  33.392   5.730   5.810
    1XTA   HL3743102  33.481   5.467   5.539
    1XTA   HL3843103  33.358   5.570   5.493
    1XTA   HL3943104  33.214   5.351   5.574
    1XTA   HL4043105  33.369   5.277   5.550
    1XTA   HL4143106  33.298   5.347   5.419
    1XTA    CO843107  34.435   4.628   5.814
    1XTA    CO943108  34.490   4.421   5.951
    1XTA    OA643109  34.491   4.371   6.047
    1XTA   HL4243110  34.431   4.738   5.828
    1XTA   HL4343111  34.564   4.599   5.766
    1XTA   HL4443112  33.169   5.445   5.767
    1XTA   HL4543113  33.203   5.574   5.863
    1XTA   CO1043114  33.216   5.545   5.754
    1XTA   CO1143115  33.440   5.446   5.820
    1XTA    OA743116  33.567   5.426   5.765
    1XTA   HL4643117  33.444   5.490   5.918
    1XTA   HL4743118  33.385   5.348   5.830
    1XTA   HL4843119  34.578   4.427   5.894
    1XTA   HL4943120  34.433   4.358   5.881
    1XTA     NT43121  31.861   4.980  -0.314
    1XTA    CN143122  31.769   5.043  -0.241
    1XTA     C143123  31.756   5.184  -0.259
    1XTA     C243124  31.655   5.256  -0.189
    1XTA     C343125  31.570   5.200  -0.092
    1XTA     C443126  31.581   5.061  -0.074
    1XTA     C543127  31.680   4.983  -0.147
    1XTA    CN243128  31.974   4.927  -0.249
    1XTA     C643129  32.018   4.789  -0.280
    1XTA     C743130  32.129   4.726  -0.216
    1XTA     C843131  32.189   4.792  -0.105
    1XTA     C943132  32.146   4.926  -0.079
    1XTA    C1043133  32.046   4.992  -0.149
    1XTA    CN343134  31.866   4.984  -0.447
    1XTA    C1143135  31.763   4.911  -0.517
    1XTA    C1243136  31.771   4.915  -0.655
    1XTA    C1343137  31.861   4.999  -0.725
    1XTA    C1443138  31.964   5.066  -0.658
    1XTA    C1543139  31.966   5.058  -0.518
    1XTA     H143140  31.804   5.243  -0.335
    1XTA     H243141  31.624   5.357  -0.222
    1XTA     H343142  31.529   5.013   0.007
    1XTA     H443143  31.679   4.876  -0.125
    1XTA     H543144  31.974   4.728  -0.355
    1XTA     H643145  32.158   4.626  -0.235
    1XTA     H743146  32.209   4.966  -0.000
    1XTA     H843147  32.015   5.091  -0.110
    1XTA     H943148  31.691   4.838  -0.473
    1XTA    H1043149  31.697   4.861  -0.712
    1XTA    H1143150  32.042   5.116  -0.713
    1XTA    H1243151  32.053   5.103  -0.461
    1XTA    OA143152  31.476   5.278  -0.021
    1XTA    CO143153  31.519   5.401   0.021
    1XTA    OA243154  32.297   4.746  -0.035
    1XTA    CO243155  32.326   4.605  -0.049
    1XTA    CL143156  32.418   4.584  -0.164
    1XTA    CL243157  32.551   4.665  -0.157
    1XTA    CL343158  32.657   4.608  -0.246
    1XTA    CL443159  32.786   4.679  -0.260
    1XTA    CO343160  32.890   4.591  -0.328
    1XTA    OA343161  32.953   4.502  -0.239
    1XTA    CO443162  33.067   4.547  -0.164
    1XTA    CT143163  33.089   4.450  -0.041
    1XTA    CL543164  33.102   4.297  -0.074
    1XTA    CL643165  33.216   4.261  -0.179
    1XTA    OA443166  31.846   5.024  -0.863
    1XTA    CO543167  31.797   4.911  -0.939
    1XTA    CL743168  31.795   4.962  -1.086
    1XTA    CL843169  31.731   4.855  -1.176
    1XTA    CL943170  31.651   4.919  -1.290
    1XTA   CL1043171  31.601   4.829  -1.397
    1XTA    CO643172  31.531   4.709  -1.345
    1XTA    OA543173  31.476   4.638  -1.460
    1XTA    CO743174  31.439   4.501  -1.436
    1XTA    CT243175  31.362   4.436  -1.551
    1XTA   CL1143176  31.228   4.515  -1.558
    1XTA   CL1243177  31.131   4.461  -1.666
    1XTA    HL143178  31.449   5.441   0.093
    1XTA    HL243179  31.623   5.421   0.044
    1XTA    HL343180  31.495   5.473  -0.067
    1XTA    HL443181  32.367   4.569   0.044
    1XTA    HL543182  32.241   4.536  -0.063
    1XTA    HL643183  32.370   4.618  -0.256
    1XTA    HL743184  32.438   4.475  -0.176
    1XTA    HL843185  32.587   4.666  -0.057
    1XTA    HL943186  32.537   4.770  -0.186
    1XTA   HL1043187  32.663   4.500  -0.215
    1XTA   HL1143188  32.617   4.601  -0.349
    1XTA   HL1243189  32.825   4.713  -0.168
    1XTA   HL1343190  32.767   4.766  -0.321
    1XTA   HL1443191  32.838   4.517  -0.384
    1XTA   HL1543192  32.964   4.639  -0.392
    1XTA   HL1643193  33.159   4.540  -0.227
    1XTA   HL1743194  33.036   4.652  -0.134
    1XTA   HL1843195  33.015   4.249  -0.121
    1XTA   HL1943196  33.115   4.244   0.023
    1XTA   HL2043197  33.194   4.318  -0.272
    1XTA   HL2143198  33.202   4.152  -0.199
    1XTA   HL2243199  33.316   4.289  -0.143
    1XTA   HL2343200  31.694   4.883  -0.909
    1XTA   HL2443201  31.864   4.834  -0.944
    1XTA   HL2543202  31.738   5.055  -1.078
    1XTA   HL2643203  31.901   4.963  -1.116
    1XTA   HL2743204  31.796   4.778  -1.218
    1XTA   HL2843205  31.665   4.812  -1.112
    1XTA   HL2943206  31.569   4.976  -1.238
    1XTA   HL3043207  31.718   4.992  -1.341
    1XTA   HL3143208  31.532   4.870  -1.472
    1XTA   HL3243209  31.671   4.794  -1.472
    1XTA   HL3343210  31.605   4.648  -1.302
    1XTA   HL3443211  31.452   4.743  -1.280
    1XTA   HL3543212  31.380   4.499  -1.342
    1XTA   HL3643213  31.535   4.450  -1.432
    1XTA   HL3743214  31.256   4.623  -1.579
    1XTA   HL3843215  31.185   4.506  -1.461
    1XTA   HL3943216  31.119   4.357  -1.652
    1XTA   HL4043217  31.164   4.477  -1.764
    1XTA   HL4143218  31.035   4.511  -1.660
    1XTA    CO843219  32.965   4.463   0.051
    1XTA    CO943220  33.210   4.507   0.026
    1XTA    OA643221  32.961   4.396   0.180
    1XTA   HL4243222  32.885   4.438  -0.017
    1XTA   HL4343223  32.927   4.566   0.066
    1XTA   HL4443224  31.427   4.216  -1.527
    1XTA   HL4543225  31.263   4.239  -1.570
    1XTA   CO1043226  31.342   4.283  -1.511
    1XTA   CO1143227  31.440   4.445  -1.672
    1XTA    OA743228  31.571   4.385  -1.678
    1XTA   HL4643229  31.373   4.400  -1.748
    1XTA   HL4743230  31.455   4.552  -1.701
    1XTA   HL4843231  33.213   4.439   0.116
    1XTA   HL4943232  33.295   4.484  -0.043
    1XTA     NT43233  29.776  -0.981   5.537
    1XTA    CN143234  29.740  -1.028   5.657
    1XTA     C143235  29.762  -1.168   5.679
    1XTA     C243236  29.726  -1.218   5.802
    1XTA     C343237  29.663  -1.142   5.898
    1XTA     C443238  29.642  -1.005   5.884
    1XTA     C543239  29.679  -0.949   5.759
    1XTA    CN243240  29.691  -0.932   5.446
    1XTA     C643241  29.620  -0.811   5.467
    1XTA     C743242  29.523  -0.770   5.378
    1XTA     C843243  29.489  -0.845   5.263
    1XTA     C943244  29.568  -0.961   5.233
    1XTA    C1043245  29.670  -1.005   5.324
    1XTA    CN343246  29.905  -0.976   5.511
    1XTA    C1143247  29.973  -1.080   5.451
    1XTA    C1243248  30.110  -1.069   5.426
    1XTA    C1343249  30.170  -0.938   5.436
    1XTA    C1443250  30.103  -0.835   5.501
    1XTA    C1543251  29.968  -0.854   5.538
    1XTA     H143252  29.804  -1.250   5.611
    1XTA     H243253  29.743  -1.322   5.824
    1XTA     H343254  29.588  -0.947   5.952
    1XTA     H443255  29.653  -0.843   5.762
    1XTA     H543256  29.647  -0.758   5.553
    1XTA     H643257  29.471  -0.680   5.393
    1XTA     H743258  29.553  -1.020   5.140
    1XTA     H843259  29.725  -1.099   5.299
    1XTA     H943260  29.917  -1.167   5.403
    1XTA    H1043261  30.160  -1.159   5.379
    1XTA    H1143262  30.150  -0.737   5.518
    1XTA    H1243263  29.910  -0.771   5.569
    1XTA    OA143264  29.615  -1.214   6.001
    1XTA    CO143265  29.550  -1.153   6.108
    1XTA    OA243266  29.392  -0.802   5.181
    1XTA    CO243267  29.290  -0.704   5.216
    1XTA    CL143268  29.180  -0.705   5.106
    1XTA    CL243269  29.148  -0.849   5.046
    1XTA    CL343270  29.027  -0.920   5.118
    1XTA    CL443271  29.042  -0.926   5.272
    1XTA    CO343272  29.161  -1.013   5.317
    1XTA    OA343273  29.155  -1.011   5.458
    1XTA    CO443274  29.263  -1.082   5.516
    1XTA    CT143275  29.274  -1.061   5.667
    1XTA    CL543276  29.397  -1.133   5.727
    1XTA    CL643277  29.403  -1.285   5.724
    1XTA    OA443278  30.298  -0.924   5.392
    1XTA    CO543279  30.326  -0.955   5.258
    1XTA    CL743280  30.473  -0.945   5.225
    1XTA    CL843281  30.505  -0.990   5.086
    1XTA    CL943282  30.654  -1.015   5.075
    1XTA   CL1043283  30.691  -1.031   4.929
    1XTA    CO643284  30.833  -1.087   4.902
    1XTA    OA543285  30.930  -1.001   4.934
    1XTA    CO743286  31.054  -1.038   4.877
    1XTA    CT243287  31.167  -0.936   4.929
    1XTA   CL1143288  31.204  -0.955   5.077
    1XTA   CL1243289  31.092  -0.932   5.182
    1XTA    HL143290  29.617  -1.083   6.170
    1XTA    HL243291  29.459  -1.107   6.061
    1XTA    HL343292  29.530  -1.237   6.177
    1XTA    HL443293  29.257  -0.734   5.313
    1XTA    HL543294  29.332  -0.604   5.227
    1XTA    HL643295  29.224  -0.648   5.026
    1XTA    HL743296  29.093  -0.646   5.128
    1XTA    HL843297  29.238  -0.914   5.042
    1XTA    HL943298  29.128  -0.828   4.945
    1XTA   HL1043299  28.942  -0.857   5.104
    1XTA   HL1143300  29.001  -1.012   5.070
    1XTA   HL1243301  28.948  -0.962   5.312
    1XTA   HL1343302  29.066  -0.819   5.301
    1XTA   HL1443303  29.160  -1.118   5.292
    1XTA   HL1543304  29.252  -0.986   5.280
    1XTA   HL1643305  29.238  -1.188   5.485
    1XTA   HL1743306  29.358  -1.057   5.479
    1XTA   HL1843307  29.414  -1.115   5.832
    1XTA   HL1943308  29.489  -1.093   5.689
    1XTA   HL2043309  29.496  -1.335   5.758
    1XTA   HL2143310  29.381  -1.327   5.622
    1XTA   HL2243311  29.325  -1.323   5.790
    1XTA   HL2343312  30.270  -0.889   5.194
    1XTA   HL2443313  30.309  -1.057   5.215
    1XTA   HL2543314  30.500  -0.842   5.237
    1XTA   HL2643315  30.529  -1.004   5.300
    1XTA   HL2743316  30.446  -1.077   5.068
    1XTA   HL2843317  30.486  -0.917   5.013
    1XTA   HL2943318  30.719  -0.938   5.117
    1XTA   HL3043319  30.683  -1.105   5.135
    1XTA   HL3143320  30.629  -1.109   4.893
    1XTA   HL3243321  30.667  -0.941   4.869
    1XTA   HL3343322  30.842  -1.183   4.953
    1XTA   HL3443323  30.836  -1.118   4.800
    1XTA   HL3543324  31.042  -1.027   4.769
    1XTA   HL3643325  31.080  -1.136   4.907
    1XTA   HL3743326  31.283  -0.885   5.102
    1XTA   HL3843327  31.235  -1.061   5.095
    1XTA   HL3943328  30.996  -0.976   5.163
    1XTA   HL4043329  31.074  -0.824   5.203
    1XTA   HL4143330  31.124  -0.977   5.281
    1XTA    CO843331  29.143  -1.114   5.734
    1XTA    CO943332  29.292  -0.910   5.688
    1XTA    OA643333  29.110  -1.244   5.678
    1XTA   HL4243334  29.055  -1.050   5.719
    1XTA   HL4343335  29.146  -1.124   5.841
    1XTA   HL4443336  31.048  -0.759   4.978
    1XTA   HL4543337  31.201  -0.736   4.924
    1XTA   CO1043338  31.117  -0.795   4.903
    1XTA   CO1143339  31.300  -0.950   4.851
    1XTA    OA743340  31.074  -0.777   4.768
    1XTA   HL4643341  31.371  -0.892   4.897
    1XTA   HL4743342  31.290  -0.927   4.745
    1XTA   HL4843343  29.394  -0.880   5.664
    1XTA   HL4943344  29.225  -0.851   5.628
    1XTA     NT43345  34.654  -0.497   2.847
    1XTA    CN143346  34.758  -0.569   2.795
    1XTA     C143347  34.824  -0.663   2.877
    1XTA     C243348  34.927  -0.740   2.832
    1XTA     C343349  34.983  -0.714   2.703
    1XTA     C443350  34.913  -0.623   2.613
    1XTA     C543351  34.802  -0.550   2.660
    1XTA    CN243352  34.680  -0.371   2.891
    1XTA     C643353  34.677  -0.261   2.800
    1XTA     C743354  34.688  -0.131   2.855
    1XTA     C843355  34.728  -0.108   2.990
    1XTA     C943356  34.746  -0.221   3.077
    1XTA    C1043357  34.714  -0.352   3.027
    1XTA    CN343358  34.522  -0.542   2.849
    1XTA    C1143359  34.484  -0.651   2.930
    1XTA    C1243360  34.352  -0.699   2.943
    1XTA    C1343361  34.251  -0.634   2.864
    1XTA    C1443362  34.287  -0.517   2.790
    1XTA    C1543363  34.420  -0.475   2.780
    1XTA     H143364  34.787  -0.687   2.975
    1XTA     H243365  34.970  -0.817   2.894
    1XTA     H343366  34.960  -0.596   2.516
    1XTA     H443367  34.760  -0.471   2.595
    1XTA     H543368  34.648  -0.272   2.696
    1XTA     H643369  34.675  -0.045   2.794
    1XTA     H743370  34.776  -0.204   3.176
    1XTA     H843371  34.721  -0.445   3.082
    1XTA     H943372  34.555  -0.702   2.994
    1XTA    H1043373  34.336  -0.792   2.996
    1XTA    H1143374  34.218  -0.464   2.729
    1XTA    H1243375  34.442  -0.387   2.708
    1XTA    OA143376  35.089  -0.778   2.647
    1XTA    CO143377  35.166  -0.852   2.737
    1XTA    OA243378  34.734   0.029   3.028
    1XTA    CO243379  34.648   0.061   3.142
    1XTA    CL143380  34.519   0.131   3.104
    1XTA    CL243381  34.428   0.061   3.010
    1XTA    CL343382  34.378  -0.076   3.065
    1XTA    CL443383  34.277  -0.142   2.970
    1XTA    CO343384  34.232  -0.280   3.027
    1XTA    OA343385  34.163  -0.255   3.149
    1XTA    CO443386  34.136  -0.373   3.218
    1XTA    CT143387  34.073  -0.348   3.356
    1XTA    CL543388  34.162  -0.273   3.451
    1XTA    CL643389  34.290  -0.346   3.483
    1XTA    OA443390  34.123  -0.673   2.864
    1XTA    CO543391  34.075  -0.777   2.941
    1XTA    CL743392  34.093  -0.921   2.873
    1XTA    CL843393  34.006  -1.045   2.924
    1XTA    CL943394  34.001  -1.056   3.075
    1XTA   CL1043395  34.146  -1.071   3.124
    1XTA    CO643396  34.145  -1.095   3.272
    1XTA    OA543397  34.108  -0.986   3.347
    1XTA    CO743398  34.215  -0.904   3.389
    1XTA    CT243399  34.178  -0.806   3.505
    1XTA   CL1143400  34.311  -0.735   3.539
    1XTA   CL1243401  34.425  -0.833   3.597
    1XTA    HL143402  35.239  -0.889   2.681
    1XTA    HL243403  35.207  -0.796   2.821
    1XTA    HL343404  35.106  -0.934   2.771
    1XTA    HL443405  34.637  -0.027   3.212
    1XTA    HL543406  34.702   0.141   3.195
    1XTA    HL643407  34.552   0.219   3.045
    1XTA    HL743408  34.457   0.176   3.181
    1XTA    HL843409  34.479   0.044   2.917
    1XTA    HL943410  34.341   0.125   3.001
    1XTA   HL1043411  34.460  -0.151   3.057
    1XTA   HL1143412  34.343  -0.067   3.170
    1XTA   HL1243413  34.315  -0.161   2.868
    1XTA   HL1343414  34.186  -0.089   2.965
    1XTA   HL1443415  34.165  -0.335   2.963
    1XTA   HL1543416  34.320  -0.337   3.038
    1XTA   HL1643417  34.061  -0.437   3.158
    1XTA   HL1743418  34.220  -0.440   3.227
    1XTA   HL1843419  34.115  -0.242   3.538
    1XTA   HL1943420  34.197  -0.186   3.391
    1XTA   HL2043421  34.362  -0.367   3.405
    1XTA   HL2143422  34.271  -0.441   3.534
    1XTA   HL2243423  34.363  -0.305   3.560
    1XTA   HL2343424  33.967  -0.752   2.960
    1XTA   HL2443425  34.127  -0.786   3.041
    1XTA   HL2543426  34.089  -0.911   2.765
    1XTA   HL2643427  34.200  -0.932   2.885
    1XTA   HL2743428  33.908  -1.047   2.880
    1XTA   HL2843429  34.069  -1.136   2.897
    1XTA   HL2943430  33.948  -0.965   3.112
    1XTA   HL3043431  33.945  -1.140   3.104
    1XTA   HL3143432  34.195  -1.160   3.083
    1XTA   HL3243433  34.209  -0.988   3.103
    1XTA   HL3343434  34.072  -1.178   3.296
    1XTA   HL3443435  34.241  -1.127   3.307
    1XTA   HL3543436  34.264  -0.852   3.300
    1XTA   HL3643437  34.295  -0.964   3.430
    1XTA   HL3743438  34.302  -0.671   3.633
    1XTA   HL3843439  34.358  -0.679   3.464
    1XTA   HL3943440  34.511  -0.767   3.600
    1XTA   HL4043441  34.448  -0.912   3.531
    1XTA   HL4143442  34.394  -0.874   3.695
    1XTA    CO843443  34.032  -0.477   3.416
    1XTA    CO943444  33.937  -0.268   3.334
    1XTA    OA643445  34.119  -0.587   3.410
    1XTA   HL4243446  33.944  -0.512   3.359
    1XTA   HL4343447  34.009  -0.465   3.525
    1XTA   HL4443448  34.159  -0.836   3.722
    1XTA   HL4543449  34.013  -0.885   3.642
    1XTA   CO1043450  34.124  -0.884   3.630
    1XTA   CO1143451  34.063  -0.709   3.458
    1XTA    OA743452  34.193  -1.005   3.638
    1XTA   HL4643453  34.004  -0.672   3.541
    1XTA   HL4743454  34.006  -0.759   3.383
    1XTA   HL4843455  33.888  -0.302   3.246
    1XTA   HL4943456  33.871  -0.289   3.420
    1XTA     NT43457  31.596   1.527   5.357
    1XTA    CN143458  31.628   1.640   5.294
    1XTA     C143459  31.670   1.758   5.356
    1XTA     C243460  31.716   1.862   5.283
    1XTA     C343461  31.721   1.860   5.142
    1XTA     C443462  31.676   1.742   5.079
    1XTA     C543463  31.650   1.628   5.150
    1XTA    CN243464  31.467   1.526   5.399
    1XTA     C643465  31.417   1.581   5.522
    1XTA     C743466  31.282   1.592   5.554
    1XTA     C843467  31.189   1.540   5.464
    1XTA     C943468  31.237   1.484   5.339
    1XTA    C1043469  31.372   1.473   5.315
    1XTA    CN343470  31.684   1.451   5.420
    1XTA    C1143471  31.729   1.328   5.374
    1XTA    C1243472  31.816   1.246   5.447
    1XTA    C1343473  31.863   1.291   5.571
    1XTA    C1443474  31.809   1.410   5.622
    1XTA    C1543475  31.724   1.488   5.547
    1XTA     H143476  31.673   1.761   5.460
    1XTA     H243477  31.741   1.960   5.327
    1XTA     H343478  31.677   1.739   4.971
    1XTA     H443479  31.616   1.531   5.121
    1XTA     H543480  31.490   1.617   5.594
    1XTA     H643481  31.252   1.632   5.645
    1XTA     H743482  31.175   1.454   5.263
    1XTA     H843483  31.413   1.417   5.235
    1XTA     H943484  31.716   1.305   5.267
    1XTA    H1043485  31.846   1.150   5.400
    1XTA    H1143486  31.845   1.443   5.718
    1XTA    H1243487  31.693   1.579   5.596
    1XTA    OA143488  31.763   1.970   5.072
    1XTA    CO143489  31.837   2.072   5.137
    1XTA    OA243490  31.059   1.532   5.513
    1XTA    CO243491  30.968   1.469   5.421
    1XTA    CL143492  30.835   1.461   5.497
    1XTA    CL243493  30.736   1.388   5.406
    1XTA    CL343494  30.589   1.374   5.456
    1XTA    CL443495  30.578   1.286   5.585
    1XTA    CO343496  30.445   1.292   5.655
    1XTA    OA343497  30.404   1.423   5.691
    1XTA    CO443498  30.482   1.467   5.801
    1XTA    CT143499  30.436   1.598   5.854
    1XTA    CL543500  30.446   1.696   5.742
    1XTA    CL643501  30.586   1.710   5.684
    1XTA    OA443502  31.944   1.205   5.640
    1XTA    CO543503  32.061   1.271   5.701
    1XTA    CL743504  32.155   1.171   5.783
    1XTA    CL843505  32.113   1.149   5.931
    1XTA    CL943506  31.976   1.071   5.941
    1XTA   CL1043507  31.858   1.172   5.980
    1XTA    CO643508  31.726   1.105   5.958
    1XTA    OA543509  31.624   1.157   6.039
    1XTA    CO743510  31.513   1.072   6.034
    1XTA    CT243511  31.394   1.126   6.114
    1XTA   CL1143512  31.298   1.013   6.139
    1XTA   CL1243513  31.164   1.054   6.204
    1XTA    HL143514  31.863   2.150   5.075
    1XTA    HL243515  31.773   2.116   5.207
    1XTA    HL343516  31.920   2.029   5.194
    1XTA    HL443517  30.957   1.519   5.321
    1XTA    HL543518  31.000   1.369   5.393
    1XTA    HL643519  30.793   1.557   5.514
    1XTA    HL743520  30.866   1.408   5.590
    1XTA    HL843521  30.782   1.291   5.386
    1XTA    HL943522  30.731   1.439   5.306
    1XTA   HL1043523  30.556   1.468   5.486
    1XTA   HL1143524  30.526   1.336   5.379
    1XTA   HL1243525  30.648   1.307   5.670
    1XTA   HL1343526  30.594   1.184   5.559
    1XTA   HL1443527  30.377   1.262   5.574
    1XTA   HL1543528  30.439   1.213   5.737
    1XTA   HL1643529  30.474   1.393   5.876
    1XTA   HL1743530  30.587   1.471   5.776
    1XTA   HL1843531  30.416   1.789   5.788
    1XTA   HL1943532  30.370   1.676   5.676
    1XTA   HL2043533  30.578   1.811   5.641
    1XTA   HL2143534  30.615   1.638   5.608
    1XTA   HL2243535  30.671   1.712   5.751
    1XTA   HL2343536  32.037   1.367   5.753
    1XTA   HL2443537  32.109   1.307   5.613
    1XTA   HL2543538  32.193   1.087   5.728
    1XTA   HL2643539  32.258   1.217   5.788
    1XTA   HL2743540  32.192   1.089   5.981
    1XTA   HL2843541  32.117   1.241   5.987
    1XTA   HL2943542  31.960   1.020   5.845
    1XTA   HL3043543  31.978   0.984   6.018
    1XTA   HL3143544  31.861   1.205   6.091
    1XTA   HL3243545  31.850   1.265   5.922
    1XTA   HL3343546  31.697   1.084   5.859
    1XTA   HL3443547  31.732   1.009   6.002
    1XTA   HL3543548  31.551   0.973   6.083
    1XTA   HL3643549  31.483   1.045   5.937
    1XTA   HL3743550  31.345   0.944   6.214
    1XTA   HL3843551  31.281   0.957   6.049
    1XTA   HL3943552  31.101   0.971   6.197
    1XTA   HL4043553  31.113   1.135   6.143
    1XTA   HL4143554  31.177   1.075   6.306
    1XTA    CO843555  30.512   1.642   5.980
    1XTA    CO943556  30.288   1.589   5.911
    1XTA    OA643557  30.500   1.540   6.068
    1XTA   HL4243558  30.463   1.740   6.013
    1XTA   HL4343559  30.617   1.669   5.953
    1XTA   HL4443560  31.316   1.221   5.950
    1XTA   HL4543561  31.433   1.316   6.028
    1XTA   CO1043562  31.343   1.252   6.046
    1XTA   CO1143563  31.442   1.183   6.252
    1XTA    OA743564  31.484   1.087   6.345
    1XTA   HL4643565  31.530   1.251   6.233
    1XTA   HL4743566  31.361   1.244   6.293
    1XTA   HL4843567  30.286   1.541   6.011
    1XTA   HL4943568  30.229   1.531   5.834
    1XTA     NT43569  32.748   0.294   7.175
    1XTA    CN143570  32.866   0.353   7.199
    1XTA     C143571  32.978   0.321   7.129
    1XTA     C243572  33.096   0.405   7.138
    1XTA     C343573  33.096   0.521   7.220
    1XTA     C443574  32.981   0.537   7.300
    1XTA     C543575  32.873   0.452   7.294
    1XTA    CN243576  32.739   0.161   7.161
    1XTA     C643577  32.754   0.077   7.272
    1XTA     C743578  32.730  -0.061   7.262
    1XTA     C843579  32.673  -0.108   7.143
    1XTA     C943580  32.652  -0.025   7.034
    1XTA    C1043581  32.679   0.109   7.044
    1XTA    CN343582  32.638   0.370   7.172
    1XTA    C1143583  32.612   0.449   7.062
    1XTA    C1243584  32.489   0.519   7.057
    1XTA    C1343585  32.391   0.512   7.159
    1XTA    C1443586  32.419   0.424   7.271
    1XTA    C1543587  32.543   0.363   7.276
    1XTA     H143588  32.988   0.247   7.054
    1XTA     H243589  33.182   0.393   7.077
    1XTA     H343590  32.967   0.618   7.364
    1XTA     H443591  32.788   0.484   7.353
    1XTA     H543592  32.795   0.118   7.363
    1XTA     H643593  32.754  -0.120   7.343
    1XTA     H743594  32.609  -0.060   6.938
    1XTA     H843595  32.648   0.182   6.971
    1XTA     H943596  32.682   0.468   6.985
    1XTA    H1043597  32.472   0.580   6.968
    1XTA    H1143598  32.350   0.415   7.350
    1XTA    H1243599  32.562   0.297   7.363
    1XTA    OA143600  33.207   0.603   7.224
    1XTA    CO143601  33.189   0.732   7.289
    1XTA    OA243602  32.632  -0.238   7.129
    1XTA    CO243603  32.677  -0.346   7.212
    1XTA    CL143604  32.595  -0.337   7.349
    1XTA    CL243605  32.438  -0.332   7.332
    1XTA    CL343606  32.353  -0.374   7.457
    1XTA    CL443607  32.200  -0.400   7.430
    1XTA    CO343608  32.119  -0.265   7.421
    1XTA    OA343609  31.981  -0.306   7.390
    1XTA    CO443610  31.901  -0.194   7.353
    1XTA    CT143611  31.868  -0.205   7.202
    1XTA    CL543612  31.786  -0.083   7.144
    1XTA    CL643613  31.645  -0.055   7.214
    1XTA    OA443614  32.271   0.578   7.147
    1XTA    CO543615  32.215   0.643   7.263
    1XTA    CL743616  32.087   0.724   7.236
    1XTA    CL843617  32.039   0.822   7.344
    1XTA    CL943618  31.911   0.891   7.293
    1XTA   CL1043619  31.847   0.977   7.407
    1XTA    CO643620  31.735   0.903   7.481
    1XTA    OA543621  31.646   0.987   7.556
    1XTA    CO743622  31.705   1.055   7.656
    1XTA    CT243623  31.606   1.124   7.752
    1XTA   CL1143624  31.513   1.223   7.678
    1XTA   CL1243625  31.573   1.353   7.634
    1XTA    HL143626  33.091   0.773   7.265
    1XTA    HL243627  33.194   0.728   7.405
    1XTA    HL343628  33.267   0.795   7.251
    1XTA    HL443629  32.653  -0.439   7.161
    1XTA    HL543630  32.788  -0.344   7.224
    1XTA    HL643631  32.629  -0.255   7.420
    1XTA    HL743632  32.620  -0.427   7.397
    1XTA    HL843633  32.402  -0.395   7.248
    1XTA    HL943634  32.409  -0.231   7.294
    1XTA   HL1043635  32.400  -0.460   7.499
    1XTA   HL1143636  32.362  -0.302   7.537
    1XTA   HL1243637  32.161  -0.440   7.524
    1XTA   HL1343638  32.169  -0.464   7.346
    1XTA   HL1443639  32.135  -0.221   7.514
    1XTA   HL1543640  32.164  -0.201   7.343
    1XTA   HL1643641  31.803  -0.191   7.404
    1XTA   HL1743642  31.955  -0.100   7.361
    1XTA   HL1843643  31.783  -0.083   7.041
    1XTA   HL1943644  31.845   0.010   7.173
    1XTA   HL2043645  31.575  -0.136   7.207
    1XTA   HL2143646  31.603   0.041   7.167
    1XTA   HL2243647  31.651  -0.040   7.321
    1XTA   HL2343648  32.292   0.705   7.301
    1XTA   HL2443649  32.196   0.568   7.336
    1XTA   HL2543650  32.109   0.792   7.151
    1XTA   HL2643651  32.006   0.662   7.205
    1XTA   HL2743652  32.014   0.773   7.441
    1XTA   HL2843653  32.118   0.893   7.363
    1XTA   HL2943654  31.919   0.964   7.206
    1XTA   HL3043655  31.837   0.816   7.248
    1XTA   HL3143656  31.926   1.007   7.474
    1XTA   HL3243657  31.791   1.061   7.369
    1XTA   HL3343658  31.682   0.848   7.404
    1XTA   HL3443659  31.765   0.840   7.559
    1XTA   HL3543660  31.778   1.122   7.610
    1XTA   HL3643661  31.770   0.991   7.710
    1XTA   HL3743662  31.432   1.246   7.745
    1XTA   HL3843663  31.472   1.173   7.585
    1XTA   HL3943664  31.618   1.407   7.712
    1XTA   HL4043665  31.484   1.403   7.604
    1XTA   HL4143666  31.648   1.341   7.554
    1XTA    CO843667  31.793  -0.337   7.176
    1XTA    CO943668  32.008  -0.202   7.129
    1XTA    OA643669  32.001  -0.205   7.016
    1XTA   HL4243670  31.869  -0.412   7.175
    1XTA   HL4343671  31.733  -0.390   7.293
    1XTA   HL4443672  31.615   1.259   7.920
    1XTA   HL4543673  31.708   1.115   7.940
    1XTA   CO1043674  31.683   1.193   7.867
    1XTA   CO1143675  31.517   1.025   7.816
    1XTA    OA743676  31.798   1.264   7.830
    1XTA   HL4643677  31.446   1.064   7.885
    1XTA   HL4743678  31.453   0.987   7.733
    1XTA   HL4843679  32.059  -0.291   7.165
    1XTA   HL4943680  32.063  -0.118   7.171
    1XTA     NT43681  33.684  -2.276   4.850
    1XTA    CN143682  33.617  -2.386   4.893
    1XTA     C143683  33.663  -2.455   5.003
    1XTA     C243684  33.587  -2.566   5.060
    1XTA     C343685  33.466  -2.599   4.998
    1XTA     C443686  33.414  -2.519   4.891
    1XTA     C543687  33.495  -2.422   4.834
    1XTA    CN243688  33.666  -2.155   4.910
    1XTA     C643689  33.569  -2.063   4.856
    1XTA     C743690  33.537  -1.945   4.935
    1XTA     C843691  33.593  -1.925   5.057
    1XTA     C943692  33.698  -2.005   5.098
    1XTA    C1043693  33.728  -2.124   5.032
    1XTA    CN343694  33.783  -2.281   4.760
    1XTA    C1143695  33.760  -2.296   4.624
    1XTA    C1243696  33.861  -2.281   4.527
    1XTA    C1343697  33.996  -2.294   4.577
    1XTA    C1443698  34.025  -2.292   4.715
    1XTA    C1543699  33.915  -2.278   4.801
    1XTA     H143700  33.755  -2.423   5.049
    1XTA     H243701  33.633  -2.622   5.140
    1XTA     H343702  33.309  -2.547   4.855
    1XTA     H443703  33.457  -2.359   4.755
    1XTA     H543704  33.529  -2.076   4.752
    1XTA     H643705  33.472  -1.875   4.889
    1XTA     H743706  33.751  -1.983   5.191
    1XTA     H843707  33.788  -2.192   5.085
    1XTA     H943708  33.655  -2.298   4.596
    1XTA    H1043709  33.841  -2.292   4.417
    1XTA    H1143710  34.124  -2.294   4.760
    1XTA    H1243711  33.933  -2.287   4.906
    1XTA    OA143712  33.388  -2.702   5.041
    1XTA    CO143713  33.421  -2.758   5.170
    1XTA    OA243714  33.554  -1.817   5.130
    1XTA    CO243715  33.661  -1.731   5.164
    1XTA    CL143716  33.617  -1.634   5.270
    1XTA    CL243717  33.644  -1.487   5.239
    1XTA    CL343718  33.794  -1.453   5.206
    1XTA    CL443719  33.895  -1.484   5.308
    1XTA    CO343720  33.973  -1.609   5.276
    1XTA    OA343721  34.068  -1.621   5.377
    1XTA    CO443722  34.148  -1.738   5.353
    1XTA    CT143723  34.220  -1.779   5.483
    1XTA    CL543724  34.306  -1.911   5.467
    1XTA    CL643725  34.249  -2.009   5.365
    1XTA    OA443726  34.112  -2.279   4.497
    1XTA    CO543727  34.086  -2.330   4.365
    1XTA    CL743728  34.210  -2.410   4.322
    1XTA    CL843729  34.189  -2.511   4.212
    1XTA    CL943730  34.131  -2.641   4.268
    1XTA   CL1043731  34.133  -2.745   4.160
    1XTA    CO643732  34.095  -2.882   4.214
    1XTA    OA543733  34.062  -2.966   4.107
    1XTA    CO743734  34.033  -3.095   4.151
    1XTA    CT243735  34.025  -3.196   4.030
    1XTA   CL1143736  33.946  -3.322   4.065
    1XTA   CL1243737  34.015  -3.416   4.170
    1XTA    HL143738  33.339  -2.816   5.207
    1XTA    HL243739  33.504  -2.840   5.163
    1XTA    HL343740  33.443  -2.688   5.252
    1XTA    HL443741  33.748  -1.778   5.204
    1XTA    HL543742  33.700  -1.680   5.076
    1XTA    HL643743  33.662  -1.666   5.362
    1XTA    HL743744  33.515  -1.650   5.289
    1XTA    HL843745  33.613  -1.421   5.318
    1XTA    HL943746  33.584  -1.466   5.149
    1XTA   HL1043747  33.818  -1.512   5.117
    1XTA   HL1143748  33.781  -1.350   5.186
    1XTA   HL1243749  33.845  -1.486   5.406
    1XTA   HL1343750  33.965  -1.401   5.297
    1XTA   HL1443751  33.910  -1.696   5.269
    1XTA   HL1543752  34.012  -1.602   5.178
    1XTA   HL1643753  34.092  -1.823   5.314
    1XTA   HL1743754  34.236  -1.724   5.282
    1XTA   HL1843755  34.304  -1.952   5.564
    1XTA   HL1943756  34.415  -1.897   5.459
    1XTA   HL2043757  34.270  -1.983   5.262
    1XTA   HL2143758  34.143  -2.036   5.361
    1XTA   HL2243759  34.292  -2.108   5.371
    1XTA   HL2343760  34.051  -2.253   4.281
    1XTA   HL2443761  34.017  -2.415   4.391
    1XTA   HL2543762  34.277  -2.337   4.280
    1XTA   HL2643763  34.265  -2.459   4.399
    1XTA   HL2743764  34.126  -2.471   4.135
    1XTA   HL2843765  34.286  -2.535   4.165
    1XTA   HL2943766  34.189  -2.670   4.351
    1XTA   HL3043767  34.027  -2.620   4.299
    1XTA   HL3143768  34.068  -2.735   4.073
    1XTA   HL3243769  34.239  -2.759   4.120
    1XTA   HL3343770  34.181  -2.928   4.263
    1XTA   HL3443771  34.013  -2.865   4.284
    1XTA   HL3543772  33.932  -3.092   4.196
    1XTA   HL3643773  34.104  -3.120   4.232
    1XTA   HL3743774  33.939  -3.385   3.981
    1XTA   HL3843775  33.846  -3.295   4.091
    1XTA   HL3943776  34.092  -3.360   4.210
    1XTA   HL4043777  34.054  -3.504   4.117
    1XTA   HL4143778  33.941  -3.439   4.245
    1XTA    CO843779  34.108  -1.812   5.586
    1XTA    CO943780  34.311  -1.661   5.533
    1XTA    OA643781  34.385  -1.640   5.455
    1XTA   HL4243782  34.066  -1.897   5.544
    1XTA   HL4343783  34.009  -1.707   5.579
    1XTA   HL4443784  34.137  -3.345   3.925
    1XTA   HL4543785  34.186  -3.170   3.890
    1XTA   CO1043786  34.155  -3.244   3.968
    1XTA   CO1143787  33.944  -3.140   3.913
    1XTA    OA743788  34.252  -3.261   4.067
    1XTA   HL4643789  33.860  -3.092   3.952
    1XTA   HL4743790  34.015  -3.060   3.878
    1XTA   HL4843791  34.361  -1.697   5.622
    1XTA   HL4943792  34.255  -1.577   5.565
    1XTA     NT43793  32.937  -1.948   8.199
    1XTA    CN143794  32.953  -2.083   8.178
    1XTA     C143795  33.042  -2.153   8.259
    1XTA     C243796  33.062  -2.287   8.236
    1XTA     C343797  32.991  -2.358   8.139
    1XTA     C443798  32.890  -2.292   8.064
    1XTA     C543799  32.881  -2.152   8.082
    1XTA    CN243800  33.030  -1.879   8.264
    1XTA     C643801  33.142  -1.817   8.201
    1XTA     C743802  33.227  -1.727   8.269
    1XTA     C843803  33.211  -1.714   8.408
    1XTA     C943804  33.112  -1.786   8.475
    1XTA    C1043805  33.018  -1.861   8.403
    1XTA    CN343806  32.825  -1.883   8.165
    1XTA    C1143807  32.703  -1.908   8.236
    1XTA    C1243808  32.594  -1.824   8.215
    1XTA    C1343809  32.593  -1.724   8.116
    1XTA    C1443810  32.712  -1.709   8.037
    1XTA    C1543811  32.827  -1.785   8.064
    1XTA     H143812  33.094  -2.104   8.334
    1XTA     H243813  33.124  -2.347   8.303
    1XTA     H343814  32.829  -2.342   7.988
    1XTA     H443815  32.820  -2.084   8.018
    1XTA     H543816  33.144  -1.839   8.091
    1XTA     H643817  33.315  -1.689   8.216
    1XTA     H743818  33.116  -1.783   8.581
    1XTA     H843819  32.952  -1.929   8.451
    1XTA     H943820  32.701  -1.982   8.313
    1XTA    H1043821  32.508  -1.851   8.272
    1XTA    H1143822  32.708  -1.637   7.953
    1XTA    H1243823  32.912  -1.778   8.001
    1XTA    OA143824  32.994  -2.495   8.130
    1XTA    CO143825  33.098  -2.548   8.051
    1XTA    OA243826  33.290  -1.630   8.482
    1XTA    CO243827  33.344  -1.515   8.423
    1XTA    CL143828  33.404  -1.418   8.524
    1XTA    CL243829  33.543  -1.469   8.573
    1XTA    CL343830  33.592  -1.399   8.693
    1XTA    CL443831  33.737  -1.438   8.710
    1XTA    CO343832  33.804  -1.372   8.829
    1XTA    OA343833  33.718  -1.397   8.940
    1XTA    CO443834  33.779  -1.480   9.041
    1XTA    CT143835  33.683  -1.561   9.129
    1XTA    CL543836  33.569  -1.477   9.192
    1XTA    CL643837  33.617  -1.384   9.297
    1XTA    OA443838  32.486  -1.638   8.093
    1XTA    CO543839  32.367  -1.649   8.173
    1XTA    CL743840  32.281  -1.533   8.128
    1XTA    CL843841  32.138  -1.561   8.175
    1XTA    CL943842  32.047  -1.437   8.149
    1XTA   CL1043843  32.050  -1.389   8.000
    1XTA    CO643844  31.949  -1.277   7.963
    1XTA    OA543845  31.820  -1.328   7.991
    1XTA    CO743846  31.712  -1.250   7.934
    1XTA    CT243847  31.614  -1.215   8.047
    1XTA   CL1143848  31.492  -1.131   7.987
    1XTA   CL1243849  31.376  -1.127   8.072
    1XTA    HL143850  33.101  -2.495   7.960
    1XTA    HL243851  33.187  -2.536   8.110
    1XTA    HL343852  33.086  -2.662   8.042
    1XTA    HL443853  33.414  -1.553   8.345
    1XTA    HL543854  33.257  -1.471   8.366
    1XTA    HL643855  33.336  -1.405   8.602
    1XTA    HL743856  33.422  -1.324   8.478
    1XTA    HL843857  33.610  -1.451   8.487
    1XTA    HL943858  33.540  -1.590   8.589
    1XTA   HL1043859  33.593  -1.290   8.680
    1XTA   HL1143860  33.533  -1.430   8.781
    1XTA   HL1243861  33.795  -1.421   8.620
    1XTA   HL1343862  33.748  -1.541   8.724
    1XTA   HL1443863  33.910  -1.398   8.843
    1XTA   HL1543864  33.798  -1.264   8.817
    1XTA   HL1643865  33.849  -1.548   9.004
    1XTA   HL1743866  33.840  -1.418   9.112
    1XTA   HL1843867  33.498  -1.548   9.239
    1XTA   HL1943868  33.513  -1.419   9.116
    1XTA   HL2043869  33.695  -1.322   9.267
    1XTA   HL2143870  33.655  -1.436   9.385
    1XTA   HL2243871  33.551  -1.313   9.321
    1XTA   HL2343872  32.381  -1.657   8.278
    1XTA   HL2443873  32.322  -1.739   8.133
    1XTA   HL2543874  32.323  -1.437   8.155
    1XTA   HL2643875  32.287  -1.533   8.020
    1XTA   HL2743876  32.107  -1.647   8.117
    1XTA   HL2843877  32.146  -1.588   8.283
    1XTA   HL2943878  31.947  -1.469   8.169
    1XTA   HL3043879  32.074  -1.356   8.222
    1XTA   HL3143880  32.145  -1.337   7.965
    1XTA   HL3243881  32.036  -1.470   7.937
    1XTA   HL3343882  31.962  -1.187   8.016
    1XTA   HL3443883  31.971  -1.232   7.869
    1XTA   HL3543884  31.662  -1.310   7.858
    1XTA   HL3643885  31.747  -1.156   7.893
    1XTA   HL3743886  31.463  -1.179   7.891
    1XTA   HL3843887  31.531  -1.033   7.972
    1XTA   HL3943888  31.319  -1.039   8.037
    1XTA   HL4043889  31.411  -1.099   8.172
    1XTA   HL4143890  31.324  -1.222   8.082
    1XTA    CO843891  33.759  -1.639   9.232
    1XTA    CO943892  33.621  -1.668   9.031
    1XTA    OA643893  33.675  -1.724   9.313
    1XTA   HL4243894  33.825  -1.571   9.289
    1XTA   HL4343895  33.831  -1.710   9.195
    1XTA   HL4443896  31.789  -1.172   8.162
    1XTA   HL4543897  31.695  -1.031   8.102
    1XTA   CO1043898  31.689  -1.130   8.151
    1XTA   CO1143899  31.568  -1.348   8.119
    1XTA    OA743900  31.631  -1.119   8.244
    1XTA   HL4643901  31.671  -1.437   8.146
    1XTA   HL4743902  31.520  -1.312   8.202
    1XTA   HL4843903  33.579  -1.624   8.933
    1XTA   HL4943904  33.546  -1.724   9.084
    1XTA     NT43905  30.320   2.626   2.440
    1XTA    CN143906  30.254   2.662   2.327
    1XTA     C143907  30.200   2.797   2.315
    1XTA     C243908  30.125   2.842   2.203
    1XTA     C343909  30.109   2.747   2.098
    1XTA     C443910  30.167   2.618   2.106
    1XTA     C543911  30.238   2.577   2.218
    1XTA    CN243912  30.450   2.659   2.441
    1XTA     C643913  30.491   2.751   2.531
    1XTA     C743914  30.626   2.791   2.532
    1XTA     C843915  30.717   2.737   2.444
    1XTA     C943916  30.670   2.653   2.346
    1XTA    C1043917  30.541   2.612   2.350
    1XTA    CN343918  30.249   2.583   2.548
    1XTA    C1143919  30.136   2.655   2.596
    1XTA    C1243920  30.061   2.610   2.708
    1XTA    C1343921  30.111   2.499   2.778
    1XTA    C1443922  30.220   2.429   2.731
    1XTA    C1543923  30.288   2.466   2.616
    1XTA     H143924  30.228   2.861   2.398
    1XTA     H243925  30.099   2.949   2.209
    1XTA     H343926  30.166   2.548   2.025
    1XTA     H443927  30.281   2.479   2.230
    1XTA     H543928  30.429   2.795   2.601
    1XTA     H643929  30.665   2.871   2.588
    1XTA     H743930  30.734   2.621   2.268
    1XTA     H843931  30.509   2.551   2.269
    1XTA     H943932  30.108   2.750   2.548
    1XTA    H1043933  29.965   2.649   2.748
    1XTA    H1143934  30.258   2.339   2.781
    1XTA    H1243935  30.371   2.403   2.585
    1XTA    OA143936  30.032   2.775   1.987
    1XTA    CO143937  29.922   2.856   2.013
    1XTA    OA243938  30.846   2.777   2.453
    1XTA    CO243939  30.932   2.727   2.355
    1XTA    CL143940  31.066   2.790   2.377
    1XTA    CL243941  31.183   2.703   2.316
    1XTA    CL343942  31.202   2.721   2.163
    1XTA    CL443943  31.130   2.629   2.071
    1XTA    CO343944  31.184   2.609   1.928
    1XTA    OA343945  31.104   2.504   1.877
    1XTA    CO443946  31.158   2.475   1.747
    1XTA    CT143947  31.049   2.395   1.668
    1XTA    CL543948  30.985   2.298   1.765
    1XTA    CL643949  30.905   2.180   1.714
    1XTA    OA443950  30.049   2.450   2.892
    1XTA    CO543951  29.917   2.491   2.924
    1XTA    CL743952  29.907   2.630   3.001
    1XTA    CL843953  29.764   2.686   3.002
    1XTA    CL943954  29.723   2.725   2.861
    1XTA   CL1043955  29.594   2.807   2.864
    1XTA    CO643956  29.601   2.958   2.884
    1XTA    OA543957  29.471   3.004   2.917
    1XTA    CO743958  29.444   3.142   2.916
    1XTA    CT243959  29.383   3.197   2.786
    1XTA   CL1143960  29.298   3.327   2.828
    1XTA   CL1243961  29.387   3.444   2.887
    1XTA    HL143962  29.947   2.952   2.048
    1XTA    HL243963  29.881   2.878   1.913
    1XTA    HL343964  29.846   2.814   2.075
    1XTA    HL443965  30.958   2.619   2.371
    1XTA    HL543966  30.904   2.741   2.248
    1XTA    HL643967  31.085   2.797   2.488
    1XTA    HL743968  31.059   2.885   2.328
    1XTA    HL843969  31.180   2.593   2.339
    1XTA    HL943970  31.283   2.731   2.360
    1XTA   HL1043971  31.162   2.819   2.133
    1XTA   HL1143972  31.308   2.728   2.135
    1XTA   HL1243973  31.027   2.664   2.056
    1XTA   HL1343974  31.123   2.530   2.111
    1XTA   HL1443975  31.176   2.703   1.872
    1XTA   HL1543976  31.292   2.584   1.937
    1XTA   HL1643977  31.194   2.557   1.690
    1XTA   HL1743978  31.244   2.407   1.766
    1XTA   HL1843979  30.918   2.365   1.822
    1XTA   HL1943980  31.053   2.264   1.837
    1XTA   HL2043981  30.818   2.212   1.670
    1XTA   HL2143982  30.887   2.107   1.790
    1XTA   HL2243983  30.969   2.135   1.639
    1XTA   HL2343984  29.870   2.412   2.983
    1XTA   HL2443985  29.867   2.493   2.832
    1XTA   HL2543986  29.957   2.627   3.106
    1XTA   HL2643987  29.972   2.693   2.952
    1XTA   HL2743988  29.695   2.611   3.043
    1XTA   HL2843989  29.774   2.779   3.057
    1XTA   HL2943990  29.796   2.788   2.803
    1XTA   HL3043991  29.722   2.633   2.796
    1XTA   HL3143992  29.538   2.784   2.770
    1XTA   HL3243993  29.531   2.775   2.946
    1XTA   HL3343994  29.683   2.987   2.961
    1XTA   HL3443995  29.639   3.005   2.792
    1XTA   HL3543996  29.519   3.209   2.952
    1XTA   HL3643997  29.363   3.146   3.002
    1XTA   HL3743998  29.201   3.304   2.887
    1XTA   HL3843999  29.258   3.366   2.732
    1XTA   HL3944000  29.337   3.541   2.894
    1XTA   HL4044001  29.490   3.456   2.852
    1XTA   HL4144002  29.398   3.422   2.995
    1XTA    CO844003  31.122   2.315   1.558
    1XTA    CO944004  30.935   2.475   1.608
    1XTA    OA644005  30.972   2.526   1.523
    1XTA   HL4244006  31.060   2.275   1.485
    1XTA   HL4344007  31.198   2.406   1.490
    1XTA   HL4444008  29.252   3.140   2.637
    1XTA   HL4544009  29.349   3.016   2.698
    1XTA   CO1044010  29.291   3.095   2.725
    1XTA   CO1144011  29.488   3.224   2.680
    1XTA    OA744012  29.545   3.112   2.620
    1XTA   HL4644013  29.447   3.286   2.590
    1XTA   HL4744014  29.572   3.277   2.721
    1XTA   HL4844015  30.899   2.548   1.679
    1XTA   HL4944016  30.855   2.402   1.596
    1XTA     NT44017  28.974  -0.331   1.595
    1XTA    CN144018  29.018  -0.210   1.555
    1XTA     C144019  28.936  -0.105   1.510
    1XTA     C244020  28.987   0.018   1.453
    1XTA     C344021  29.123   0.036   1.451
    1XTA     C444022  29.208  -0.065   1.497
    1XTA     C544023  29.158  -0.195   1.543
    1XTA    CN244024  28.885  -0.396   1.515
    1XTA     C644025  28.776  -0.466   1.581
    1XTA     C744026  28.690  -0.544   1.511
    1XTA     C844027  28.702  -0.565   1.371
    1XTA     C944028  28.806  -0.504   1.301
    1XTA    C1044029  28.892  -0.412   1.374
    1XTA    CN344030  29.013  -0.388   1.713
    1XTA    C1144031  29.072  -0.513   1.717
    1XTA    C1244032  29.115  -0.567   1.842
    1XTA    C1344033  29.105  -0.498   1.961
    1XTA    C1444034  29.053  -0.366   1.951
    1XTA    C1544035  29.006  -0.308   1.832
    1XTA     H144036  28.831  -0.105   1.519
    1XTA     H244037  28.926   0.094   1.405
    1XTA     H344038  29.313  -0.042   1.500
    1XTA     H444039  29.223  -0.276   1.572
    1XTA     H544040  28.761  -0.462   1.688
    1XTA     H644041  28.627  -0.608   1.564
    1XTA     H744042  28.827  -0.531   1.198
    1XTA     H844043  28.972  -0.350   1.323
    1XTA     H944044  29.092  -0.576   1.635
    1XTA    H1044045  29.163  -0.663   1.846
    1XTA    H1144046  29.053  -0.303   2.040
    1XTA    H1244047  28.970  -0.207   1.828
    1XTA    OA144048  29.168   0.150   1.390
    1XTA    CO144049  29.299   0.145   1.338
    1XTA    OA244050  28.617  -0.651   1.318
    1XTA    CO244051  28.486  -0.640   1.353
    1XTA    CL144052  28.427  -0.770   1.286
    1XTA    CL244053  28.279  -0.802   1.326
    1XTA    CL344054  28.173  -0.707   1.270
    1XTA    CL444055  28.039  -0.777   1.248
    1XTA    CO344056  27.947  -0.704   1.154
    1XTA    OA344057  27.915  -0.577   1.214
    1XTA    CO444058  27.897  -0.477   1.122
    1XTA    CT144059  27.852  -0.337   1.182
    1XTA    CL544060  27.725  -0.372   1.257
    1XTA    CL644061  27.669  -0.275   1.360
    1XTA    OA444062  29.149  -0.551   2.084
    1XTA    CO544063  29.248  -0.651   2.083
    1XTA    CL744064  29.193  -0.784   2.126
    1XTA    CL844065  29.052  -0.820   2.071
    1XTA    CL944066  29.044  -0.971   2.065
    1XTA   CL1044067  28.902  -1.018   2.049
    1XTA    CO644068  28.846  -0.980   1.911
    1XTA    OA544069  28.920  -1.031   1.806
    1XTA    CO744070  28.902  -0.948   1.692
    1XTA    CT244071  28.955  -1.021   1.569
    1XTA   CL1144072  28.928  -0.943   1.437
    1XTA   CL1244073  28.992  -1.001   1.310
    1XTA    HL144074  29.379   0.143   1.408
    1XTA    HL244075  29.308   0.064   1.266
    1XTA    HL344076  29.311   0.236   1.279
    1XTA    HL444077  28.462  -0.632   1.462
    1XTA    HL544078  28.447  -0.540   1.316
    1XTA    HL644079  28.490  -0.851   1.320
    1XTA    HL744080  28.447  -0.762   1.175
    1XTA    HL844081  28.270  -0.796   1.432
    1XTA    HL944082  28.251  -0.906   1.292
    1XTA   HL1044083  28.164  -0.614   1.330
    1XTA   HL1144084  28.202  -0.668   1.174
    1XTA   HL1244085  27.981  -0.788   1.339
    1XTA   HL1344086  28.049  -0.878   1.205
    1XTA   HL1444087  28.004  -0.693   1.063
    1XTA   HL1544088  27.852  -0.741   1.130
    1XTA   HL1644089  27.977  -0.473   1.042
    1XTA   HL1744090  27.813  -0.513   1.067
    1XTA   HL1844091  27.739  -0.467   1.306
    1XTA   HL1944092  27.643  -0.387   1.189
    1XTA   HL2044093  27.582  -0.322   1.400
    1XTA   HL2144094  27.636  -0.185   1.307
    1XTA   HL2244095  27.749  -0.251   1.434
    1XTA   HL2344096  29.303  -0.603   2.168
    1XTA   HL2444097  29.310  -0.649   1.999
    1XTA   HL2544098  29.261  -0.859   2.092
    1XTA   HL2644099  29.180  -0.795   2.230
    1XTA   HL2744100  28.972  -0.781   2.140
    1XTA   HL2844101  29.040  -0.773   1.973
    1XTA   HL2944102  29.108  -1.010   1.984
    1XTA   HL3044103  29.078  -1.032   2.150
    1XTA   HL3144104  28.881  -1.121   2.064
    1XTA   HL3244105  28.838  -0.981   2.133
    1XTA   HL3344106  28.747  -1.013   1.901
    1XTA   HL3444107  28.840  -0.873   1.904
    1XTA   HL3544108  28.950  -0.853   1.708
    1XTA   HL3644109  28.792  -0.944   1.678
    1XTA   HL3744110  28.964  -0.836   1.441
    1XTA   HL3844111  28.824  -0.941   1.432
    1XTA   HL3944112  28.997  -0.931   1.220
    1XTA   HL4044113  28.931  -1.083   1.279
    1XTA   HL4144114  29.090  -1.043   1.339
    1XTA    CO844115  27.818  -0.231   1.068
    1XTA    CO944116  27.959  -0.284   1.276
    1XTA    OA644117  27.936  -0.185   1.319
    1XTA   HL4244118  27.746  -0.277   1.000
    1XTA   HL4344119  27.746  -0.131   1.123
    1XTA   HL4444120  28.943  -1.217   1.481
    1XTA   HL4544121  28.921  -1.214   1.652
    1XTA   CO1044122  28.899  -1.162   1.561
    1XTA   CO1144123  29.105  -1.034   1.600
    1XTA    OA744124  28.758  -1.147   1.541
    1XTA   HL4644125  29.122  -1.030   1.707
    1XTA   HL4744126  29.149  -0.949   1.559
    1XTA   HL4844127  28.059  -0.302   1.230
    1XTA   HL4944128  27.954  -0.354   1.354
    1XTA     NT44129  30.376  -0.295   0.617
    1XTA    CN144130  30.245  -0.295   0.558
    1XTA     C144131  30.185  -0.397   0.491
    1XTA     C244132  30.057  -0.382   0.429
    1XTA     C344133  29.983  -0.270   0.462
    1XTA     C444134  30.038  -0.161   0.525
    1XTA     C544135  30.169  -0.178   0.579
    1XTA    CN244136  30.385  -0.348   0.737
    1XTA     C644137  30.312  -0.280   0.839
    1XTA     C744138  30.318  -0.325   0.971
    1XTA     C844139  30.392  -0.437   1.002
    1XTA     C944140  30.459  -0.506   0.896
    1XTA    C1044141  30.463  -0.460   0.761
    1XTA    CN344142  30.481  -0.243   0.546
    1XTA    C1144143  30.498  -0.290   0.411
    1XTA    C1244144  30.608  -0.231   0.339
    1XTA    C1344145  30.686  -0.123   0.389
    1XTA    C1444146  30.675  -0.092   0.528
    1XTA    C1544147  30.574  -0.152   0.596
    1XTA     H144148  30.238  -0.489   0.481
    1XTA     H244149  30.010  -0.458   0.369
    1XTA     H344150  29.980  -0.067   0.534
    1XTA     H444151  30.220  -0.100   0.640
    1XTA     H544152  30.261  -0.186   0.810
    1XTA     H644153  30.270  -0.269   1.051
    1XTA     H744154  30.509  -0.595   0.918
    1XTA     H844155  30.511  -0.510   0.681
    1XTA     H944156  30.427  -0.356   0.360
    1XTA    H1044157  30.624  -0.249   0.234
    1XTA    H1144158  30.735  -0.022   0.576
    1XTA    H1244159  30.561  -0.138   0.702
    1XTA    OA144160  29.853  -0.267   0.416
    1XTA    CO144161  29.757  -0.213   0.512
    1XTA    OA244162  30.413  -0.496   1.122
    1XTA    CO244163  30.335  -0.434   1.225
    1XTA    CL144164  30.386  -0.490   1.364
    1XTA    CL244165  30.542  -0.470   1.386
    1XTA    CL344166  30.588  -0.549   1.512
    1XTA    CL444167  30.741  -0.533   1.525
    1XTA    CO344168  30.779  -0.387   1.558
    1XTA    OA344169  30.770  -0.298   1.446
    1XTA    CO444170  30.857  -0.315   1.332
    1XTA    CT144171  30.881  -0.185   1.251
    1XTA    CL544172  30.745  -0.142   1.176
    1XTA    CL644173  30.689  -0.245   1.081
    1XTA    OA444174  30.789  -0.054   0.325
    1XTA    CO544175  30.747  -0.001   0.203
    1XTA    CL744176  30.742   0.150   0.204
    1XTA    CL844177  30.877   0.217   0.245
    1XTA    CL944178  30.851   0.361   0.289
    1XTA   CL1044179  30.979   0.435   0.349
    1XTA    CO644180  30.959   0.579   0.372
    1XTA    OA544181  31.029   0.609   0.488
    1XTA    CO744182  30.968   0.685   0.587
    1XTA    CT244183  31.068   0.719   0.707
    1XTA   CL1144184  30.981   0.780   0.827
    1XTA   CL1244185  31.044   0.795   0.964
    1XTA    HL144186  29.787  -0.108   0.511
    1XTA    HL244187  29.647  -0.211   0.473
    1XTA    HL344188  29.754  -0.263   0.607
    1XTA    HL444189  30.357  -0.324   1.224
    1XTA    HL544190  30.230  -0.459   1.211
    1XTA    HL644191  30.358  -0.594   1.373
    1XTA    HL744192  30.324  -0.436   1.431
    1XTA    HL844193  30.558  -0.362   1.396
    1XTA    HL944194  30.601  -0.503   1.300
    1XTA   HL1044195  30.536  -0.514   1.598
    1XTA   HL1144196  30.565  -0.658   1.510
    1XTA   HL1244197  30.790  -0.578   1.440
    1XTA   HL1344198  30.775  -0.600   1.602
    1XTA   HL1444199  30.719  -0.357   1.651
    1XTA   HL1544200  30.880  -0.409   1.586
    1XTA   HL1644201  30.950  -0.351   1.363
    1XTA   HL1744202  30.818  -0.397   1.269
    1XTA   HL1844203  30.770  -0.054   1.113
    1XTA   HL1944204  30.666  -0.122   1.247
    1XTA   HL2044205  30.598  -0.188   1.047
    1XTA   HL2144206  30.664  -0.332   1.143
    1XTA   HL2244207  30.756  -0.274   1.002
    1XTA   HL2344208  30.642  -0.034   0.186
    1XTA   HL2444209  30.811  -0.036   0.119
    1XTA   HL2544210  30.692   0.188   0.113
    1XTA   HL2644211  30.658   0.177   0.278
    1XTA   HL2744212  30.916   0.148   0.327
    1XTA   HL2844213  30.946   0.228   0.155
    1XTA   HL2944214  30.808   0.425   0.209
    1XTA   HL3044215  30.761   0.354   0.364
    1XTA   HL3144216  31.013   0.372   0.433
    1XTA   HL3244217  31.060   0.430   0.279
    1XTA   HL3344218  30.993   0.636   0.289
    1XTA   HL3444219  30.853   0.610   0.388
    1XTA   HL3544220  30.877   0.642   0.625
    1XTA   HL3644221  30.946   0.779   0.540
    1XTA   HL3744222  30.887   0.728   0.826
    1XTA   HL3844223  30.952   0.881   0.794
    1XTA   HL3944224  31.030   0.693   1.014
    1XTA   HL4044225  30.996   0.877   1.022
    1XTA   HL4144226  31.147   0.813   0.959
    1XTA    CO844227  30.988  -0.231   1.146
    1XTA    CO944228  30.947  -0.076   1.334
    1XTA    OA644229  31.000   0.035   1.266
    1XTA   HL4244230  31.079  -0.233   1.196
    1XTA   HL4344231  30.995  -0.140   1.079
    1XTA   HL4444232  31.241   0.819   0.752
    1XTA   HL4544233  31.242   0.769   0.583
    1XTA   CO1044234  31.180   0.816   0.664
    1XTA   CO1144235  31.136   0.572   0.729
    1XTA    OA744236  31.136   0.915   0.642
    1XTA   HL4644237  31.208   0.518   0.619
    1XTA   HL4744238  31.057   0.495   0.743
    1XTA   HL4844239  31.038  -0.123   1.376
    1XTA   HL4944240  30.874  -0.040   1.411
    1XTA     NT44241  28.236   2.021   5.856
    1XTA    CN144242  28.287   1.898   5.873
    1XTA     C144243  28.393   1.855   5.801
    1XTA     C244244  28.443   1.723   5.804
    1XTA     C344245  28.390   1.635   5.899
    1XTA     C444246  28.286   1.676   5.980
    1XTA     C544247  28.227   1.800   5.958
    1XTA    CN244248  28.107   2.026   5.822
    1XTA     C644249  28.074   2.013   5.684
    1XTA     C744250  27.938   2.020   5.639
    1XTA     C844251  27.835   2.012   5.735
    1XTA     C944252  27.864   2.033   5.871
    1XTA    C1044253  28.000   2.044   5.914
    1XTA    CN344254  28.314   2.135   5.842
    1XTA    C1144255  28.441   2.142   5.897
    1XTA    C1244256  28.534   2.244   5.879
    1XTA    C1344257  28.491   2.360   5.810
    1XTA    C1444258  28.357   2.359   5.753
    1XTA    C1544259  28.267   2.248   5.773
    1XTA     H144260  28.433   1.916   5.720
    1XTA     H244261  28.521   1.691   5.732
    1XTA     H344262  28.239   1.615   6.055
    1XTA     H444263  28.138   1.825   6.012
    1XTA     H544264  28.155   1.995   5.609
    1XTA     H644265  27.913   2.023   5.538
    1XTA     H744266  27.790   2.038   5.953
    1XTA     H844267  28.016   2.068   6.020
    1XTA     H944268  28.476   2.056   5.948
    1XTA    H1044269  28.632   2.244   5.923
    1XTA    H1144270  28.326   2.439   5.688
    1XTA    H1244271  28.167   2.250   5.728
    1XTA    OA144272  28.437   1.506   5.921
    1XTA    CO144273  28.528   1.456   5.820
    1XTA    OA244274  27.702   1.988   5.696
    1XTA    CO244275  27.683   1.976   5.558
    1XTA    CL144276  27.541   1.931   5.529
    1XTA    CL244277  27.493   1.953   5.380
    1XTA    CL344278  27.458   2.097   5.345
    1XTA    CL444279  27.338   2.106   5.260
    1XTA    CO344280  27.277   2.246   5.239
    1XTA    OA344281  27.223   2.303   5.358
    1XTA    CO444282  27.115   2.244   5.419
    1XTA    CT144283  27.091   2.322   5.558
    1XTA    CL544284  27.219   2.322   5.650
    1XTA    CL644285  27.261   2.189   5.695
    1XTA    OA444286  28.569   2.474   5.787
    1XTA    CO544287  28.707   2.479   5.834
    1XTA    CL744288  28.787   2.600   5.780
    1XTA    CL844289  28.817   2.591   5.629
    1XTA    CL944290  28.903   2.708   5.574
    1XTA   CL1044291  28.942   2.679   5.437
    1XTA    CO644292  28.988   2.796   5.366
    1XTA    OA544293  29.044   2.772   5.236
    1XTA    CO744294  28.952   2.808   5.131
    1XTA    CT244295  28.977   2.724   5.006
    1XTA   CL1144296  28.883   2.745   4.887
    1XTA   CL1244297  28.891   2.887   4.827
    1XTA    HL144298  28.559   1.351   5.839
    1XTA    HL244299  28.484   1.454   5.721
    1XTA    HL344300  28.608   1.528   5.816
    1XTA    HL444301  27.700   2.074   5.522
    1XTA    HL544302  27.749   1.901   5.518
    1XTA    HL644303  27.477   1.983   5.595
    1XTA    HL744304  27.532   1.830   5.562
    1XTA    HL844305  27.412   1.890   5.359
    1XTA    HL944306  27.566   1.915   5.312
    1XTA   HL1044307  27.449   2.160   5.432
    1XTA   HL1144308  27.546   2.135   5.288
    1XTA   HL1244309  27.268   2.039   5.310
    1XTA   HL1344310  27.355   2.060   5.164
    1XTA   HL1444311  27.351   2.306   5.198
    1XTA   HL1544312  27.189   2.240   5.175
    1XTA   HL1644313  27.037   2.239   5.356
    1XTA   HL1744314  27.139   2.138   5.446
    1XTA   HL1844315  27.226   2.399   5.728
    1XTA   HL1944316  27.299   2.353   5.581
    1XTA   HL2044317  27.255   2.118   5.617
    1XTA   HL2144318  27.197   2.153   5.780
    1XTA   HL2244319  27.358   2.185   5.735
    1XTA   HL2344320  28.755   2.386   5.809
    1XTA   HL2444321  28.701   2.488   5.945
    1XTA   HL2544322  28.741   2.701   5.804
    1XTA   HL2644323  28.880   2.609   5.832
    1XTA   HL2744324  28.875   2.498   5.619
    1XTA   HL2844325  28.719   2.574   5.579
    1XTA   HL2944326  28.838   2.805   5.583
    1XTA   HL3044327  28.996   2.735   5.625
    1XTA   HL3144328  29.034   2.620   5.436
    1XTA   HL3244329  28.863   2.618   5.387
    1XTA   HL3344330  28.909   2.871   5.364
    1XTA   HL3444331  29.059   2.839   5.436
    1XTA   HL3544332  28.972   2.921   5.111
    1XTA   HL3644333  28.848   2.786   5.168
    1XTA   HL3744334  28.782   2.718   4.916
    1XTA   HL3844335  28.914   2.674   4.806
    1XTA   HL3944336  28.804   2.900   4.760
    1XTA   HL4044337  28.977   2.918   4.770
    1XTA   HL4144338  28.866   2.959   4.907
    1XTA    CO844339  26.967   2.269   5.637
    1XTA    CO944340  27.073   2.473   5.513
    1XTA    OA644341  26.922   2.346   5.705
    1XTA   HL4244342  26.993   2.183   5.700
    1XTA   HL4344343  26.886   2.245   5.566
    1XTA   HL4444344  29.049   2.550   5.116
    1XTA   HL4544345  28.872   2.557   5.102
    1XTA   CO1044346  28.969   2.574   5.045
    1XTA   CO1144347  29.123   2.743   4.964
    1XTA    OA744348  28.974   2.496   4.934
    1XTA   HL4644349  29.187   2.656   4.995
    1XTA   HL4744350  29.166   2.828   5.018
    1XTA   HL4844351  27.049   2.549   5.633
    1XTA   HL4944352  27.170   2.507   5.474
    1XTA     NT44353  32.615   2.258   5.581
    1XTA    CN144354  32.717   2.185   5.536
    1XTA     C144355  32.708   2.046   5.518
    1XTA     C244356  32.822   1.973   5.478
    1XTA     C344357  32.940   2.049   5.468
    1XTA     C444358  32.956   2.188   5.475
    1XTA     C544359  32.836   2.257   5.515
    1XTA    CN244360  32.567   2.233   5.709
    1XTA     C644361  32.452   2.147   5.735
    1XTA     C744362  32.404   2.128   5.861
    1XTA     C844363  32.463   2.194   5.972
    1XTA     C944364  32.575   2.273   5.948
    1XTA    C1044365  32.635   2.290   5.818
    1XTA    CN344366  32.562   2.349   5.501
    1XTA    C1144367  32.519   2.471   5.560
    1XTA    C1244368  32.428   2.559   5.494
    1XTA    C1344369  32.389   2.529   5.362
    1XTA    C1444370  32.445   2.416   5.296
    1XTA    C1544371  32.528   2.320   5.364
    1XTA     H144372  32.614   2.002   5.536
    1XTA     H244373  32.816   1.867   5.463
    1XTA     H344374  33.055   2.231   5.464
    1XTA     H444375  32.842   2.362   5.536
    1XTA     H544376  32.392   2.103   5.651
    1XTA     H644377  32.317   2.068   5.870
    1XTA     H744378  32.608   2.331   6.030
    1XTA     H844379  32.727   2.342   5.807
    1XTA     H944380  32.541   2.494   5.665
    1XTA    H1044381  32.396   2.653   5.539
    1XTA    H1144382  32.415   2.406   5.191
    1XTA    H1244383  32.567   2.234   5.310
    1XTA    OA144384  33.062   1.988   5.449
    1XTA    CO144385  33.052   1.856   5.399
    1XTA    OA244386  32.407   2.174   6.099
    1XTA    CO244387  32.386   2.293   6.179
    1XTA    CL144388  32.257   2.359   6.120
    1XTA    CL244389  32.280   2.493   6.046
    1XTA    CL344390  32.189   2.513   5.924
    1XTA    CL444391  32.189   2.659   5.867
    1XTA    CO344392  32.091   2.681   5.751
    1XTA    OA344393  32.108   2.815   5.707
    1XTA    CO444394  32.049   2.912   5.790
    1XTA    CT144395  32.062   3.045   5.724
    1XTA    CL544396  32.019   3.147   5.833
    1XTA    CL644397  32.023   3.297   5.791
    1XTA    OA444398  32.283   2.604   5.317
    1XTA    CO544399  32.175   2.512   5.274
    1XTA    CL744400  32.110   2.444   5.392
    1XTA    CL844401  31.975   2.379   5.353
    1XTA    CL944402  31.869   2.472   5.290
    1XTA   CL1044403  31.721   2.435   5.306
    1XTA    CO644404  31.627   2.553   5.274
    1XTA    OA544405  31.524   2.541   5.367
    1XTA    CO744406  31.407   2.605   5.334
    1XTA    CT244407  31.296   2.578   5.434
    1XTA   CL1144408  31.285   2.425   5.471
    1XTA   CL1244409  31.385   2.365   5.568
    1XTA    HL144410  33.154   1.819   5.381
    1XTA    HL244411  33.008   1.780   5.463
    1XTA    HL344412  32.995   1.852   5.311
    1XTA    HL444413  32.371   2.253   6.274
    1XTA    HL544414  32.478   2.345   6.180
    1XTA    HL644415  32.185   2.360   6.193
    1XTA    HL744416  32.209   2.300   6.046
    1XTA    HL844417  32.381   2.509   6.008
    1XTA    HL944418  32.261   2.573   6.099
    1XTA   HL1044419  32.223   2.444   5.853
    1XTA   HL1144420  32.088   2.485   5.943
    1XTA   HL1244421  32.290   2.696   5.848
    1XTA   HL1344422  32.153   2.712   5.950
    1XTA   HL1444423  32.128   2.618   5.665
    1XTA   HL1544424  31.986   2.664   5.764
    1XTA   HL1644425  31.947   2.878   5.812
    1XTA   HL1744426  32.104   2.897   5.881
    1XTA   HL1844427  32.085   3.139   5.919
    1XTA   HL1944428  31.916   3.124   5.879
    1XTA   HL2044429  31.957   3.310   5.710
    1XTA   HL2144430  32.126   3.333   5.772
    1XTA   HL2244431  31.979   3.364   5.868
    1XTA   HL2344432  32.204   2.450   5.186
    1XTA   HL2444433  32.111   2.584   5.226
    1XTA   HL2544434  32.178   2.373   5.442
    1XTA   HL2644435  32.079   2.528   5.460
    1XTA   HL2744436  32.006   2.301   5.286
    1XTA   HL2844437  31.939   2.351   5.450
    1XTA   HL2944438  31.881   2.577   5.325
    1XTA   HL3044439  31.890   2.482   5.177
    1XTA   HL3144440  31.692   2.345   5.253
    1XTA   HL3244441  31.707   2.402   5.409
    1XTA   HL3344442  31.672   2.653   5.295
    1XTA   HL3444443  31.589   2.556   5.175
    1XTA   HL3544444  31.383   2.570   5.235
    1XTA   HL3644445  31.425   2.708   5.336
    1XTA   HL3744446  31.285   2.370   5.375
    1XTA   HL3844447  31.186   2.410   5.500
    1XTA   HL3944448  31.362   2.260   5.583
    1XTA   HL4044449  31.377   2.417   5.666
    1XTA   HL4144450  31.477   2.391   5.522
    1XTA    CO844451  31.965   3.052   5.598
    1XTA    CO944452  32.209   3.057   5.669
    1XTA    OA644453  32.232   3.181   5.610
    1XTA   HL4244454  31.977   3.153   5.558
    1XTA   HL4344455  32.006   2.986   5.525
    1XTA   HL4444456  31.055   2.609   5.460
    1XTA   HL4544457  31.141   2.556   5.294
    1XTA   CO1044458  31.166   2.622   5.374
    1XTA   CO1144459  31.314   2.664   5.560
    1XTA    OA744460  31.419   2.652   5.603
    1XTA   HL4644461  31.299   2.769   5.540
    1XTA   HL4744462  31.244   2.628   5.638
    1XTA   HL4844463  32.246   2.973   5.611
    1XTA   HL4944464  32.274   3.054   5.758
    1XTA     NT44465  32.481   0.947   1.321
    1XTA    CN144466  32.381   1.016   1.262
    1XTA     C144467  32.248   0.992   1.304
    1XTA     C244468  32.142   1.078   1.260
    1XTA     C344469  32.171   1.189   1.173
    1XTA     C444470  32.308   1.211   1.136
    1XTA     C544471  32.409   1.122   1.176
    1XTA    CN244472  32.525   0.823   1.278
    1XTA     C644473  32.521   0.713   1.358
    1XTA     C744474  32.581   0.590   1.331
    1XTA     C844475  32.644   0.573   1.206
    1XTA     C944476  32.632   0.678   1.108
    1XTA    C1044477  32.576   0.800   1.147
    1XTA    CN344478  32.535   0.987   1.440
    1XTA    C1144479  32.493   0.945   1.569
    1XTA    C1244480  32.561   0.987   1.684
    1XTA    C1344481  32.677   1.065   1.681
    1XTA    C1444482  32.715   1.114   1.552
    1XTA    C1544483  32.633   1.082   1.438
    1XTA     H144484  32.232   0.912   1.374
    1XTA     H244485  32.045   1.066   1.305
    1XTA     H344486  32.332   1.299   1.078
    1XTA     H444487  32.507   1.147   1.140
    1XTA     H544488  32.464   0.717   1.445
    1XTA     H644489  32.583   0.508   1.403
    1XTA     H744490  32.664   0.664   1.002
    1XTA     H844491  32.583   0.882   1.080
    1XTA     H944492  32.409   0.880   1.580
    1XTA    H1044493  32.528   0.961   1.785
    1XTA    H1144494  32.791   1.188   1.540
    1XTA    H1244495  32.672   1.125   1.347
    1XTA    OA144496  32.070   1.261   1.126
    1XTA    CO144497  32.080   1.325   0.999
    1XTA    OA244498  32.716   0.455   1.196
    1XTA    CO244499  32.832   0.462   1.118
    1XTA    CL144500  32.915   0.339   1.157
    1XTA    CL244501  33.056   0.343   1.104
    1XTA    CL344502  33.155   0.235   1.161
    1XTA    CL444503  33.191   0.257   1.307
    1XTA    CO344504  33.331   0.319   1.329
    1XTA    OA344505  33.343   0.373   1.459
    1XTA    CO444506  33.344   0.279   1.566
    1XTA    CT144507  33.369   0.350   1.700
    1XTA    CL544508  33.510   0.417   1.707
    1XTA    CL644509  33.622   0.309   1.718
    1XTA    OA444510  32.724   1.111   1.800
    1XTA    CO544511  32.809   1.225   1.796
    1XTA    CL744512  32.831   1.281   1.932
    1XTA    CL844513  32.956   1.364   1.942
    1XTA    CL944514  33.083   1.268   1.930
    1XTA   CL1044515  33.217   1.335   1.966
    1XTA    CO644516  33.344   1.242   1.961
    1XTA    OA544517  33.329   1.152   1.856
    1XTA    CO744518  33.368   1.203   1.730
    1XTA    CT244519  33.339   1.097   1.624
    1XTA   CL1144520  33.404   0.963   1.646
    1XTA   CL1244521  33.560   0.965   1.650
    1XTA    HL144522  32.082   1.244   0.923
    1XTA    HL244523  31.994   1.386   0.979
    1XTA    HL344524  32.171   1.389   0.988
    1XTA    HL444525  32.809   0.478   1.012
    1XTA    HL544526  32.887   0.549   1.151
    1XTA    HL644527  32.860   0.248   1.124
    1XTA    HL744528  32.911   0.344   1.268
    1XTA    HL844529  33.083   0.452   1.106
    1XTA    HL944530  33.047   0.338   0.996
    1XTA   HL1044531  33.121   0.129   1.148
    1XTA   HL1144532  33.239   0.247   1.095
    1XTA   HL1244533  33.178   0.164   1.362
    1XTA   HL1344534  33.121   0.321   1.357
    1XTA   HL1444535  33.421   0.265   1.307
    1XTA   HL1544536  33.333   0.402   1.263
    1XTA   HL1644537  33.249   0.231   1.574
    1XTA   HL1744538  33.413   0.200   1.543
    1XTA   HL1844539  33.511   0.464   1.807
    1XTA   HL1944540  33.519   0.484   1.622
    1XTA   HL2044541  33.720   0.366   1.730
    1XTA   HL2144542  33.632   0.250   1.632
    1XTA   HL2244543  33.623   0.239   1.802
    1XTA   HL2344544  32.757   1.305   1.738
    1XTA   HL2444545  32.908   1.201   1.759
    1XTA   HL2544546  32.746   1.345   1.952
    1XTA   HL2644547  32.849   1.203   2.009
    1XTA   HL2744548  32.967   1.446   1.865
    1XTA   HL2844549  32.949   1.413   2.044
    1XTA   HL2944550  33.077   1.172   1.988
    1XTA   HL3044551  33.076   1.237   1.830
    1XTA   HL3144552  33.233   1.413   1.890
    1XTA   HL3244553  33.212   1.394   2.057
    1XTA   HL3344554  33.441   1.299   1.961
    1XTA   HL3444555  33.342   1.174   2.041
    1XTA   HL3544556  33.477   1.220   1.725
    1XTA   HL3644557  33.328   1.296   1.700
    1XTA   HL3744558  33.375   0.905   1.556
    1XTA   HL3844559  33.378   0.904   1.737
    1XTA   HL3944560  33.608   0.872   1.657
    1XTA   HL4044561  33.587   1.013   1.750
    1XTA   HL4144562  33.605   1.030   1.570
    1XTA    CO844563  33.353   0.254   1.821
    1XTA    CO944564  33.262   0.453   1.729
    1XTA    OA644565  33.129   0.412   1.712
    1XTA   HL4244566  33.398   0.162   1.792
    1XTA   HL4344567  33.252   0.228   1.821
    1XTA   HL4444568  33.492   1.162   1.478
    1XTA   HL4544569  33.357   1.082   1.414
    1XTA   CO1044570  33.388   1.147   1.488
    1XTA   CO1144571  33.182   1.073   1.606
    1XTA    OA744572  33.345   1.286   1.473
    1XTA   HL4644573  33.142   1.034   1.698
    1XTA   HL4744574  33.133   1.170   1.593
    1XTA   HL4844575  33.273   0.537   1.651
    1XTA   HL4944576  33.285   0.503   1.824
    1XTA     NT44577  35.319  -1.348   2.956
    1XTA    CN144578  35.373  -1.470   2.977
    1XTA     C144579  35.508  -1.492   2.995
    1XTA     C244580  35.564  -1.621   3.013
    1XTA     C344581  35.479  -1.733   3.018
    1XTA     C444582  35.344  -1.715   2.997
    1XTA     C544583  35.290  -1.589   2.979
    1XTA    CN244584  35.208  -1.314   3.024
    1XTA     C644585  35.081  -1.331   2.964
    1XTA     C744586  34.965  -1.299   3.035
    1XTA     C844587  34.971  -1.261   3.174
    1XTA     C944588  35.096  -1.248   3.237
    1XTA    C1044589  35.217  -1.269   3.159
    1XTA    CN344590  35.374  -1.264   2.862
    1XTA    C1144591  35.363  -1.289   2.729
    1XTA    C1244592  35.405  -1.196   2.636
    1XTA    C1344593  35.462  -1.078   2.680
    1XTA    C1444594  35.484  -1.055   2.817
    1XTA    C1544595  35.453  -1.157   2.910
    1XTA     H144596  35.573  -1.406   2.984
    1XTA     H244597  35.672  -1.636   3.025
    1XTA     H344598  35.274  -1.801   3.007
    1XTA     H444599  35.183  -1.570   2.964
    1XTA     H544600  35.075  -1.358   2.867
    1XTA     H644601  34.866  -1.305   2.989
    1XTA     H744602  35.101  -1.233   3.346
    1XTA     H844603  35.309  -1.272   3.200
    1XTA     H944604  35.307  -1.379   2.695
    1XTA    H1044605  35.376  -1.210   2.537
    1XTA    H1144606  35.543  -0.970   2.850
    1XTA    H1244607  35.473  -1.156   3.013
    1XTA    OA144608  35.522  -1.862   3.039
    1XTA    CO144609  35.658  -1.887   3.014
    1XTA    OA244610  34.855  -1.247   3.237
    1XTA    CO244611  34.850  -1.180   3.362
    1XTA    CL144612  34.705  -1.165   3.408
    1XTA    CL244613  34.693  -1.111   3.553
    1XTA    CL344614  34.573  -1.159   3.636
    1XTA    CL444615  34.554  -1.311   3.629
    1XTA    CO344616  34.477  -1.376   3.750
    1XTA    OA344617  34.346  -1.319   3.762
    1XTA    CO444618  34.264  -1.313   3.651
    1XTA    CT144619  34.121  -1.249   3.680
    1XTA    CL544620  34.054  -1.338   3.789
    1XTA    CL644621  33.941  -1.283   3.874
    1XTA    OA444622  35.497  -0.998   2.577
    1XTA    CO544623  35.612  -0.918   2.589
    1XTA    CL744624  35.746  -0.991   2.621
    1XTA    CL844625  35.872  -0.901   2.615
    1XTA    CL944626  36.002  -0.963   2.667
    1XTA   CL1044627  36.030  -0.926   2.813
    1XTA    CO644628  36.165  -0.995   2.840
    1XTA    OA544629  36.183  -1.002   2.987
    1XTA    CO744630  36.225  -0.869   3.028
    1XTA    CT244631  36.284  -0.868   3.164
    1XTA   CL1144632  36.320  -0.716   3.190
    1XTA   CL1244633  36.388  -0.678   3.323
    1XTA    HL144634  35.734  -1.839   3.072
    1XTA    HL244635  35.681  -1.994   3.029
    1XTA    HL344636  35.691  -1.858   2.916
    1XTA    HL444637  34.896  -1.256   3.433
    1XTA    HL544638  34.905  -1.081   3.358
    1XTA    HL644639  34.655  -1.262   3.384
    1XTA    HL744640  34.669  -1.089   3.331
    1XTA    HL844641  34.694  -0.998   3.550
    1XTA    HL944642  34.778  -1.132   3.617
    1XTA   HL1044643  34.576  -1.122   3.736
    1XTA   HL1144644  34.485  -1.110   3.599
    1XTA   HL1244645  34.652  -1.354   3.642
    1XTA   HL1344646  34.517  -1.345   3.527
    1XTA   HL1444647  34.470  -1.487   3.749
    1XTA   HL1544648  34.529  -1.334   3.839
    1XTA   HL1644649  34.317  -1.256   3.577
    1XTA   HL1744650  34.259  -1.413   3.619
    1XTA   HL1844651  34.130  -1.385   3.850
    1XTA   HL1944652  34.014  -1.422   3.734
    1XTA   HL2044653  33.977  -1.212   3.945
    1XTA   HL2144654  33.892  -1.360   3.932
    1XTA   HL2244655  33.874  -1.227   3.808
    1XTA   HL2344656  35.594  -0.858   2.668
    1XTA   HL2444657  35.623  -0.855   2.501
    1XTA   HL2544658  35.735  -1.026   2.727
    1XTA   HL2644659  35.763  -1.092   2.579
    1XTA   HL2744660  35.872  -0.873   2.511
    1XTA   HL2844661  35.842  -0.815   2.672
    1XTA   HL2944662  35.992  -1.073   2.653
    1XTA   HL3044663  36.080  -0.945   2.596
    1XTA   HL3144664  36.032  -0.819   2.824
    1XTA   HL3244665  35.944  -0.970   2.866
    1XTA   HL3344666  36.168  -1.095   2.810
    1XTA   HL3444667  36.254  -0.940   2.796
    1XTA   HL3544668  36.135  -0.812   3.027
    1XTA   HL3644669  36.291  -0.826   2.953
    1XTA   HL3744670  36.237  -0.653   3.162
    1XTA   HL3844671  36.412  -0.696   3.117
    1XTA   HL3944672  36.335  -0.722   3.405
    1XTA   HL4044673  36.385  -0.565   3.329
    1XTA   HL4144674  36.491  -0.713   3.321
    1XTA    CO844675  34.046  -1.250   3.548
    1XTA    CO944676  34.144  -1.102   3.724
    1XTA    OA644677  33.939  -1.243   3.538
    1XTA   HL4244678  34.087  -1.324   3.473
    1XTA   HL4344679  34.076  -1.155   3.507
    1XTA   HL4444680  36.405  -1.029   3.097
    1XTA   HL4544681  36.505  -0.886   3.112
    1XTA   CO1044682  36.421  -0.945   3.159
    1XTA   CO1144683  36.183  -0.917   3.274
    1XTA    OA744684  36.460  -0.975   3.259
    1XTA   HL4644685  36.252  -0.959   3.395
    1XTA   HL4744686  36.140  -1.017   3.241
    1XTA   HL4844687  34.030  -1.046   3.775
    1XTA   HL4944688  34.219  -1.101   3.808
    1XTA     NT44689  26.812   0.166   7.516
    1XTA    CN144690  26.864   0.274   7.576
    1XTA     C144691  26.781   0.360   7.648
    1XTA     C244692  26.823   0.486   7.702
    1XTA     C344693  26.956   0.532   7.683
    1XTA     C444694  27.042   0.440   7.623
    1XTA     C544695  26.992   0.313   7.566
    1XTA    CN244696  26.828   0.048   7.586
    1XTA     C644697  26.717  -0.001   7.662
    1XTA     C744698  26.722  -0.128   7.724
    1XTA     C844699  26.832  -0.215   7.705
    1XTA     C944700  26.936  -0.166   7.632
    1XTA    C1044701  26.941  -0.034   7.586
    1XTA    CN344702  26.763   0.176   7.393
    1XTA    C1144703  26.631   0.137   7.369
    1XTA    C1244704  26.583   0.117   7.241
    1XTA    C1344705  26.667   0.138   7.131
    1XTA    C1444706  26.801   0.194   7.148
    1XTA    C1544707  26.849   0.205   7.283
    1XTA     H144708  26.677   0.333   7.663
    1XTA     H244709  26.749   0.549   7.759
    1XTA     H344710  27.148   0.450   7.616
    1XTA     H444711  27.065   0.253   7.511
    1XTA     H544712  26.618   0.049   7.672
    1XTA     H644713  26.632  -0.154   7.770
    1XTA     H744714  27.019  -0.229   7.616
    1XTA     H844715  27.031   0.002   7.536
    1XTA     H944716  26.577   0.108   7.457
    1XTA    H1044717  26.486   0.069   7.221
    1XTA    H1144718  26.854   0.229   7.061
    1XTA    H1244719  26.951   0.245   7.300
    1XTA    OA144720  26.999   0.643   7.750
    1XTA    CO144721  27.134   0.683   7.733
    1XTA    OA244722  26.839  -0.348   7.758
    1XTA    CO244723  26.743  -0.386   7.854
    1XTA    CL144724  26.764  -0.308   7.987
    1XTA    CL244725  26.674  -0.312   8.114
    1XTA    CL344726  26.536  -0.365   8.069
    1XTA    CL444727  26.451  -0.267   7.996
    1XTA    CO344728  26.313  -0.327   7.968
    1XTA    OA344729  26.323  -0.459   7.921
    1XTA    CO444730  26.195  -0.516   7.901
    1XTA    CT144731  26.203  -0.663   7.946
    1XTA    CL544732  26.261  -0.686   8.087
    1XTA    CL644733  26.195  -0.595   8.193
    1XTA    OA444734  26.618   0.111   7.004
    1XTA    CO544735  26.665  -0.015   6.947
    1XTA    CL744736  26.576  -0.138   6.990
    1XTA    CL844737  26.645  -0.270   7.025
    1XTA    CL944738  26.699  -0.259   7.169
    1XTA   CL1044739  26.769  -0.393   7.221
    1XTA    CO644740  26.820  -0.392   7.365
    1XTA    OA544741  26.872  -0.514   7.391
    1XTA    CO744742  26.889  -0.537   7.521
    1XTA    CT244743  26.926  -0.690   7.545
    1XTA   CL1144744  26.938  -0.718   7.698
    1XTA   CL1244745  26.977  -0.864   7.738
    1XTA    HL144746  27.157   0.778   7.779
    1XTA    HL244747  27.201   0.608   7.785
    1XTA    HL344748  27.158   0.696   7.633
    1XTA    HL444749  26.651  -0.358   7.813
    1XTA    HL544750  26.752  -0.498   7.862
    1XTA    HL644751  26.772  -0.198   7.972
    1XTA    HL744752  26.863  -0.338   8.017
    1XTA    HL844753  26.670  -0.224   8.174
    1XTA    HL944754  26.702  -0.392   8.179
    1XTA   HL1044755  26.554  -0.441   7.993
    1XTA   HL1144756  26.472  -0.398   8.153
    1XTA   HL1244757  26.495  -0.228   7.904
    1XTA   HL1344758  26.439  -0.178   8.044
    1XTA   HL1444759  26.245  -0.319   8.055
    1XTA   HL1544760  26.257  -0.273   7.899
    1XTA   HL1644761  26.111  -0.459   7.948
    1XTA   HL1744762  26.163  -0.514   7.799
    1XTA   HL1844763  26.366  -0.675   8.093
    1XTA   HL1944764  26.238  -0.788   8.108
    1XTA   HL2044765  26.205  -0.489   8.170
    1XTA   HL2144766  26.261  -0.600   8.281
    1XTA   HL2244767  26.099  -0.623   8.227
    1XTA   HL2344768  26.764  -0.026   6.981
    1XTA   HL2444769  26.688  -0.009   6.841
    1XTA   HL2544770  26.529  -0.117   7.079
    1XTA   HL2644771  26.495  -0.157   6.914
    1XTA   HL2744772  26.570  -0.356   7.021
    1XTA   HL2844773  26.724  -0.275   6.947
    1XTA   HL2944774  26.780  -0.182   7.190
    1XTA   HL3044775  26.630  -0.242   7.251
    1XTA   HL3144776  26.687  -0.464   7.222
    1XTA   HL3244777  26.851  -0.425   7.166
    1XTA   HL3344778  26.897  -0.318   7.370
    1XTA   HL3444779  26.741  -0.363   7.442
    1XTA   HL3544780  26.798  -0.506   7.569
    1XTA   HL3644781  26.970  -0.463   7.547
    1XTA   HL3744782  26.857  -0.671   7.751
    1XTA   HL3844783  27.026  -0.661   7.726
    1XTA   HL3944784  27.006  -0.861   7.847
    1XTA   HL4044785  27.064  -0.919   7.687
    1XTA   HL4144786  26.878  -0.921   7.732
    1XTA    CO844787  26.284  -0.741   7.835
    1XTA    CO944788  26.057  -0.721   7.932
    1XTA    OA644789  26.376  -0.686   7.802
    1XTA   HL4244790  26.229  -0.782   7.752
    1XTA   HL4344791  26.321  -0.828   7.889
    1XTA   HL4444792  27.068  -0.823   7.449
    1XTA   HL4544793  27.038  -0.676   7.363
    1XTA   CO1044794  27.059  -0.719   7.466
    1XTA   CO1144795  26.813  -0.775   7.479
    1XTA    OA744796  27.143  -0.674   7.516
    1XTA   HL4644797  26.835  -0.911   7.483
    1XTA   HL4744798  26.807  -0.751   7.372
    1XTA   HL4844799  25.961  -0.651   8.010
    1XTA   HL4944800  26.065  -0.822   7.968
    1XTA     NT44801  31.595   1.823  -1.599
    1XTA    CN144802  31.606   1.737  -1.696
    1XTA     C144803  31.725   1.727  -1.773
    1XTA     C244804  31.732   1.630  -1.876
    1XTA     C344805  31.613   1.559  -1.910
    1XTA     C444806  31.495   1.576  -1.834
    1XTA     C544807  31.482   1.673  -1.733
    1XTA    CN244808  31.599   1.778  -1.470
    1XTA     C644809  31.480   1.736  -1.408
    1XTA     C744810  31.472   1.690  -1.278
    1XTA     C844811  31.590   1.686  -1.199
    1XTA     C944812  31.708   1.729  -1.257
    1XTA    C1044813  31.720   1.774  -1.391
    1XTA    CN344814  31.583   1.954  -1.630
    1XTA    C1144815  31.684   2.046  -1.623
    1XTA    C1244816  31.660   2.179  -1.676
    1XTA    C1344817  31.536   2.213  -1.730
    1XTA    C1444818  31.430   2.118  -1.735
    1XTA    C1544819  31.460   1.985  -1.684
    1XTA     H144820  31.812   1.786  -1.747
    1XTA     H244821  31.832   1.618  -1.921
    1XTA     H344822  31.407   1.521  -1.849
    1XTA     H444823  31.395   1.677  -1.673
    1XTA     H544824  31.389   1.743  -1.462
    1XTA     H644825  31.373   1.674  -1.240
    1XTA     H744826  31.794   1.727  -1.187
    1XTA     H844827  31.818   1.793  -1.441
    1XTA     H944828  31.786   2.023  -1.580
    1XTA    H1044829  31.748   2.236  -1.661
    1XTA    H1144830  31.332   2.131  -1.770
    1XTA    H1244831  31.380   1.905  -1.690
    1XTA    OA144832  31.610   1.471  -2.009
    1XTA    CO144833  31.664   1.529  -2.131
    1XTA    OA244834  31.592   1.642  -1.071
    1XTA    CO244835  31.473   1.605  -0.993
    1XTA    CL144836  31.408   1.475  -1.035
    1XTA    CL244837  31.519   1.377  -1.073
    1XTA    CL344838  31.482   1.237  -1.106
    1XTA    CL444839  31.603   1.163  -1.173
    1XTA    CO344840  31.563   1.018  -1.229
    1XTA    OA344841  31.665   0.964  -1.306
    1XTA    CO444842  31.656   0.822  -1.318
    1XTA    CT144843  31.767   0.774  -1.418
    1XTA    CL544844  31.770   0.616  -1.416
    1XTA    CL644845  31.635   0.541  -1.440
    1XTA    OA444846  31.527   2.341  -1.775
    1XTA    CO544847  31.396   2.378  -1.820
    1XTA    CL744848  31.405   2.525  -1.859
    1XTA    CL844849  31.272   2.594  -1.846
    1XTA    CL944850  31.277   2.706  -1.737
    1XTA   CL1044851  31.148   2.737  -1.668
    1XTA    CO644852  31.082   2.622  -1.588
    1XTA    OA544853  31.172   2.590  -1.486
    1XTA    CO744854  31.130   2.481  -1.402
    1XTA    CT244855  31.236   2.479  -1.293
    1XTA   CL1144856  31.378   2.463  -1.354
    1XTA   CL1244857  31.408   2.330  -1.434
    1XTA    HL144858  31.776   1.539  -2.125
    1XTA    HL244859  31.656   1.461  -2.210
    1XTA    HL344860  31.613   1.617  -2.169
    1XTA    HL444861  31.508   1.579  -0.894
    1XTA    HL544862  31.417   1.694  -0.962
    1XTA    HL644863  31.330   1.492  -1.109
    1XTA    HL744864  31.345   1.433  -0.955
    1XTA    HL844865  31.606   1.377  -1.008
    1XTA    HL944866  31.558   1.413  -1.168
    1XTA   HL1044867  31.461   1.176  -1.015
    1XTA   HL1144868  31.401   1.234  -1.168
    1XTA   HL1244869  31.686   1.159  -1.105
    1XTA   HL1344870  31.638   1.223  -1.257
    1XTA   HL1444871  31.548   0.953  -1.149
    1XTA   HL1544872  31.474   1.021  -1.295
    1XTA   HL1644873  31.667   0.770  -1.217
    1XTA   HL1744874  31.555   0.805  -1.333
    1XTA   HL1844875  31.820   0.579  -1.325
    1XTA   HL1944876  31.839   0.588  -1.495
    1XTA   HL2044877  31.641   0.433  -1.459
    1XTA   HL2144878  31.583   0.581  -1.529
    1XTA   HL2244879  31.557   0.561  -1.368
    1XTA   HL2344880  31.323   2.362  -1.736
    1XTA   HL2444881  31.364   2.312  -1.899
    1XTA   HL2544882  31.474   2.585  -1.798
    1XTA   HL2644883  31.427   2.522  -1.965
    1XTA   HL2744884  31.250   2.649  -1.938
    1XTA   HL2844885  31.188   2.532  -1.838
    1XTA   HL2944886  31.347   2.671  -1.659
    1XTA   HL3044887  31.331   2.795  -1.763
    1XTA   HL3144888  31.171   2.817  -1.604
    1XTA   HL3244889  31.077   2.768  -1.738
    1XTA   HL3344890  30.996   2.665  -1.539
    1XTA   HL3444891  31.058   2.532  -1.650
    1XTA   HL3544892  31.117   2.383  -1.466
    1XTA   HL3644893  31.035   2.517  -1.358
    1XTA   HL3744894  31.457   2.477  -1.279
    1XTA   HL3844895  31.392   2.547  -1.427
    1XTA   HL3944896  31.348   2.317  -1.523
    1XTA   HL4044897  31.417   2.245  -1.370
    1XTA   HL4144898  31.511   2.326  -1.476
    1XTA    CO844899  31.907   0.831  -1.388
    1XTA    CO944900  31.729   0.815  -1.559
    1XTA    OA644901  32.010   0.801  -1.484
    1XTA   HL4244902  31.938   0.798  -1.287
    1XTA   HL4344903  31.906   0.934  -1.375
    1XTA   HL4444904  31.291   2.338  -1.149
    1XTA   HL4544905  31.119   2.366  -1.121
    1XTA   CO1044906  31.199   2.356  -1.201
    1XTA   CO1144907  31.229   2.605  -1.197
    1XTA    OA744908  31.162   2.242  -1.279
    1XTA   HL4644909  31.132   2.605  -1.148
    1XTA   HL4744910  31.234   2.701  -1.253
    1XTA   HL4844911  31.805   0.779  -1.625
    1XTA   HL4944912  31.632   0.774  -1.579
    1XTA     NT44913  31.637   1.918  -0.307
    1XTA    CN144914  31.618   2.001  -0.205
    1XTA     C144915  31.692   1.989  -0.092
    1XTA     C244916  31.667   2.074   0.022
    1XTA     C344917  31.561   2.165   0.026
    1XTA     C444918  31.486   2.186  -0.095
    1XTA     C544919  31.512   2.097  -0.199
    1XTA    CN244920  31.579   1.794  -0.321
    1XTA     C644921  31.658   1.677  -0.327
    1XTA     C744922  31.601   1.550  -0.332
    1XTA     C844923  31.462   1.533  -0.323
    1XTA     C944924  31.378   1.649  -0.316
    1XTA    C1044925  31.440   1.777  -0.319
    1XTA    CN344926  31.722   1.961  -0.407
    1XTA    C1144927  31.669   1.999  -0.533
    1XTA    C1244928  31.756   2.031  -0.635
    1XTA    C1344929  31.892   2.027  -0.616
    1XTA    C1444930  31.940   2.001  -0.487
    1XTA    C1544931  31.858   1.977  -0.382
    1XTA     H144932  31.760   1.909  -0.085
    1XTA     H244933  31.723   2.048   0.109
    1XTA     H344934  31.427   2.284  -0.092
    1XTA     H444935  31.452   2.116  -0.285
    1XTA     H544936  31.767   1.689  -0.333
    1XTA     H644937  31.662   1.457  -0.350
    1XTA     H744938  31.269   1.661  -0.324
    1XTA     H844939  31.372   1.856  -0.326
    1XTA     H944940  31.565   1.993  -0.551
    1XTA    H1044941  31.721   2.055  -0.733
    1XTA    H1144942  32.050   1.999  -0.458
    1XTA    H1244943  31.900   1.953  -0.282
    1XTA    OA144944  31.527   2.231   0.138
    1XTA    CO144945  31.410   2.304   0.143
    1XTA    OA244946  31.404   1.403  -0.337
    1XTA    CO244947  31.268   1.390  -0.335
    1XTA    CL144948  31.235   1.238  -0.342
    1XTA    CL244949  31.086   1.221  -0.352
    1XTA    CL344950  31.050   1.071  -0.345
    1XTA    CL444951  31.126   0.971  -0.433
    1XTA    CO344952  31.079   0.826  -0.408
    1XTA    OA344953  31.154   0.732  -0.480
    1XTA    CO444954  31.108   0.607  -0.465
    1XTA    CT144955  31.211   0.512  -0.523
    1XTA    CL544956  31.268   0.563  -0.654
    1XTA    CL644957  31.146   0.567  -0.755
    1XTA    OA444958  31.992   2.056  -0.703
    1XTA    CO544959  31.960   2.104  -0.835
    1XTA    CL744960  31.906   1.994  -0.927
    1XTA    CL844961  31.862   2.055  -1.060
    1XTA    CL944962  31.723   2.122  -1.046
    1XTA   CL1044963  31.597   2.028  -1.071
    1XTA    CO644964  31.464   2.099  -1.057
    1XTA    OA544965  31.345   2.016  -1.075
    1XTA    CO744966  31.318   1.999  -1.216
    1XTA    CT244967  31.166   1.997  -1.247
    1XTA   CL1144968  31.142   1.949  -1.394
    1XTA   CL1244969  31.197   2.037  -1.503
    1XTA    HL144970  31.425   2.403   0.093
    1XTA    HL244971  31.322   2.243   0.114
    1XTA    HL344972  31.391   2.337   0.249
    1XTA    HL444973  31.231   1.442  -0.247
    1XTA    HL544974  31.222   1.437  -0.424
    1XTA    HL644975  31.266   1.185  -0.245
    1XTA    HL744976  31.294   1.189  -0.428
    1XTA    HL844977  31.062   1.266  -0.452
    1XTA    HL944978  31.033   1.277  -0.279
    1XTA   HL1044979  31.052   1.059  -0.237
    1XTA   HL1144980  30.948   1.051  -0.371
    1XTA   HL1244981  31.230   0.973  -0.402
    1XTA   HL1344982  31.127   1.008  -0.541
    1XTA   HL1444983  31.081   0.801  -0.302
    1XTA   HL1544984  30.975   0.813  -0.424
    1XTA   HL1644985  31.108   0.593  -0.355
    1XTA   HL1744986  31.007   0.600  -0.504
    1XTA   HL1844987  31.348   0.494  -0.686
    1XTA   HL1944988  31.319   0.656  -0.633
    1XTA   HL2044989  31.063   0.633  -0.716
    1XTA   HL2144990  31.109   0.469  -0.790
    1XTA   HL2244991  31.178   0.622  -0.847
    1XTA   HL2344992  32.051   2.137  -0.875
    1XTA   HL2444993  31.883   2.186  -0.824
    1XTA   HL2544994  31.986   1.922  -0.944
    1XTA   HL2644995  31.811   1.954  -0.884
    1XTA   HL2744996  31.941   2.114  -1.093
    1XTA   HL2844997  31.858   1.963  -1.123
    1XTA   HL2944998  31.726   2.174  -0.955
    1XTA   HL3044999  31.714   2.192  -1.127
    1XTA   HL3145000  31.602   1.981  -1.167
    1XTA   HL3245001  31.605   1.949  -0.994
    1XTA   HL3345002  31.466   2.126  -0.954
    1XTA   HL3445003  31.455   2.182  -1.120
    1XTA   HL3545004  31.359   1.901  -1.239
    1XTA   HL3645005  31.371   2.068  -1.287
    1XTA   HL3745006  31.034   1.939  -1.413
    1XTA   HL3845007  31.175   1.846  -1.408
    1XTA   HL3945008  31.295   2.066  -1.506
    1XTA   HL4045009  31.143   2.136  -1.508
    1XTA   HL4145010  31.180   1.994  -1.596
    1XTA    CO845011  31.167   0.366  -0.541
    1XTA    CO945012  31.330   0.498  -0.425
    1XTA    OA645013  31.406   0.572  -0.434
    1XTA   HL4245014  31.083   0.354  -0.609
    1XTA   HL4345015  31.269   0.299  -0.604
    1XTA   HL4445016  31.110   2.147  -1.058
    1XTA   HL4545017  30.997   2.127  -1.233
    1XTA   CO1045018  31.106   2.129  -1.202
    1XTA   CO1145019  31.099   1.890  -1.158
    1XTA    OA745020  30.988   1.879  -1.169
    1XTA   HL4645021  31.148   1.799  -1.191
    1XTA   HL4745022  31.125   1.914  -1.059
    1XTA   HL4845023  31.391   0.413  -0.447
    1XTA   HL4945024  31.291   0.492  -0.326
    1XTA     NT45025  26.867   0.290   4.851
    1XTA    CN145026  26.993   0.270   4.815
    1XTA     C145027  27.039   0.152   4.756
    1XTA     C245028  27.175   0.125   4.735
    1XTA     C345029  27.265   0.229   4.776
    1XTA     C445030  27.225   0.341   4.840
    1XTA     C545031  27.090   0.363   4.864
    1XTA    CN245032  26.830   0.214   4.961
    1XTA     C645033  26.760   0.094   4.946
    1XTA     C745034  26.710   0.023   5.061
    1XTA     C845035  26.731   0.074   5.191
    1XTA     C945036  26.800   0.200   5.205
    1XTA    C1045037  26.846   0.267   5.091
    1XTA    CN345038  26.765   0.332   4.776
    1XTA    C1145039  26.717   0.254   4.671
    1XTA    C1245040  26.613   0.299   4.591
    1XTA    C1345041  26.553   0.422   4.616
    1XTA    C1445042  26.603   0.497   4.724
    1XTA    C1545043  26.697   0.450   4.812
    1XTA     H145044  26.971   0.078   4.717
    1XTA     H245045  27.207   0.039   4.691
    1XTA     H345046  27.298   0.414   4.867
    1XTA     H445047  27.065   0.448   4.928
    1XTA     H545048  26.751   0.051   4.846
    1XTA     H645049  26.654  -0.068   5.048
    1XTA     H745050  26.808   0.252   5.295
    1XTA     H845051  26.898   0.360   5.101
    1XTA     H945052  26.767   0.167   4.635
    1XTA    H1045053  26.585   0.242   4.505
    1XTA    H1145054  26.566   0.603   4.735
    1XTA    H1245055  26.742   0.517   4.883
    1XTA    OA145056  27.406   0.219   4.758
    1XTA    CO145057  27.465   0.120   4.664
    1XTA    OA245058  26.674   0.015   5.305
    1XTA    CO245059  26.574  -0.086   5.282
    1XTA    CL145060  26.491  -0.108   5.413
    1XTA    CL245061  26.409  -0.239   5.421
    1XTA    CL345062  26.296  -0.240   5.317
    1XTA    CL445063  26.189  -0.351   5.361
    1XTA    CO345064  26.112  -0.428   5.252
    1XTA    OA345065  25.976  -0.404   5.279
    1XTA    CO445066  25.930  -0.326   5.169
    1XTA    CT145067  25.790  -0.251   5.193
    1XTA    CL545068  25.805  -0.121   5.270
    1XTA    CL645069  25.819  -0.142   5.425
    1XTA    OA445070  26.453   0.464   4.535
    1XTA    CO545071  26.394   0.600   4.547
    1XTA    CL745072  26.293   0.592   4.663
    1XTA    CL845073  26.218   0.726   4.680
    1XTA    CL945074  26.297   0.834   4.750
    1XTA   CL1045075  26.212   0.936   4.828
    1XTA    CO645076  26.123   1.014   4.730
    1XTA    OA545077  26.207   1.065   4.625
    1XTA    CO745078  26.125   1.086   4.511
    1XTA    CT245079  26.196   1.161   4.399
    1XTA   CL1145080  26.105   1.166   4.276
    1XTA   CL1245081  26.059   1.039   4.208
    1XTA    HL145082  27.469   0.160   4.565
    1XTA    HL245083  27.562   0.101   4.686
    1XTA    HL345084  27.415   0.019   4.651
    1XTA    HL445085  26.511  -0.039   5.200
    1XTA    HL545086  26.614  -0.185   5.265
    1XTA    HL645087  26.432  -0.018   5.442
    1XTA    HL745088  26.553  -0.125   5.494
    1XTA    HL845089  26.374  -0.259   5.523
    1XTA    HL945090  26.477  -0.320   5.410
    1XTA   HL1045091  26.253  -0.139   5.315
    1XTA   HL1145092  26.336  -0.257   5.224
    1XTA   HL1245093  26.121  -0.320   5.447
    1XTA   HL1345094  26.235  -0.428   5.418
    1XTA   HL1445095  26.148  -0.408   5.150
    1XTA   HL1545096  26.123  -0.535   5.274
    1XTA   HL1645097  26.001  -0.246   5.134
    1XTA   HL1745098  25.924  -0.396   5.089
    1XTA   HL1845099  25.729  -0.049   5.262
    1XTA   HL1945100  25.888  -0.069   5.228
    1XTA   HL2045101  25.897  -0.216   5.451
    1XTA   HL2145102  25.722  -0.174   5.460
    1XTA   HL2245103  25.840  -0.052   5.477
    1XTA   HL2345104  26.360   0.634   4.450
    1XTA   HL2445105  26.476   0.669   4.571
    1XTA   HL2545106  26.217   0.512   4.647
    1XTA   HL2645107  26.349   0.557   4.749
    1XTA   HL2745108  26.194   0.767   4.584
    1XTA   HL2845109  26.121   0.712   4.738
    1XTA   HL2945110  26.363   0.787   4.816
    1XTA   HL3045111  26.360   0.896   4.679
    1XTA   HL3145112  26.158   0.893   4.916
    1XTA   HL3245113  26.283   1.008   4.884
    1XTA   HL3345114  26.044   0.964   4.683
    1XTA   HL3445115  26.090   1.095   4.789
    1XTA   HL3545116  26.032   1.142   4.531
    1XTA   HL3645117  26.103   0.986   4.468
    1XTA   HL3745118  26.154   1.240   4.207
    1XTA   HL3845119  26.019   1.214   4.309
    1XTA   HL3945120  26.013   1.060   4.113
    1XTA   HL4045121  25.993   0.981   4.274
    1XTA   HL4145122  26.142   0.976   4.178
    1XTA    CO845123  25.681  -0.342   5.254
    1XTA    CO945124  25.754  -0.216   5.044
    1XTA    OA645125  25.648  -0.423   5.188
    1XTA   HL4245126  25.596  -0.283   5.293
    1XTA   HL4345127  25.721  -0.393   5.341
    1XTA   HL4445128  26.382   1.053   4.453
    1XTA   HL4545129  26.301   0.992   4.313
    1XTA   CO1045130  26.329   1.089   4.360
    1XTA   CO1145131  26.238   1.299   4.451
    1XTA    OA745132  26.393   1.148   4.289
    1XTA   HL4645133  26.327   1.367   4.368
    1XTA   HL4745134  26.300   1.279   4.540
    1XTA   HL4845135  25.861  -0.189   4.959
    1XTA   HL4945136  25.712  -0.305   4.995
    1XTA     NT45137  29.208  -0.276   4.788
    1XTA    CN145138  29.308  -0.371   4.788
    1XTA     C145139  29.283  -0.505   4.786
    1XTA     C245140  29.388  -0.602   4.786
    1XTA     C345141  29.521  -0.569   4.771
    1XTA     C445142  29.548  -0.435   4.762
    1XTA     C545143  29.447  -0.340   4.772
    1XTA    CN245144  29.137  -0.235   4.893
    1XTA     C645145  29.109  -0.337   4.992
    1XTA     C745146  29.031  -0.292   5.107
    1XTA     C845147  28.978  -0.160   5.119
    1XTA     C945148  29.008  -0.065   5.022
    1XTA    C1045149  29.085  -0.106   4.912
    1XTA    CN345150  29.158  -0.237   4.668
    1XTA    C1145151  29.242  -0.158   4.587
    1XTA    C1245152  29.184  -0.103   4.473
    1XTA    C1345153  29.048  -0.126   4.432
    1XTA    C1445154  28.973  -0.207   4.515
    1XTA    C1545155  29.024  -0.267   4.627
    1XTA     H145156  29.181  -0.537   4.798
    1XTA     H245157  29.366  -0.705   4.807
    1XTA     H345158  29.647  -0.388   4.766
    1XTA     H445159  29.477  -0.239   4.766
    1XTA     H545160  29.150  -0.443   4.988
    1XTA     H645161  29.007  -0.358   5.194
    1XTA     H745162  28.979   0.045   5.022
    1XTA     H845163  29.113  -0.026   4.840
    1XTA     H945164  29.342  -0.133   4.628
    1XTA    H1045165  29.244  -0.050   4.412
    1XTA    H1145166  28.882  -0.243   4.471
    1XTA    H1245167  28.967  -0.341   4.687
    1XTA    OA145168  29.626  -0.657   4.757
    1XTA    CO145169  29.601  -0.796   4.737
    1XTA    OA245170  28.914  -0.131   5.232
    1XTA    CO245171  28.902   0.007   5.260
    1XTA    CL145172  28.849   0.014   5.402
    1XTA    CL245173  28.957  -0.008   5.510
    1XTA    CL345174  28.897  -0.039   5.647
    1XTA    CL445175  29.004  -0.059   5.757
    1XTA    CO345176  28.941  -0.096   5.890
    1XTA    OA345177  29.047  -0.113   5.980
    1XTA    CO445178  29.001  -0.151   6.116
    1XTA    CT145179  29.114  -0.237   6.175
    1XTA    CL545180  29.249  -0.157   6.168
    1XTA    CL645181  29.258  -0.048   6.275
    1XTA    OA445182  28.996  -0.071   4.315
    1XTA    CO545183  29.080  -0.001   4.226
    1XTA    CL745184  28.996   0.041   4.103
    1XTA    CL845185  28.872   0.117   4.137
    1XTA    CL945186  28.799   0.158   4.009
    1XTA   CL1045187  28.666   0.241   4.016
    1XTA    CO645188  28.588   0.251   3.890
    1XTA    OA545189  28.662   0.308   3.786
    1XTA    CO745190  28.593   0.324   3.658
    1XTA    CT245191  28.657   0.441   3.582
    1XTA   CL1145192  28.652   0.562   3.672
    1XTA   CL1245193  28.684   0.693   3.611
    1XTA    HL145194  29.690  -0.852   4.706
    1XTA    HL245195  29.578  -0.832   4.838
    1XTA    HL345196  29.517  -0.808   4.675
    1XTA    HL445197  29.006   0.049   5.252
    1XTA    HL545198  28.848   0.058   5.183
    1XTA    HL645199  28.771  -0.068   5.396
    1XTA    HL745200  28.798   0.106   5.412
    1XTA    HL845201  29.022   0.076   5.524
    1XTA    HL945202  29.022  -0.095   5.486
    1XTA   HL1045203  28.829   0.044   5.674
    1XTA   HL1145204  28.839  -0.128   5.631
    1XTA   HL1245205  29.066   0.032   5.774
    1XTA   HL1345206  29.070  -0.139   5.717
    1XTA   HL1445207  28.879  -0.014   5.930
    1XTA   HL1545208  28.869  -0.172   5.881
    1XTA   HL1645209  28.979  -0.052   6.157
    1XTA   HL1745210  28.914  -0.209   6.096
    1XTA   HL1845211  29.260  -0.109   6.068
    1XTA   HL1945212  29.336  -0.222   6.169
    1XTA   HL2045213  29.355   0.002   6.265
    1XTA   HL2145214  29.263  -0.110   6.362
    1XTA   HL2245215  29.175   0.024   6.267
    1XTA   HL2345216  29.166  -0.060   4.191
    1XTA   HL2445217  29.132   0.079   4.276
    1XTA   HL2545218  29.063   0.109   4.044
    1XTA   HL2645219  28.973  -0.050   4.041
    1XTA   HL2745220  28.812   0.067   4.206
    1XTA   HL2845221  28.896   0.214   4.180
    1XTA   HL2945222  28.861   0.228   3.949
    1XTA   HL3045223  28.787   0.066   3.950
    1XTA   HL3145224  28.600   0.202   4.091
    1XTA   HL3245225  28.687   0.345   4.052
    1XTA   HL3345226  28.560   0.148   3.861
    1XTA   HL3445227  28.495   0.306   3.918
    1XTA   HL3545228  28.490   0.340   3.676
    1XTA   HL3645229  28.599   0.226   3.613
    1XTA   HL3745230  28.720   0.548   3.758
    1XTA   HL3845231  28.559   0.563   3.712
    1XTA   HL3945232  28.630   0.723   3.518
    1XTA   HL4045233  28.784   0.683   3.579
    1XTA   HL4145234  28.678   0.785   3.670
    1XTA    CO845235  29.114  -0.355   6.074
    1XTA    CO945236  29.080  -0.286   6.321
    1XTA    OA645237  29.201  -0.467   6.095
    1XTA   HL4245238  29.147  -0.318   5.980
    1XTA   HL4345239  29.013  -0.398   6.068
    1XTA   HL4445240  28.622   0.528   3.385
    1XTA   HL4545241  28.550   0.364   3.400
    1XTA   CO1045242  28.574   0.459   3.452
    1XTA   CO1145243  28.801   0.418   3.540
    1XTA    OA745244  28.484   0.510   3.472
    1XTA   HL4645245  28.876   0.399   3.652
    1XTA   HL4745246  28.842   0.503   3.486
    1XTA   HL4845247  29.060  -0.211   6.394
    1XTA   HL4945248  29.157  -0.343   6.375
    1XTA     NT45249  29.321   3.002   2.260
    1XTA    CN145250  29.407   2.958   2.164
    1XTA     C145251  29.377   2.857   2.068
    1XTA     C245252  29.454   2.846   1.955
    1XTA     C345253  29.574   2.919   1.940
    1XTA     C445254  29.618   3.004   2.046
    1XTA     C545255  29.532   3.032   2.149
    1XTA    CN245256  29.282   3.131   2.258
    1XTA     C645257  29.212   3.178   2.148
    1XTA     C745258  29.151   3.311   2.155
    1XTA     C845259  29.168   3.388   2.271
    1XTA     C945260  29.253   3.336   2.375
    1XTA    C1045261  29.308   3.207   2.375
    1XTA    CN345262  29.231   2.917   2.325
    1XTA    C1145263  29.266   2.861   2.454
    1XTA    C1245264  29.176   2.771   2.519
    1XTA    C1345265  29.047   2.746   2.463
    1XTA    C1445266  29.012   2.805   2.343
    1XTA    C1545267  29.102   2.891   2.281
    1XTA     H145268  29.283   2.810   2.072
    1XTA     H245269  29.416   2.786   1.869
    1XTA     H345270  29.718   3.046   2.047
    1XTA     H445271  29.567   3.099   2.228
    1XTA     H545272  29.189   3.118   2.049
    1XTA     H645273  29.087   3.342   2.068
    1XTA     H745274  29.256   3.392   2.464
    1XTA     H845275  29.362   3.173   2.461
    1XTA     H945276  29.365   2.875   2.493
    1XTA    H1045277  29.209   2.724   2.612
    1XTA    H1145278  28.918   2.783   2.291
    1XTA    H1245279  29.081   2.928   2.180
    1XTA    OA145280  29.654   2.897   1.827
    1XTA    CO145281  29.592   2.840   1.716
    1XTA    OA245282  29.090   3.498   2.299
    1XTA    CO245283  28.977   3.534   2.215
    1XTA    CL145284  28.855   3.430   2.221
    1XTA    CL245285  28.808   3.391   2.358
    1XTA    CL345286  28.892   3.282   2.425
    1XTA    CL445287  28.824   3.220   2.545
    1XTA    CO345288  28.888   3.078   2.564
    1XTA    OA345289  28.827   3.018   2.678
    1XTA    CO445290  28.900   2.916   2.748
    1XTA    CT145291  28.984   2.979   2.871
    1XTA    CL545292  29.024   2.868   2.971
    1XTA    CL645293  29.104   2.753   2.899
    1XTA    OA445294  28.972   2.661   2.541
    1XTA    CO545295  28.832   2.653   2.516
    1XTA    CL745296  28.776   2.591   2.645
    1XTA    CL845297  28.823   2.444   2.662
    1XTA    CL945298  28.747   2.369   2.766
    1XTA   CL1045299  28.597   2.371   2.762
    1XTA    CO645300  28.539   2.318   2.630
    1XTA    OA545301  28.399   2.348   2.632
    1XTA    CO745302  28.367   2.481   2.616
    1XTA    CT245303  28.245   2.505   2.527
    1XTA   CL1145304  28.205   2.657   2.524
    1XTA   CL1245305  28.327   2.746   2.537
    1XTA    HL145306  29.663   2.847   1.625
    1XTA    HL245307  29.579   2.737   1.743
    1XTA    HL345308  29.497   2.890   1.670
    1XTA    HL445309  28.944   3.640   2.228
    1XTA    HL545310  28.998   3.531   2.110
    1XTA    HL645311  28.883   3.337   2.172
    1XTA    HL745312  28.783   3.479   2.162
    1XTA    HL845313  28.705   3.364   2.357
    1XTA    HL945314  28.794   3.478   2.419
    1XTA   HL1045315  28.917   3.210   2.352
    1XTA   HL1145316  28.990   3.335   2.439
    1XTA   HL1245317  28.722   3.207   2.521
    1XTA   HL1345318  28.830   3.283   2.631
    1XTA   HL1445319  28.875   3.020   2.470
    1XTA   HL1545320  28.995   3.098   2.571
    1XTA   HL1645321  28.837   2.834   2.783
    1XTA   HL1745322  28.978   2.873   2.680
    1XTA   HL1845323  28.940   2.831   3.035
    1XTA   HL1945324  29.095   2.914   3.037
    1XTA   HL2045325  29.054   2.717   2.814
    1XTA   HL2145326  29.100   2.665   2.960
    1XTA   HL2245327  29.210   2.769   2.880
    1XTA   HL2345328  28.810   2.590   2.427
    1XTA   HL2445329  28.799   2.756   2.493
    1XTA   HL2545330  28.818   2.647   2.731
    1XTA   HL2645331  28.664   2.605   2.656
    1XTA   HL2745332  28.817   2.398   2.566
    1XTA   HL2845333  28.926   2.449   2.690
    1XTA   HL2945334  28.768   2.265   2.760
    1XTA   HL3045335  28.789   2.410   2.851
    1XTA   HL3145336  28.550   2.321   2.846
    1XTA   HL3245337  28.554   2.469   2.784
    1XTA   HL3345338  28.592   2.361   2.543
    1XTA   HL3445339  28.544   2.207   2.619
    1XTA   HL3545340  28.456   2.541   2.588
    1XTA   HL3645341  28.355   2.504   2.719
    1XTA   HL3745342  28.124   2.673   2.600
    1XTA   HL3845343  28.161   2.689   2.432
    1XTA   HL3945344  28.298   2.843   2.510
    1XTA   HL4045345  28.404   2.712   2.470
    1XTA   HL4145346  28.374   2.751   2.643
    1XTA    CO845347  28.886   3.072   2.942
    1XTA    CO945348  29.106   3.072   2.833
    1XTA    OA645349  29.193   3.017   2.794
    1XTA   HL4245350  28.790   3.018   2.956
    1XTA   HL4345351  28.845   3.181   2.862
    1XTA   HL4445352  28.111   2.444   2.690
    1XTA   HL4545353  28.156   2.279   2.587
    1XTA   CO1045354  28.131   2.415   2.585
    1XTA   CO1145355  28.279   2.443   2.388
    1XTA    OA745356  28.369   2.484   2.344
    1XTA   HL4645357  28.298   2.335   2.395
    1XTA   HL4745358  28.189   2.451   2.320
    1XTA   HL4845359  29.149   3.122   2.914
    1XTA   HL4945360  29.057   3.154   2.769
    1XTA     NT45361  29.829   0.020   2.998
    1XTA    CN145362  29.773   0.140   3.004
    1XTA     C145363  29.642   0.150   3.061
    1XTA     C245364  29.589   0.276   3.080
    1XTA     C345365  29.665   0.395   3.042
    1XTA     C445366  29.799   0.387   2.998
    1XTA     C545367  29.843   0.254   2.966
    1XTA    CN245368  29.859  -0.058   3.106
    1XTA     C645369  29.890   0.001   3.230
    1XTA     C745370  29.923  -0.077   3.338
    1XTA     C845371  29.937  -0.220   3.323
    1XTA     C945372  29.896  -0.277   3.198
    1XTA    C1045373  29.854  -0.197   3.094
    1XTA    CN345374  29.851  -0.033   2.876
    1XTA    C1145375  29.750  -0.098   2.796
    1XTA    C1245376  29.778  -0.149   2.670
    1XTA    C1345377  29.909  -0.140   2.624
    1XTA    C1445378  30.009  -0.070   2.695
    1XTA    C1545379  29.982  -0.016   2.822
    1XTA     H145380  29.586   0.060   3.096
    1XTA     H245381  29.491   0.285   3.124
    1XTA     H345382  29.851   0.473   2.962
    1XTA     H445383  29.944   0.241   2.927
    1XTA     H545384  29.895   0.110   3.235
    1XTA     H645385  29.941  -0.025   3.434
    1XTA     H745386  29.895  -0.383   3.173
    1XTA     H845387  29.813  -0.234   2.995
    1XTA     H945388  29.657  -0.119   2.840
    1XTA    H1045389  29.700  -0.190   2.611
    1XTA    H1145390  30.109  -0.060   2.661
    1XTA    H1245391  30.061   0.030   2.883
    1XTA    OA145392  29.613   0.525   3.042
    1XTA    CO145393  29.473   0.537   3.080
    1XTA    OA245394  29.973  -0.290   3.436
    1XTA    CO245395  29.989  -0.422   3.412
    1XTA    CL145396  30.048  -0.485   3.539
    1XTA    CL245397  30.180  -0.421   3.567
    1XTA    CL345398  30.240  -0.493   3.683
    1XTA    CL445399  30.383  -0.447   3.722
    1XTA    CO345400  30.375  -0.315   3.795
    1XTA    OA345401  30.358  -0.207   3.712
    1XTA    CO445402  30.349  -0.081   3.776
    1XTA    CT145403  30.302   0.017   3.664
    1XTA    CL545404  30.292   0.147   3.740
    1XTA    CL645405  30.412   0.215   3.799
    1XTA    OA445406  29.945  -0.178   2.496
    1XTA    CO545407  29.841  -0.218   2.411
    1XTA    CL745408  29.901  -0.203   2.261
    1XTA    CL845409  29.912  -0.057   2.206
    1XTA    CL945410  29.989  -0.073   2.069
    1XTA   CL1045411  30.025   0.052   1.988
    1XTA    CO645412  30.151   0.129   2.038
    1XTA    OA545413  30.170   0.235   1.947
    1XTA    CO745414  30.282   0.315   1.968
    1XTA    CT245415  30.321   0.411   1.855
    1XTA   CL1145416  30.444   0.492   1.902
    1XTA   CL1245417  30.484   0.604   1.803
    1XTA    HL145418  29.433   0.639   3.060
    1XTA    HL245419  29.405   0.462   3.037
    1XTA    HL345420  29.477   0.516   3.188
    1XTA    HL445421  29.894  -0.467   3.375
    1XTA    HL545422  30.074  -0.431   3.341
    1XTA    HL645423  30.057  -0.590   3.522
    1XTA    HL745424  29.986  -0.479   3.629
    1XTA    HL845425  30.167  -0.315   3.578
    1XTA    HL945426  30.240  -0.431   3.477
    1XTA   HL1045427  30.178  -0.482   3.773
    1XTA   HL1145428  30.245  -0.598   3.666
    1XTA   HL1245429  30.438  -0.439   3.629
    1XTA   HL1345430  30.437  -0.525   3.784
    1XTA   HL1445431  30.289  -0.316   3.864
    1XTA   HL1545432  30.471  -0.297   3.844
    1XTA   HL1645433  30.273  -0.088   3.858
    1XTA   HL1745434  30.446  -0.057   3.827
    1XTA   HL1845435  30.217   0.147   3.816
    1XTA   HL1945436  30.249   0.222   3.679
    1XTA   HL2045437  30.477   0.251   3.726
    1XTA   HL2145438  30.469   0.144   3.855
    1XTA   HL2245439  30.393   0.292   3.869
    1XTA   HL2345440  29.750  -0.162   2.421
    1XTA   HL2445441  29.820  -0.327   2.434
    1XTA   HL2545442  30.007  -0.240   2.276
    1XTA   HL2645443  29.848  -0.254   2.187
    1XTA   HL2745444  29.810  -0.004   2.202
    1XTA   HL2845445  29.968   0.006   2.273
    1XTA   HL2945446  30.082  -0.122   2.094
    1XTA   HL3045447  29.935  -0.143   2.007
    1XTA   HL3145448  30.045   0.024   1.883
    1XTA   HL3245449  29.934   0.111   1.984
    1XTA   HL3345450  30.133   0.177   2.131
    1XTA   HL3445451  30.245   0.065   2.056
    1XTA   HL3545452  30.369   0.249   1.986
    1XTA   HL3645453  30.269   0.376   2.052
    1XTA   HL3745454  30.531   0.427   1.907
    1XTA   HL3845455  30.433   0.542   1.998
    1XTA   HL3945456  30.497   0.569   1.699
    1XTA   HL4045457  30.568   0.659   1.834
    1XTA   HL4145458  30.408   0.680   1.785
    1XTA    CO845459  30.171  -0.028   3.598
    1XTA    CO945460  30.407   0.033   3.559
    1XTA    OA645461  30.390  -0.070   3.454
    1XTA   HL4245462  30.154  -0.122   3.541
    1XTA   HL4345463  30.167   0.037   3.517
    1XTA   HL4445464  30.116   0.434   1.794
    1XTA   HL4545465  30.155   0.568   1.901
    1XTA   CO1045466  30.195   0.507   1.816
    1XTA   CO1145467  30.346   0.338   1.727
    1XTA    OA745468  30.198   0.583   1.731
    1XTA   HL4645469  30.389   0.420   1.614
    1XTA   HL4745470  30.257   0.292   1.694
    1XTA   HL4845471  30.510   0.019   3.588
    1XTA   HL4945472  30.397   0.133   3.522
    1XTA     NT45473  30.824   2.460   5.239
    1XTA    CN145474  30.894   2.340   5.238
    1XTA     C145475  30.887   2.257   5.126
    1XTA     C245476  30.961   2.135   5.132
    1XTA     C345477  31.040   2.102   5.240
    1XTA     C445478  31.039   2.181   5.355
    1XTA     C545479  30.974   2.307   5.343
    1XTA    CN245480  30.816   2.535   5.127
    1XTA     C645481  30.932   2.584   5.068
    1XTA     C745482  30.917   2.665   4.955
    1XTA     C845483  30.790   2.701   4.906
    1XTA     C945484  30.674   2.655   4.974
    1XTA    C1045485  30.689   2.569   5.080
    1XTA    CN345486  30.761   2.504   5.348
    1XTA    C1145487  30.777   2.636   5.390
    1XTA    C1245488  30.696   2.690   5.489
    1XTA    C1345489  30.592   2.612   5.550
    1XTA    C1445490  30.574   2.485   5.503
    1XTA    C1545491  30.650   2.430   5.396
    1XTA     H145492  30.825   2.275   5.039
    1XTA     H245493  30.955   2.063   5.050
    1XTA     H345494  31.092   2.159   5.451
    1XTA     H445495  30.969   2.365   5.433
    1XTA     H545496  31.030   2.560   5.102
    1XTA     H645497  31.008   2.689   4.906
    1XTA     H745498  30.583   2.683   4.928
    1XTA     H845499  30.602   2.527   5.130
    1XTA     H945500  30.838   2.707   5.337
    1XTA    H1045501  30.707   2.789   5.525
    1XTA    H1145502  30.492   2.427   5.533
    1XTA    H1245503  30.634   2.330   5.365
    1XTA    OA145504  31.107   1.986   5.228
    1XTA    CO145505  31.205   1.952   5.331
    1XTA    OA245506  30.771   2.789   4.806
    1XTA    CO245507  30.893   2.832   4.744
    1XTA    CL145508  30.856   2.963   4.675
    1XTA    CL245509  30.967   3.043   4.604
    1XTA    CL345510  31.021   2.953   4.493
    1XTA    CL445511  31.148   2.880   4.538
    1XTA    CO345512  31.163   2.747   4.463
    1XTA    OA345513  31.047   2.668   4.494
    1XTA    CO445514  31.075   2.544   4.435
    1XTA    CT145515  30.940   2.471   4.430
    1XTA    CL545516  30.830   2.567   4.374
    1XTA    CL645517  30.853   2.639   4.240
    1XTA    OA445518  30.517   2.669   5.650
    1XTA    CO545519  30.419   2.761   5.618
    1XTA    CL745520  30.294   2.746   5.700
    1XTA    CL845521  30.173   2.838   5.660
    1XTA    CL945522  30.194   2.988   5.674
    1XTA   CL1045523  30.258   3.008   5.815
    1XTA    CO645524  30.243   3.141   5.881
    1XTA    OA545525  30.110   3.178   5.903
    1XTA    CO745526  30.096   3.283   6.003
    1XTA    CT245527  29.954   3.295   6.055
    1XTA   CL1145528  29.914   3.154   6.111
    1XTA   CL1245529  30.002   3.104   6.231
    1XTA    HL145530  31.289   2.019   5.326
    1XTA    HL245531  31.157   1.957   5.433
    1XTA    HL345532  31.244   1.850   5.321
    1XTA    HL445533  30.968   2.864   4.821
    1XTA    HL545534  30.937   2.759   4.686
    1XTA    HL645535  30.825   3.025   4.759
    1XTA    HL745536  30.773   2.941   4.603
    1XTA    HL845537  31.039   3.074   4.676
    1XTA    HL945538  30.911   3.133   4.564
    1XTA   HL1045539  30.955   2.882   4.458
    1XTA   HL1145540  31.046   3.004   4.408
    1XTA   HL1245541  31.135   2.860   4.643
    1XTA   HL1345542  31.236   2.941   4.524
    1XTA   HL1445543  31.161   2.765   4.360
    1XTA   HL1545544  31.255   2.703   4.483
    1XTA   HL1645545  31.112   2.553   4.336
    1XTA   HL1745546  31.145   2.483   4.487
    1XTA   HL1845547  30.802   2.642   4.442
    1XTA   HL1945548  30.731   2.522   4.374
    1XTA   HL2045549  30.773   2.711   4.212
    1XTA   HL2145550  30.872   2.562   4.166
    1XTA   HL2245551  30.946   2.697   4.245
    1XTA   HL2345552  30.406   2.762   5.509
    1XTA   HL2445553  30.454   2.859   5.650
    1XTA   HL2545554  30.258   2.647   5.683
    1XTA   HL2645555  30.319   2.754   5.803
    1XTA   HL2745556  30.144   2.825   5.553
    1XTA   HL2845557  30.092   2.808   5.723
    1XTA   HL2945558  30.254   3.035   5.589
    1XTA   HL3045559  30.100   3.043   5.680
    1XTA   HL3145560  30.225   2.933   5.884
    1XTA   HL3245561  30.367   2.992   5.801
    1XTA   HL3345562  30.306   3.133   5.970
    1XTA   HL3445563  30.288   3.223   5.820
    1XTA   HL3545564  30.126   3.382   5.954
    1XTA   HL3645565  30.163   3.268   6.081
    1XTA   HL3745566  29.919   3.076   6.025
    1XTA   HL3845567  29.810   3.154   6.138
    1XTA   HL3945568  29.999   2.993   6.237
    1XTA   HL4045569  29.986   3.162   6.319
    1XTA   HL4145570  30.104   3.121   6.209
    1XTA    CO845571  30.904   2.426   4.569
    1XTA    CO945572  30.949   2.354   4.336
    1XTA    OA645573  30.809   2.361   4.569
    1XTA   HL4245574  30.893   2.501   4.645
    1XTA   HL4345575  30.986   2.363   4.606
    1XTA   HL4445576  29.860   3.450   5.912
    1XTA   HL4545577  29.880   3.283   5.857
    1XTA   CO1045578  29.857   3.348   5.944
    1XTA   CO1145579  29.956   3.400   6.171
    1XTA    OA745580  29.997   3.529   6.125
    1XTA   HL4645581  29.858   3.419   6.209
    1XTA   HL4745582  30.030   3.364   6.250
    1XTA   HL4845583  30.828   2.308   4.276
    1XTA   HL4945584  31.016   2.389   4.253
    1XTA     NT45585  27.683   2.270   7.722
    1XTA    CN145586  27.639   2.403   7.729
    1XTA     C145587  27.564   2.457   7.624
    1XTA     C245588  27.528   2.590   7.618
    1XTA     C345589  27.545   2.671   7.731
    1XTA     C445590  27.628   2.624   7.835
    1XTA     C545591  27.677   2.489   7.834
    1XTA    CN245592  27.775   2.231   7.628
    1XTA     C645593  27.898   2.295   7.616
    1XTA     C745594  27.993   2.262   7.518
    1XTA     C845595  27.975   2.152   7.434
    1XTA     C945596  27.850   2.086   7.444
    1XTA    C1045597  27.750   2.125   7.542
    1XTA    CN345598  27.650   2.174   7.818
    1XTA    C1145599  27.733   2.152   7.931
    1XTA    C1245600  27.697   2.057   8.032
    1XTA    C1345601  27.573   1.984   8.020
    1XTA    C1445602  27.500   2.003   7.903
    1XTA    C1545603  27.535   2.097   7.807
    1XTA     H145604  27.543   2.398   7.544
    1XTA     H245605  27.481   2.630   7.532
    1XTA     H345606  27.644   2.694   7.913
    1XTA     H445607  27.737   2.453   7.914
    1XTA     H545608  27.937   2.372   7.687
    1XTA     H645609  28.082   2.322   7.526
    1XTA     H745610  27.821   2.005   7.374
    1XTA     H845611  27.655   2.080   7.553
    1XTA     H945612  27.825   2.203   7.957
    1XTA    H1045613  27.759   2.047   8.117
    1XTA    H1145614  27.411   1.948   7.890
    1XTA    H1245615  27.472   2.111   7.712
    1XTA    OA145616  27.504   2.803   7.746
    1XTA    CO145617  27.471   2.868   7.622
    1XTA    OA245618  28.067   2.121   7.338
    1XTA    CO245619  28.045   2.012   7.256
    1XTA    CL145620  28.164   1.981   7.170
    1XTA    CL245621  28.151   1.851   7.091
    1XTA    CL345622  28.189   1.726   7.177
    1XTA    CL445623  28.215   1.610   7.081
    1XTA    CO345624  28.089   1.538   7.019
    1XTA    OA345625  28.015   1.473   7.117
    1XTA    CO445626  27.890   1.422   7.063
    1XTA    CT145627  27.798   1.363   7.172
    1XTA    CL545628  27.766   1.475   7.275
    1XTA    CL645629  27.661   1.436   7.378
    1XTA    OA445630  27.545   1.891   8.118
    1XTA    CO545631  27.403   1.855   8.135
    1XTA    CL745632  27.388   1.707   8.126
    1XTA    CL845633  27.246   1.663   8.150
    1XTA    CL945634  27.250   1.510   8.171
    1XTA   CL1045635  27.116   1.455   8.208
    1XTA    CO645636  27.021   1.466   8.082
    1XTA    OA545637  26.953   1.590   8.092
    1XTA    CO745638  26.832   1.588   8.168
    1XTA    CT245639  26.763   1.728   8.166
    1XTA   CL1145640  26.609   1.729   8.209
    1XTA   CL1245641  26.570   1.637   8.325
    1XTA    HL145642  27.431   2.963   7.662
    1XTA    HL245643  27.561   2.882   7.549
    1XTA    HL345644  27.390   2.819   7.570
    1XTA    HL445645  28.020   1.927   7.312
    1XTA    HL545646  27.957   2.039   7.200
    1XTA    HL645647  28.248   1.962   7.243
    1XTA    HL745648  28.177   2.066   7.101
    1XTA    HL845649  28.218   1.853   7.006
    1XTA    HL945650  28.051   1.835   7.044
    1XTA   HL1045651  28.276   1.747   7.246
    1XTA   HL1145652  28.110   1.691   7.243
    1XTA   HL1245653  28.271   1.528   7.124
    1XTA   HL1345654  28.277   1.653   6.995
    1XTA   HL1445655  28.025   1.616   6.983
    1XTA   HL1545656  28.115   1.461   6.943
    1XTA   HL1645657  27.841   1.491   7.004
    1XTA   HL1745658  27.918   1.359   6.977
    1XTA   HL1845659  27.737   1.558   7.217
    1XTA   HL1945660  27.859   1.507   7.314
    1XTA   HL2045661  27.571   1.426   7.317
    1XTA   HL2145662  27.659   1.500   7.463
    1XTA   HL2245663  27.684   1.340   7.426
    1XTA   HL2345664  27.335   1.910   8.067
    1XTA   HL2445665  27.367   1.892   8.231
    1XTA   HL2545666  27.411   1.671   8.018
    1XTA   HL2645667  27.456   1.660   8.196
    1XTA   HL2745668  27.201   1.709   8.244
    1XTA   HL2845669  27.184   1.699   8.070
    1XTA   HL2945670  27.302   1.470   8.078
    1XTA   HL3045671  27.316   1.486   8.256
    1XTA   HL3145672  27.121   1.354   8.238
    1XTA   HL3245673  27.071   1.524   8.285
    1XTA   HL3345674  27.082   1.472   7.989
    1XTA   HL3445675  26.943   1.394   8.081
    1XTA   HL3545676  26.857   1.561   8.267
    1XTA   HL3645677  26.770   1.509   8.129
    1XTA   HL3745678  26.552   1.703   8.121
    1XTA   HL3845679  26.590   1.837   8.228
    1XTA   HL3945680  26.610   1.683   8.417
    1XTA   HL4045681  26.612   1.530   8.336
    1XTA   HL4145682  26.465   1.638   8.350
    1XTA    CO845683  27.869   1.246   7.233
    1XTA    CO945684  27.671   1.299   7.106
    1XTA    OA645685  27.613   1.384   7.062
    1XTA   HL4245686  27.873   1.175   7.145
    1XTA   HL4345687  28.002   1.274   7.265
    1XTA   HL4445688  26.736   1.721   7.956
    1XTA   HL4545689  26.908   1.794   7.996
    1XTA   CO1045690  26.776   1.791   8.032
    1XTA   CO1145691  26.847   1.821   8.264
    1XTA    OA745692  26.837   1.786   8.372
    1XTA   HL4645693  26.948   1.838   8.224
    1XTA   HL4745694  26.792   1.912   8.253
    1XTA   HL4845695  27.620   1.243   7.186
    1XTA   HL4945696  27.698   1.225   7.037
    1XTA     NT45697  33.242   2.687  -0.404
    1XTA    CN145698  33.309   2.794  -0.355
    1XTA     C145699  33.446   2.811  -0.399
    1XTA     C245700  33.511   2.929  -0.370
    1XTA     C345701  33.449   3.035  -0.305
    1XTA     C445702  33.313   3.023  -0.257
    1XTA     C545703  33.242   2.897  -0.280
    1XTA    CN245704  33.258   2.566  -0.347
    1XTA     C645705  33.155   2.497  -0.296
    1XTA     C745706  33.173   2.366  -0.252
    1XTA     C845707  33.301   2.301  -0.253
    1XTA     C945708  33.408   2.372  -0.312
    1XTA    C1045709  33.382   2.503  -0.359
    1XTA    CN345710  33.224   2.698  -0.539
    1XTA    C1145711  33.125   2.794  -0.584
    1XTA    C1245712  33.105   2.815  -0.719
    1XTA    C1345713  33.182   2.746  -0.814
    1XTA    C1445714  33.267   2.648  -0.771
    1XTA    C1545715  33.289   2.620  -0.637
    1XTA     H145716  33.498   2.738  -0.464
    1XTA     H245717  33.607   2.947  -0.407
    1XTA     H345718  33.258   3.108  -0.210
    1XTA     H445719  33.135   2.886  -0.259
    1XTA     H545720  33.060   2.549  -0.285
    1XTA     H645721  33.091   2.308  -0.196
    1XTA     H745722  33.507   2.337  -0.321
    1XTA     H845723  33.459   2.560  -0.414
    1XTA     H945724  33.069   2.852  -0.513
    1XTA    H1045725  33.023   2.886  -0.752
    1XTA    H1145726  33.317   2.601  -0.853
    1XTA    H1245727  33.367   2.547  -0.618
    1XTA    OA145728  33.508   3.152  -0.261
    1XTA    CO145729  33.644   3.165  -0.293
    1XTA    OA245730  33.308   2.165  -0.220
    1XTA    CO245731  33.436   2.102  -0.201
    1XTA    CL145732  33.419   1.959  -0.159
    1XTA    CL245733  33.560   1.907  -0.157
    1XTA    CL345734  33.558   1.759  -0.166
    1XTA    CL445735  33.694   1.698  -0.184
    1XTA    CO345736  33.690   1.545  -0.174
    1XTA    OA345737  33.665   1.485  -0.049
    1XTA    CO445738  33.709   1.347  -0.049
    1XTA    CT145739  33.692   1.278   0.089
    1XTA    CL545740  33.778   1.347   0.200
    1XTA    CL645741  33.925   1.356   0.163
    1XTA    OA445742  33.162   2.760  -0.947
    1XTA    CO545743  33.151   2.898  -0.987
    1XTA    CL745744  33.157   2.903  -1.137
    1XTA    CL845745  33.148   3.048  -1.189
    1XTA    CL945746  33.122   3.075  -1.337
    1XTA   CL1045747  32.992   3.008  -1.391
    1XTA    CO645748  32.979   3.030  -1.540
    1XTA    OA545749  33.094   2.987  -1.612
    1XTA    CO745750  33.108   2.843  -1.631
    1XTA    CT245751  33.241   2.829  -1.707
    1XTA   CL1145752  33.233   2.871  -1.859
    1XTA   CL1245753  33.223   3.026  -1.895
    1XTA    HL145754  33.680   3.266  -0.261
    1XTA    HL245755  33.711   3.090  -0.251
    1XTA    HL345756  33.659   3.164  -0.398
    1XTA    HL445757  33.482   2.112  -0.303
    1XTA    HL545758  33.489   2.162  -0.130
    1XTA    HL645759  33.348   1.914  -0.229
    1XTA    HL745760  33.372   1.954  -0.062
    1XTA    HL845761  33.626   1.957  -0.086
    1XTA    HL945762  33.608   1.935  -0.251
    1XTA   HL1045763  33.505   1.725  -0.078
    1XTA   HL1145764  33.492   1.726  -0.248
    1XTA   HL1245765  33.772   1.742  -0.119
    1XTA   HL1345766  33.731   1.720  -0.285
    1XTA   HL1445767  33.610   1.508  -0.251
    1XTA   HL1545768  33.775   1.506  -0.220
    1XTA   HL1645769  33.645   1.303  -0.128
    1XTA   HL1745770  33.809   1.343  -0.085
    1XTA   HL1845771  33.759   1.306   0.301
    1XTA   HL1945772  33.743   1.452   0.200
    1XTA   HL2045773  33.973   1.258   0.151
    1XTA   HL2145774  33.978   1.417   0.236
    1XTA   HL2245775  33.947   1.421   0.080
    1XTA   HL2345776  33.236   2.938  -0.947
    1XTA   HL2445777  33.068   2.954  -0.951
    1XTA   HL2545778  33.243   2.839  -1.175
    1XTA   HL2645779  33.070   2.846  -1.173
    1XTA   HL2745780  33.074   3.108  -1.139
    1XTA   HL2845781  33.235   3.105  -1.153
    1XTA   HL2945782  33.132   3.181  -1.367
    1XTA   HL3045783  33.200   3.024  -1.387
    1XTA   HL3145784  32.980   2.905  -1.360
    1XTA   HL3245785  32.911   3.074  -1.347
    1XTA   HL3345786  32.889   2.979  -1.573
    1XTA   HL3445787  32.961   3.136  -1.565
    1XTA   HL3545788  33.026   2.815  -1.699
    1XTA   HL3645789  33.095   2.801  -1.532
    1XTA   HL3745790  33.132   2.836  -1.890
    1XTA   HL3845791  33.318   2.815  -1.913
    1XTA   HL3945792  33.226   3.061  -1.996
    1XTA   HL4045793  33.304   3.093  -1.849
    1XTA   HL4145794  33.124   3.061  -1.862
    1XTA    CO845795  33.716   1.130   0.076
    1XTA    CO945796  33.544   1.300   0.126
    1XTA    OA645797  33.729   1.078   0.207
    1XTA   HL4245798  33.817   1.121   0.032
    1XTA   HL4345799  33.641   1.083   0.020
    1XTA   HL4445800  33.370   2.654  -1.724
    1XTA   HL4545801  33.245   2.636  -1.604
    1XTA   CO1045802  33.268   2.679  -1.702
    1XTA   CO1145803  33.351   2.904  -1.635
    1XTA    OA745804  33.388   2.834  -1.516
    1XTA   HL4645805  33.440   2.931  -1.696
    1XTA   HL4745806  33.301   2.999  -1.606
    1XTA   HL4845807  33.529   1.252   0.225
    1XTA   HL4945808  33.527   1.407   0.149
    1XTA     NT45809  26.028   3.867   4.597
    1XTA    CN145810  25.900   3.845   4.619
    1XTA     C145811  25.812   3.953   4.655
    1XTA     C245812  25.681   3.920   4.679
    1XTA     C345813  25.625   3.787   4.670
    1XTA     C445814  25.718   3.681   4.648
    1XTA     C545815  25.858   3.711   4.627
    1XTA    CN245816  26.121   3.819   4.688
    1XTA     C645817  26.213   3.719   4.646
    1XTA     C745818  26.314   3.683   4.734
    1XTA     C845819  26.316   3.733   4.862
    1XTA     C945820  26.221   3.823   4.910
    1XTA    C1045821  26.119   3.861   4.822
    1XTA    CN345822  26.079   3.939   4.500
    1XTA    C1145823  26.112   4.073   4.519
    1XTA    C1245824  26.184   4.148   4.425
    1XTA    C1345825  26.226   4.090   4.305
    1XTA    C1445826  26.190   3.956   4.274
    1XTA    C1545827  26.115   3.886   4.373
    1XTA     H145828  25.853   4.052   4.633
    1XTA     H245829  25.608   3.992   4.717
    1XTA     H345830  25.697   3.575   4.649
    1XTA     H445831  25.927   3.631   4.611
    1XTA     H545832  26.222   3.686   4.544
    1XTA     H645833  26.385   3.606   4.705
    1XTA     H745834  26.213   3.866   5.007
    1XTA     H845835  26.042   3.924   4.862
    1XTA     H945836  26.083   4.127   4.609
    1XTA    H1045837  26.206   4.257   4.443
    1XTA    H1145838  26.202   3.900   4.174
    1XTA    H1245839  26.085   3.782   4.355
    1XTA    OA145840  25.488   3.775   4.680
    1XTA    CO145841  25.446   3.641   4.693
    1XTA    OA245842  26.406   3.669   4.940
    1XTA    CO245843  26.379   3.658   5.075
    1XTA    CL145844  26.281   3.543   5.113
    1XTA    CL245845  26.342   3.403   5.101
    1XTA    CL345846  26.240   3.286   5.117
    1XTA    CL445847  26.135   3.280   5.008
    1XTA    CO345848  26.044   3.163   5.024
    1XTA    OA345849  25.962   3.164   4.907
    1XTA    CO445850  25.832   3.107   4.924
    1XTA    CT145851  25.739   3.156   4.809
    1XTA    CL545852  25.600   3.101   4.830
    1XTA    CL645853  25.512   3.166   4.936
    1XTA    OA445854  26.289   4.174   4.213
    1XTA    CO545855  26.398   4.122   4.131
    1XTA    CL745856  26.439   4.225   4.025
    1XTA    CL845857  26.578   4.185   3.973
    1XTA    CL945858  26.576   4.074   3.876
    1XTA   CL1045859  26.524   4.103   3.740
    1XTA    CO645860  26.492   3.989   3.647
    1XTA    OA545861  26.452   4.042   3.518
    1XTA    CO745862  26.365   3.948   3.443
    1XTA    CT245863  26.342   4.008   3.304
    1XTA   CL1145864  26.228   3.944   3.230
    1XTA   CL1245865  26.094   3.912   3.296
    1XTA    HL145866  25.496   3.592   4.777
    1XTA    HL245867  25.343   3.645   4.721
    1XTA    HL345868  25.459   3.584   4.595
    1XTA    HL445869  26.474   3.634   5.122
    1XTA    HL545870  26.345   3.750   5.121
    1XTA    HL645871  26.186   3.543   5.054
    1XTA    HL745872  26.246   3.545   5.212
    1XTA    HL845873  26.429   3.405   5.166
    1XTA    HL945874  26.389   3.400   5.002
    1XTA   HL1045875  26.297   3.191   5.118
    1XTA   HL1145876  26.186   3.291   5.208
    1XTA   HL1245877  26.200   3.267   4.914
    1XTA   HL1345878  26.077   3.374   5.012
    1XTA   HL1445879  26.100   3.071   5.032
    1XTA   HL1545880  25.998   3.170   5.121
    1XTA   HL1645881  25.835   3.003   4.918
    1XTA   HL1745882  25.779   3.136   5.013
    1XTA   HL1845883  25.618   2.996   4.867
    1XTA   HL1945884  25.550   3.095   4.739
    1XTA   HL2045885  25.421   3.107   4.938
    1XTA   HL2145886  25.477   3.266   4.904
    1XTA   HL2245887  25.555   3.161   5.037
    1XTA   HL2345888  26.372   4.025   4.091
    1XTA   HL2445889  26.484   4.097   4.191
    1XTA   HL2545890  26.368   4.224   3.946
    1XTA   HL2645891  26.442   4.322   4.068
    1XTA   HL2745892  26.631   4.266   3.927
    1XTA   HL2845893  26.644   4.150   4.048
    1XTA   HL2945894  26.679   4.041   3.860
    1XTA   HL3045895  26.524   3.983   3.914
    1XTA   HL3145896  26.428   4.156   3.749
    1XTA   HL3245897  26.586   4.178   3.686
    1XTA   HL3345898  26.589   3.938   3.634
    1XTA   HL3445899  26.424   3.921   3.700
    1XTA   HL3545900  26.270   3.935   3.509
    1XTA   HL3645901  26.418   3.850   3.436
    1XTA   HL3745902  26.281   3.850   3.190
    1XTA   HL3845903  26.193   4.008   3.148
    1XTA   HL3945904  26.106   3.846   3.380
    1XTA   HL4045905  26.024   3.865   3.220
    1XTA   HL4145906  26.023   3.990   3.325
    1XTA    CO845907  25.790   3.094   4.673
    1XTA    CO945908  25.742   3.311   4.796
    1XTA    OA645909  25.723   3.349   4.893
    1XTA   HL4245910  25.889   3.137   4.647
    1XTA   HL4345911  25.711   3.132   4.562
    1XTA   HL4445912  26.478   4.075   3.144
    1XTA   HL4545913  26.560   4.048   3.289
    1XTA   CO1045914  26.478   4.006   3.228
    1XTA   CO1145915  26.295   4.158   3.321
    1XTA    OA745916  26.510   3.875   3.188
    1XTA   HL4645917  26.290   4.201   3.223
    1XTA   HL4745918  26.367   4.223   3.370
    1XTA   HL4845919  25.659   3.350   4.733
    1XTA   HL4945920  25.842   3.349   4.767
    1XTA     NT45921  31.015   1.294   2.814
    1XTA    CN145922  30.984   1.395   2.901
    1XTA     C145923  31.044   1.523   2.880
    1XTA     C245924  31.012   1.632   2.963
    1XTA     C345925  30.917   1.612   3.068
    1XTA     C445926  30.845   1.495   3.078
    1XTA     C545927  30.878   1.385   2.997
    1XTA    CN245928  31.021   1.327   2.686
    1XTA     C645929  31.143   1.329   2.616
    1XTA     C745930  31.149   1.349   2.478
    1XTA     C845931  31.037   1.381   2.401
    1XTA     C945932  30.914   1.386   2.467
    1XTA    C1045933  30.908   1.363   2.607
    1XTA    CN345934  31.076   1.191   2.859
    1XTA    C1145935  31.212   1.201   2.897
    1XTA    C1245936  31.283   1.096   2.953
    1XTA    C1345937  31.211   0.979   2.990
    1XTA    C1445938  31.075   0.969   2.957
    1XTA    C1545939  31.009   1.080   2.899
    1XTA     H145940  31.104   1.539   2.791
    1XTA     H245941  31.065   1.725   2.955
    1XTA     H345942  30.774   1.481   3.163
    1XTA     H445943  30.830   1.287   3.010
    1XTA     H545944  31.237   1.310   2.665
    1XTA     H645945  31.247   1.341   2.438
    1XTA     H745946  30.824   1.415   2.418
    1XTA     H845947  30.820   1.373   2.658
    1XTA     H945948  31.258   1.304   2.888
    1XTA    H1045949  31.383   1.115   2.988
    1XTA    H1145950  31.027   0.878   2.965
    1XTA    H1245951  30.914   1.060   2.870
    1XTA    OA145952  30.911   1.703   3.176
    1XTA    CO145953  30.944   1.835   3.151
    1XTA    OA245954  31.051   1.399   2.264
    1XTA    CO245955  30.933   1.400   2.184
    1XTA    CL145956  30.962   1.456   2.048
    1XTA    CL245957  30.839   1.468   1.955
    1XTA    CL345958  30.881   1.476   1.809
    1XTA    CL445959  30.772   1.485   1.705
    1XTA    CO345960  30.821   1.496   1.564
    1XTA    OA345961  30.887   1.623   1.563
    1XTA    CO445962  30.940   1.661   1.436
    1XTA    CT145963  31.017   1.793   1.445
    1XTA    CL545964  31.097   1.828   1.317
    1XTA    CL645965  31.194   1.717   1.264
    1XTA    OA445966  31.289   0.883   3.042
    1XTA    CO545967  31.222   0.778   3.106
    1XTA    CL745968  31.331   0.679   3.155
    1XTA    CL845969  31.278   0.591   3.274
    1XTA    CL945970  31.386   0.498   3.323
    1XTA   CL1045971  31.427   0.387   3.221
    1XTA    CO645972  31.322   0.273   3.192
    1XTA    OA545973  31.289   0.260   3.055
    1XTA    CO745974  31.205   0.365   3.015
    1XTA    CT245975  31.156   0.355   2.868
    1XTA   CL1145976  31.083   0.486   2.822
    1XTA   CL1245977  30.940   0.505   2.873
    1XTA    HL145978  30.953   1.891   3.249
    1XTA    HL245979  31.039   1.854   3.114
    1XTA    HL345980  30.874   1.885   3.089
    1XTA    HL445981  30.894   1.302   2.172
    1XTA    HL545982  30.851   1.458   2.231
    1XTA    HL645983  31.026   1.380   2.007
    1XTA    HL745984  31.014   1.545   2.042
    1XTA    HL845985  30.788   1.558   1.980
    1XTA    HL945986  30.781   1.383   1.972
    1XTA   HL1045987  30.930   1.578   1.795
    1XTA   HL1145988  30.957   1.404   1.778
    1XTA   HL1245989  30.702   1.564   1.726
    1XTA   HL1345990  30.714   1.397   1.725
    1XTA   HL1445991  30.891   1.419   1.540
    1XTA   HL1545992  30.734   1.494   1.493
    1XTA   HL1645993  31.011   1.583   1.422
    1XTA   HL1745994  30.872   1.654   1.349
    1XTA   HL1845995  31.155   1.918   1.330
    1XTA   HL1945996  31.021   1.855   1.238
    1XTA   HL2045997  31.233   1.743   1.169
    1XTA   HL2145998  31.144   1.615   1.263
    1XTA   HL2245999  31.275   1.712   1.334
    1XTA   HL2346000  31.155   0.722   3.037
    1XTA   HL2446001  31.170   0.831   3.182
    1XTA   HL2546002  31.382   0.619   3.072
    1XTA   HL2646003  31.419   0.739   3.179
    1XTA   HL2746004  31.260   0.659   3.353
    1XTA   HL2846005  31.185   0.541   3.259
    1XTA   HL2946006  31.468   0.567   3.342
    1XTA   HL3046007  31.352   0.458   3.416
    1XTA   HL3146008  31.463   0.416   3.125
    1XTA   HL3246009  31.515   0.341   3.258
    1XTA   HL3346010  31.377   0.188   3.222
    1XTA   HL3446011  31.228   0.277   3.253
    1XTA   HL3546012  31.245   0.473   3.024
    1XTA   HL3646013  31.118   0.358   3.079
    1XTA   HL3746014  31.073   0.502   2.711
    1XTA   HL3846015  31.138   0.572   2.860
    1XTA   HL3946016  30.939   0.531   2.977
    1XTA   HL4046017  30.884   0.409   2.862
    1XTA   HL4146018  30.879   0.580   2.813
    1XTA    CO846019  31.117   1.789   1.564
    1XTA    CO946020  30.913   1.903   1.466
    1XTA    OA646021  31.174   1.886   1.562
    1XTA   HL4246022  31.195   1.715   1.560
    1XTA   HL4346023  31.055   1.770   1.660
    1XTA   HL4446024  31.132   0.131   2.852
    1XTA   HL4546025  31.034   0.228   2.752
    1XTA   CO1046026  31.071   0.225   2.848
    1XTA   CO1146027  31.279   0.352   2.776
    1XTA    OA746028  31.362   0.461   2.816
    1XTA   HL4646029  31.326   0.249   2.788
    1XTA   HL4746030  31.247   0.353   2.676
    1XTA   HL4846031  30.878   1.903   1.604
    1XTA   HL4946032  30.953   2.007   1.447
    1XTA     NT46033  30.328   3.611   3.902
    1XTA    CN146034  30.249   3.499   3.880
    1XTA     C146035  30.308   3.371   3.861
    1XTA     C246036  30.234   3.252   3.843
    1XTA     C346037  30.097   3.259   3.853
    1XTA     C446038  30.038   3.384   3.882
    1XTA     C546039  30.111   3.501   3.893
    1XTA    CN246040  30.381   3.678   3.800
    1XTA     C646041  30.444   3.618   3.693
    1XTA     C746042  30.491   3.702   3.587
    1XTA     C846043  30.479   3.843   3.590
    1XTA     C946044  30.414   3.897   3.701
    1XTA    C1046045  30.371   3.816   3.800
    1XTA    CN346046  30.400   3.626   4.020
    1XTA    C1146047  30.360   3.697   4.125
    1XTA    C1246048  30.430   3.699   4.244
    1XTA    C1346049  30.547   3.617   4.263
    1XTA    C1446050  30.598   3.546   4.153
    1XTA    C1546051  30.525   3.559   4.030
    1XTA     H146052  30.417   3.367   3.857
    1XTA     H246053  30.284   3.157   3.813
    1XTA     H346054  29.928   3.396   3.895
    1XTA     H446055  30.080   3.603   3.907
    1XTA     H546056  30.456   3.509   3.687
    1XTA     H646057  30.547   3.664   3.503
    1XTA     H746058  30.405   4.003   3.693
    1XTA     H846059  30.317   3.852   3.884
    1XTA     H946060  30.265   3.755   4.126
    1XTA    H1046061  30.390   3.754   4.327
    1XTA    H1146062  30.690   3.484   4.154
    1XTA    H1246063  30.569   3.495   3.952
    1XTA    OA146064  30.009   3.156   3.830
    1XTA    CO146065  30.064   3.029   3.788
    1XTA    OA246066  30.529   3.921   3.496
    1XTA    CO246067  30.644   3.990   3.545
    1XTA    CL146068  30.773   3.924   3.491
    1XTA    CL246069  30.901   4.007   3.517
    1XTA    CL346070  31.027   3.927   3.485
    1XTA    CL446071  31.166   3.976   3.522
    1XTA    CO346072  31.275   3.955   3.417
    1XTA    OA346073  31.326   3.830   3.450
    1XTA    CO446074  31.450   3.780   3.391
    1XTA    CT146075  31.502   3.643   3.449
    1XTA    CL546076  31.395   3.540   3.431
    1XTA    CL646077  31.387   3.492   3.282
    1XTA    OA446078  30.608   3.618   4.387
    1XTA    CO546079  30.749   3.646   4.380
    1XTA    CL746080  30.851   3.526   4.383
    1XTA    CL846081  30.997   3.569   4.391
    1XTA    CL946082  31.099   3.454   4.416
    1XTA   CL1046083  31.110   3.409   4.562
    1XTA    CO646084  31.225   3.313   4.605
    1XTA    OA546085  31.206   3.271   4.739
    1XTA    CO746086  31.285   3.151   4.770
    1XTA    CT246087  31.292   3.124   4.914
    1XTA   CL1146088  31.376   2.998   4.948
    1XTA   CL1246089  31.336   2.869   4.873
    1XTA    HL146090  30.141   2.987   3.844
    1XTA    HL246091  29.984   2.957   3.803
    1XTA    HL346092  30.104   3.026   3.684
    1XTA    HL446093  30.639   4.095   3.508
    1XTA    HL546094  30.662   3.983   3.654
    1XTA    HL646095  30.754   3.913   3.385
    1XTA    HL746096  30.791   3.824   3.532
    1XTA    HL846097  30.906   4.041   3.621
    1XTA    HL946098  30.892   4.087   3.447
    1XTA   HL1046099  31.014   3.826   3.515
    1XTA   HL1146100  31.014   3.911   3.374
    1XTA   HL1246101  31.215   3.947   3.622
    1XTA   HL1346102  31.161   4.082   3.531
    1XTA   HL1446103  31.255   3.973   3.311
    1XTA   HL1546104  31.361   4.015   3.446
    1XTA   HL1646105  31.437   3.766   3.289
    1XTA   HL1746106  31.523   3.858   3.414
    1XTA   HL1846107  31.298   3.580   3.464
    1XTA   HL1946108  31.416   3.452   3.482
    1XTA   HL2046109  31.307   3.407   3.272
    1XTA   HL2146110  31.490   3.450   3.256
    1XTA   HL2246111  31.370   3.569   3.213
    1XTA   HL2346112  30.766   3.711   4.464
    1XTA   HL2446113  30.768   3.707   4.289
    1XTA   HL2546114  30.826   3.455   4.464
    1XTA   HL2646115  30.843   3.465   4.295
    1XTA   HL2746116  31.027   3.618   4.293
    1XTA   HL2846117  31.018   3.643   4.476
    1XTA   HL2946118  31.075   3.366   4.352
    1XTA   HL3046119  31.193   3.503   4.389
    1XTA   HL3146120  31.104   3.493   4.629
    1XTA   HL3246121  31.008   3.368   4.584
    1XTA   HL3346122  31.212   3.226   4.544
    1XTA   HL3446123  31.326   3.355   4.593
    1XTA   HL3546124  31.393   3.165   4.748
    1XTA   HL3646125  31.266   3.063   4.702
    1XTA   HL3746126  31.375   2.984   5.062
    1XTA   HL3846127  31.477   3.032   4.918
    1XTA   HL3946128  31.326   2.865   4.764
    1XTA   HL4046129  31.240   2.832   4.902
    1XTA   HL4146130  31.400   2.788   4.902
    1XTA    CO846131  31.533   3.655   3.594
    1XTA    CO946132  31.637   3.606   3.370
    1XTA    OA646133  31.754   3.646   3.428
    1XTA   HL4246134  31.626   3.711   3.616
    1XTA   HL4346135  31.459   3.727   3.625
    1XTA   HL4446136  31.088   3.188   4.942
    1XTA   HL4546137  31.107   3.022   4.903
    1XTA   CO1046138  31.153   3.100   4.964
    1XTA   CO1146139  31.351   3.249   4.968
    1XTA    OA746140  31.149   3.080   5.107
    1XTA   HL4646141  31.299   3.336   4.935
    1XTA   HL4746142  31.332   3.245   5.079
    1XTA   HL4846143  31.639   3.645   3.268
    1XTA   HL4946144  31.653   3.499   3.368
    1XTA     NT46145  26.472  -0.846   1.024
    1XTA    CN146146  26.601  -0.873   1.039
    1XTA     C146147  26.661  -0.868   1.162
    1XTA     C246148  26.798  -0.900   1.174
    1XTA     C346149  26.879  -0.924   1.064
    1XTA     C446150  26.810  -0.925   0.934
    1XTA     C546151  26.672  -0.910   0.925
    1XTA    CN246152  26.399  -0.883   0.909
    1XTA     C646153  26.384  -0.787   0.805
    1XTA     C746154  26.301  -0.809   0.695
    1XTA     C846155  26.236  -0.930   0.677
    1XTA     C946156  26.262  -1.033   0.771
    1XTA    C1046157  26.345  -1.010   0.883
    1XTA    CN346158  26.401  -0.772   1.116
    1XTA    C1146159  26.409  -0.633   1.116
    1XTA    C1246160  26.331  -0.549   1.206
    1XTA    C1346161  26.247  -0.614   1.294
    1XTA    C1446162  26.231  -0.752   1.282
    1XTA    C1546163  26.306  -0.832   1.196
    1XTA     H146164  26.612  -0.840   1.252
    1XTA     H246165  26.839  -0.900   1.270
    1XTA     H346166  26.867  -0.956   0.845
    1XTA     H446167  26.629  -0.916   0.828
    1XTA     H546168  26.440  -0.698   0.809
    1XTA     H646169  26.292  -0.737   0.612
    1XTA     H746170  26.220  -1.132   0.756
    1XTA     H846171  26.350  -1.086   0.957
    1XTA     H946172  26.481  -0.588   1.052
    1XTA    H1046173  26.351  -0.442   1.207
    1XTA    H1146174  26.154  -0.789   1.344
    1XTA    H1246175  26.282  -0.933   1.187
    1XTA    OA146176  27.014  -0.951   1.067
    1XTA    CO146177  27.079  -0.930   1.185
    1XTA    OA246178  26.154  -0.960   0.576
    1XTA    CO246179  26.093  -0.854   0.517
    1XTA    CL146180  25.970  -0.902   0.437
    1XTA    CL246181  25.887  -0.776   0.388
    1XTA    CL346182  25.757  -0.822   0.323
    1XTA    CL446183  25.644  -0.709   0.310
    1XTA    CO346184  25.552  -0.725   0.196
    1XTA    OA346185  25.480  -0.842   0.213
    1XTA    CO446186  25.393  -0.866   0.102
    1XTA    CT146187  25.331  -1.007   0.118
    1XTA    CL546188  25.428  -1.117   0.180
    1XTA    CL646189  25.571  -1.136   0.119
    1XTA    OA446190  26.186  -0.542   1.390
    1XTA    CO546191  26.046  -0.575   1.410
    1XTA    CL746192  25.972  -0.440   1.394
    1XTA    CL846193  25.887  -0.444   1.264
    1XTA    CL946194  25.792  -0.336   1.248
    1XTA   CL1046195  25.846  -0.194   1.239
    1XTA    CO646196  25.862  -0.134   1.381
    1XTA    OA546197  25.876   0.005   1.365
    1XTA    CO746198  25.970   0.063   1.453
    1XTA    CT246199  26.038   0.197   1.408
    1XTA   CL1146200  25.926   0.290   1.354
    1XTA   CL1246201  25.961   0.426   1.296
    1XTA    HL146202  27.056  -0.999   1.266
    1XTA    HL246203  27.185  -0.934   1.166
    1XTA    HL346204  27.059  -0.836   1.219
    1XTA    HL446205  26.061  -0.775   0.583
    1XTA    HL546206  26.165  -0.815   0.455
    1XTA    HL646207  25.912  -0.968   0.504
    1XTA    HL746208  25.992  -0.971   0.354
    1XTA    HL846209  25.949  -0.721   0.311
    1XTA    HL946210  25.866  -0.709   0.469
    1XTA   HL1046211  25.796  -0.850   0.227
    1XTA   HL1146212  25.722  -0.910   0.373
    1XTA   HL1246213  25.681  -0.606   0.315
    1XTA   HL1346214  25.583  -0.707   0.406
    1XTA   HL1446215  25.486  -0.642   0.189
    1XTA   HL1546216  25.606  -0.726   0.105
    1XTA   HL1646217  25.316  -0.786   0.084
    1XTA   HL1746218  25.457  -0.847   0.015
    1XTA   HL1846219  25.379  -1.212   0.187
    1XTA   HL1946220  25.450  -1.090   0.287
    1XTA   HL2046221  25.620  -1.227   0.155
    1XTA   HL2146222  25.640  -1.056   0.145
    1XTA   HL2246223  25.559  -1.137   0.014
    1XTA   HL2346224  26.023  -0.609   1.515
    1XTA   HL2446225  26.001  -0.641   1.332
    1XTA   HL2546226  25.901  -0.415   1.468
    1XTA   HL2646227  26.051  -0.365   1.386
    1XTA   HL2746228  25.949  -0.453   1.180
    1XTA   HL2846229  25.820  -0.534   1.268
    1XTA   HL2946230  25.733  -0.345   1.161
    1XTA   HL3046231  25.718  -0.339   1.323
    1XTA   HL3146232  25.943  -0.195   1.183
    1XTA   HL3246233  25.780  -0.131   1.181
    1XTA   HL3346234  25.774  -0.157   1.433
    1XTA   HL3446235  25.955  -0.169   1.421
    1XTA   HL3546236  26.049   0.001   1.493
    1XTA   HL3646237  25.915   0.085   1.549
    1XTA   HL3746238  25.863   0.319   1.435
    1XTA   HL3846239  25.858   0.244   1.287
    1XTA   HL3946240  25.977   0.409   1.193
    1XTA   HL4046241  26.049   0.469   1.334
    1XTA   HL4146242  25.878   0.492   1.301
    1XTA    CO846243  25.288  -1.044  -0.026
    1XTA    CO946244  25.206  -0.990   0.201
    1XTA    OA646245  25.143  -0.914   0.152
    1XTA   HL4246246  25.181  -1.076  -0.034
    1XTA   HL4346247  25.277  -0.921  -0.102
    1XTA   HL4446248  26.188   0.285   1.233
    1XTA   HL4546249  26.076   0.118   1.217
    1XTA   CO1046250  26.136   0.168   1.291
    1XTA   CO1146251  26.117   0.265   1.520
    1XTA    OA746252  26.041   0.299   1.595
    1XTA   HL4646253  26.204   0.205   1.553
    1XTA   HL4746254  26.154   0.354   1.473
    1XTA   HL4846255  25.246  -0.947   0.297
    1XTA   HL4946256  25.155  -1.085   0.210
    1XTA     NT46257  33.307   0.985   3.871
    1XTA    CN146258  33.359   1.043   3.764
    1XTA     C146259  33.370   1.184   3.758
    1XTA     C246260  33.439   1.250   3.655
    1XTA     C346261  33.487   1.175   3.544
    1XTA     C446262  33.482   1.035   3.551
    1XTA     C546263  33.413   0.973   3.656
    1XTA    CN246264  33.392   0.954   3.976
    1XTA     C646265  33.499   0.859   3.964
    1XTA     C746266  33.595   0.851   4.069
    1XTA     C846267  33.582   0.929   4.189
    1XTA     C946268  33.475   1.016   4.200
    1XTA    C1046269  33.377   1.031   4.098
    1XTA    CN346270  33.180   0.931   3.868
    1XTA    C1146271  33.065   0.999   3.899
    1XTA    C1246272  32.936   0.945   3.882
    1XTA    C1346273  32.923   0.808   3.847
    1XTA    C1446274  33.045   0.732   3.822
    1XTA    C1546275  33.170   0.795   3.831
    1XTA     H146276  33.325   1.239   3.833
    1XTA     H246277  33.434   1.356   3.642
    1XTA     H346278  33.525   0.971   3.468
    1XTA     H446279  33.423   0.867   3.655
    1XTA     H546280  33.498   0.805   3.870
    1XTA     H646281  33.673   0.783   4.053
    1XTA     H746282  33.480   1.068   4.299
    1XTA     H846283  33.293   1.095   4.122
    1XTA     H946284  33.079   1.101   3.922
    1XTA    H1046285  32.846   1.011   3.889
    1XTA    H1146286  33.037   0.625   3.792
    1XTA    H1246287  33.262   0.746   3.803
    1XTA    OA146288  33.540   1.244   3.435
    1XTA    CO146289  33.575   1.161   3.333
    1XTA    OA246290  33.689   0.942   4.279
    1XTA    CO246291  33.801   0.851   4.262
    1XTA    CL146292  33.904   0.880   4.370
    1XTA    CL246293  33.878   0.830   4.517
    1XTA    CL346294  33.794   0.941   4.580
    1XTA    CL446295  33.768   0.898   4.725
    1XTA    CO346296  33.666   0.786   4.736
    1XTA    OA346297  33.524   0.829   4.751
    1XTA    CO446298  33.447   0.815   4.631
    1XTA    CT146299  33.319   0.907   4.640
    1XTA    CL546300  33.228   0.853   4.748
    1XTA    CL646301  33.176   0.711   4.721
    1XTA    OA446302  32.798   0.754   3.834
    1XTA    CO546303  32.784   0.623   3.883
    1XTA    CL746304  32.722   0.548   3.769
    1XTA    CL846305  32.682   0.397   3.783
    1XTA    CL946306  32.564   0.386   3.882
    1XTA   CL1046307  32.489   0.255   3.883
    1XTA    CO646308  32.383   0.242   3.992
    1XTA    OA546309  32.275   0.150   3.964
    1XTA    CO746310  32.161   0.223   3.937
    1XTA    CT246311  32.043   0.134   3.882
    1XTA   CL1146312  32.077   0.064   3.745
    1XTA   CL1246313  32.126   0.142   3.619
    1XTA    HL146314  33.625   1.238   3.276
    1XTA    HL246315  33.650   1.085   3.349
    1XTA    HL346316  33.492   1.117   3.283
    1XTA    HL446317  33.747   0.757   4.263
    1XTA    HL546318  33.849   0.851   4.165
    1XTA    HL646319  33.934   0.980   4.383
    1XTA    HL746320  33.992   0.819   4.348
    1XTA    HL846321  33.958   0.805   4.580
    1XTA    HL946322  33.822   0.739   4.511
    1XTA   HL1046323  33.847   1.036   4.592
    1XTA   HL1146324  33.702   0.967   4.530
    1XTA   HL1246325  33.723   0.989   4.760
    1XTA   HL1346326  33.862   0.861   4.772
    1XTA   HL1446327  33.676   0.704   4.660
    1XTA   HL1546328  33.695   0.740   4.833
    1XTA   HL1646329  33.505   0.837   4.533
    1XTA   HL1746330  33.418   0.710   4.617
    1XTA   HL1846331  33.140   0.920   4.761
    1XTA   HL1946332  33.289   0.866   4.839
    1XTA   HL2046333  33.259   0.639   4.722
    1XTA   HL2146334  33.105   0.707   4.639
    1XTA   HL2246335  33.105   0.687   4.798
    1XTA   HL2346336  32.712   0.615   3.962
    1XTA   HL2446337  32.874   0.577   3.920
    1XTA   HL2546338  32.632   0.609   3.760
    1XTA   HL2646339  32.782   0.567   3.684
    1XTA   HL2746340  32.661   0.362   3.680
    1XTA   HL2846341  32.761   0.346   3.826
    1XTA   HL2946342  32.595   0.404   3.987
    1XTA   HL3046343  32.490   0.460   3.849
    1XTA   HL3146344  32.437   0.263   3.788
    1XTA   HL3246345  32.559   0.168   3.887
    1XTA   HL3346346  32.432   0.198   4.080
    1XTA   HL3446347  32.344   0.344   4.011
    1XTA   HL3546348  32.163   0.318   3.880
    1XTA   HL3646349  32.129   0.262   4.032
    1XTA   HL3746350  31.986   0.002   3.727
    1XTA   HL3846351  32.161  -0.002   3.749
    1XTA   HL3946352  32.062   0.217   3.577
    1XTA   HL4046353  32.160   0.078   3.531
    1XTA   HL4146354  32.214   0.200   3.642
    1XTA    CO846355  33.251   0.906   4.500
    1XTA    CO946356  33.359   1.052   4.667
    1XTA    OA646357  33.121   0.958   4.509
    1XTA   HL4246358  33.240   0.802   4.469
    1XTA   HL4346359  33.310   0.966   4.438
    1XTA   HL4446360  31.932   0.304   3.804
    1XTA   HL4546361  31.888   0.253   3.974
    1XTA   CO1046362  31.910   0.214   3.870
    1XTA   CO1146363  32.007   0.018   3.979
    1XTA    OA746364  32.006   0.076   4.108
    1XTA   HL4646365  31.906  -0.018   3.964
    1XTA   HL4746366  32.076  -0.068   3.969
    1XTA   HL4846367  33.436   1.056   4.740
    1XTA   HL4946368  33.415   1.095   4.585
    1XTA     NT46369  33.616   0.913   7.292
    1XTA    CN146370  33.714   0.885   7.206
    1XTA     C146371  33.821   0.976   7.190
    1XTA     C246372  33.933   0.937   7.117
    1XTA     C346373  33.941   0.805   7.060
    1XTA     C446374  33.824   0.719   7.070
    1XTA     C546375  33.714   0.765   7.141
    1XTA    CN246376  33.520   0.999   7.254
    1XTA     C646377  33.511   1.124   7.311
    1XTA     C746378  33.433   1.224   7.264
    1XTA     C846379  33.345   1.196   7.158
    1XTA     C946380  33.340   1.064   7.103
    1XTA    C1046381  33.425   0.960   7.155
    1XTA    CN346382  33.583   0.834   7.401
    1XTA    C1146383  33.622   0.880   7.531
    1XTA    C1246384  33.592   0.802   7.637
    1XTA    C1346385  33.520   0.682   7.627
    1XTA    C1446386  33.470   0.643   7.500
    1XTA    C1546387  33.502   0.721   7.389
    1XTA     H146388  33.804   1.073   7.220
    1XTA     H246389  34.022   1.003   7.098
    1XTA     H346390  33.816   0.621   7.031
    1XTA     H446391  33.632   0.692   7.143
    1XTA     H546392  33.585   1.134   7.388
    1XTA     H646393  33.441   1.321   7.309
    1XTA     H746394  33.271   1.031   7.025
    1XTA     H846395  33.430   0.861   7.113
    1XTA     H946396  33.681   0.976   7.546
    1XTA    H1046397  33.616   0.837   7.738
    1XTA    H1146398  33.419   0.553   7.489
    1XTA    H1246399  33.466   0.694   7.294
    1XTA    OA146400  34.043   0.755   6.986
    1XTA    CO146401  34.170   0.827   6.996
    1XTA    OA246402  33.252   1.287   7.122
    1XTA    CO246403  33.168   1.261   7.007
    1XTA    CL146404  33.079   1.378   6.973
    1XTA    CL246405  32.955   1.385   7.070
    1XTA    CL346406  32.856   1.498   7.041
    1XTA    CL446407  32.814   1.492   6.896
    1XTA    CO346408  32.895   1.577   6.803
    1XTA    OA346409  32.836   1.699   6.788
    1XTA    CO446410  32.906   1.805   6.723
    1XTA    CT146411  32.820   1.932   6.739
    1XTA    CL546412  32.859   2.021   6.613
    1XTA    CL646413  33.007   2.051   6.585
    1XTA    OA446414  33.502   0.607   7.740
    1XTA    CO546415  33.381   0.533   7.757
    1XTA    CL746416  33.257   0.609   7.726
    1XTA    CL846417  33.247   0.742   7.798
    1XTA    CL946418  33.120   0.821   7.779
    1XTA   CL1046419  33.125   0.956   7.859
    1XTA    CO646420  33.007   1.039   7.830
    1XTA    OA546421  33.021   1.173   7.866
    1XTA    CO746422  32.924   1.256   7.790
    1XTA    CT246423  32.932   1.401   7.830
    1XTA   CL1146424  32.836   1.487   7.739
    1XTA   CL1246425  32.879   1.510   7.597
    1XTA    HL146426  34.238   0.763   6.936
    1XTA    HL246427  34.172   0.927   6.954
    1XTA    HL346428  34.207   0.831   7.099
    1XTA    HL446429  33.240   1.245   6.928
    1XTA    HL546430  33.113   1.173   7.025
    1XTA    HL646431  33.052   1.343   6.870
    1XTA    HL746432  33.130   1.476   6.962
    1XTA    HL846433  33.001   1.392   7.172
    1XTA    HL946434  32.895   1.293   7.067
    1XTA   HL1046435  32.760   1.487   7.101
    1XTA   HL1146436  32.889   1.595   7.081
    1XTA   HL1246437  32.707   1.519   6.887
    1XTA   HL1346438  32.831   1.386   6.865
    1XTA   HL1446439  32.999   1.599   6.832
    1XTA   HL1546440  32.893   1.539   6.701
    1XTA   HL1646441  33.004   1.808   6.767
    1XTA   HL1746442  32.928   1.766   6.624
    1XTA   HL1846443  32.805   2.119   6.634
    1XTA   HL1946444  32.820   1.972   6.521
    1XTA   HL2046445  33.074   1.968   6.566
    1XTA   HL2146446  33.037   2.131   6.649
    1XTA   HL2246447  32.996   2.098   6.486
    1XTA   HL2346448  33.379   0.480   7.850
    1XTA   HL2446449  33.384   0.442   7.698
    1XTA   HL2546450  33.245   0.620   7.613
    1XTA   HL2646451  33.173   0.542   7.733
    1XTA   HL2746452  33.282   0.715   7.897
    1XTA   HL2846453  33.321   0.809   7.752
    1XTA   HL2946454  33.111   0.845   7.678
    1XTA   HL3046455  33.029   0.766   7.811
    1XTA   HL3146456  33.127   0.940   7.967
    1XTA   HL3246457  33.222   1.004   7.848
    1XTA   HL3346458  32.986   1.035   7.721
    1XTA   HL3446459  32.913   1.013   7.875
    1XTA   HL3546460  32.821   1.210   7.792
    1XTA   HL3646461  32.942   1.250   7.680
    1XTA   HL3746462  32.827   1.591   7.790
    1XTA   HL3846463  32.735   1.449   7.749
    1XTA   HL3946464  32.975   1.562   7.604
    1XTA   HL4046465  32.811   1.572   7.536
    1XTA   HL4146466  32.883   1.419   7.541
    1XTA    CO846467  32.854   2.005   6.875
    1XTA    CO946468  32.666   1.913   6.734
    1XTA    OA646469  32.993   2.024   6.894
    1XTA   HL4246470  32.814   1.930   6.945
    1XTA   HL4346471  32.795   2.099   6.898
    1XTA   HL4446472  33.127   1.408   7.895
    1XTA   HL4546473  33.089   1.557   7.848
    1XTA   CO1046474  33.079   1.453   7.812
    1XTA   CO1146475  32.872   1.416   7.978
    1XTA    OA746476  32.741   1.354   7.991
    1XTA   HL4646477  32.938   1.374   8.049
    1XTA   HL4746478  32.866   1.523   7.996
    1XTA   HL4846479  32.605   2.006   6.747
    1XTA   HL4946480  32.631   1.858   6.823
    1XTA     NT46481  32.056  -0.035   7.928
    1XTA    CN146482  32.102  -0.165   7.903
    1XTA     C146483  32.233  -0.212   7.944
    1XTA     C246484  32.263  -0.353   7.931
    1XTA     C346485  32.172  -0.436   7.865
    1XTA     C446486  32.047  -0.385   7.816
    1XTA     C546487  32.011  -0.251   7.840
    1XTA    CN246488  32.106   0.060   7.847
    1XTA     C646489  32.221   0.132   7.878
    1XTA     C746490  32.269   0.231   7.793
    1XTA     C846491  32.221   0.259   7.666
    1XTA     C946492  32.101   0.187   7.631
    1XTA    C1046493  32.052   0.084   7.720
    1XTA    CN346494  31.976  -0.005   8.034
    1XTA    C1146495  31.871   0.092   8.017
    1XTA    C1246496  31.796   0.140   8.129
    1XTA    C1346497  31.820   0.091   8.259
    1XTA    C1446498  31.921  -0.003   8.271
    1XTA    C1546499  31.995  -0.056   8.164
    1XTA     H146500  32.302  -0.138   7.986
    1XTA     H246501  32.366  -0.393   7.955
    1XTA     H346502  31.985  -0.458   7.772
    1XTA     H446503  31.915  -0.217   7.808
    1XTA     H546504  32.277   0.106   7.969
    1XTA     H646505  32.343   0.287   7.839
    1XTA     H746506  32.049   0.212   7.541
    1XTA     H846507  31.955   0.035   7.705
    1XTA     H946508  31.851   0.139   7.924
    1XTA    H1046509  31.719   0.207   8.114
    1XTA    H1146510  31.947  -0.043   8.366
    1XTA    H1246511  32.071  -0.123   8.195
    1XTA    OA146512  32.205  -0.564   7.836
    1XTA    CO146513  32.326  -0.618   7.890
    1XTA    OA246514  32.266   0.353   7.581
    1XTA    CO246515  32.264   0.480   7.637
    1XTA    CL146516  32.120   0.524   7.660
    1XTA    CL246517  32.095   0.674   7.682
    1XTA    CL346518  32.144   0.728   7.814
    1XTA    CL446519  32.089   0.871   7.851
    1XTA    CO346520  32.169   0.951   7.963
    1XTA    OA346521  32.154   1.090   7.932
    1XTA    CO446522  32.025   1.143   7.966
    1XTA    CT146523  32.023   1.291   7.928
    1XTA    CL546524  32.117   1.373   8.027
    1XTA    CL646525  32.098   1.528   8.034
    1XTA    OA446526  31.757   0.144   8.370
    1XTA    CO546527  31.624   0.168   8.364
    1XTA    CL746528  31.589   0.232   8.500
    1XTA    CL846529  31.437   0.258   8.516
    1XTA    CL946530  31.358   0.128   8.505
    1XTA   CL1046531  31.238   0.125   8.597
    1XTA    CO646532  31.127   0.021   8.576
    1XTA    OA546533  31.187  -0.106   8.567
    1XTA    CO746534  31.115  -0.197   8.481
    1XTA    CT246535  31.187  -0.330   8.495
    1XTA   CL1146536  31.173  -0.375   8.641
    1XTA   CL1246537  31.249  -0.492   8.694
    1XTA    HL146538  32.336  -0.731   7.875
    1XTA    HL246539  32.414  -0.572   7.843
    1XTA    HL346540  32.331  -0.610   8.006
    1XTA    HL446541  32.313   0.476   7.732
    1XTA    HL546542  32.330   0.544   7.570
    1XTA    HL646543  32.089   0.473   7.752
    1XTA    HL746544  32.051   0.490   7.583
    1XTA    HL846545  31.981   0.689   7.685
    1XTA    HL946546  32.139   0.724   7.594
    1XTA   HL1046547  32.116   0.653   7.898
    1XTA   HL1146548  32.251   0.746   7.798
    1XTA   HL1246549  31.987   0.859   7.885
    1XTA   HL1346550  32.095   0.932   7.760
    1XTA   HL1446551  32.131   0.929   8.065
    1XTA   HL1546552  32.269   0.917   7.949
    1XTA   HL1646553  31.956   1.096   7.898
    1XTA   HL1746554  32.008   1.109   8.060
    1XTA   HL1846555  32.219   1.349   7.992
    1XTA   HL1946556  32.108   1.324   8.126
    1XTA   HL2046557  31.999   1.549   8.086
    1XTA   HL2146558  32.092   1.562   7.933
    1XTA   HL2246559  32.177   1.572   8.087
    1XTA   HL2346560  31.575   0.072   8.349
    1XTA   HL2446561  31.598   0.239   8.286
    1XTA   HL2546562  31.615   0.181   8.588
    1XTA   HL2646563  31.644   0.329   8.503
    1XTA   HL2746564  31.416   0.296   8.615
    1XTA   HL2846565  31.395   0.332   8.448
    1XTA   HL2946566  31.319   0.114   8.403
    1XTA   HL3046567  31.422   0.041   8.505
    1XTA   HL3146568  31.264   0.122   8.701
    1XTA   HL3246569  31.193   0.222   8.586
    1XTA   HL3346570  31.066   0.012   8.669
    1XTA   HL3446571  31.073   0.045   8.487
    1XTA   HL3546572  31.106  -0.148   8.385
    1XTA   HL3646573  31.006  -0.203   8.511
    1XTA   HL3746574  31.063  -0.404   8.656
    1XTA   HL3846575  31.171  -0.289   8.707
    1XTA   HL3946576  31.190  -0.518   8.784
    1XTA   HL4046577  31.351  -0.466   8.709
    1XTA   HL4146578  31.251  -0.582   8.635
    1XTA    CO846579  31.872   1.336   7.929
    1XTA    CO946580  32.062   1.310   7.780
    1XTA    OA646581  32.033   1.435   7.723
    1XTA   HL4246582  31.831   1.323   8.026
    1XTA   HL4346583  31.866   1.442   7.915
    1XTA   HL4446584  31.384  -0.236   8.527
    1XTA   HL4546585  31.383  -0.408   8.501
    1XTA   CO1046586  31.337  -0.317   8.463
    1XTA   CO1146587  31.124  -0.435   8.403
    1XTA    OA746588  31.370  -0.303   8.357
    1XTA   HL4646589  31.125  -0.375   8.270
    1XTA   HL4746590  31.016  -0.447   8.428
    1XTA   HL4846591  32.010   1.238   7.727
    1XTA   HL4946592  32.164   1.279   7.771
    1XTA     NT46593  31.963   3.285   0.644
    1XTA    CN146594  32.051   3.183   0.662
    1XTA     C146595  32.133   3.168   0.778
    1XTA     C246596  32.228   3.061   0.782
    1XTA     C346597  32.243   2.970   0.674
    1XTA     C446598  32.173   2.990   0.557
    1XTA     C546599  32.079   3.094   0.553
    1XTA    CN246600  31.829   3.263   0.672
    1XTA     C646601  31.786   3.185   0.780
    1XTA     C746602  31.651   3.178   0.817
    1XTA     C846603  31.558   3.250   0.748
    1XTA     C946604  31.596   3.319   0.634
    1XTA    C1046605  31.733   3.324   0.590
    1XTA    CN346606  32.010   3.410   0.622
    1XTA    C1146607  31.989   3.503   0.724
    1XTA    C1246608  32.052   3.625   0.722
    1XTA    C1346609  32.130   3.652   0.609
    1XTA    C1446610  32.149   3.562   0.508
    1XTA    C1546611  32.087   3.441   0.507
    1XTA     H146612  32.114   3.222   0.874
    1XTA     H246613  32.286   3.051   0.877
    1XTA     H346614  32.193   2.928   0.469
    1XTA     H446615  32.013   3.099   0.465
    1XTA     H546616  31.863   3.122   0.841
    1XTA     H646617  31.617   3.110   0.900
    1XTA     H746618  31.515   3.370   0.586
    1XTA     H846619  31.765   3.387   0.515
    1XTA     H946620  31.925   3.479   0.801
    1XTA    H1046621  32.045   3.701   0.802
    1XTA    H1146622  32.217   3.598   0.427
    1XTA    H1246623  32.104   3.367   0.433
    1XTA    OA146624  32.324   2.859   0.693
    1XTA    CO146625  32.269   2.740   0.643
    1XTA    OA246626  31.427   3.247   0.785
    1XTA    CO246627  31.409   3.253   0.925
    1XTA    CL146628  31.262   3.293   0.939
    1XTA    CL246629  31.236   3.442   0.921
    1XTA    CL346630  31.092   3.471   0.873
    1XTA    CL446631  31.064   3.620   0.865
    1XTA    CO346632  30.918   3.658   0.842
    1XTA    OA346633  30.905   3.799   0.827
    1XTA    CO446634  30.783   3.827   0.769
    1XTA    CT146635  30.779   3.974   0.713
    1XTA    CL546636  30.656   3.991   0.613
    1XTA    CL646637  30.521   3.956   0.674
    1XTA    OA446638  32.198   3.772   0.602
    1XTA    CO546639  32.177   3.856   0.488
    1XTA    CL746640  32.213   3.995   0.529
    1XTA    CL846641  32.146   4.093   0.433
    1XTA    CL946642  32.159   4.241   0.470
    1XTA   CL1046643  32.312   4.277   0.492
    1XTA    CO646644  32.400   4.260   0.365
    1XTA    OA546645  32.537   4.284   0.394
    1XTA    CO746646  32.631   4.246   0.301
    1XTA    CT246647  32.749   4.343   0.317
    1XTA   CL1146648  32.715   4.490   0.316
    1XTA   CL1246649  32.641   4.530   0.186
    1XTA    HL146650  32.344   2.661   0.663
    1XTA    HL246651  32.169   2.714   0.693
    1XTA    HL346652  32.257   2.744   0.530
    1XTA    HL446653  31.430   3.154   0.967
    1XTA    HL546654  31.472   3.325   0.979
    1XTA    HL646655  31.231   3.269   1.041
    1XTA    HL746656  31.211   3.236   0.868
    1XTA    HL846657  31.315   3.474   0.855
    1XTA    HL946658  31.256   3.499   1.014
    1XTA   HL1046659  31.070   3.422   0.782
    1XTA   HL1146660  31.018   3.431   0.950
    1XTA   HL1246661  31.118   3.678   0.786
    1XTA   HL1346662  31.089   3.671   0.962
    1XTA   HL1446663  30.896   3.616   0.747
    1XTA   HL1546664  30.845   3.618   0.918
    1XTA   HL1646665  30.771   3.752   0.684
    1XTA   HL1746666  30.702   3.813   0.840
    1XTA   HL1846667  30.669   3.922   0.532
    1XTA   HL1946668  30.663   4.096   0.580
    1XTA   HL2046669  30.502   3.982   0.775
    1XTA   HL2146670  30.507   3.851   0.676
    1XTA   HL2246671  30.455   4.000   0.609
    1XTA   HL2346672  32.072   3.855   0.456
    1XTA   HL2446673  32.233   3.822   0.403
    1XTA   HL2546674  32.165   4.005   0.628
    1XTA   HL2646675  32.317   3.993   0.538
    1XTA   HL2746676  32.192   4.086   0.337
    1XTA   HL2846677  32.041   4.071   0.420
    1XTA   HL2946678  32.115   4.304   0.385
    1XTA   HL3046679  32.096   4.256   0.559
    1XTA   HL3146680  32.332   4.384   0.513
    1XTA   HL3246681  32.358   4.237   0.580
    1XTA   HL3346682  32.395   4.158   0.337
    1XTA   HL3446683  32.357   4.324   0.283
    1XTA   HL3546684  32.579   4.260   0.205
    1XTA   HL3646685  32.662   4.143   0.314
    1XTA   HL3746686  32.792   4.557   0.359
    1XTA   HL3846687  32.638   4.494   0.396
    1XTA   HL3946688  32.545   4.463   0.168
    1XTA   HL4046689  32.701   4.529   0.097
    1XTA   HL4146690  32.604   4.631   0.202
    1XTA    CO846691  30.903   4.000   0.622
    1XTA    CO946692  30.775   4.076   0.823
    1XTA    OA646693  30.887   4.063   0.912
    1XTA   HL4246694  30.928   3.906   0.574
    1XTA   HL4346695  30.995   4.024   0.674
    1XTA   HL4446696  32.894   4.211   0.232
    1XTA   HL4546697  32.804   4.295   0.117
    1XTA   CO1046698  32.855   4.310   0.212
    1XTA   CO1146699  32.824   4.318   0.454
    1XTA    OA746700  32.860   4.182   0.464
    1XTA   HL4646701  32.917   4.367   0.468
    1XTA   HL4746702  32.751   4.336   0.531
    1XTA   HL4846703  30.676   4.074   0.878
    1XTA   HL4946704  30.787   4.170   0.769
    1XTA     NT46705  34.609   1.838   0.308
    1XTA    CN146706  34.657   1.719   0.345
    1XTA     C146707  34.794   1.702   0.361
    1XTA     C246708  34.850   1.575   0.389
    1XTA     C346709  34.764   1.467   0.379
    1XTA     C446710  34.619   1.477   0.348
    1XTA     C546711  34.572   1.607   0.343
    1XTA    CN246712  34.611   1.867   0.173
    1XTA     C646713  34.537   1.797   0.083
    1XTA     C746714  34.545   1.815  -0.055
    1XTA     C846715  34.639   1.903  -0.101
    1XTA     C946716  34.712   1.981  -0.014
    1XTA    C1046717  34.700   1.962   0.124
    1XTA    CN346718  34.551   1.915   0.401
    1XTA    C1146719  34.414   1.896   0.432
    1XTA    C1246720  34.355   1.979   0.530
    1XTA    C1346721  34.439   2.063   0.606
    1XTA    C1446722  34.576   2.078   0.580
    1XTA    C1546723  34.633   2.011   0.473
    1XTA     H146724  34.848   1.797   0.351
    1XTA     H246725  34.956   1.562   0.408
    1XTA     H346726  34.555   1.389   0.324
    1XTA     H446727  34.465   1.624   0.331
    1XTA     H546728  34.470   1.714   0.110
    1XTA     H646729  34.485   1.745  -0.115
    1XTA     H746730  34.786   2.046  -0.061
    1XTA     H846731  34.767   2.017   0.184
    1XTA     H946732  34.359   1.829   0.373
    1XTA    H1046733  34.253   1.981   0.557
    1XTA    H1146734  34.649   2.137   0.633
    1XTA    H1246735  34.739   2.026   0.456
    1XTA    OA146736  34.816   1.348   0.414
    1XTA    CO146737  34.763   1.236   0.347
    1XTA    OA246738  34.667   1.907  -0.230
    1XTA    CO246739  34.584   1.832  -0.321
    1XTA    CL146740  34.622   1.876  -0.461
    1XTA    CL246741  34.734   1.796  -0.515
    1XTA    CL346742  34.766   1.841  -0.660
    1XTA    CL446743  34.884   1.764  -0.721
    1XTA    CO346744  34.907   1.805  -0.863
    1XTA    OA346745  34.780   1.810  -0.935
    1XTA    CO446746  34.734   1.681  -0.974
    1XTA    CT146747  34.610   1.712  -1.056
    1XTA    CL546748  34.546   1.588  -1.115
    1XTA    CL646749  34.504   1.477  -1.019
    1XTA    OA446750  34.376   2.109   0.717
    1XTA    CO546751  34.402   2.024   0.833
    1XTA    CL746752  34.316   2.064   0.950
    1XTA    CL846753  34.354   2.193   1.023
    1XTA    CL946754  34.502   2.213   1.071
    1XTA   CL1046755  34.577   2.096   1.141
    1XTA    CO646756  34.706   2.151   1.207
    1XTA    OA546757  34.747   2.050   1.298
    1XTA    CO746758  34.824   1.952   1.225
    1XTA    CT246759  34.891   1.835   1.308
    1XTA   CL1146760  34.953   1.727   1.227
    1XTA   CL1246761  35.073   1.758   1.144
    1XTA    HL146762  34.821   1.143   0.360
    1XTA    HL246763  34.659   1.212   0.370
    1XTA    HL346764  34.774   1.249   0.242
    1XTA    HL446765  34.576   1.729  -0.301
    1XTA    HL546766  34.486   1.876  -0.302
    1XTA    HL646767  34.637   1.979  -0.476
    1XTA    HL746768  34.535   1.855  -0.520
    1XTA    HL846769  34.727   1.688  -0.497
    1XTA    HL946770  34.819   1.819  -0.461
    1XTA   HL1046771  34.682   1.824  -0.730
    1XTA   HL1146772  34.802   1.942  -0.666
    1XTA   HL1246773  34.867   1.658  -0.717
    1XTA   HL1346774  34.964   1.778  -0.650
    1XTA   HL1446775  34.957   1.904  -0.868
    1XTA   HL1546776  34.988   1.742  -0.909
    1XTA   HL1646777  34.819   1.636  -1.036
    1XTA   HL1746778  34.713   1.609  -0.891
    1XTA   HL1846779  34.604   1.551  -1.196
    1XTA   HL1946780  34.447   1.621  -1.159
    1XTA   HL2046781  34.463   1.389  -1.076
    1XTA   HL2146782  34.428   1.511  -0.942
    1XTA   HL2246783  34.593   1.432  -0.974
    1XTA   HL2346784  34.509   2.013   0.857
    1XTA   HL2446785  34.370   1.920   0.803
    1XTA   HL2546786  34.208   2.056   0.921
    1XTA   HL2646787  34.333   1.988   1.032
    1XTA   HL2746788  34.344   2.276   0.953
    1XTA   HL2846789  34.280   2.213   1.099
    1XTA   HL2946790  34.557   2.266   0.994
    1XTA   HL3046791  34.487   2.287   1.147
    1XTA   HL3146792  34.520   2.055   1.221
    1XTA   HL3246793  34.592   2.021   1.067
    1XTA   HL3346794  34.795   2.177   1.154
    1XTA   HL3446795  34.697   2.241   1.268
    1XTA   HL3546796  34.906   2.013   1.185
    1XTA   HL3646797  34.770   1.915   1.137
    1XTA   HL3746798  34.886   1.666   1.165
    1XTA   HL3846799  34.990   1.647   1.291
    1XTA   HL3946800  35.116   1.672   1.093
    1XTA   HL4046801  35.154   1.812   1.200
    1XTA   HL4146802  35.042   1.828   1.066
    1XTA    CO846803  34.612   1.831  -1.143
    1XTA    CO946804  34.503   1.788  -0.970
    1XTA    OA646805  34.513   1.897  -1.067
    1XTA   HL4246806  34.572   1.801  -1.242
    1XTA   HL4346807  34.705   1.879  -1.148
    1XTA   HL4446808  34.774   1.861   1.475
    1XTA   HL4546809  34.704   1.749   1.364
    1XTA   CO1046810  34.798   1.772   1.413
    1XTA   CO1146811  35.008   1.902   1.390
    1XTA    OA746812  34.954   1.989   1.491
    1XTA   HL4646813  35.063   1.828   1.447
    1XTA   HL4746814  35.081   1.961   1.332
    1XTA   HL4846815  34.535   1.814  -0.865
    1XTA   HL4946816  34.412   1.741  -0.977
    1XTA     NT46817  32.384   1.721   3.495
    1XTA    CN146818  32.336   1.691   3.371
    1XTA     C146819  32.302   1.795   3.283
    1XTA     C246820  32.245   1.763   3.157
    1XTA     C346821  32.210   1.628   3.133
    1XTA     C446822  32.235   1.524   3.225
    1XTA     C546823  32.308   1.557   3.331
    1XTA    CN246824  32.519   1.712   3.522
    1XTA     C646825  32.574   1.597   3.583
    1XTA     C746826  32.714   1.592   3.605
    1XTA     C846827  32.795   1.701   3.569
    1XTA     C946828  32.736   1.812   3.516
    1XTA    C1046829  32.599   1.824   3.499
    1XTA    CN346830  32.303   1.784   3.580
    1XTA    C1146831  32.333   1.913   3.620
    1XTA    C1246832  32.257   1.979   3.721
    1XTA    C1346833  32.150   1.904   3.779
    1XTA    C1446834  32.120   1.773   3.743
    1XTA    C1546835  32.191   1.714   3.637
    1XTA     H146836  32.321   1.902   3.305
    1XTA     H246837  32.215   1.843   3.092
    1XTA     H346838  32.208   1.420   3.213
    1XTA     H446839  32.347   1.478   3.401
    1XTA     H546840  32.500   1.509   3.594
    1XTA     H646841  32.748   1.499   3.643
    1XTA     H746842  32.805   1.896   3.498
    1XTA     H846843  32.549   1.916   3.463
    1XTA     H946844  32.406   1.968   3.567
    1XTA    H1046845  32.275   2.080   3.751
    1XTA    H1146846  32.050   1.722   3.800
    1XTA    H1246847  32.175   1.615   3.613
    1XTA    OA146848  32.153   1.605   3.015
    1XTA    CO146849  32.046   1.517   3.016
    1XTA    OA246850  32.935   1.679   3.596
    1XTA    CO246851  33.017   1.748   3.513
    1XTA    CL146852  33.159   1.720   3.564
    1XTA    CL246853  33.272   1.797   3.485
    1XTA    CL346854  33.414   1.779   3.543
    1XTA    CL446855  33.520   1.860   3.478
    1XTA    CO346856  33.650   1.861   3.570
    1XTA    OA346857  33.700   1.733   3.580
    1XTA    CO446858  33.780   1.695   3.468
    1XTA    CT146859  33.860   1.565   3.488
    1XTA    CL546860  33.755   1.450   3.513
    1XTA    CL646861  33.813   1.310   3.562
    1XTA    OA446862  32.080   1.947   3.886
    1XTA    CO546863  32.140   2.024   3.990
    1XTA    CL746864  32.047   2.046   4.106
    1XTA    CL846865  32.120   2.089   4.235
    1XTA    CL946866  32.198   2.220   4.227
    1XTA   CL1046867  32.113   2.350   4.190
    1XTA    CO646868  32.198   2.472   4.155
    1XTA    OA546869  32.278   2.447   4.039
    1XTA    CO746870  32.348   2.563   4.005
    1XTA    CT246871  32.418   2.541   3.866
    1XTA   CL1146872  32.541   2.444   3.881
    1XTA   CL1246873  32.518   2.292   3.904
    1XTA    HL146874  32.092   1.419   3.034
    1XTA    HL246875  31.984   1.547   3.101
    1XTA    HL346876  31.999   1.515   2.924
    1XTA    HL446877  33.001   1.714   3.407
    1XTA    HL546878  33.008   1.855   3.520
    1XTA    HL646879  33.175   1.612   3.551
    1XTA    HL746880  33.170   1.724   3.673
    1XTA    HL846881  33.234   1.910   3.491
    1XTA    HL946882  33.272   1.786   3.377
    1XTA   HL1046883  33.410   1.787   3.651
    1XTA   HL1146884  33.448   1.680   3.528
    1XTA   HL1246885  33.478   1.959   3.474
    1XTA   HL1346886  33.538   1.818   3.379
    1XTA   HL1446887  33.726   1.918   3.520
    1XTA   HL1546888  33.632   1.913   3.670
    1XTA   HL1646889  33.714   1.690   3.374
    1XTA   HL1746890  33.853   1.778   3.446
    1XTA   HL1846891  33.697   1.426   3.430
    1XTA   HL1946892  33.682   1.483   3.587
    1XTA   HL2046893  33.878   1.265   3.490
    1XTA   HL2146894  33.715   1.255   3.576
    1XTA   HL2246895  33.863   1.324   3.657
    1XTA   HL2346896  32.173   2.124   3.945
    1XTA   HL2446897  32.230   1.979   4.030
    1XTA   HL2546898  31.971   2.118   4.076
    1XTA   HL2646899  32.008   1.948   4.139
    1XTA   HL2746900  32.050   2.114   4.309
    1XTA   HL2846901  32.187   2.008   4.274
    1XTA   HL2946902  32.256   2.239   4.321
    1XTA   HL3046903  32.287   2.211   4.155
    1XTA   HL3146904  32.067   2.317   4.097
    1XTA   HL3246905  32.028   2.375   4.251
    1XTA   HL3346906  32.141   2.564   4.129
    1XTA   HL3446907  32.268   2.493   4.236
    1XTA   HL3546908  32.425   2.580   4.079
    1XTA   HL3646909  32.280   2.653   4.005
    1XTA   HL3746910  32.588   2.482   3.966
    1XTA   HL3846911  32.599   2.445   3.790
    1XTA   HL3946912  32.614   2.244   3.891
    1XTA   HL4046913  32.455   2.249   3.829
    1XTA   HL4146914  32.489   2.273   4.007
    1XTA    CO846915  33.948   1.583   3.618
    1XTA    CO946916  33.955   1.528   3.363
    1XTA    OA646917  34.041   1.692   3.614
    1XTA   HL4246918  34.007   1.498   3.628
    1XTA   HL4346919  33.887   1.590   3.710
    1XTA   HL4446920  32.553   2.717   3.869
    1XTA   HL4546921  32.514   2.645   3.709
    1XTA   CO1046922  32.475   2.676   3.805
    1XTA   CO1146923  32.311   2.494   3.760
    1XTA    OA746924  32.404   2.759   3.798
    1XTA   HL4646925  32.198   2.577   3.773
    1XTA   HL4746926  32.274   2.395   3.796
    1XTA   HL4846927  34.022   1.605   3.328
    1XTA   HL4946928  34.020   1.448   3.399
    1XTA     NT46929  30.620   5.406   3.285
    1XTA    CN146930  30.541   5.494   3.228
    1XTA     C146931  30.419   5.449   3.171
    1XTA     C246932  30.322   5.542   3.123
    1XTA     C346933  30.338   5.682   3.149
    1XTA     C446934  30.462   5.718   3.204
    1XTA     C546935  30.564   5.630   3.242
    1XTA    CN246936  30.751   5.400   3.253
    1XTA     C646937  30.785   5.391   3.113
    1XTA     C746938  30.917   5.358   3.073
    1XTA     C846939  31.015   5.345   3.171
    1XTA     C946940  30.988   5.363   3.304
    1XTA    C1046941  30.854   5.377   3.346
    1XTA    CN346942  30.564   5.320   3.372
    1XTA    C1146943  30.586   5.183   3.358
    1XTA    C1246944  30.529   5.092   3.452
    1XTA    C1346945  30.447   5.136   3.554
    1XTA    C1446946  30.410   5.274   3.563
    1XTA    C1546947  30.474   5.361   3.474
    1XTA     H146948  30.405   5.340   3.158
    1XTA     H246949  30.232   5.497   3.075
    1XTA     H346950  30.478   5.826   3.232
    1XTA     H446951  30.660   5.672   3.284
    1XTA     H546952  30.721   5.404   3.028
    1XTA     H646953  30.955   5.361   2.972
    1XTA     H746954  31.061   5.363   3.372
    1XTA     H846955  30.831   5.383   3.448
    1XTA     H946956  30.644   5.143   3.270
    1XTA    H1046957  30.558   4.994   3.444
    1XTA    H1146958  30.355   5.307   3.644
    1XTA    H1246959  30.443   5.465   3.487
    1XTA    OA146960  30.245   5.779   3.103
    1XTA    CO146961  30.125   5.726   3.057
    1XTA    OA246962  31.152   5.327   3.145
    1XTA    CO246963  31.203   5.305   3.011
    1XTA    CL146964  31.164   5.177   2.950
    1XTA    CL246965  31.221   5.157   2.809
    1XTA    CL346966  31.178   5.021   2.753
    1XTA    CL446967  31.034   5.027   2.707
    1XTA    CO346968  30.968   4.894   2.651
    1XTA    OA346969  30.995   4.785   2.736
    1XTA    CO446970  30.931   4.789   2.863
    1XTA    CT146971  30.923   4.643   2.924
    1XTA    CL546972  31.061   4.594   2.969
    1XTA    CL646973  31.077   4.468   3.061
    1XTA    OA446974  30.394   5.037   3.640
    1XTA    CO546975  30.311   5.072   3.747
    1XTA    CL746976  30.163   5.058   3.721
    1XTA    CL846977  30.099   5.198   3.686
    1XTA    CL946978  29.949   5.199   3.669
    1XTA   CL1046979  29.889   5.342   3.648
    1XTA    CO646980  29.741   5.324   3.633
    1XTA    OA546981  29.678   5.454   3.635
    1XTA    CO746982  29.655   5.501   3.499
    1XTA    CT246983  29.586   5.641   3.513
    1XTA   CL1146984  29.555   5.707   3.373
    1XTA   CL1246985  29.459   5.621   3.285
    1XTA    HL146986  30.073   5.808   3.015
    1XTA    HL246987  30.141   5.649   2.980
    1XTA    HL346988  30.067   5.700   3.141
    1XTA    HL446989  31.158   5.379   2.951
    1XTA    HL546990  31.307   5.314   3.013
    1XTA    HL646991  31.052   5.164   2.944
    1XTA    HL746992  31.201   5.113   3.023
    1XTA    HL846993  31.327   5.160   2.805
    1XTA    HL946994  31.197   5.241   2.736
    1XTA   HL1046995  31.243   4.989   2.672
    1XTA   HL1146996  31.173   4.946   2.834
    1XTA   HL1246997  31.030   5.104   2.627
    1XTA   HL1346998  30.974   5.048   2.796
    1XTA   HL1446999  30.865   4.903   2.639
    1XTA   HL1547000  31.005   4.874   2.551
    1XTA   HL1647001  30.981   4.861   2.927
    1XTA   HL1747002  30.825   4.821   2.853
    1XTA   HL1847003  31.099   4.676   3.036
    1XTA   HL1947004  31.125   4.591   2.874
    1XTA   HL2047005  31.179   4.435   3.071
    1XTA   HL2147006  31.031   4.389   3.001
    1XTA   HL2247007  31.033   4.479   3.158
    1XTA   HL2347008  30.328   5.167   3.797
    1XTA   HL2447009  30.345   5.008   3.822
    1XTA   HL2547010  30.145   4.990   3.641
    1XTA   HL2647011  30.110   5.024   3.812
    1XTA   HL2747012  30.128   5.271   3.762
    1XTA   HL2847013  30.129   5.227   3.587
    1XTA   HL2947014  29.914   5.141   3.581
    1XTA   HL3047015  29.908   5.160   3.765
    1XTA   HL3147016  29.900   5.403   3.732
    1XTA   HL3247017  29.930   5.391   3.564
    1XTA   HL3347018  29.713   5.264   3.545
    1XTA   HL3447019  29.709   5.263   3.720
    1XTA   HL3547020  29.594   5.430   3.452
    1XTA   HL3647021  29.745   5.509   3.438
    1XTA   HL3747022  29.644   5.728   3.314
    1XTA   HL3847023  29.507   5.804   3.386
    1XTA   HL3947024  29.363   5.602   3.333
    1XTA   HL4047025  29.502   5.521   3.248
    1XTA   HL4147026  29.439   5.679   3.199
    1XTA    CO847027  30.847   4.554   2.824
    1XTA    CO947028  30.822   4.646   3.040
    1XTA    OA647029  30.879   4.721   3.146
    1XTA   HL4247030  30.769   4.621   2.781
    1XTA   HL4347031  30.911   4.532   2.746
    1XTA   HL4447032  29.776   5.697   3.568
    1XTA   HL4547033  29.662   5.828   3.577
    1XTA   CO1047034  29.676   5.722   3.605
    1XTA   CO1147035  29.444   5.626   3.590
    1XTA    OA747036  29.374   5.745   3.598
    1XTA   HL4647037  29.380   5.557   3.537
    1XTA   HL4747038  29.452   5.581   3.684
    1XTA   HL4847039  30.796   4.540   3.065
    1XTA   HL4947040  30.727   4.682   3.011
    1XTA     NT47041  33.000   2.537   3.485
    1XTA    CN147042  32.974   2.411   3.534
    1XTA     C147043  33.075   2.316   3.557
    1XTA     C247044  33.043   2.197   3.615
    1XTA     C347045  32.917   2.163   3.662
    1XTA     C447046  32.814   2.255   3.646
    1XTA     C547047  32.841   2.375   3.573
    1XTA    CN247048  33.084   2.553   3.380
    1XTA     C647049  33.217   2.575   3.401
    1XTA     C747050  33.302   2.607   3.292
    1XTA     C847051  33.255   2.599   3.160
    1XTA     C947052  33.123   2.568   3.141
    1XTA    C1047053  33.031   2.547   3.247
    1XTA    CN347054  32.989   2.640   3.571
    1XTA    C1147055  32.888   2.734   3.555
    1XTA    C1247056  32.859   2.833   3.653
    1XTA    C1347057  32.942   2.841   3.767
    1XTA    C1447058  33.047   2.748   3.781
    1XTA    C1547059  33.065   2.649   3.684
    1XTA     H147060  33.173   2.340   3.528
    1XTA     H247061  33.127   2.128   3.622
    1XTA     H347062  32.714   2.227   3.679
    1XTA     H447063  32.769   2.454   3.554
    1XTA     H547064  33.265   2.573   3.498
    1XTA     H647065  33.406   2.632   3.321
    1XTA     H747066  33.094   2.575   3.033
    1XTA     H847067  32.921   2.519   3.235
    1XTA     H947068  32.829   2.737   3.472
    1XTA    H1047069  32.786   2.907   3.617
    1XTA    H1147070  33.104   2.738   3.872
    1XTA    H1247071  33.133   2.575   3.705
    1XTA    OA147072  32.899   2.043   3.718
    1XTA    CO147073  32.789   2.033   3.801
    1XTA    OA247074  33.331   2.613   3.047
    1XTA    CO247075  33.464   2.559   3.060
    1XTA    CL147076  33.550   2.541   2.921
    1XTA    CL247077  33.568   2.685   2.852
    1XTA    CL347078  33.670   2.667   2.732
    1XTA    CL447079  33.659   2.790   2.629
    1XTA    CO347080  33.791   2.839   2.573
    1XTA    OA347081  33.826   2.765   2.463
    1XTA    CO447082  33.961   2.755   2.425
    1XTA    CT147083  33.977   2.691   2.287
    1XTA    CL547084  33.980   2.537   2.300
    1XTA    CL647085  33.875   2.477   2.392
    1XTA    OA447086  32.934   2.952   3.846
    1XTA    CO547087  33.062   2.978   3.913
    1XTA    CL747088  33.045   3.128   3.946
    1XTA    CL847089  33.004   3.230   3.837
    1XTA    CL947090  33.100   3.260   3.725
    1XTA   CL1047091  33.024   3.304   3.597
    1XTA    CO647092  32.973   3.181   3.510
    1XTA    OA547093  32.859   3.192   3.434
    1XTA    CO747094  32.740   3.190   3.511
    1XTA    CT247095  32.607   3.213   3.433
    1XTA   CL1147096  32.620   3.340   3.336
    1XTA   CL1247097  32.646   3.465   3.417
    1XTA    HL147098  32.690   2.035   3.753
    1XTA    HL247099  32.801   1.936   3.853
    1XTA    HL347100  32.799   2.116   3.877
    1XTA    HL447101  33.523   2.604   3.132
    1XTA    HL547102  33.455   2.461   3.099
    1XTA    HL647103  33.498   2.471   2.852
    1XTA    HL747104  33.642   2.491   2.949
    1XTA    HL847105  33.609   2.749   2.937
    1XTA    HL947106  33.470   2.711   2.826
    1XTA   HL1047107  33.765   2.648   2.784
    1XTA   HL1147108  33.659   2.574   2.678
    1XTA   HL1247109  33.617   2.885   2.676
    1XTA   HL1347110  33.583   2.775   2.546
    1XTA   HL1447111  33.796   2.941   2.561
    1XTA   HL1547112  33.850   2.821   2.665
    1XTA   HL1647113  34.002   2.854   2.434
    1XTA   HL1747114  34.022   2.698   2.488
    1XTA   HL1847115  34.080   2.504   2.327
    1XTA   HL1947116  33.969   2.502   2.195
    1XTA   HL2047117  33.861   2.368   2.381
    1XTA   HL2147118  33.777   2.522   2.366
    1XTA   HL2247119  33.884   2.490   2.502
    1XTA   HL2347120  33.148   2.962   3.852
    1XTA   HL2447121  33.079   2.918   4.003
    1XTA   HL2547122  32.963   3.137   4.011
    1XTA   HL2647123  33.132   3.161   3.997
    1XTA   HL2747124  32.912   3.195   3.799
    1XTA   HL2847125  32.975   3.327   3.877
    1XTA   HL2947126  33.157   3.350   3.756
    1XTA   HL3047127  33.178   3.188   3.702
    1XTA   HL3147128  32.949   3.367   3.625
    1XTA   HL3247129  33.081   3.369   3.540
    1XTA   HL3347130  33.063   3.159   3.455
    1XTA   HL3447131  32.968   3.099   3.588
    1XTA   HL3547132  32.747   3.269   3.582
    1XTA   HL3647133  32.744   3.097   3.565
    1XTA   HL3747134  32.518   3.352   3.292
    1XTA   HL3847135  32.691   3.326   3.257
    1XTA   HL3947136  32.635   3.551   3.345
    1XTA   HL4047137  32.744   3.466   3.460
    1XTA   HL4147138  32.583   3.475   3.501
    1XTA    CO847139  34.119   2.732   2.228
    1XTA    CO947140  33.855   2.749   2.198
    1XTA    OA647141  33.862   2.684   2.108
    1XTA   HL4247142  34.118   2.841   2.208
    1XTA   HL4347143  34.151   2.657   2.114
    1XTA   HL4447144  32.405   3.267   3.491
    1XTA   HL4547145  32.529   3.274   3.630
    1XTA   CO1047146  32.494   3.222   3.538
    1XTA   CO1147147  32.572   3.104   3.338
    1XTA    OA747148  32.442   3.118   3.282
    1XTA   HL4647149  32.656   3.084   3.263
    1XTA   HL4747150  32.562   3.012   3.398
    1XTA   HL4847151  33.869   2.854   2.182
    1XTA   HL4947152  33.751   2.735   2.245
    1XTA     NT47153  28.506   5.756   1.236
    1XTA    CN147154  28.625   5.811   1.237
    1XTA     C147155  28.689   5.874   1.129
    1XTA     C247156  28.819   5.920   1.141
    1XTA     C347157  28.888   5.909   1.268
    1XTA     C447158  28.819   5.864   1.379
    1XTA     C547159  28.692   5.811   1.365
    1XTA    CN247160  28.391   5.818   1.251
    1XTA     C647161  28.332   5.873   1.140
    1XTA     C747162  28.222   5.957   1.152
    1XTA     C847163  28.159   5.979   1.274
    1XTA     C947164  28.220   5.923   1.391
    1XTA    C1047165  28.332   5.834   1.378
    1XTA    CN347166  28.502   5.624   1.220
    1XTA    C1147167  28.479   5.585   1.092
    1XTA    C1247168  28.471   5.449   1.056
    1XTA    C1347169  28.485   5.354   1.163
    1XTA    C1447170  28.495   5.400   1.298
    1XTA    C1547171  28.507   5.535   1.326
    1XTA     H147172  28.648   5.881   1.036
    1XTA     H247173  28.866   5.979   1.068
    1XTA     H347174  28.862   5.860   1.468
    1XTA     H447175  28.643   5.766   1.453
    1XTA     H547176  28.370   5.850   1.038
    1XTA     H647177  28.165   5.997   1.066
    1XTA     H747178  28.169   5.934   1.487
    1XTA     H847179  28.376   5.794   1.474
    1XTA     H947180  28.457   5.660   1.011
    1XTA    H1047181  28.451   5.407   0.961
    1XTA    H1147182  28.500   5.332   1.377
    1XTA    H1247183  28.517   5.567   1.433
    1XTA    OA147184  29.017   5.958   1.275
    1XTA    CO147185  29.099   5.927   1.394
    1XTA    OA247186  28.048   6.058   1.277
    1XTA    CO247187  27.967   6.070   1.395
    1XTA    CL147188  27.872   5.947   1.389
    1XTA    CL247189  27.753   5.943   1.484
    1XTA    CL347190  27.788   5.905   1.630
    1XTA    CL447191  27.681   5.930   1.725
    1XTA    CO347192  27.717   5.921   1.880
    1XTA    OA347193  27.759   5.787   1.896
    1XTA    CO447194  27.753   5.744   2.028
    1XTA    CT147195  27.798   5.588   2.030
    1XTA    CL547196  27.762   5.520   2.160
    1XTA    CL647197  27.615   5.487   2.175
    1XTA    OA447198  28.494   5.218   1.135
    1XTA    CO547199  28.594   5.147   1.204
    1XTA    CL747200  28.531   5.025   1.263
    1XTA    CL847201  28.476   4.929   1.161
    1XTA    CL947202  28.432   4.808   1.240
    1XTA   CL1047203  28.416   4.673   1.177
    1XTA    CO647204  28.286   4.669   1.094
    1XTA    OA547205  28.308   4.744   0.981
    1XTA    CO747206  28.372   4.677   0.876
    1XTA    CT247207  28.336   4.742   0.743
    1XTA   CL1147208  28.192   4.705   0.718
    1XTA   CL1247209  28.084   4.777   0.802
    1XTA    HL147210  29.201   5.959   1.375
    1XTA    HL247211  29.074   5.986   1.483
    1XTA    HL347212  29.091   5.822   1.418
    1XTA    HL447213  28.018   6.074   1.494
    1XTA    HL547214  27.900   6.156   1.384
    1XTA    HL647215  27.919   5.849   1.399
    1XTA    HL747216  27.826   5.937   1.294
    1XTA    HL847217  27.680   5.872   1.443
    1XTA    HL947218  27.697   6.035   1.485
    1XTA   HL1047219  27.824   5.800   1.631
    1XTA   HL1147220  27.875   5.946   1.682
    1XTA   HL1247221  27.606   5.853   1.705
    1XTA   HL1347222  27.630   6.027   1.700
    1XTA   HL1447223  27.787   5.995   1.909
    1XTA   HL1547224  27.628   5.928   1.940
    1XTA   HL1647225  27.817   5.803   2.100
    1XTA   HL1747226  27.648   5.751   2.059
    1XTA   HL1847227  27.797   5.576   2.242
    1XTA   HL1947228  27.816   5.426   2.179
    1XTA   HL2047229  27.572   5.479   2.276
    1XTA   HL2147230  27.590   5.396   2.115
    1XTA   HL2247231  27.558   5.568   2.128
    1XTA   HL2347232  28.644   5.206   1.283
    1XTA   HL2447233  28.662   5.121   1.120
    1XTA   HL2547234  28.596   4.966   1.328
    1XTA   HL2647235  28.447   5.049   1.326
    1XTA   HL2747236  28.392   4.965   1.105
    1XTA   HL2847237  28.549   4.893   1.090
    1XTA   HL2947238  28.503   4.784   1.316
    1XTA   HL3047239  28.337   4.836   1.293
    1XTA   HL3147240  28.509   4.649   1.121
    1XTA   HL3247241  28.400   4.597   1.249
    1XTA   HL3347242  28.259   4.565   1.065
    1XTA   HL3447243  28.196   4.704   1.143
    1XTA   HL3547244  28.350   4.571   0.865
    1XTA   HL3647245  28.477   4.689   0.902
    1XTA   HL3747246  28.178   4.596   0.744
    1XTA   HL3847247  28.175   4.690   0.608
    1XTA   HL3947248  28.076   4.880   0.772
    1XTA   HL4047249  28.108   4.772   0.908
    1XTA   HL4147250  27.987   4.736   0.789
    1XTA    CO847251  27.952   5.591   2.018
    1XTA    CO947252  27.744   5.510   1.909
    1XTA    OA647253  27.743   5.402   1.918
    1XTA   HL4247254  28.002   5.644   2.103
    1XTA   HL4347255  27.982   5.661   1.897
    1XTA   HL4447256  28.379   4.582   0.610
    1XTA   HL4547257  28.417   4.743   0.545
    1XTA   CO1047258  28.424   4.679   0.631
    1XTA   CO1147259  28.364   4.892   0.744
    1XTA    OA747260  28.530   4.670   0.660
    1XTA   HL4647261  28.268   4.951   0.828
    1XTA   HL4747262  28.308   4.921   0.652
    1XTA   HL4847263  27.800   5.530   1.817
    1XTA   HL4947264  27.643   5.539   1.886
    1XTA     NT47265  26.409   0.298   2.594
    1XTA    CN147266  26.520   0.232   2.618
    1XTA     C147267  26.550   0.164   2.741
    1XTA     C247268  26.675   0.101   2.763
    1XTA     C347269  26.766   0.107   2.652
    1XTA     C447270  26.732   0.156   2.526
    1XTA     C547271  26.611   0.231   2.515
    1XTA    CN247272  26.295   0.227   2.597
    1XTA     C647273  26.202   0.267   2.700
    1XTA     C747274  26.086   0.191   2.719
    1XTA     C847275  26.059   0.081   2.637
    1XTA     C947276  26.146   0.046   2.532
    1XTA    C1047277  26.265   0.117   2.508
    1XTA    CN347278  26.404   0.430   2.567
    1XTA    C1147279  26.447   0.520   2.667
    1XTA    C1247280  26.443   0.657   2.646
    1XTA    C1347281  26.400   0.714   2.524
    1XTA    C1447282  26.345   0.628   2.428
    1XTA    C1547283  26.344   0.488   2.455
    1XTA     H147284  26.476   0.156   2.811
    1XTA     H247285  26.693   0.048   2.857
    1XTA     H347286  26.816   0.158   2.451
    1XTA     H447287  26.579   0.294   2.424
    1XTA     H547288  26.223   0.345   2.771
    1XTA     H647289  26.022   0.217   2.799
    1XTA     H747290  26.117  -0.020   2.451
    1XTA     H847291  26.341   0.078   2.438
    1XTA     H947292  26.475   0.476   2.765
    1XTA    H1047293  26.475   0.724   2.723
    1XTA    H1147294  26.292   0.674   2.349
    1XTA    H1247295  26.307   0.431   2.369
    1XTA    OA147296  26.890   0.045   2.667
    1XTA    CO147297  26.960   0.074   2.784
    1XTA    OA247298  25.937   0.023   2.655
    1XTA    CO247299  25.920  -0.117   2.633
    1XTA    CL147300  25.857  -0.145   2.493
    1XTA    CL247301  25.852  -0.294   2.457
    1XTA    CL347302  25.986  -0.366   2.441
    1XTA    CL447303  26.032  -0.347   2.296
    1XTA    CO347304  26.164  -0.421   2.279
    1XTA    OA347305  26.134  -0.556   2.304
    1XTA    CO447306  26.214  -0.611   2.412
    1XTA    CT147307  26.180  -0.759   2.440
    1XTA    CL547308  26.288  -0.807   2.549
    1XTA    CL647309  26.276  -0.949   2.589
    1XTA    OA447310  26.390   0.852   2.516
    1XTA    CO547311  26.325   0.920   2.402
    1XTA    CL747312  26.343   1.072   2.424
    1XTA    CL847313  26.487   1.120   2.434
    1XTA    CL947314  26.555   1.114   2.570
    1XTA   CL1047315  26.709   1.126   2.552
    1XTA    CO647316  26.781   1.100   2.679
    1XTA    OA547317  26.914   1.159   2.676
    1XTA    CO747318  26.961   1.187   2.810
    1XTA    CT247319  26.988   1.332   2.841
    1XTA   CL1147320  27.040   1.342   2.988
    1XTA   CL1247321  27.176   1.290   3.024
    1XTA    HL147322  26.918   0.022   2.867
    1XTA    HL247323  27.064   0.049   2.773
    1XTA    HL347324  26.941   0.175   2.811
    1XTA    HL447325  26.012  -0.162   2.646
    1XTA    HL547326  25.859  -0.162   2.712
    1XTA    HL647327  25.918  -0.106   2.410
    1XTA    HL747328  25.755  -0.094   2.491
    1XTA    HL847329  25.792  -0.312   2.367
    1XTA    HL947330  25.792  -0.342   2.532
    1XTA   HL1047331  26.062  -0.332   2.505
    1XTA   HL1147332  25.964  -0.469   2.480
    1XTA   HL1247333  26.034  -0.241   2.273
    1XTA   HL1347334  25.971  -0.397   2.220
    1XTA   HL1447335  26.190  -0.422   2.177
    1XTA   HL1547336  26.233  -0.371   2.341
    1XTA   HL1647337  26.321  -0.596   2.391
    1XTA   HL1747338  26.196  -0.554   2.502
    1XTA   HL1847339  26.279  -0.736   2.637
    1XTA   HL1947340  26.389  -0.789   2.519
    1XTA   HL2047341  26.358  -0.961   2.659
    1XTA   HL2147342  26.295  -1.029   2.511
    1XTA   HL2247343  26.181  -0.960   2.641
    1XTA   HL2347344  26.218   0.890   2.394
    1XTA   HL2447345  26.367   0.885   2.307
    1XTA   HL2547346  26.304   1.115   2.331
    1XTA   HL2647347  26.278   1.105   2.508
    1XTA   HL2747348  26.541   1.056   2.368
    1XTA   HL2847349  26.505   1.224   2.393
    1XTA   HL2947350  26.523   1.201   2.630
    1XTA   HL3047351  26.532   1.018   2.617
    1XTA   HL3147352  26.730   1.056   2.474
    1XTA   HL3247353  26.743   1.225   2.521
    1XTA   HL3347354  26.721   1.161   2.751
    1XTA   HL3447355  26.761   0.996   2.708
    1XTA   HL3547356  27.059   1.138   2.822
    1XTA   HL3647357  26.897   1.136   2.880
    1XTA   HL3747358  26.959   1.292   3.051
    1XTA   HL3847359  27.035   1.447   3.021
    1XTA   HL3947360  27.201   1.325   3.118
    1XTA   HL4047361  27.252   1.331   2.959
    1XTA   HL4147362  27.162   1.184   3.017
    1XTA    CO847363  26.181  -0.835   2.301
    1XTA    CO947364  26.042  -0.762   2.501
    1XTA    OA647365  26.283  -0.839   2.269
    1XTA   HL4247366  26.116  -0.780   2.229
    1XTA   HL4347367  26.139  -0.934   2.321
    1XTA   HL4447368  26.828   1.409   2.712
    1XTA   HL4547369  26.745   1.364   2.896
    1XTA   CO1047370  26.855   1.411   2.820
    1XTA   CO1147371  27.095   1.403   2.754
    1XTA    OA747372  27.056   1.409   2.658
    1XTA   HL4647373  27.135   1.504   2.792
    1XTA   HL4747374  27.184   1.344   2.744
    1XTA   HL4847375  26.050  -0.713   2.638
    1XTA   HL4947376  26.024  -0.867   2.513
    1XTA     NT47377  26.636  -1.425   7.358
    1XTA    CN147378  26.511  -1.458   7.314
    1XTA     C147379  26.433  -1.356   7.267
    1XTA     C247380  26.304  -1.382   7.227
    1XTA     C347381  26.250  -1.508   7.222
    1XTA     C447382  26.330  -1.614   7.269
    1XTA     C547383  26.463  -1.589   7.314
    1XTA    CN247384  26.681  -1.439   7.484
    1XTA     C647385  26.601  -1.396   7.600
    1XTA     C747386  26.661  -1.399   7.730
    1XTA     C847387  26.796  -1.439   7.754
    1XTA     C947388  26.882  -1.463   7.644
    1XTA    C1047389  26.821  -1.469   7.509
    1XTA    CN347390  26.706  -1.346   7.281
    1XTA    C1147391  26.752  -1.401   7.156
    1XTA    C1247392  26.820  -1.320   7.069
    1XTA    C1347393  26.852  -1.187   7.100
    1XTA    C1447394  26.796  -1.127   7.224
    1XTA    C1547395  26.722  -1.210   7.310
    1XTA     H147396  26.485  -1.254   7.256
    1XTA     H247397  26.243  -1.297   7.195
    1XTA     H347398  26.295  -1.721   7.252
    1XTA     H447399  26.528  -1.669   7.342
    1XTA     H547400  26.497  -1.374   7.589
    1XTA     H647401  26.608  -1.370   7.820
    1XTA     H747402  26.988  -1.492   7.645
    1XTA     H847403  26.883  -1.491   7.421
    1XTA     H947404  26.738  -1.509   7.140
    1XTA    H1047405  26.853  -1.360   6.974
    1XTA    H1147406  26.812  -1.026   7.247
    1XTA    H1247407  26.682  -1.173   7.405
    1XTA    OA147408  26.121  -1.530   7.172
    1XTA    CO147409  26.079  -1.664   7.173
    1XTA    OA247410  26.838  -1.461   7.885
    1XTA    CO247411  26.973  -1.525   7.902
    1XTA    CL147412  27.088  -1.422   7.880
    1XTA    CL247413  27.233  -1.481   7.886
    1XTA    CL347414  27.332  -1.369   7.844
    1XTA    CL447415  27.476  -1.398   7.897
    1XTA    CO347416  27.545  -1.521   7.857
    1XTA    OA347417  27.572  -1.577   7.983
    1XTA    CO447418  27.650  -1.698   7.985
    1XTA    CT147419  27.685  -1.722   8.132
    1XTA    CL547420  27.562  -1.777   8.215
    1XTA    CL647421  27.421  -1.731   8.165
    1XTA    OA447422  26.916  -1.101   7.014
    1XTA    CO547423  26.955  -1.158   6.886
    1XTA    CL747424  26.995  -1.038   6.801
    1XTA    CL847425  27.022  -1.090   6.658
    1XTA    CL947426  27.080  -0.975   6.575
    1XTA   CL1047427  27.118  -1.043   6.442
    1XTA    CO647428  27.173  -0.947   6.333
    1XTA    OA547429  27.080  -0.834   6.317
    1XTA    CO747430  26.971  -0.876   6.231
    1XTA    CT247431  26.883  -0.751   6.194
    1XTA   CL1147432  26.768  -0.791   6.092
    1XTA   CL1247433  26.800  -0.844   5.951
    1XTA    HL147434  26.146  -1.721   7.112
    1XTA    HL247435  26.062  -1.706   7.275
    1XTA    HL347436  25.981  -1.681   7.127
    1XTA    HL447437  26.980  -1.573   8.001
    1XTA    HL547438  26.977  -1.614   7.836
    1XTA    HL647439  27.084  -1.353   7.955
    1XTA    HL747440  27.084  -1.362   7.789
    1XTA    HL847441  27.257  -1.557   7.812
    1XTA    HL947442  27.261  -1.517   7.982
    1XTA   HL1047443  27.333  -1.363   7.741
    1XTA   HL1147444  27.295  -1.271   7.875
    1XTA   HL1247445  27.476  -1.403   8.002
    1XTA   HL1347446  27.536  -1.312   7.872
    1XTA   HL1447447  27.487  -1.594   7.795
    1XTA   HL1547448  27.643  -1.491   7.811
    1XTA   HL1647449  27.598  -1.773   7.933
    1XTA   HL1747450  27.743  -1.669   7.938
    1XTA   HL1847451  27.570  -1.753   8.316
    1XTA   HL1947452  27.557  -1.887   8.202
    1XTA   HL2047453  27.400  -1.766   8.070
    1XTA   HL2147454  27.420  -1.624   8.176
    1XTA   HL2247455  27.339  -1.766   8.225
    1XTA   HL2347456  26.868  -1.202   6.830
    1XTA   HL2447457  27.037  -1.232   6.899
    1XTA   HL2547458  26.920  -0.959   6.812
    1XTA   HL2647459  27.091  -1.005   6.847
    1XTA   HL2747460  27.096  -1.163   6.666
    1XTA   HL2847461  26.932  -1.133   6.621
    1XTA   HL2947462  27.006  -0.896   6.551
    1XTA   HL3047463  27.170  -0.931   6.622
    1XTA   HL3147464  27.191  -1.126   6.457
    1XTA   HL3247465  27.040  -1.095   6.393
    1XTA   HL3347466  27.265  -0.908   6.369
    1XTA   HL3447467  27.205  -1.001   6.242
    1XTA   HL3547468  26.904  -0.948   6.278
    1XTA   HL3647469  27.008  -0.930   6.140
    1XTA   HL3747470  26.708  -0.705   6.081
    1XTA   HL3847471  26.698  -0.870   6.130
    1XTA   HL3947472  26.821  -0.764   5.876
    1XTA   HL4047473  26.709  -0.897   5.921
    1XTA   HL4147474  26.880  -0.913   5.954
    1XTA    CO847475  27.744  -1.591   8.205
    1XTA    CO947476  27.798  -1.832   8.127
    1XTA    OA647477  27.828  -1.857   8.232
    1XTA   HL4247478  27.782  -1.527   8.129
    1XTA   HL4347479  27.849  -1.631   8.289
    1XTA   HL4447480  26.894  -0.543   6.133
    1XTA   HL4547481  27.026  -0.594   6.235
    1XTA   CO1047482  26.966  -0.629   6.151
    1XTA   CO1147483  26.805  -0.703   6.321
    1XTA    OA747484  27.029  -0.644   6.061
    1XTA   HL4647485  26.749  -0.575   6.294
    1XTA   HL4747486  26.886  -0.676   6.390
    1XTA   HL4847487  27.896  -1.797   8.080
    1XTA   HL4947488  27.770  -1.912   8.056
    1XTA     NT47489  30.532   3.755   0.224
    1XTA    CN147490  30.497   3.691   0.111
    1XTA     C147491  30.393   3.603   0.109
    1XTA     C247492  30.341   3.548  -0.013
    1XTA     C347493  30.396   3.584  -0.139
    1XTA     C447494  30.505   3.679  -0.133
    1XTA     C547495  30.549   3.732  -0.011
    1XTA    CN247496  30.463   3.861   0.270
    1XTA     C647497  30.508   3.988   0.225
    1XTA     C747498  30.445   4.102   0.275
    1XTA     C847499  30.332   4.094   0.355
    1XTA     C947500  30.283   3.966   0.391
    1XTA    C1047501  30.350   3.849   0.356
    1XTA    CN347502  30.648   3.709   0.281
    1XTA    C1147503  30.768   3.754   0.226
    1XTA    C1247504  30.890   3.716   0.272
    1XTA    C1347505  30.893   3.626   0.381
    1XTA    C1447506  30.772   3.577   0.439
    1XTA    C1547507  30.648   3.618   0.388
    1XTA     H147508  30.337   3.592   0.201
    1XTA     H247509  30.253   3.484  -0.003
    1XTA     H347510  30.559   3.711  -0.222
    1XTA     H447511  30.621   3.813  -0.018
    1XTA     H547512  30.601   4.006   0.169
    1XTA     H647513  30.495   4.198   0.249
    1XTA     H747514  30.187   3.958   0.443
    1XTA     H847515  30.309   3.752   0.383
    1XTA     H947516  30.769   3.831   0.149
    1XTA    H1047517  30.974   3.768   0.226
    1XTA    H1147518  30.783   3.506   0.525
    1XTA    H1247519  30.559   3.592   0.439
    1XTA    OA147520  30.344   3.539  -0.261
    1XTA    CO147521  30.203   3.518  -0.242
    1XTA    OA247522  30.263   4.212   0.371
    1XTA    CO247523  30.210   4.244   0.499
    1XTA    CL147524  30.318   4.278   0.601
    1XTA    CL247525  30.256   4.359   0.718
    1XTA    CL347526  30.368   4.423   0.806
    1XTA    CL447527  30.475   4.320   0.851
    1XTA    CO347528  30.555   4.358   0.979
    1XTA    OA347529  30.667   4.268   1.004
    1XTA    CO447530  30.742   4.299   1.123
    1XTA    CT147531  30.852   4.196   1.134
    1XTA    CL547532  30.793   4.057   1.184
    1XTA    CL647533  30.728   4.058   1.325
    1XTA    OA447534  31.016   3.584   0.427
    1XTA    CO547535  31.031   3.477   0.515
    1XTA    CL747536  31.181   3.468   0.538
    1XTA    CL847537  31.268   3.447   0.409
    1XTA    CL947538  31.262   3.310   0.341
    1XTA   CL1047539  31.138   3.276   0.252
    1XTA    CO647540  31.104   3.395   0.161
    1XTA    OA547541  31.010   3.351   0.069
    1XTA    CO747542  30.875   3.357   0.114
    1XTA    CT247543  30.773   3.306   0.007
    1XTA   CL1147544  30.786   3.155  -0.024
    1XTA   CL1247545  30.909   3.104  -0.100
    1XTA    HL147546  30.145   3.607  -0.226
    1XTA    HL247547  30.180   3.492  -0.343
    1XTA    HL347548  30.167   3.433  -0.181
    1XTA    HL447549  30.149   4.329   0.477
    1XTA    HL547550  30.140   4.167   0.532
    1XTA    HL647551  30.389   4.338   0.547
    1XTA    HL747552  30.361   4.183   0.630
    1XTA    HL847553  30.198   4.291   0.776
    1XTA    HL947554  30.199   4.444   0.689
    1XTA   HL1047555  30.414   4.501   0.749
    1XTA   HL1147556  30.327   4.481   0.888
    1XTA   HL1247557  30.536   4.298   0.757
    1XTA   HL1347558  30.412   4.233   0.863
    1XTA   HL1447559  30.588   4.460   0.972
    1XTA   HL1547560  30.491   4.366   1.073
    1XTA   HL1647561  30.783   4.394   1.103
    1XTA   HL1747562  30.692   4.314   1.222
    1XTA   HL1847563  30.868   3.978   1.167
    1XTA   HL1947564  30.714   4.027   1.116
    1XTA   HL2047565  30.674   4.154   1.336
    1XTA   HL2147566  30.789   4.038   1.410
    1XTA   HL2247567  30.658   3.968   1.322
    1XTA   HL2347568  30.988   3.382   0.474
    1XTA   HL2447569  30.992   3.497   0.609
    1XTA   HL2547570  31.215   3.556   0.595
    1XTA   HL2647571  31.193   3.377   0.599
    1XTA   HL2747572  31.264   3.534   0.329
    1XTA   HL2847573  31.369   3.458   0.461
    1XTA   HL2947574  31.357   3.293   0.284
    1XTA   HL3047575  31.275   3.230   0.412
    1XTA   HL3147576  31.161   3.186   0.190
    1XTA   HL3247577  31.057   3.252   0.317
    1XTA   HL3347578  31.079   3.476   0.225
    1XTA   HL3447579  31.194   3.422   0.102
    1XTA   HL3547580  30.863   3.459   0.145
    1XTA   HL3647581  30.871   3.289   0.202
    1XTA   HL3747582  30.693   3.139  -0.088
    1XTA   HL3847583  30.773   3.093   0.073
    1XTA   HL3947584  30.987   3.085  -0.027
    1XTA   HL4047585  30.951   3.167  -0.176
    1XTA   HL4147586  30.884   3.014  -0.149
    1XTA    CO847587  30.964   4.233   1.228
    1XTA    CO947588  30.924   4.166   0.999
    1XTA    OA647589  31.046   4.123   1.247
    1XTA   HL4247590  30.931   4.286   1.312
    1XTA   HL4347591  31.030   4.310   1.190
    1XTA   HL4447592  30.745   3.496  -0.115
    1XTA   HL4547593  30.886   3.412  -0.149
    1XTA   CO1047594  30.783   3.396  -0.119
    1XTA   CO1147595  30.627   3.326   0.066
    1XTA    OA747596  30.725   3.343  -0.195
    1XTA   HL4647597  30.610   3.451   0.120
    1XTA   HL4747598  30.570   3.342  -0.024
    1XTA   HL4847599  30.932   4.254   0.935
    1XTA   HL4947600  31.026   4.138   1.029
    1XTA     NT47601  29.405   3.532   1.506
    1XTA    CN147602  29.337   3.574   1.617
    1XTA     C147603  29.308   3.709   1.637
    1XTA     C247604  29.237   3.751   1.748
    1XTA     C347605  29.207   3.659   1.850
    1XTA     C447606  29.241   3.522   1.842
    1XTA     C547607  29.299   3.484   1.719
    1XTA    CN247608  29.516   3.457   1.525
    1XTA     C647609  29.510   3.319   1.508
    1XTA     C747610  29.622   3.234   1.528
    1XTA     C847611  29.739   3.289   1.578
    1XTA     C947612  29.752   3.433   1.581
    1XTA    C1047613  29.636   3.516   1.559
    1XTA    CN347614  29.375   3.588   1.383
    1XTA    C1147615  29.443   3.695   1.331
    1XTA    C1247616  29.409   3.752   1.207
    1XTA    C1347617  29.316   3.692   1.123
    1XTA    C1447618  29.241   3.585   1.179
    1XTA    C1547619  29.266   3.534   1.311
    1XTA     H147620  29.347   3.787   1.581
    1XTA     H247621  29.215   3.857   1.750
    1XTA     H347622  29.229   3.459   1.923
    1XTA     H447623  29.319   3.380   1.707
    1XTA     H547624  29.416   3.280   1.469
    1XTA     H647625  29.621   3.125   1.520
    1XTA     H747626  29.845   3.485   1.620
    1XTA     H847627  29.654   3.621   1.555
    1XTA     H947628  29.532   3.738   1.383
    1XTA    H1047629  29.473   3.836   1.175
    1XTA    H1147630  29.154   3.546   1.129
    1XTA    H1247631  29.201   3.462   1.368
    1XTA    OA147632  29.144   3.686   1.968
    1XTA    CO147633  29.088   3.819   1.974
    1XTA    OA247634  29.843   3.208   1.621
    1XTA    CO247635  29.924   3.255   1.722
    1XTA    CL147636  29.845   3.288   1.850
    1XTA    CL247637  29.926   3.373   1.952
    1XTA    CL347638  29.833   3.429   2.065
    1XTA    CL447639  29.795   3.331   2.177
    1XTA    CO347640  29.909   3.300   2.275
    1XTA    OA347641  29.857   3.231   2.381
    1XTA    CO447642  29.834   3.092   2.363
    1XTA    CT147643  29.762   3.044   2.492
    1XTA    CL547644  29.711   2.894   2.499
    1XTA    CL647645  29.774   2.798   2.398
    1XTA    OA447646  29.301   3.742   0.992
    1XTA    CO547647  29.216   3.667   0.902
    1XTA    CL747648  29.249   3.512   0.865
    1XTA    CL847649  29.142   3.457   0.775
    1XTA    CL947650  29.152   3.310   0.736
    1XTA   CL1047651  29.149   3.208   0.851
    1XTA    CO647652  29.093   3.077   0.803
    1XTA    OA547653  29.162   3.039   0.687
    1XTA    CO747654  29.094   2.945   0.607
    1XTA    CT247655  29.189   2.901   0.493
    1XTA   CL1147656  29.310   2.825   0.562
    1XTA   CL1247657  29.277   2.691   0.630
    1XTA    HL147658  29.024   3.848   1.893
    1XTA    HL247659  29.035   3.828   2.070
    1XTA    HL347660  29.166   3.892   1.967
    1XTA    HL447661  29.988   3.176   1.761
    1XTA    HL547662  29.982   3.342   1.687
    1XTA    HL647663  29.806   3.194   1.885
    1XTA    HL747664  29.753   3.340   1.831
    1XTA    HL847665  29.965   3.464   1.901
    1XTA    HL947666  30.019   3.330   1.989
    1XTA   HL1047667  29.882   3.511   2.104
    1XTA   HL1147668  29.741   3.479   2.025
    1XTA   HL1247669  29.753   3.244   2.137
    1XTA   HL1347670  29.713   3.363   2.241
    1XTA   HL1447671  29.991   3.243   2.225
    1XTA   HL1547672  29.966   3.394   2.304
    1XTA   HL1647673  29.770   3.073   2.275
    1XTA   HL1747674  29.918   3.036   2.326
    1XTA   HL1847675  29.605   2.883   2.479
    1XTA   HL1947676  29.720   2.865   2.602
    1XTA   HL2047677  29.753   2.694   2.404
    1XTA   HL2147678  29.888   2.816   2.398
    1XTA   HL2247679  29.739   2.821   2.295
    1XTA   HL2347680  29.196   3.728   0.813
    1XTA   HL2447681  29.116   3.666   0.949
    1XTA   HL2547682  29.345   3.494   0.830
    1XTA   HL2647683  29.226   3.444   0.948
    1XTA   HL2747684  29.045   3.480   0.816
    1XTA   HL2847685  29.142   3.525   0.690
    1XTA   HL2947686  29.069   3.286   0.672
    1XTA   HL3047687  29.242   3.295   0.665
    1XTA   HL3147688  29.252   3.203   0.890
    1XTA   HL3247689  29.084   3.256   0.921
    1XTA   HL3347690  29.111   2.998   0.882
    1XTA   HL3447691  28.982   3.078   0.791
    1XTA   HL3547692  29.013   2.999   0.559
    1XTA   HL3647693  29.065   2.869   0.683
    1XTA   HL3747694  29.351   2.882   0.643
    1XTA   HL3847695  29.399   2.815   0.497
    1XTA   HL3947696  29.340   2.660   0.709
    1XTA   HL4047697  29.279   2.602   0.572
    1XTA   HL4147698  29.179   2.685   0.673
    1XTA    CO847699  29.636   3.137   2.519
    1XTA    CO947700  29.858   3.068   2.612
    1XTA    OA647701  29.937   2.988   2.626
    1XTA   HL4247702  29.573   3.115   2.429
    1XTA   HL4347703  29.659   3.273   2.499
    1XTA   HL4447704  29.341   2.998   0.335
    1XTA   HL4547705  29.281   3.094   0.495
    1XTA   CO1047706  29.237   3.025   0.423
    1XTA   CO1147707  29.119   2.815   0.382
    1XTA    OA747708  29.056   2.737   0.417
    1XTA   HL4647709  29.041   2.878   0.338
    1XTA   HL4747710  29.201   2.776   0.312
    1XTA   HL4847711  29.797   3.090   2.703
    1XTA   HL4947712  29.910   3.163   2.599
    1XTA     NT47713  30.886   2.668   0.296
    1XTA    CN147714  30.996   2.716   0.352
    1XTA     C147715  31.077   2.638   0.442
    1XTA     C247716  31.196   2.694   0.484
    1XTA     C347717  31.239   2.826   0.454
    1XTA     C447718  31.155   2.900   0.366
    1XTA     C547719  31.036   2.848   0.322
    1XTA    CN247720  30.904   2.637   0.164
    1XTA     C647721  30.848   2.718   0.063
    1XTA     C747722  30.871   2.688  -0.075
    1XTA     C847723  30.940   2.570  -0.105
    1XTA     C947724  30.992   2.485  -0.001
    1XTA    C1047725  30.976   2.522   0.132
    1XTA    CN347726  30.773   2.638   0.369
    1XTA    C1147727  30.723   2.507   0.379
    1XTA    C1247728  30.600   2.482   0.457
    1XTA    C1347729  30.534   2.588   0.524
    1XTA    C1447730  30.593   2.713   0.516
    1XTA    C1547731  30.703   2.742   0.433
    1XTA     H147732  31.033   2.551   0.481
    1XTA     H247733  31.255   2.648   0.559
    1XTA     H347734  31.177   3.001   0.328
    1XTA     H447735  30.978   2.901   0.251
    1XTA     H547736  30.797   2.807   0.085
    1XTA     H647737  30.842   2.758  -0.154
    1XTA     H747738  31.049   2.399  -0.024
    1XTA     H847739  31.027   2.472   0.207
    1XTA     H947740  30.776   2.431   0.321
    1XTA    H1047741  30.563   2.381   0.455
    1XTA    H1147742  30.543   2.792   0.569
    1XTA    H1247743  30.751   2.842   0.422
    1XTA    OA147744  31.339   2.883   0.524
    1XTA    CO147745  31.302   3.000   0.600
    1XTA    OA247746  30.956   2.535  -0.236
    1XTA    CO247747  30.840   2.498  -0.304
    1XTA    CL147748  30.871   2.479  -0.446
    1XTA    CL247749  30.964   2.363  -0.476
    1XTA    CL347750  30.984   2.328  -0.624
    1XTA    CL447751  31.080   2.426  -0.694
    1XTA    CO347752  31.109   2.401  -0.837
    1XTA    OA347753  31.207   2.492  -0.874
    1XTA    CO447754  31.182   2.629  -0.860
    1XTA    CT147755  31.311   2.712  -0.875
    1XTA    CL547756  31.287   2.850  -0.807
    1XTA    CL647757  31.407   2.936  -0.809
    1XTA    OA447758  30.427   2.571   0.613
    1XTA    CO547759  30.443   2.461   0.699
    1XTA    CL747760  30.302   2.391   0.704
    1XTA    CL847761  30.191   2.485   0.756
    1XTA    CL947762  30.053   2.423   0.766
    1XTA   CL1047763  29.954   2.513   0.845
    1XTA    CO647764  29.980   2.516   0.997
    1XTA    OA547765  30.091   2.593   1.041
    1XTA    CO747766  30.105   2.614   1.183
    1XTA    CT247767  30.233   2.689   1.212
    1XTA   CL1147768  30.235   2.716   1.364
    1XTA   CL1247769  30.363   2.769   1.418
    1XTA    HL147770  31.395   3.021   0.650
    1XTA    HL247771  31.283   3.090   0.548
    1XTA    HL347772  31.227   2.971   0.672
    1XTA    HL447773  30.797   2.413  -0.253
    1XTA    HL547774  30.761   2.578  -0.298
    1XTA    HL647775  30.929   2.567  -0.481
    1XTA    HL747776  30.782   2.469  -0.510
    1XTA    HL847777  30.929   2.273  -0.433
    1XTA    HL947778  31.065   2.371  -0.421
    1XTA   HL1047779  31.020   2.230  -0.643
    1XTA   HL1147780  30.882   2.333  -0.668
    1XTA   HL1247781  31.177   2.414  -0.650
    1XTA   HL1347782  31.039   2.524  -0.666
    1XTA   HL1447783  31.159   2.301  -0.847
    1XTA   HL1547784  31.018   2.406  -0.894
    1XTA   HL1647785  31.094   2.673  -0.917
    1XTA   HL1747786  31.162   2.647  -0.754
    1XTA   HL1847787  31.265   2.837  -0.702
    1XTA   HL1947788  31.213   2.907  -0.853
    1XTA   HL2047789  31.502   2.895  -0.784
    1XTA   HL2147790  31.394   3.017  -0.732
    1XTA   HL2247791  31.402   2.984  -0.905
    1XTA   HL2347792  30.464   2.498   0.801
    1XTA   HL2447793  30.519   2.388   0.668
    1XTA   HL2547794  30.276   2.345   0.609
    1XTA   HL2647795  30.311   2.306   0.767
    1XTA   HL2747796  30.221   2.516   0.863
    1XTA   HL2847797  30.191   2.570   0.693
    1XTA   HL2947798  30.011   2.405   0.666
    1XTA   HL3047799  30.064   2.328   0.825
    1XTA   HL3147800  29.962   2.609   0.792
    1XTA   HL3247801  29.859   2.464   0.817
    1XTA   HL3347802  29.886   2.549   1.047
    1XTA   HL3447803  30.004   2.417   1.032
    1XTA   HL3547804  30.093   2.521   1.238
    1XTA   HL3647805  30.014   2.673   1.218
    1XTA   HL3747806  30.207   2.635   1.431
    1XTA   HL3847807  30.150   2.773   1.396
    1XTA   HL3947808  30.446   2.705   1.391
    1XTA   HL4047809  30.373   2.767   1.526
    1XTA   HL4147810  30.386   2.868   1.384
    1XTA    CO847811  31.347   2.728  -1.022
    1XTA    CO947812  31.427   2.634  -0.805
    1XTA    OA647813  31.330   2.605  -1.101
    1XTA   HL4247814  31.446   2.759  -1.029
    1XTA   HL4347815  31.282   2.806  -1.065
    1XTA   HL4447816  30.297   2.895   1.146
    1XTA   HL4547817  30.236   2.801   1.018
    1XTA   CO1047818  30.223   2.820   1.126
    1XTA   CO1147819  30.355   2.603   1.165
    1XTA    OA747820  30.119   2.874   1.131
    1XTA   HL4647821  30.323   2.513   1.063
    1XTA   HL4747822  30.379   2.544   1.250
    1XTA   HL4847823  31.522   2.683  -0.827
    1XTA   HL4947824  31.446   2.533  -0.856
    1XTA     NT47825  28.976   6.413   3.665
    1XTA    CN147826  28.972   6.283   3.639
    1XTA     C147827  29.011   6.189   3.739
    1XTA     C247828  29.005   6.051   3.714
    1XTA     C347829  28.965   6.007   3.582
    1XTA     C447830  28.931   6.102   3.482
    1XTA     C547831  28.948   6.241   3.505
    1XTA    CN247832  29.066   6.485   3.589
    1XTA     C647833  29.026   6.554   3.478
    1XTA     C747834  29.118   6.623   3.401
    1XTA     C847835  29.260   6.626   3.436
    1XTA     C947836  29.297   6.559   3.555
    1XTA    C1047837  29.199   6.495   3.632
    1XTA    CN347838  28.867   6.475   3.714
    1XTA    C1147839  28.735   6.429   3.691
    1XTA    C1247840  28.625   6.500   3.731
    1XTA    C1347841  28.643   6.619   3.810
    1XTA    C1447842  28.774   6.660   3.844
    1XTA    C1547843  28.887   6.593   3.795
    1XTA     H147844  29.048   6.224   3.835
    1XTA     H247845  29.038   5.990   3.791
    1XTA     H347846  28.899   6.068   3.379
    1XTA     H447847  28.924   6.314   3.428
    1XTA     H547848  28.919   6.549   3.442
    1XTA     H647849  29.084   6.662   3.304
    1XTA     H747850  29.397   6.561   3.588
    1XTA     H847851  29.229   6.437   3.715
    1XTA     H947852  28.712   6.341   3.629
    1XTA    H1047853  28.523   6.458   3.714
    1XTA    H1147854  28.784   6.751   3.900
    1XTA    H1247855  28.988   6.628   3.812
    1XTA    OA147856  28.944   5.869   3.570
    1XTA    CO147857  28.902   5.827   3.442
    1XTA    OA247858  29.352   6.680   3.350
    1XTA    CO247859  29.457   6.751   3.420
    1XTA    CL147860  29.523   6.832   3.307
    1XTA    CL247861  29.644   6.918   3.354
    1XTA    CL347862  29.707   6.986   3.234
    1XTA    CL447863  29.855   6.977   3.239
    1XTA    CO347864  29.933   7.084   3.153
    1XTA    OA347865  30.064   7.032   3.130
    1XTA    CO447866  30.159   7.082   3.227
    1XTA    CT147867  30.298   7.025   3.205
    1XTA    CL547868  30.387   7.058   3.329
    1XTA    CL647869  30.439   7.202   3.338
    1XTA    OA447870  28.542   6.703   3.843
    1XTA    CO547871  28.429   6.701   3.759
    1XTA    CL747872  28.329   6.824   3.788
    1XTA    CL847873  28.389   6.953   3.731
    1XTA    CL947874  28.528   6.971   3.793
    1XTA   CL1047875  28.591   7.109   3.764
    1XTA    CO647876  28.590   7.152   3.615
    1XTA    OA547877  28.455   7.176   3.586
    1XTA    CO747878  28.431   7.221   3.447
    1XTA    CT247879  28.287   7.263   3.426
    1XTA   CL1147880  28.241   7.376   3.520
    1XTA   CL1247881  28.264   7.357   3.666
    1XTA    HL147882  28.801   5.849   3.420
    1XTA    HL247883  28.972   5.853   3.366
    1XTA    HL347884  28.893   5.716   3.442
    1XTA    HL447885  29.417   6.813   3.493
    1XTA    HL547886  29.532   6.681   3.460
    1XTA    HL647887  29.448   6.899   3.256
    1XTA    HL747888  29.554   6.765   3.234
    1XTA    HL847889  29.720   6.851   3.400
    1XTA    HL947890  29.616   6.990   3.431
    1XTA   HL1047891  29.660   6.936   3.143
    1XTA   HL1147892  29.669   7.093   3.235
    1XTA   HL1247893  29.897   6.881   3.220
    1XTA   HL1347894  29.912   6.996   3.330
    1XTA   HL1447895  29.882   7.093   3.062
    1XTA   HL1547896  29.925   7.187   3.194
    1XTA   HL1647897  30.156   7.186   3.237
    1XTA   HL1747898  30.118   7.043   3.323
    1XTA   HL1847899  30.463   6.986   3.361
    1XTA   HL1947900  30.324   7.057   3.424
    1XTA   HL2047901  30.356   7.272   3.321
    1XTA   HL2147902  30.501   7.212   3.253
    1XTA   HL2247903  30.497   7.234   3.431
    1XTA   HL2347904  28.375   6.612   3.784
    1XTA   HL2447905  28.463   6.697   3.657
    1XTA   HL2547906  28.239   6.796   3.720
    1XTA   HL2647907  28.301   6.837   3.891
    1XTA   HL2747908  28.405   6.950   3.619
    1XTA   HL2847909  28.315   7.032   3.746
    1XTA   HL2947910  28.522   6.968   3.906
    1XTA   HL3047911  28.600   6.887   3.758
    1XTA   HL3147912  28.544   7.182   3.827
    1XTA   HL3247913  28.698   7.113   3.800
    1XTA   HL3347914  28.654   7.229   3.577
    1XTA   HL3447915  28.603   7.071   3.549
    1XTA   HL3547916  28.469   7.158   3.368
    1XTA   HL3647917  28.488   7.310   3.439
    1XTA   HL3747918  28.129   7.397   3.509
    1XTA   HL3847919  28.285   7.464   3.476
    1XTA   HL3947920  28.213   7.426   3.736
    1XTA   HL4047921  28.371   7.355   3.698
    1XTA   HL4147922  28.233   7.253   3.695
    1XTA    CO847923  30.344   7.078   3.065
    1XTA    CO947924  30.301   6.872   3.191
    1XTA    OA647925  30.434   6.836   3.155
    1XTA   HL4247926  30.325   7.181   3.074
    1XTA   HL4347927  30.452   7.060   3.067
    1XTA   HL4447928  28.220   7.113   3.548
    1XTA   HL4547929  28.082   7.169   3.452
    1XTA   CO1047930  28.193   7.144   3.451
    1XTA   CO1147931  28.270   7.293   3.280
    1XTA    OA747932  28.229   7.032   3.381
    1XTA   HL4647933  28.349   7.369   3.267
    1XTA   HL4747934  28.287   7.206   3.219
    1XTA   HL4847935  30.227   6.834   3.127
    1XTA   HL4947936  30.283   6.823   3.287
    1XTA     NT47937  29.065   4.362   1.955
    1XTA    CN147938  29.029   4.287   1.848
    1XTA     C147939  29.121   4.221   1.765
    1XTA     C247940  29.085   4.139   1.655
    1XTA     C347941  28.949   4.119   1.638
    1XTA     C447942  28.850   4.182   1.716
    1XTA     C547943  28.889   4.276   1.819
    1XTA    CN247944  29.094   4.302   2.072
    1XTA     C647945  28.992   4.260   2.152
    1XTA     C747946  29.013   4.207   2.284
    1XTA     C847947  29.145   4.190   2.327
    1XTA     C947948  29.250   4.240   2.248
    1XTA    C1047949  29.222   4.283   2.117
    1XTA    CN347950  29.070   4.499   1.948
    1XTA    C1147951  28.977   4.576   2.019
    1XTA    C1247952  28.979   4.717   2.001
    1XTA    C1347953  29.077   4.778   1.917
    1XTA    C1447954  29.166   4.695   1.844
    1XTA    C1547955  29.168   4.555   1.864
    1XTA     H147956  29.225   4.235   1.790
    1XTA     H247957  29.158   4.097   1.594
    1XTA     H347958  28.748   4.164   1.703
    1XTA     H447959  28.821   4.327   1.886
    1XTA     H547960  28.887   4.278   2.122
    1XTA     H647961  28.935   4.193   2.359
    1XTA     H747962  29.353   4.237   2.289
    1XTA     H847963  29.301   4.319   2.053
    1XTA     H947964  28.910   4.524   2.084
    1XTA    H1047965  28.914   4.773   2.056
    1XTA    H1147966  29.240   4.731   1.780
    1XTA    H1247967  29.241   4.502   1.807
    1XTA    OA147968  28.914   4.011   1.561
    1XTA    CO147969  28.780   3.956   1.558
    1XTA    OA247970  29.162   4.135   2.453
    1XTA    CO247971  29.255   4.029   2.451
    1XTA    CL147972  29.217   3.904   2.365
    1XTA    CL247973  29.117   3.802   2.424
    1XTA    CL347974  28.966   3.831   2.413
    1XTA    CL447975  28.919   3.909   2.535
    1XTA    CO347976  28.855   3.818   2.644
    1XTA    OA347977  28.842   3.890   2.763
    1XTA    CO447978  28.856   3.818   2.878
    1XTA    CT147979  28.883   3.920   2.993
    1XTA    CL547980  29.001   4.008   2.947
    1XTA    CL647981  29.119   3.927   2.903
    1XTA    OA447982  29.077   4.913   1.918
    1XTA    CO547983  29.149   4.977   1.824
    1XTA    CL747984  29.074   4.972   1.687
    1XTA    CL847985  29.175   4.975   1.571
    1XTA    CL947986  29.230   4.838   1.535
    1XTA   CL1047987  29.275   4.844   1.386
    1XTA    CO647988  29.366   4.725   1.355
    1XTA    OA547989  29.280   4.611   1.351
    1XTA    CO747990  29.329   4.477   1.344
    1XTA    CT247991  29.223   4.372   1.308
    1XTA   CL1147992  29.287   4.237   1.314
    1XTA   CL1247993  29.197   4.123   1.264
    1XTA    HL147994  28.703   4.029   1.523
    1XTA    HL247995  28.770   3.865   1.496
    1XTA    HL347996  28.748   3.913   1.654
    1XTA    HL447997  29.348   4.068   2.415
    1XTA    HL547998  29.274   4.001   2.553
    1XTA    HL647999  29.300   3.833   2.341
    1XTA    HL748000  29.188   3.933   2.266
    1XTA    HL848001  29.124   3.784   2.532
    1XTA    HL948002  29.135   3.711   2.372
    1XTA   HL1048003  28.953   3.895   2.328
    1XTA   HL1148004  28.911   3.738   2.393
    1XTA   HL1248005  28.842   3.981   2.521
    1XTA   HL1348006  28.999   3.962   2.579
    1XTA   HL1448007  28.763   3.781   2.605
    1XTA   HL1548008  28.915   3.732   2.654
    1XTA   HL1648009  28.770   3.757   2.903
    1XTA   HL1748010  28.945   3.759   2.871
    1XTA   HL1848011  29.023   4.081   3.031
    1XTA   HL1948012  28.970   4.071   2.866
    1XTA   HL2048013  29.111   3.894   2.802
    1XTA   HL2148014  29.146   3.845   2.969
    1XTA   HL2248015  29.210   3.986   2.908
    1XTA   HL2348016  29.245   4.927   1.810
    1XTA   HL2448017  29.173   5.079   1.849
    1XTA   HL2548018  29.020   4.878   1.683
    1XTA   HL2648019  29.013   5.053   1.659
    1XTA   HL2748020  29.139   5.011   1.483
    1XTA   HL2848021  29.254   5.047   1.595
    1XTA   HL2948022  29.311   4.821   1.606
    1XTA   HL3048023  29.162   4.761   1.542
    1XTA   HL3148024  29.193   4.843   1.310
    1XTA   HL3248025  29.343   4.922   1.365
    1XTA   HL3348026  29.408   4.741   1.257
    1XTA   HL3448027  29.438   4.716   1.431
    1XTA   HL3548028  29.370   4.467   1.447
    1XTA   HL3648029  29.412   4.472   1.274
    1XTA   HL3748030  29.325   4.212   1.417
    1XTA   HL3848031  29.382   4.237   1.256
    1XTA   HL3948032  29.092   4.150   1.281
    1XTA   HL4048033  29.231   4.034   1.316
    1XTA   HL4148034  29.223   4.107   1.163
    1XTA    CO848035  28.908   3.835   3.122
    1XTA    CO948036  28.752   3.999   3.011
    1XTA    OA648037  28.843   3.745   3.138
    1XTA   HL4248038  28.903   3.895   3.217
    1XTA   HL4348039  29.008   3.804   3.131
    1XTA   HL4448040  29.073   4.335   1.153
    1XTA   HL4548041  29.109   4.509   1.167
    1XTA   CO1048042  29.158   4.408   1.172
    1XTA   CO1148043  29.109   4.372   1.421
    1XTA    OA748044  29.020   4.482   1.414
    1XTA   HL4648045  29.047   4.285   1.404
    1XTA   HL4748046  29.160   4.370   1.515
    1XTA   HL4848047  28.706   4.050   2.886
    1XTA   HL4948048  28.680   3.932   3.050
    1XTA     NT48049  30.050   5.039   2.694
    1XTA    CN148050  30.068   4.980   2.576
    1XTA     C148051  29.962   4.959   2.485
    1XTA     C248052  29.980   4.920   2.350
    1XTA     C348053  30.108   4.877   2.310
    1XTA     C448054  30.214   4.894   2.401
    1XTA     C548055  30.197   4.954   2.528
    1XTA    CN248056  30.095   5.167   2.696
    1XTA     C648057  30.198   5.195   2.790
    1XTA     C748058  30.254   5.320   2.804
    1XTA     C848059  30.203   5.426   2.723
    1XTA     C948060  30.101   5.398   2.627
    1XTA    C1048061  30.044   5.269   2.617
    1XTA    CN348062  29.946   4.998   2.766
    1XTA    C1148063  29.945   4.872   2.827
    1XTA    C1248064  29.836   4.836   2.907
    1XTA    C1348065  29.725   4.917   2.924
    1XTA    C1448066  29.722   5.048   2.871
    1XTA    C1548067  29.840   5.086   2.796
    1XTA     H148068  29.857   4.981   2.509
    1XTA     H248069  29.894   4.922   2.281
    1XTA     H348070  30.311   4.867   2.387
    1XTA     H448071  30.276   4.951   2.599
    1XTA     H548072  30.241   5.116   2.851
    1XTA     H648073  30.328   5.347   2.875
    1XTA     H748074  30.063   5.477   2.566
    1XTA     H848075  29.954   5.258   2.558
    1XTA     H948076  30.034   4.813   2.830
    1XTA    H1048077  29.849   4.741   2.945
    1XTA    H1148078  29.644   5.116   2.886
    1XTA    H1248079  29.838   5.183   2.748
    1XTA    OA148080  30.120   4.820   2.183
    1XTA    CO148081  30.255   4.789   2.141
    1XTA    OA248082  30.248   5.554   2.720
    1XTA    CO248083  30.368   5.582   2.785
    1XTA    CL148084  30.428   5.713   2.743
    1XTA    CL248085  30.439   5.739   2.596
    1XTA    CL348086  30.503   5.622   2.515
    1XTA    CL448087  30.543   5.655   2.370
    1XTA    CO348088  30.547   5.526   2.293
    1XTA    OA348089  30.602   5.544   2.163
    1XTA    CO448090  30.595   5.425   2.081
    1XTA    CT148091  30.691   5.443   1.964
    1XTA    CL548092  30.833   5.496   2.006
    1XTA    CL648093  30.938   5.501   1.895
    1XTA    OA448094  29.609   4.879   2.998
    1XTA    CO548095  29.576   4.745   3.018
    1XTA    CL748096  29.557   4.659   2.891
    1XTA    CL848097  29.491   4.531   2.920
    1XTA    CL948098  29.470   4.433   2.801
    1XTA   CL1048099  29.363   4.320   2.834
    1XTA    CO648100  29.351   4.220   2.719
    1XTA    OA548101  29.479   4.159   2.711
    1XTA    CO748102  29.498   4.029   2.768
    1XTA    CT248103  29.635   4.005   2.808
    1XTA   CL1148104  29.639   3.858   2.863
    1XTA   CL1248105  29.565   3.816   2.987
    1XTA    HL148106  30.267   4.727   2.050
    1XTA    HL248107  30.317   4.883   2.134
    1XTA    HL348108  30.298   4.725   2.220
    1XTA    HL448109  30.358   5.592   2.898
    1XTA    HL548110  30.431   5.494   2.759
    1XTA    HL648111  30.532   5.709   2.779
    1XTA    HL748112  30.372   5.790   2.800
    1XTA    HL848113  30.492   5.826   2.576
    1XTA    HL948114  30.336   5.762   2.566
    1XTA   HL1048115  30.586   5.576   2.565
    1XTA   HL1148116  30.429   5.541   2.509
    1XTA   HL1248117  30.644   5.698   2.362
    1XTA   HL1348118  30.475   5.725   2.319
    1XTA   HL1448119  30.619   5.456   2.332
    1XTA   HL1548120  30.450   5.482   2.287
    1XTA   HL1648121  30.633   5.337   2.137
    1XTA   HL1748122  30.502   5.402   2.040
    1XTA   HL1848123  30.865   5.421   2.074
    1XTA   HL1948124  30.824   5.585   2.063
    1XTA   HL2048125  31.020   5.554   1.942
    1XTA   HL2148126  30.913   5.556   1.804
    1XTA   HL2248127  30.983   5.407   1.856
    1XTA   HL2348128  29.486   4.738   3.079
    1XTA   HL2448129  29.660   4.695   3.070
    1XTA   HL2548130  29.498   4.718   2.820
    1XTA   HL2648131  29.648   4.629   2.837
    1XTA   HL2748132  29.550   4.461   2.978
    1XTA   HL2848133  29.402   4.555   2.983
    1XTA   HL2948134  29.445   4.485   2.709
    1XTA   HL3048135  29.563   4.383   2.780
    1XTA   HL3148136  29.384   4.270   2.923
    1XTA   HL3248137  29.263   4.363   2.846
    1XTA   HL3348138  29.270   4.149   2.740
    1XTA   HL3448139  29.325   4.265   2.622
    1XTA   HL3548140  29.467   3.965   2.688
    1XTA   HL3648141  29.432   4.021   2.860
    1XTA   HL3748142  29.742   3.820   2.863
    1XTA   HL3848143  29.586   3.796   2.790
    1XTA   HL3948144  29.572   3.706   2.974
    1XTA   HL4048145  29.457   3.834   3.001
    1XTA   HL4148146  29.608   3.856   3.078
    1XTA    CO848147  30.628   5.503   1.844
    1XTA    CO948148  30.689   5.313   1.879
    1XTA    OA648149  30.611   5.376   1.772
    1XTA   HL4248150  30.690   5.578   1.799
    1XTA   HL4348151  30.526   5.543   1.859
    1XTA   HL4448152  29.656   4.210   2.865
    1XTA   HL4548153  29.622   4.105   3.000
    1XTA   CO1048154  29.680   4.114   2.910
    1XTA   CO1148155  29.719   4.008   2.678
    1XTA    OA748156  29.788   4.101   2.937
    1XTA   HL4648157  29.691   4.119   2.595
    1XTA   HL4748158  29.824   4.026   2.712
    1XTA   HL4848159  30.627   5.238   1.923
    1XTA   HL4948160  30.789   5.275   1.850
    1XTA     NT48161  27.532   3.068   2.945
    1XTA    CN148162  27.540   2.933   2.922
    1XTA     C148163  27.663   2.875   2.901
    1XTA     C248164  27.681   2.743   2.859
    1XTA     C348165  27.566   2.670   2.835
    1XTA     C448166  27.434   2.718   2.864
    1XTA     C548167  27.425   2.856   2.903
    1XTA    CN248168  27.593   3.113   3.058
    1XTA     C648169  27.530   3.107   3.183
    1XTA     C748170  27.585   3.174   3.290
    1XTA     C848171  27.699   3.253   3.281
    1XTA     C948172  27.764   3.264   3.154
    1XTA    C1048173  27.708   3.192   3.043
    1XTA    CN348174  27.469   3.153   2.873
    1XTA    C1148175  27.371   3.235   2.933
    1XTA    C1248176  27.306   3.336   2.860
    1XTA    C1348177  27.321   3.342   2.715
    1XTA    C1448178  27.421   3.264   2.656
    1XTA    C1548179  27.494   3.173   2.736
    1XTA     H148180  27.749   2.943   2.903
    1XTA     H248181  27.786   2.709   2.834
    1XTA     H348182  27.354   2.651   2.837
    1XTA     H448183  27.333   2.907   2.926
    1XTA     H548184  27.450   3.040   3.205
    1XTA     H648185  27.535   3.170   3.387
    1XTA     H748186  27.858   3.313   3.138
    1XTA     H848187  27.754   3.196   2.950
    1XTA     H948188  27.353   3.235   3.037
    1XTA    H1048189  27.225   3.385   2.914
    1XTA    H1148190  27.433   3.279   2.552
    1XTA    H1248191  27.571   3.112   2.691
    1XTA    OA148192  27.589   2.544   2.781
    1XTA    CO148193  27.497   2.441   2.826
    1XTA    OA248194  27.727   3.317   3.403
    1XTA    CO248195  27.846   3.400   3.420
    1XTA    CL148196  27.874   3.442   3.568
    1XTA    CL248197  27.898   3.327   3.667
    1XTA    CL348198  28.015   3.232   3.639
    1XTA    CL448199  28.023   3.123   3.742
    1XTA    CO348200  27.908   3.015   3.743
    1XTA    OA348201  27.913   2.926   3.638
    1XTA    CO448202  27.843   2.961   3.519
    1XTA    CT148203  27.881   2.865   3.403
    1XTA    CL548204  28.006   2.924   3.335
    1XTA    CL648205  28.130   2.908   3.427
    1XTA    OA448206  27.251   3.420   2.626
    1XTA    CO548207  27.133   3.488   2.678
    1XTA    CL748208  27.165   3.638   2.699
    1XTA    CL848209  27.048   3.729   2.737
    1XTA    CL948210  27.097   3.865   2.788
    1XTA   CL1048211  27.000   3.952   2.874
    1XTA    CO648212  26.868   3.980   2.807
    1XTA    OA548213  26.756   3.945   2.886
    1XTA    CO748214  26.743   3.810   2.901
    1XTA    CT248215  26.619   3.780   2.988
    1XTA   CL1148216  26.503   3.836   2.899
    1XTA   CL1248217  26.496   3.782   2.756
    1XTA    HL148218  27.479   2.449   2.931
    1XTA    HL248219  27.408   2.444   2.763
    1XTA    HL348220  27.543   2.340   2.819
    1XTA    HL448221  27.935   3.351   3.382
    1XTA    HL548222  27.835   3.488   3.352
    1XTA    HL648223  27.781   3.493   3.600
    1XTA    HL748224  27.955   3.512   3.577
    1XTA    HL848225  27.798   3.285   3.696
    1XTA    HL948226  27.937   3.382   3.754
    1XTA   HL1048227  27.996   3.189   3.540
    1XTA   HL1148228  28.102   3.287   3.641
    1XTA   HL1248229  28.031   3.163   3.845
    1XTA   HL1348230  28.116   3.073   3.723
    1XTA   HL1448231  27.922   2.945   3.827
    1XTA   HL1548232  27.811   3.052   3.758
    1XTA   HL1648233  27.744   2.943   3.545
    1XTA   HL1748234  27.857   3.059   3.484
    1XTA   HL1848235  27.992   3.027   3.311
    1XTA   HL1948236  28.031   2.870   3.244
    1XTA   HL2048237  28.174   2.806   3.421
    1XTA   HL2148238  28.120   2.941   3.530
    1XTA   HL2248239  28.208   2.973   3.384
    1XTA   HL2348240  27.081   3.438   2.761
    1XTA   HL2448241  27.058   3.490   2.601
    1XTA   HL2548242  27.245   3.666   2.771
    1XTA   HL2648243  27.202   3.686   2.604
    1XTA   HL2748244  26.978   3.725   2.650
    1XTA   HL2848245  26.982   3.680   2.814
    1XTA   HL2948246  27.184   3.843   2.846
    1XTA   HL3048247  27.127   3.932   2.713
    1XTA   HL3148248  26.997   3.907   2.971
    1XTA   HL3248249  27.050   4.042   2.889
    1XTA   HL3348250  26.860   4.088   2.775
    1XTA   HL3448251  26.881   3.922   2.713
    1XTA   HL3548252  26.832   3.777   2.957
    1XTA   HL3648253  26.743   3.745   2.811
    1XTA   HL3748254  26.509   3.946   2.897
    1XTA   HL3848255  26.412   3.821   2.954
    1XTA   HL3948256  26.392   3.796   2.716
    1XTA   HL4048257  26.516   3.675   2.737
    1XTA   HL4148258  26.561   3.837   2.689
    1XTA    CO848259  27.760   2.865   3.296
    1XTA    CO948260  27.906   2.720   3.445
    1XTA    OA648261  27.929   2.635   3.337
    1XTA   HL4248262  27.738   2.966   3.254
    1XTA   HL4348263  27.796   2.802   3.222
    1XTA   HL4448264  26.665   3.956   3.099
    1XTA   HL4548265  26.704   3.808   3.185
    1XTA   CO1048266  26.631   3.859   3.123
    1XTA   CO1148267  26.603   3.631   3.035
    1XTA    OA748268  26.705   3.562   3.105
    1XTA   HL4648269  26.509   3.626   3.097
    1XTA   HL4748270  26.591   3.574   2.944
    1XTA   HL4848271  27.812   2.680   3.485
    1XTA   HL4948272  27.984   2.711   3.530
    1XTA     NT48273  31.766   3.754   7.135
    1XTA    CN148274  31.891   3.801   7.137
    1XTA     C148275  31.936   3.894   7.227
    1XTA     C248276  32.069   3.943   7.228
    1XTA     C348277  32.157   3.909   7.121
    1XTA     C448278  32.109   3.823   7.026
    1XTA     C548279  31.984   3.771   7.036
    1XTA    CN248280  31.673   3.792   7.048
    1XTA     C648281  31.634   3.707   6.942
    1XTA     C748282  31.522   3.736   6.858
    1XTA     C848283  31.445   3.854   6.883
    1XTA     C948284  31.495   3.947   6.984
    1XTA    C1048285  31.613   3.917   7.054
    1XTA    CN348286  31.721   3.694   7.246
    1XTA    C1148287  31.628   3.758   7.326
    1XTA    C1248288  31.577   3.693   7.439
    1XTA    C1348289  31.615   3.557   7.460
    1XTA    C1448290  31.700   3.493   7.372
    1XTA    C1548291  31.758   3.562   7.269
    1XTA     H148292  31.874   3.927   7.314
    1XTA     H248293  32.106   4.010   7.301
    1XTA     H348294  32.179   3.796   6.944
    1XTA     H448295  31.949   3.694   6.973
    1XTA     H548296  31.682   3.616   6.920
    1XTA     H648297  31.484   3.664   6.786
    1XTA     H748298  31.450   4.047   6.992
    1XTA     H848299  31.659   3.987   7.122
    1XTA     H948300  31.606   3.865   7.318
    1XTA    H1048301  31.509   3.752   7.497
    1XTA    H1148302  31.722   3.390   7.394
    1XTA    H1248303  31.833   3.519   7.201
    1XTA    OA148304  32.282   3.966   7.108
    1XTA    CO148305  32.325   4.043   7.219
    1XTA    OA248306  31.341   3.884   6.807
    1XTA    CO248307  31.219   3.871   6.879
    1XTA    CL148308  31.103   3.902   6.780
    1XTA    CL248309  30.975   3.852   6.843
    1XTA    CL348310  30.846   3.832   6.761
    1XTA    CL448311  30.851   3.689   6.705
    1XTA    CO348312  30.716   3.669   6.644
    1XTA    OA348313  30.687   3.776   6.547
    1XTA    CO448314  30.552   3.759   6.511
    1XTA    CT148315  30.518   3.886   6.431
    1XTA    CL548316  30.587   3.886   6.298
    1XTA    CL648317  30.739   3.877   6.282
    1XTA    OA448318  31.559   3.494   7.569
    1XTA    CO548319  31.562   3.350   7.569
    1XTA    CL748320  31.465   3.302   7.675
    1XTA    CL848321  31.328   3.366   7.661
    1XTA    CL948322  31.223   3.283   7.727
    1XTA   CL1048323  31.090   3.354   7.730
    1XTA    CO648324  30.978   3.252   7.754
    1XTA    OA548325  30.857   3.320   7.783
    1XTA    CO748326  30.742   3.248   7.826
    1XTA    CT248327  30.627   3.331   7.886
    1XTA   CL1148328  30.511   3.241   7.932
    1XTA   CL1248329  30.472   3.126   7.837
    1XTA    HL148330  32.432   4.060   7.201
    1XTA    HL248331  32.281   4.144   7.219
    1XTA    HL348332  32.302   3.999   7.320
    1XTA    HL448333  31.221   3.778   6.915
    1XTA    HL548334  31.219   3.935   6.969
    1XTA    HL648335  31.122   3.832   6.694
    1XTA    HL748336  31.100   4.006   6.752
    1XTA    HL848337  30.961   3.924   6.927
    1XTA    HL948338  30.990   3.755   6.895
    1XTA   HL1048339  30.771   3.848   6.831
    1XTA   HL1148340  30.839   3.913   6.687
    1XTA   HL1248341  30.856   3.615   6.780
    1XTA   HL1348342  30.935   3.674   6.627
    1XTA   HL1448343  30.716   3.572   6.600
    1XTA   HL1548344  30.642   3.655   6.722
    1XTA   HL1648345  30.536   3.672   6.441
    1XTA   HL1748346  30.495   3.755   6.600
    1XTA   HL1848347  30.569   3.984   6.246
    1XTA   HL1948348  30.538   3.816   6.234
    1XTA   HL2048349  30.796   3.938   6.350
    1XTA   HL2148350  30.772   3.889   6.178
    1XTA   HL2248351  30.762   3.771   6.311
    1XTA   HL2348352  31.664   3.319   7.574
    1XTA   HL2448353  31.517   3.319   7.471
    1XTA   HL2548354  31.452   3.194   7.669
    1XTA   HL2648355  31.507   3.334   7.771
    1XTA   HL2748356  31.320   3.470   7.691
    1XTA   HL2848357  31.301   3.363   7.559
    1XTA   HL2948358  31.202   3.183   7.687
    1XTA   HL3048359  31.259   3.247   7.829
    1XTA   HL3148360  31.093   3.431   7.805
    1XTA   HL3248361  31.079   3.396   7.629
    1XTA   HL3348362  30.962   3.210   7.655
    1XTA   HL3448363  31.005   3.185   7.830
    1XTA   HL3548364  30.761   3.169   7.897
    1XTA   HL3648365  30.716   3.196   7.740
    1XTA   HL3748366  30.428   3.311   7.930
    1XTA   HL3848367  30.514   3.204   8.040
    1XTA   HL3948368  30.547   3.046   7.827
    1XTA   HL4048369  30.464   3.164   7.738
    1XTA   HL4148370  30.383   3.080   7.856
    1XTA    CO848371  30.555   4.009   6.512
    1XTA    CO948372  30.369   3.896   6.394
    1XTA    OA648373  30.460   4.019   6.622
    1XTA   HL4248374  30.533   4.095   6.447
    1XTA   HL4348375  30.656   4.010   6.546
    1XTA   HL4448376  30.577   3.378   7.680
    1XTA   HL4548377  30.474   3.441   7.796
    1XTA   CO1048378  30.577   3.427   7.774
    1XTA   CO1148379  30.684   3.411   8.001
    1XTA    OA748380  30.645   3.547   7.771
    1XTA   HL4648381  30.611   3.489   8.022
    1XTA   HL4748382  30.761   3.482   7.964
    1XTA   HL4848383  30.299   3.914   6.478
    1XTA   HL4948384  30.375   3.984   6.329
    1XTA     NT48385  34.065   2.688   5.785
    1XTA    CN148386  34.109   2.605   5.881
    1XTA     C148387  34.243   2.563   5.900
    1XTA     C248388  34.283   2.478   6.002
    1XTA     C348389  34.195   2.434   6.098
    1XTA     C448390  34.069   2.494   6.099
    1XTA     C548391  34.026   2.578   5.995
    1XTA    CN248392  34.139   2.798   5.760
    1XTA     C648393  34.171   2.892   5.861
    1XTA     C748394  34.266   2.987   5.834
    1XTA     C848395  34.328   3.001   5.704
    1XTA     C948396  34.285   2.914   5.602
    1XTA    C1048397  34.191   2.815   5.634
    1XTA    CN348398  33.945   2.671   5.725
    1XTA    C1148399  33.918   2.553   5.651
    1XTA    C1248400  33.792   2.537   5.585
    1XTA    C1348401  33.693   2.641   5.600
    1XTA    C1448402  33.730   2.754   5.679
    1XTA    C1548403  33.850   2.769   5.746
    1XTA     H148404  34.317   2.597   5.832
    1XTA     H248405  34.388   2.455   6.005
    1XTA     H348406  34.008   2.467   6.189
    1XTA     H448407  33.927   2.622   5.999
    1XTA     H548408  34.123   2.884   5.963
    1XTA     H648409  34.285   3.053   5.919
    1XTA     H748410  34.318   2.921   5.497
    1XTA     H848411  34.160   2.742   5.556
    1XTA     H948412  34.000   2.481   5.641
    1XTA    H1048413  33.768   2.451   5.522
    1XTA    H1148414  33.670   2.848   5.681
    1XTA    H1248415  33.869   2.853   5.804
    1XTA    OA148416  34.235   2.349   6.197
    1XTA    CO148417  34.334   2.251   6.171
    1XTA    OA248418  34.429   3.093   5.686
    1XTA    CO248419  34.525   3.068   5.587
    1XTA    CL148420  34.601   2.941   5.620
    1XTA    CL248421  34.698   2.903   5.509
    1XTA    CL348422  34.768   2.763   5.529
    1XTA    CL448423  34.853   2.754   5.651
    1XTA    CO348424  34.972   2.854   5.653
    1XTA    OA348425  35.055   2.830   5.764
    1XTA    CO448426  35.095   2.951   5.826
    1XTA    CT148427  35.175   2.897   5.950
    1XTA    CL548428  35.285   3.005   5.995
    1XTA    CL648429  35.433   2.998   5.942
    1XTA    OA448430  33.572   2.626   5.535
    1XTA    CO548431  33.514   2.748   5.502
    1XTA    CL748432  33.422   2.727   5.381
    1XTA    CL848433  33.367   2.849   5.305
    1XTA    CL948434  33.275   2.938   5.388
    1XTA   CL1048435  33.197   3.040   5.308
    1XTA    CO648436  33.048   3.034   5.343
    1XTA    OA548437  32.969   2.947   5.265
    1XTA    CO748438  32.979   2.804   5.279
    1XTA    CT248439  32.850   2.744   5.224
    1XTA   CL1148440  32.726   2.799   5.298
    1XTA   CL1248441  32.735   2.810   5.447
    1XTA    HL148442  34.432   2.293   6.145
    1XTA    HL248443  34.343   2.186   6.257
    1XTA    HL348444  34.304   2.182   6.089
    1XTA    HL448445  34.488   3.063   5.485
    1XTA    HL548446  34.593   3.152   5.579
    1XTA    HL648447  34.531   2.859   5.637
    1XTA    HL748448  34.654   2.958   5.711
    1XTA    HL848449  34.771   2.989   5.520
    1XTA    HL948450  34.658   2.908   5.403
    1XTA   HL1048451  34.695   2.678   5.528
    1XTA   HL1148452  34.837   2.741   5.448
    1XTA   HL1248453  34.900   2.654   5.661
    1XTA   HL1348454  34.783   2.767   5.741
    1XTA   HL1448455  35.039   2.840   5.565
    1XTA   HL1548456  34.939   2.957   5.646
    1XTA   HL1648457  35.160   3.009   5.769
    1XTA   HL1748458  35.030   3.024   5.876
    1XTA   HL1848459  35.281   3.001   6.103
    1XTA   HL1948460  35.239   3.100   5.984
    1XTA   HL2048461  35.495   3.081   5.972
    1XTA   HL2148462  35.431   3.001   5.833
    1XTA   HL2248463  35.477   2.906   5.974
    1XTA   HL2348464  33.581   2.827   5.461
    1XTA   HL2448465  33.462   2.796   5.583
    1XTA   HL2548466  33.484   2.683   5.298
    1XTA   HL2648467  33.333   2.663   5.392
    1XTA   HL2748468  33.451   2.910   5.255
    1XTA   HL2848469  33.314   2.800   5.222
    1XTA   HL2948470  33.202   2.875   5.437
    1XTA   HL3048471  33.332   2.990   5.468
    1XTA   HL3148472  33.239   3.137   5.327
    1XTA   HL3248473  33.206   3.022   5.200
    1XTA   HL3348474  33.040   3.019   5.450
    1XTA   HL3448475  33.004   3.135   5.320
    1XTA   HL3548476  33.007   2.769   5.384
    1XTA   HL3648477  33.056   2.767   5.219
    1XTA   HL3748478  32.636   2.745   5.279
    1XTA   HL3848479  32.720   2.894   5.252
    1XTA   HL3948480  32.760   2.713   5.489
    1XTA   HL4048481  32.643   2.827   5.492
    1XTA   HL4148482  32.815   2.878   5.482
    1XTA    CO848483  35.244   2.764   5.924
    1XTA    CO948484  35.067   2.871   6.061
    1XTA    OA648485  34.966   2.966   6.086
    1XTA   HL4248486  35.317   2.755   5.998
    1XTA   HL4348487  35.299   2.759   5.832
    1XTA   HL4448488  32.843   2.590   5.363
    1XTA   HL4548489  32.755   2.511   5.198
    1XTA   CO1048490  32.855   2.591   5.256
    1XTA   CO1148491  32.840   2.773   5.079
    1XTA    OA748492  32.741   2.735   5.064
    1XTA   HL4648493  32.858   2.880   5.061
    1XTA   HL4748494  32.914   2.715   5.015
    1XTA   HL4848495  35.116   2.829   6.146
    1XTA   HL4948496  35.017   2.785   6.027
    1XTA     NT48497  31.580  -0.326   1.215
    1XTA    CN148498  31.507  -0.220   1.168
    1XTA     C148499  31.529  -0.089   1.219
    1XTA     C248500  31.477   0.020   1.148
    1XTA     C348501  31.396   0.007   1.035
    1XTA     C448502  31.368  -0.128   0.996
    1XTA     C548503  31.420  -0.244   1.056
    1XTA    CN248504  31.502  -0.410   1.294
    1XTA     C648505  31.438  -0.347   1.402
    1XTA     C748506  31.365  -0.426   1.498
    1XTA     C848507  31.347  -0.566   1.479
    1XTA     C948508  31.406  -0.623   1.367
    1XTA    C1048509  31.485  -0.549   1.276
    1XTA    CN348510  31.707  -0.346   1.182
    1XTA    C1148511  31.808  -0.338   1.272
    1XTA    C1248512  31.935  -0.385   1.232
    1XTA    C1348513  31.962  -0.420   1.093
    1XTA    C1448514  31.857  -0.425   0.998
    1XTA    C1548515  31.726  -0.389   1.048
    1XTA     H148516  31.602  -0.068   1.296
    1XTA     H248517  31.504   0.121   1.176
    1XTA     H348518  31.306  -0.146   0.910
    1XTA     H448519  31.407  -0.339   1.018
    1XTA     H548520  31.449  -0.241   1.426
    1XTA     H648521  31.341  -0.377   1.592
    1XTA     H748522  31.392  -0.724   1.344
    1XTA     H848523  31.520  -0.606   1.188
    1XTA     H948524  31.795  -0.313   1.380
    1XTA    H1048525  32.009  -0.390   1.309
    1XTA    H1148526  31.869  -0.466   0.894
    1XTA    H1248527  31.644  -0.394   0.974
    1XTA    OA148528  31.340   0.114   0.982
    1XTA    CO148529  31.330   0.117   0.842
    1XTA    OA248530  31.271  -0.652   1.557
    1XTA    CO248531  31.234  -0.621   1.686
    1XTA    CL148532  31.362  -0.618   1.780
    1XTA    CL248533  31.418  -0.756   1.782
    1XTA    CL348534  31.547  -0.764   1.867
    1XTA    CL448535  31.675  -0.703   1.811
    1XTA    CO348536  31.787  -0.738   1.910
    1XTA    OA348537  31.908  -0.739   1.844
    1XTA    CO448538  32.024  -0.796   1.912
    1XTA    CT148539  32.155  -0.811   1.825
    1XTA    CL548540  32.133  -0.918   1.724
    1XTA    CL648541  32.236  -0.944   1.609
    1XTA    OA448542  32.091  -0.457   1.065
    1XTA    CO548543  32.108  -0.540   0.954
    1XTA    CL748544  32.258  -0.594   0.959
    1XTA    CL848545  32.272  -0.679   1.085
    1XTA    CL948546  32.330  -0.595   1.205
    1XTA   CL1048547  32.336  -0.672   1.337
    1XTA    CO648548  32.425  -0.616   1.448
    1XTA    OA548549  32.417  -0.475   1.435
    1XTA    CO748550  32.301  -0.416   1.499
    1XTA    CT248551  32.298  -0.260   1.497
    1XTA   CL1148552  32.426  -0.204   1.556
    1XTA   CL1248553  32.505  -0.290   1.659
    1XTA    HL148554  31.258   0.038   0.823
    1XTA    HL248555  31.299   0.212   0.796
    1XTA    HL348556  31.429   0.081   0.796
    1XTA    HL448557  31.166  -0.535   1.692
    1XTA    HL548558  31.173  -0.701   1.720
    1XTA    HL648559  31.341  -0.582   1.884
    1XTA    HL748560  31.429  -0.547   1.733
    1XTA    HL848561  31.438  -0.806   1.687
    1XTA    HL948562  31.344  -0.812   1.840
    1XTA   HL1048563  31.528  -0.744   1.967
    1XTA   HL1148564  31.566  -0.875   1.863
    1XTA   HL1248565  31.664  -0.597   1.789
    1XTA   HL1348566  31.694  -0.746   1.712
    1XTA   HL1448567  31.794  -0.674   1.999
    1XTA   HL1548568  31.763  -0.836   1.952
    1XTA   HL1648569  32.047  -0.738   2.002
    1XTA   HL1748570  31.994  -0.891   1.952
    1XTA   HL1848571  32.035  -0.899   1.680
    1XTA   HL1948572  32.115  -1.011   1.778
    1XTA   HL2048573  32.247  -0.845   1.562
    1XTA   HL2148574  32.204  -1.020   1.534
    1XTA   HL2248575  32.328  -0.980   1.642
    1XTA   HL2348576  32.109  -0.479   0.862
    1XTA   HL2448577  32.047  -0.629   0.941
    1XTA   HL2548578  32.278  -0.658   0.865
    1XTA   HL2648579  32.326  -0.510   0.956
    1XTA   HL2748580  32.176  -0.731   1.106
    1XTA   HL2848581  32.352  -0.754   1.075
    1XTA   HL2948582  32.431  -0.552   1.192
    1XTA   HL3048583  32.260  -0.516   1.227
    1XTA   HL3148584  32.231  -0.693   1.374
    1XTA   HL3248585  32.377  -0.776   1.315
    1XTA   HL3348586  32.375  -0.641   1.542
    1XTA   HL3448587  32.528  -0.656   1.448
    1XTA   HL3548588  32.287  -0.445   1.595
    1XTA   HL3648589  32.221  -0.452   1.448
    1XTA   HL3748590  32.389  -0.124   1.614
    1XTA   HL3848591  32.492  -0.171   1.478
    1XTA   HL3948592  32.445  -0.363   1.718
    1XTA   HL4048593  32.552  -0.224   1.734
    1XTA   HL4148594  32.594  -0.352   1.625
    1XTA    CO848595  32.274  -0.855   1.914
    1XTA    CO948596  32.172  -0.672   1.756
    1XTA    OA648597  32.314  -0.766   1.970
    1XTA   HL4248598  32.337  -0.911   1.843
    1XTA   HL4348599  32.236  -0.927   1.986
    1XTA   HL4448600  32.163  -0.104   1.590
    1XTA   HL4548601  32.094  -0.258   1.553
    1XTA   CO1048602  32.185  -0.211   1.588
    1XTA   CO1148603  32.277  -0.202   1.363
    1XTA    OA748604  32.206  -0.236   1.692
    1XTA   HL4648605  32.241  -0.067   1.358
    1XTA   HL4748606  32.184  -0.233   1.317
    1XTA   HL4848607  32.310  -0.663   1.725
    1XTA   HL4948608  32.122  -0.676   1.658
    1XTA     NT48609  30.152   4.489  -0.376
    1XTA    CN148610  30.230   4.484  -0.479
    1XTA     C148611  30.319   4.369  -0.490
    1XTA     C248612  30.412   4.369  -0.595
    1XTA     C348613  30.405   4.465  -0.698
    1XTA     C448614  30.313   4.574  -0.692
    1XTA     C548615  30.233   4.585  -0.577
    1XTA    CN248616  30.048   4.410  -0.372
    1XTA     C648617  29.932   4.451  -0.441
    1XTA     C748618  29.821   4.363  -0.433
    1XTA     C848619  29.818   4.243  -0.363
    1XTA     C948620  29.935   4.207  -0.291
    1XTA    C1048621  30.049   4.293  -0.296
    1XTA    CN348622  30.163   4.597  -0.295
    1XTA    C1148623  30.262   4.600  -0.198
    1XTA    C1248624  30.269   4.708  -0.109
    1XTA    C1348625  30.169   4.807  -0.105
    1XTA    C1448626  30.068   4.806  -0.199
    1XTA    C1548627  30.068   4.705  -0.296
    1XTA     H148628  30.320   4.286  -0.417
    1XTA     H248629  30.479   4.282  -0.605
    1XTA     H348630  30.310   4.645  -0.775
    1XTA     H448631  30.171   4.670  -0.573
    1XTA     H548632  29.925   4.532  -0.511
    1XTA     H648633  29.735   4.393  -0.492
    1XTA     H748634  29.939   4.111  -0.238
    1XTA     H848635  30.136   4.270  -0.239
    1XTA     H948636  30.345   4.530  -0.198
    1XTA    H1048637  30.354   4.699  -0.040
    1XTA    H1148638  29.993   4.881  -0.210
    1XTA    H1248639  29.996   4.707  -0.376
    1XTA    OA148640  30.499   4.449  -0.798
    1XTA    CO148641  30.459   4.502  -0.922
    1XTA    OA248642  29.723   4.149  -0.369
    1XTA    CO248643  29.592   4.196  -0.370
    1XTA    CL148644  29.547   4.237  -0.228
    1XTA    CL248645  29.555   4.123  -0.126
    1XTA    CL348646  29.561   4.167   0.019
    1XTA    CL448647  29.496   4.063   0.116
    1XTA    CO348648  29.579   3.958   0.186
    1XTA    OA348649  29.512   3.902   0.297
    1XTA    CO448650  29.407   3.813   0.252
    1XTA    CT148651  29.340   3.737   0.372
    1XTA    CL548652  29.430   3.622   0.441
    1XTA    CL648653  29.484   3.509   0.351
    1XTA    OA448654  30.162   4.905  -0.009
    1XTA    CO548655  30.266   4.912   0.094
    1XTA    CL748656  30.274   5.047   0.162
    1XTA    CL848657  30.387   5.056   0.262
    1XTA    CL948658  30.383   5.187   0.333
    1XTA   CL1048659  30.415   5.308   0.239
    1XTA    CO648660  30.414   5.445   0.317
    1XTA    OA548661  30.292   5.459   0.393
    1XTA    CO748662  30.176   5.496   0.317
    1XTA    CT248663  30.048   5.502   0.399
    1XTA   CL1148664  29.933   5.534   0.303
    1XTA   CL1248665  29.802   5.567   0.378
    1XTA    HL148666  30.353   4.481  -0.938
    1XTA    HL248667  30.464   4.609  -0.912
    1XTA    HL348668  30.517   4.476  -1.010
    1XTA    HL448669  29.568   4.275  -0.440
    1XTA    HL548670  29.523   4.121  -0.393
    1XTA    HL648671  29.445   4.282  -0.223
    1XTA    HL748672  29.616   4.305  -0.192
    1XTA    HL848673  29.643   4.064  -0.135
    1XTA    HL948674  29.473   4.063  -0.142
    1XTA   HL1048675  29.666   4.176   0.053
    1XTA   HL1148676  29.513   4.267   0.030
    1XTA   HL1248677  29.411   4.022   0.073
    1XTA   HL1348678  29.459   4.113   0.204
    1XTA   HL1448679  29.622   3.894   0.111
    1XTA   HL1548680  29.657   4.006   0.246
    1XTA   HL1648681  29.327   3.877   0.206
    1XTA   HL1748682  29.433   3.751   0.165
    1XTA   HL1848683  29.361   3.581   0.515
    1XTA   HL1948684  29.513   3.668   0.490
    1XTA   HL2048685  29.513   3.544   0.255
    1XTA   HL2148686  29.410   3.425   0.346
    1XTA   HL2248687  29.580   3.468   0.395
    1XTA   HL2348688  30.369   4.904   0.065
    1XTA   HL2448689  30.245   4.827   0.164
    1XTA   HL2548690  30.282   5.121   0.090
    1XTA   HL2648691  30.177   5.071   0.203
    1XTA   HL2748692  30.369   4.980   0.335
    1XTA   HL2848693  30.484   5.034   0.210
    1XTA   HL2948694  30.281   5.203   0.368
    1XTA   HL3048695  30.451   5.185   0.414
    1XTA   HL3148696  30.501   5.304   0.175
    1XTA   HL3248697  30.331   5.311   0.163
    1XTA   HL3348698  30.492   5.452   0.391
    1XTA   HL3448699  30.435   5.531   0.253
    1XTA   HL3548700  30.154   5.421   0.249
    1XTA   HL3648701  30.211   5.584   0.271
    1XTA   HL3748702  29.902   5.438   0.246
    1XTA   HL3848703  29.954   5.607   0.225
    1XTA   HL3948704  29.715   5.551   0.309
    1XTA   HL4048705  29.797   5.669   0.413
    1XTA   HL4148706  29.788   5.508   0.463
    1XTA    CO848707  29.209   3.684   0.326
    1XTA    CO948708  29.267   3.822   0.469
    1XTA    OA648709  29.149   3.791   0.397
    1XTA   HL4248710  29.188   3.585   0.362
    1XTA   HL4348711  29.192   3.687   0.222
    1XTA   HL4448712  29.992   5.619   0.587
    1XTA   HL4548713  30.064   5.711   0.451
    1XTA   CO1048714  30.071   5.615   0.506
    1XTA   CO1148715  30.021   5.366   0.462
    1XTA    OA748716  30.016   5.257   0.362
    1XTA   HL4648717  30.102   5.349   0.528
    1XTA   HL4748718  29.929   5.363   0.522
    1XTA   HL4848719  29.294   3.927   0.464
    1XTA   HL4948720  29.280   3.779   0.570
    1XTA     NT48721  28.752   8.037  -0.750
    1XTA    CN148722  28.727   7.907  -0.791
    1XTA     C148723  28.698   7.884  -0.928
    1XTA     C248724  28.687   7.756  -0.977
    1XTA     C348725  28.702   7.643  -0.896
    1XTA     C448726  28.737   7.670  -0.759
    1XTA     C548727  28.754   7.798  -0.707
    1XTA    CN248728  28.652   8.109  -0.693
    1XTA     C648729  28.684   8.194  -0.591
    1XTA     C748730  28.577   8.259  -0.532
    1XTA     C848731  28.446   8.261  -0.591
    1XTA     C948732  28.414   8.165  -0.691
    1XTA    C1048733  28.520   8.098  -0.746
    1XTA    CN348734  28.852   8.103  -0.806
    1XTA    C1148735  28.835   8.166  -0.931
    1XTA    C1248736  28.946   8.222  -0.997
    1XTA    C1348737  29.074   8.215  -0.938
    1XTA    C1448738  29.083   8.174  -0.800
    1XTA    C1548739  28.981   8.097  -0.751
    1XTA     H148740  28.685   7.961  -1.000
    1XTA     H248741  28.660   7.746  -1.085
    1XTA     H348742  28.748   7.585  -0.693
    1XTA     H448743  28.778   7.805  -0.604
    1XTA     H548744  28.780   8.201  -0.550
    1XTA     H648745  28.601   8.313  -0.445
    1XTA     H748746  28.313   8.152  -0.724
    1XTA     H848747  28.503   8.026  -0.825
    1XTA     H948748  28.738   8.166  -0.975
    1XTA    H1048749  28.931   8.255  -1.100
    1XTA    H1148750  29.173   8.200  -0.754
    1XTA    H1248751  28.993   8.062  -0.648
    1XTA    OA148752  28.661   7.515  -0.926
    1XTA    CO148753  28.610   7.501  -1.055
    1XTA    OA248754  28.348   8.341  -0.538
    1XTA    CO248755  28.369   8.427  -0.421
    1XTA    CL148756  28.348   8.337  -0.299
    1XTA    CL248757  28.203   8.285  -0.306
    1XTA    CL348758  28.173   8.166  -0.207
    1XTA    CL448759  28.248   8.041  -0.246
    1XTA    CO348760  28.214   7.911  -0.172
    1XTA    OA348761  28.330   7.824  -0.165
    1XTA    CO448762  28.359   7.778  -0.296
    1XTA    CT148763  28.475   7.675  -0.290
    1XTA    CL548764  28.544   7.650  -0.423
    1XTA    CL648765  28.451   7.616  -0.544
    1XTA    OA448766  29.191   8.262  -0.997
    1XTA    CO548767  29.163   8.360  -1.090
    1XTA    CL748768  29.301   8.419  -1.114
    1XTA    CL848769  29.299   8.513  -1.228
    1XTA    CL948770  29.202   8.629  -1.179
    1XTA   CL1048771  29.224   8.756  -1.262
    1XTA    CO648772  29.138   8.753  -1.386
    1XTA    OA548773  29.121   8.888  -1.426
    1XTA    CO748774  29.242   8.945  -1.486
    1XTA    CT248775  29.238   9.095  -1.525
    1XTA   CL1148776  29.179   9.185  -1.406
    1XTA   CL1248777  29.221   9.156  -1.264
    1XTA    HL148778  28.514   7.552  -1.056
    1XTA    HL248779  28.680   7.552  -1.125
    1XTA    HL348780  28.600   7.395  -1.090
    1XTA    HL448781  28.473   8.455  -0.414
    1XTA    HL548782  28.315   8.518  -0.413
    1XTA    HL648783  28.361   8.386  -0.203
    1XTA    HL748784  28.419   8.262  -0.307
    1XTA    HL848785  28.169   8.258  -0.407
    1XTA    HL948786  28.140   8.359  -0.274
    1XTA   HL1048787  28.196   8.203  -0.105
    1XTA   HL1148788  28.067   8.143  -0.197
    1XTA   HL1248789  28.350   8.059  -0.237
    1XTA   HL1348790  28.228   8.021  -0.355
    1XTA   HL1448791  28.189   7.930  -0.071
    1XTA   HL1548792  28.123   7.857  -0.212
    1XTA   HL1648793  28.275   7.722  -0.340
    1XTA   HL1748794  28.388   7.866  -0.356
    1XTA   HL1848795  28.612   7.560  -0.417
    1XTA   HL1948796  28.608   7.742  -0.448
    1XTA   HL2048797  28.500   7.609  -0.636
    1XTA   HL2148798  28.384   7.702  -0.556
    1XTA   HL2248799  28.383   7.536  -0.527
    1XTA   HL2348800  29.092   8.434  -1.052
    1XTA   HL2448801  29.118   8.332  -1.184
    1XTA   HL2548802  29.329   8.471  -1.029
    1XTA   HL2648803  29.375   8.345  -1.136
    1XTA   HL2748804  29.396   8.554  -1.250
    1XTA   HL2848805  29.256   8.481  -1.325
    1XTA   HL2948806  29.095   8.599  -1.181
    1XTA   HL3048807  29.222   8.649  -1.078
    1XTA   HL3148808  29.172   8.836  -1.197
    1XTA   HL3248809  29.327   8.769  -1.287
    1XTA   HL3348810  29.180   8.682  -1.451
    1XTA   HL3448811  29.041   8.712  -1.369
    1XTA   HL3548812  29.284   8.880  -1.569
    1XTA   HL3648813  29.315   8.940  -1.401
    1XTA   HL3748814  29.073   9.160  -1.411
    1XTA   HL3848815  29.184   9.290  -1.432
    1XTA   HL3948816  29.174   9.229  -1.199
    1XTA   HL4048817  29.325   9.179  -1.251
    1XTA   HL4148818  29.225   9.046  -1.239
    1XTA    CO848819  28.443   7.558  -0.219
    1XTA    CO948820  28.572   7.700  -0.180
    1XTA    OA648821  28.528   7.556  -0.144
    1XTA   HL4248822  28.449   7.466  -0.268
    1XTA   HL4348823  28.348   7.572  -0.170
    1XTA   HL4448824  29.183   9.049  -1.730
    1XTA   HL4548825  29.048   9.084  -1.622
    1XTA   CO1048826  29.147   9.113  -1.647
    1XTA   CO1148827  29.382   9.137  -1.561
    1XTA    OA748828  29.160   9.250  -1.686
    1XTA   HL4648829  29.378   9.246  -1.575
    1XTA   HL4748830  29.397   9.084  -1.658
    1XTA   HL4848831  28.541   7.804  -0.093
    1XTA   HL4948832  28.667   7.714  -0.233
    1XTA     NT48833  31.259   2.751   0.931
    1XTA    CN148834  31.224   2.629   0.983
    1XTA     C148835  31.173   2.612   1.117
    1XTA     C248836  31.130   2.488   1.155
    1XTA     C348837  31.145   2.377   1.072
    1XTA     C448838  31.205   2.383   0.947
    1XTA     C548839  31.242   2.510   0.899
    1XTA    CN248840  31.155   2.822   0.891
    1XTA     C648841  31.130   2.945   0.964
    1XTA     C748842  31.018   3.025   0.925
    1XTA     C848843  30.936   2.991   0.817
    1XTA     C948844  30.956   2.871   0.750
    1XTA    C1048845  31.055   2.780   0.795
    1XTA    CN348846  31.393   2.774   0.916
    1XTA    C1148847  31.445   2.766   0.786
    1XTA    C1248848  31.582   2.780   0.760
    1XTA    C1348849  31.671   2.812   0.873
    1XTA    C1448850  31.611   2.816   1.001
    1XTA    C1548851  31.477   2.792   1.023
    1XTA     H148852  31.152   2.695   1.184
    1XTA     H248853  31.079   2.473   1.255
    1XTA     H348854  31.217   2.298   0.883
    1XTA     H448855  31.265   2.541   0.796
    1XTA     H548856  31.199   2.967   1.045
    1XTA     H648857  30.993   3.112   0.994
    1XTA     H748858  30.895   2.850   0.663
    1XTA     H848859  31.056   2.693   0.738
    1XTA     H948860  31.377   2.754   0.703
    1XTA    H1048861  31.614   2.782   0.663
    1XTA    H1148862  31.664   2.849   1.086
    1XTA    H1248863  31.438   2.786   1.123
    1XTA    OA148864  31.094   2.261   1.125
    1XTA    CO148865  31.035   2.163   1.044
    1XTA    OA248866  30.836   3.076   0.769
    1XTA    CO248867  30.832   3.211   0.820
    1XTA    CL148868  30.727   3.290   0.736
    1XTA    CL248869  30.645   3.382   0.827
    1XTA    CL348870  30.512   3.316   0.868
    1XTA    CL448871  30.511   3.196   0.966
    1XTA    CO348872  30.379   3.118   0.961
    1XTA    OA348873  30.351   3.077   0.831
    1XTA    CO448874  30.233   3.132   0.782
    1XTA    CT148875  30.218   3.090   0.637
    1XTA    CL548876  30.198   2.931   0.625
    1XTA    CL648877  30.107   2.859   0.726
    1XTA    OA448878  31.800   2.857   0.850
    1XTA    CO548879  31.853   2.850   0.714
    1XTA    CL748880  31.856   2.700   0.669
    1XTA    CL848881  31.907   2.685   0.524
    1XTA    CL948882  31.822   2.567   0.458
    1XTA   CL1048883  31.686   2.603   0.402
    1XTA    CO648884  31.672   2.740   0.322
    1XTA    OA548885  31.791   2.745   0.251
    1XTA    CO748886  31.827   2.863   0.182
    1XTA    CT248887  31.959   2.840   0.101
    1XTA   CL1148888  31.978   2.974   0.023
    1XTA   CL1248889  32.005   3.086   0.119
    1XTA    HL148890  30.956   2.199   0.972
    1XTA    HL248891  31.119   2.118   0.992
    1XTA    HL348892  30.995   2.089   1.106
    1XTA    HL448893  30.807   3.211   0.920
    1XTA    HL548894  30.931   3.257   0.808
    1XTA    HL648895  30.648   3.234   0.690
    1XTA    HL748896  30.775   3.359   0.672
    1XTA    HL848897  30.620   3.468   0.769
    1XTA    HL948898  30.711   3.420   0.910
    1XTA   HL1048899  30.454   3.399   0.912
    1XTA   HL1148900  30.471   3.285   0.770
    1XTA   HL1248901  30.525   3.229   1.060
    1XTA   HL1348902  30.590   3.130   0.948
    1XTA   HL1448903  30.389   3.033   1.026
    1XTA   HL1548904  30.295   3.177   0.999
    1XTA   HL1648905  30.151   3.098   0.845
    1XTA   HL1748906  30.226   3.241   0.797
    1XTA   HL1848907  30.293   2.885   0.627
    1XTA   HL1948908  30.159   2.902   0.524
    1XTA   HL2048909  30.017   2.920   0.753
    1XTA   HL2148910  30.151   2.843   0.824
    1XTA   HL2248911  30.074   2.760   0.690
    1XTA   HL2348912  31.953   2.891   0.713
    1XTA   HL2448913  31.791   2.914   0.653
    1XTA   HL2548914  31.913   2.641   0.745
    1XTA   HL2648915  31.759   2.644   0.672
    1XTA   HL2748916  31.900   2.786   0.471
    1XTA   HL2848917  32.010   2.656   0.534
    1XTA   HL2948918  31.882   2.533   0.371
    1XTA   HL3048919  31.804   2.482   0.525
    1XTA   HL3148920  31.666   2.523   0.336
    1XTA   HL3248921  31.620   2.605   0.489
    1XTA   HL3348922  31.574   2.758   0.276
    1XTA   HL3448923  31.688   2.818   0.394
    1XTA   HL3548924  31.835   2.955   0.245
    1XTA   HL3648925  31.743   2.879   0.111
    1XTA   HL3748926  31.896   3.003  -0.037
    1XTA   HL3848927  32.068   2.972  -0.040
    1XTA   HL3948928  32.001   3.179   0.062
    1XTA   HL4048929  32.112   3.070   0.146
    1XTA   HL4148930  31.942   3.093   0.209
    1XTA    CO848931  30.335   3.135   0.555
    1XTA    CO948932  30.084   3.158   0.593
    1XTA    OA648933  30.311   3.099   0.450
    1XTA   HL4248934  30.429   3.095   0.598
    1XTA   HL4348935  30.339   3.245   0.555
    1XTA   HL4448936  32.038   2.701  -0.050
    1XTA   HL4548937  31.924   2.633   0.065
    1XTA   CO1048938  31.946   2.716  -0.001
    1XTA   CO1148939  32.065   2.815   0.207
    1XTA    OA748940  31.854   2.741  -0.103
    1XTA   HL4648941  32.076   2.897   0.278
    1XTA   HL4748942  32.060   2.721   0.267
    1XTA   HL4848943  29.988   3.137   0.687
    1XTA   HL4948944  30.043   3.120   0.501
    1XTA     NT48945  32.916   6.571   1.962
    1XTA    CN148946  32.902   6.702   1.977
    1XTA     C148947  33.015   6.788   1.981
    1XTA     C248948  33.008   6.927   2.000
    1XTA     C348949  32.878   6.986   2.008
    1XTA     C448950  32.762   6.907   2.005
    1XTA     C548951  32.776   6.769   1.982
    1XTA    CN248952  32.950   6.514   1.840
    1XTA     C648953  33.061   6.439   1.820
    1XTA     C748954  33.074   6.373   1.692
    1XTA     C848955  32.979   6.397   1.592
    1XTA     C948956  32.870   6.482   1.620
    1XTA    C1048957  32.855   6.537   1.744
    1XTA    CN348958  32.863   6.491   2.058
    1XTA    C1148959  32.941   6.447   2.171
    1XTA    C1248960  32.877   6.381   2.280
    1XTA    C1348961  32.737   6.343   2.270
    1XTA    C1448962  32.668   6.385   2.150
    1XTA    C1548963  32.732   6.461   2.049
    1XTA     H148964  33.118   6.760   1.975
    1XTA     H248965  33.093   6.994   1.996
    1XTA     H348966  32.668   6.949   2.025
    1XTA     H448967  32.680   6.721   1.983
    1XTA     H548968  33.123   6.424   1.907
    1XTA     H648969  33.158   6.315   1.655
    1XTA     H748970  32.810   6.510   1.534
    1XTA     H848971  32.770   6.594   1.767
    1XTA     H948972  33.039   6.490   2.181
    1XTA    H1048973  32.929   6.349   2.371
    1XTA    H1148974  32.564   6.361   2.134
    1XTA    H1248975  32.673   6.493   1.963
    1XTA    OA148976  32.884   7.123   2.023
    1XTA    CO148977  32.767   7.195   2.031
    1XTA    OA248978  33.006   6.362   1.463
    1XTA    CO248979  32.907   6.360   1.359
    1XTA    CL148980  32.957   6.284   1.232
    1XTA    CL248981  33.016   6.151   1.281
    1XTA    CL348982  32.913   6.042   1.301
    1XTA    CL448983  32.973   5.925   1.385
    1XTA    CO348984  32.972   5.961   1.530
    1XTA    OA348985  32.851   6.021   1.569
    1XTA    CO448986  32.840   6.035   1.706
    1XTA    CT148987  32.702   6.068   1.752
    1XTA    CL548988  32.681   6.057   1.909
    1XTA    CL648989  32.686   5.910   1.952
    1XTA    OA448990  32.673   6.273   2.370
    1XTA    CO548991  32.548   6.214   2.340
    1XTA    CL748992  32.537   6.099   2.442
    1XTA    CL848993  32.405   6.031   2.428
    1XTA    CL948994  32.376   5.901   2.510
    1XTA   CL1048995  32.461   5.787   2.459
    1XTA    CO648996  32.591   5.769   2.528
    1XTA    OA548997  32.642   5.643   2.484
    1XTA    CO748998  32.766   5.628   2.546
    1XTA    CT248999  32.812   5.486   2.518
    1XTA   CL1149000  32.864   5.473   2.370
    1XTA   CL1249001  32.979   5.560   2.319
    1XTA    HL149002  32.781   7.295   2.041
    1XTA    HL249003  32.690   7.167   1.965
    1XTA    HL349004  32.718   7.171   2.129
    1XTA    HL449005  32.810   6.314   1.394
    1XTA    HL549006  32.881   6.459   1.323
    1XTA    HL649007  33.022   6.352   1.183
    1XTA    HL749008  32.868   6.260   1.172
    1XTA    HL849009  33.073   6.168   1.373
    1XTA    HL949010  33.082   6.114   1.204
    1XTA   HL1049011  32.830   6.082   1.352
    1XTA   HL1149012  32.867   6.016   1.203
    1XTA   HL1249013  33.074   5.904   1.351
    1XTA   HL1349014  32.921   5.837   1.359
    1XTA   HL1449015  33.001   5.873   1.584
    1XTA   HL1549016  33.046   6.037   1.545
    1XTA   HL1649017  32.880   5.946   1.753
    1XTA   HL1749018  32.909   6.117   1.737
    1XTA   HL1849019  32.590   6.096   1.942
    1XTA   HL1949020  32.760   6.116   1.963
    1XTA   HL2049021  32.618   5.838   1.905
    1XTA   HL2149022  32.658   5.912   2.060
    1XTA   HL2249023  32.789   5.874   1.942
    1XTA   HL2349024  32.538   6.162   2.236
    1XTA   HL2449025  32.457   6.281   2.345
    1XTA   HL2549026  32.620   6.036   2.395
    1XTA   HL2649027  32.553   6.136   2.547
    1XTA   HL2749028  32.325   6.106   2.449
    1XTA   HL2849029  32.388   6.009   2.323
    1XTA   HL2949030  32.394   5.910   2.609
    1XTA   HL3049031  32.276   5.873   2.487
    1XTA   HL3149032  32.394   5.703   2.485
    1XTA   HL3249033  32.469   5.801   2.352
    1XTA   HL3349034  32.659   5.853   2.503
    1XTA   HL3449035  32.570   5.773   2.635
    1XTA   HL3549036  32.754   5.634   2.655
    1XTA   HL3649037  32.837   5.705   2.511
    1XTA   HL3749038  32.782   5.498   2.298
    1XTA   HL3849039  32.899   5.367   2.356
    1XTA   HL3949040  32.947   5.656   2.282
    1XTA   HL4049041  33.022   5.497   2.248
    1XTA   HL4149042  33.050   5.592   2.395
    1XTA    CO849043  32.612   5.970   1.674
    1XTA    CO949044  32.672   6.209   1.702
    1XTA    OA649045  32.541   6.252   1.713
    1XTA   HL4249046  32.601   6.001   1.572
    1XTA   HL4349047  32.657   5.873   1.689
    1XTA   HL4449048  32.664   5.394   2.647
    1XTA   HL4549049  32.614   5.414   2.476
    1XTA   CO1049050  32.698   5.383   2.543
    1XTA   CO1149051  32.931   5.456   2.613
    1XTA    OA749052  32.733   5.275   2.531
    1XTA   HL4649053  33.046   5.536   2.601
    1XTA   HL4749054  32.970   5.352   2.608
    1XTA   HL4849055  32.705   6.213   1.598
    1XTA   HL4949056  32.736   6.275   1.763
    1XTA     NT49057  33.450   2.124   5.817
    1XTA    CN149058  33.400   2.243   5.789
    1XTA     C149059  33.264   2.254   5.760
    1XTA     C249060  33.199   2.375   5.737
    1XTA     C349061  33.270   2.497   5.741
    1XTA     C449062  33.410   2.488   5.772
    1XTA     C549063  33.473   2.366   5.795
    1XTA    CN249064  33.425   2.077   5.939
    1XTA     C649065  33.304   2.015   5.964
    1XTA     C749066  33.281   1.950   6.088
    1XTA     C849067  33.378   1.960   6.191
    1XTA     C949068  33.504   2.025   6.161
    1XTA    C1049069  33.530   2.080   6.034
    1XTA    CN349070  33.546   2.072   5.731
    1XTA    C1149071  33.686   2.097   5.742
    1XTA    C1249072  33.774   2.043   5.644
    1XTA    C1349073  33.731   1.973   5.529
    1XTA    C1449074  33.591   1.940   5.528
    1XTA    C1549075  33.502   1.983   5.632
    1XTA     H149076  33.199   2.167   5.754
    1XTA     H249077  33.094   2.372   5.714
    1XTA     H349078  33.477   2.573   5.780
    1XTA     H449079  33.575   2.361   5.819
    1XTA     H549080  33.222   2.011   5.888
    1XTA     H649081  33.178   1.917   6.105
    1XTA     H749082  33.579   2.036   6.239
    1XTA     H849083  33.630   2.112   6.003
    1XTA     H949084  33.730   2.161   5.823
    1XTA    H1049085  33.875   2.064   5.661
    1XTA    H1149086  33.550   1.872   5.454
    1XTA    H1249087  33.395   1.957   5.622
    1XTA    OA149088  33.216   2.619   5.716
    1XTA    CO149089  33.092   2.624   5.656
    1XTA    OA249090  33.356   1.911   6.320
    1XTA    CO249091  33.276   1.792   6.319
    1XTA    CL149092  33.262   1.743   6.466
    1XTA    CL249093  33.181   1.614   6.486
    1XTA    CL349094  33.246   1.498   6.410
    1XTA    CL449095  33.193   1.358   6.440
    1XTA    CO349096  33.267   1.259   6.359
    1XTA    OA349097  33.238   1.282   6.230
    1XTA    CO449098  33.318   1.207   6.137
    1XTA    CT149099  33.386   1.306   6.043
    1XTA    CL549100  33.287   1.401   5.989
    1XTA    CL649101  33.162   1.346   5.932
    1XTA    OA449102  33.824   1.922   5.447
    1XTA    CO549103  33.790   1.938   5.311
    1XTA    CL749104  33.846   1.815   5.245
    1XTA    CL849105  33.765   1.690   5.275
    1XTA    CL949106  33.767   1.629   5.416
    1XTA   CL1049107  33.655   1.530   5.440
    1XTA    CO649108  33.648   1.518   5.592
    1XTA    OA549109  33.755   1.435   5.639
    1XTA    CO749110  33.843   1.510   5.719
    1XTA    CT249111  33.972   1.428   5.749
    1XTA   CL1149112  34.066   1.509   5.847
    1XTA   CL1249113  34.094   1.655   5.809
    1XTA    HL149114  33.061   2.725   5.631
    1XTA    HL249115  33.098   2.575   5.562
    1XTA    HL349116  33.013   2.567   5.712
    1XTA    HL449117  33.177   1.803   6.281
    1XTA    HL549118  33.319   1.713   6.257
    1XTA    HL649119  33.216   1.826   6.526
    1XTA    HL749120  33.363   1.718   6.506
    1XTA    HL849121  33.073   1.639   6.457
    1XTA    HL949122  33.183   1.595   6.594
    1XTA   HL1049123  33.241   1.520   6.306
    1XTA   HL1149124  33.351   1.495   6.432
    1XTA   HL1249125  33.088   1.346   6.419
    1XTA   HL1349126  33.208   1.326   6.544
    1XTA   HL1449127  33.372   1.255   6.371
    1XTA   HL1549128  33.219   1.166   6.394
    1XTA   HL1649129  33.384   1.139   6.188
    1XTA   HL1749130  33.262   1.139   6.073
    1XTA   HL1849131  33.335   1.449   5.906
    1XTA   HL1949132  33.265   1.480   6.066
    1XTA   HL2049133  33.102   1.309   6.012
    1XTA   HL2149134  33.183   1.275   5.853
    1XTA   HL2249135  33.097   1.428   5.903
    1XTA   HL2349136  33.839   2.026   5.269
    1XTA   HL2449137  33.684   1.946   5.275
    1XTA   HL2549138  33.848   1.822   5.132
    1XTA   HL2649139  33.952   1.802   5.281
    1XTA   HL2749140  33.660   1.713   5.249
    1XTA   HL2849141  33.804   1.617   5.216
    1XTA   HL2949142  33.864   1.584   5.437
    1XTA   HL3049143  33.754   1.715   5.486
    1XTA   HL3149144  33.570   1.584   5.402
    1XTA   HL3249145  33.682   1.443   5.385
    1XTA   HL3349146  33.645   1.613   5.644
    1XTA   HL3449147  33.560   1.455   5.621
    1XTA   HL3549148  33.804   1.531   5.819
    1XTA   HL3649149  33.867   1.602   5.661
    1XTA   HL3749150  34.158   1.458   5.880
    1XTA   HL3849151  34.005   1.519   5.934
    1XTA   HL3949152  34.170   1.659   5.729
    1XTA   HL4049153  34.142   1.702   5.898
    1XTA   HL4149154  34.017   1.715   5.777
    1XTA    CO849155  33.453   1.241   5.930
    1XTA    CO949156  33.497   1.378   6.121
    1XTA    OA649157  33.393   1.181   5.858
    1XTA   HL4249158  33.529   1.171   5.975
    1XTA   HL4349159  33.516   1.318   5.882
    1XTA   HL4449160  33.964   1.366   5.542
    1XTA   HL4549161  34.091   1.474   5.569
    1XTA   CO1049162  34.043   1.390   5.617
    1XTA   CO1149163  33.932   1.292   5.810
    1XTA    OA749164  33.855   1.316   5.930
    1XTA   HL4649165  33.872   1.233   5.747
    1XTA   HL4749166  34.022   1.243   5.846
    1XTA   HL4849167  33.454   1.459   6.227
    1XTA   HL4949168  33.544   1.445   6.054
    1XTA     NT49169  32.873   7.070   4.472
    1XTA    CN149170  32.920   7.069   4.349
    1XTA     C149171  32.968   6.947   4.301
    1XTA     C249172  32.996   6.934   4.161
    1XTA     C349173  32.997   7.047   4.078
    1XTA     C449174  32.951   7.172   4.129
    1XTA     C549175  32.910   7.182   4.259
    1XTA    CN249176  32.940   7.154   4.555
    1XTA     C649177  33.044   7.105   4.643
    1XTA     C749178  33.109   7.195   4.722
    1XTA     C849179  33.078   7.332   4.725
    1XTA     C949180  32.974   7.379   4.640
    1XTA    C1049181  32.906   7.293   4.551
    1XTA    CN349182  32.758   7.024   4.522
    1XTA    C1149183  32.635   7.081   4.486
    1XTA    C1249184  32.510   7.035   4.541
    1XTA    C1349185  32.520   6.930   4.635
    1XTA    C1449186  32.643   6.876   4.675
    1XTA    C1549187  32.762   6.929   4.630
    1XTA     H149188  32.963   6.866   4.369
    1XTA     H249189  33.029   6.838   4.119
    1XTA     H349190  32.942   7.258   4.063
    1XTA     H449191  32.877   7.275   4.305
    1XTA     H549192  33.072   7.002   4.635
    1XTA     H649193  33.188   7.157   4.782
    1XTA     H749194  32.944   7.484   4.646
    1XTA     H849195  32.812   7.325   4.496
    1XTA     H949196  32.615   7.155   4.405
    1XTA    H1049197  32.416   7.073   4.500
    1XTA    H1149198  32.629   6.793   4.748
    1XTA    H1249199  32.859   6.883   4.673
    1XTA    OA149200  33.056   7.043   3.957
    1XTA    CO149201  33.064   7.160   3.878
    1XTA    OA249202  33.143   7.423   4.811
    1XTA    CO249203  33.152   7.558   4.766
    1XTA    CL149204  33.247   7.624   4.874
    1XTA    CL249205  33.210   7.588   5.015
    1XTA    CL349206  33.307   7.660   5.117
    1XTA    CL449207  33.266   7.677   5.262
    1XTA    CO349208  33.228   7.544   5.338
    1XTA    OA349209  33.117   7.478   5.280
    1XTA    CO449210  33.080   7.362   5.348
    1XTA    CT149211  32.980   7.291   5.262
    1XTA    CL549212  32.885   7.210   5.354
    1XTA    CL649213  32.817   7.293   5.462
    1XTA    OA449214  32.411   6.865   4.682
    1XTA    CO549215  32.294   6.953   4.699
    1XTA    CL749216  32.170   6.901   4.632
    1XTA    CL849217  32.187   6.902   4.478
    1XTA    CL949218  32.082   6.826   4.396
    1XTA   CL1049219  31.954   6.909   4.387
    1XTA    CO649220  31.838   6.855   4.301
    1XTA    OA549221  31.714   6.890   4.352
    1XTA    CO749222  31.683   7.024   4.367
    1XTA    CT249223  31.535   7.056   4.360
    1XTA   CL1149224  31.516   7.213   4.385
    1XTA   CL1249225  31.568   7.292   4.266
    1XTA    HL149226  33.128   7.131   3.798
    1XTA    HL249227  32.965   7.186   3.840
    1XTA    HL349228  33.108   7.251   3.932
    1XTA    HL449229  33.194   7.540   4.669
    1XTA    HL549230  33.057   7.610   4.754
    1XTA    HL649231  33.256   7.727   4.862
    1XTA    HL749232  33.351   7.594   4.845
    1XTA    HL849233  33.227   7.484   5.034
    1XTA    HL949234  33.111   7.620   5.045
    1XTA   HL1049235  33.402   7.611   5.122
    1XTA   HL1149236  33.312   7.758   5.076
    1XTA   HL1249237  33.175   7.744   5.274
    1XTA   HL1349238  33.347   7.731   5.309
    1XTA   HL1449239  33.309   7.473   5.328
    1XTA   HL1549240  33.213   7.556   5.448
    1XTA   HL1649241  33.165   7.290   5.376
    1XTA   HL1749242  33.036   7.400   5.439
    1XTA   HL1849243  32.944   7.141   5.409
    1XTA   HL1949244  32.814   7.152   5.291
    1XTA   HL2049245  32.872   7.335   5.545
    1XTA   HL2149246  32.750   7.227   5.511
    1XTA   HL2249247  32.767   7.383   5.431
    1XTA   HL2349248  32.314   7.051   4.679
    1XTA   HL2449249  32.277   6.940   4.800
    1XTA   HL2549250  32.134   6.802   4.652
    1XTA   HL2649251  32.087   6.968   4.664
    1XTA   HL2749252  32.195   7.007   4.448
    1XTA   HL2849253  32.283   6.853   4.456
    1XTA   HL2949254  32.121   6.773   4.306
    1XTA   HL3049255  32.058   6.734   4.444
    1XTA   HL3149256  31.909   6.904   4.484
    1XTA   HL3249257  31.975   7.013   4.376
    1XTA   HL3349258  31.850   6.882   4.202
    1XTA   HL3449259  31.836   6.748   4.309
    1XTA   HL3549260  31.738   7.090   4.292
    1XTA   HL3649261  31.718   7.051   4.467
    1XTA   HL3749262  31.567   7.232   4.474
    1XTA   HL3849263  31.410   7.225   4.412
    1XTA   HL3949264  31.563   7.402   4.271
    1XTA   HL4049265  31.515   7.268   4.173
    1XTA   HL4149266  31.674   7.269   4.252
    1XTA    CO849267  33.044   7.186   5.159
    1XTA    CO949268  32.893   7.379   5.167
    1XTA    OA649269  33.048   7.047   5.197
    1XTA   HL4249270  33.147   7.204   5.140
    1XTA   HL4349271  33.001   7.186   5.059
    1XTA   HL4449272  31.365   6.994   4.457
    1XTA   HL4549273  31.498   6.876   4.470
    1XTA   CO1049274  31.474   6.979   4.477
    1XTA   CO1149275  31.464   7.013   4.224
    1XTA    OA749276  31.523   7.017   4.610
    1XTA   HL4649277  31.502   7.077   4.143
    1XTA   HL4749278  31.477   6.910   4.211
    1XTA   HL4849279  32.949   7.437   5.093
    1XTA   HL4949280  32.838   7.450   5.229
    1XTA     NT49281  26.643   5.249   6.085
    1XTA    CN149282  26.681   5.249   6.216
    1XTA     C149283  26.811   5.288   6.242
    1XTA     C249284  26.861   5.300   6.375
    1XTA     C349285  26.777   5.269   6.483
    1XTA     C449286  26.642   5.231   6.452
    1XTA     C549287  26.593   5.219   6.322
    1XTA    CN249288  26.672   5.140   6.010
    1XTA     C649289  26.588   5.028   6.028
    1XTA     C749290  26.618   4.902   5.974
    1XTA     C849291  26.733   4.885   5.897
    1XTA     C949292  26.814   4.996   5.875
    1XTA    C1049293  26.796   5.122   5.945
    1XTA    CN349294  26.588   5.358   6.032
    1XTA    C1149295  26.670   5.473   6.017
    1XTA    C1249296  26.615   5.599   5.992
    1XTA    C1349297  26.476   5.610   5.956
    1XTA    C1449298  26.401   5.495   5.966
    1XTA    C1549299  26.453   5.374   6.011
    1XTA     H149300  26.889   5.321   6.169
    1XTA     H249301  26.963   5.330   6.399
    1XTA     H349302  26.562   5.209   6.528
    1XTA     H449303  26.498   5.175   6.303
    1XTA     H549304  26.507   5.043   6.093
    1XTA     H649305  26.546   4.817   5.990
    1XTA     H749306  26.895   4.989   5.800
    1XTA     H849307  26.854   5.209   5.936
    1XTA     H949308  26.775   5.464   6.028
    1XTA    H1049309  26.689   5.678   5.995
    1XTA    H1149310  26.297   5.504   5.941
    1XTA    H1249311  26.401   5.282   6.029
    1XTA    OA149312  26.815   5.281   6.612
    1XTA    CO149313  26.782   5.179   6.707
    1XTA    OA249314  26.760   4.758   5.840
    1XTA    CO249315  26.851   4.685   5.922
    1XTA    CL149316  26.791   4.545   5.929
    1XTA    CL249317  26.876   4.433   5.996
    1XTA    CL349318  26.789   4.320   6.053
    1XTA    CL449319  26.731   4.232   5.949
    1XTA    CO349320  26.597   4.277   5.891
    1XTA    OA349321  26.487   4.226   5.961
    1XTA    CO449322  26.461   4.302   6.081
    1XTA    CT149323  26.342   4.236   6.145
    1XTA    CL549324  26.307   4.312   6.275
    1XTA    CL649325  26.227   4.231   6.371
    1XTA    OA449326  26.416   5.724   5.915
    1XTA    CO549327  26.432   5.845   5.995
    1XTA    CL749328  26.370   5.837   6.138
    1XTA    CL849329  26.226   5.807   6.147
    1XTA    CL949330  26.189   5.774   6.293
    1XTA   CL1049331  26.032   5.769   6.312
    1XTA    CO649332  26.008   5.732   6.458
    1XTA    OA549333  26.043   5.599   6.494
    1XTA    CO749334  25.958   5.505   6.426
    1XTA    CT249335  26.004   5.361   6.456
    1XTA   CL1149336  26.116   5.321   6.366
    1XTA   CL1249337  26.253   5.389   6.390
    1XTA    HL149338  26.672   5.172   6.697
    1XTA    HL249339  26.837   5.089   6.672
    1XTA    HL349340  26.808   5.214   6.804
    1XTA    HL449341  26.951   4.683   5.876
    1XTA    HL549342  26.857   4.735   6.019
    1XTA    HL649343  26.763   4.513   5.832
    1XTA    HL749344  26.700   4.565   5.988
    1XTA    HL849345  26.928   4.473   6.087
    1XTA    HL949346  26.944   4.401   5.917
    1XTA   HL1049347  26.843   4.249   6.120
    1XTA   HL1149348  26.725   4.370   6.118
    1XTA   HL1249349  26.709   4.136   5.992
    1XTA   HL1349350  26.805   4.214   5.872
    1XTA   HL1449351  26.593   4.390   5.877
    1XTA   HL1549352  26.572   4.233   5.796
    1XTA   HL1649353  26.542   4.300   6.147
    1XTA   HL1749354  26.441   4.405   6.059
    1XTA   HL1849355  26.263   4.406   6.252
    1XTA   HL1949356  26.395   4.346   6.323
    1XTA   HL2049357  26.172   4.289   6.451
    1XTA   HL2149358  26.285   4.159   6.431
    1XTA   HL2249359  26.161   4.158   6.325
    1XTA   HL2349360  26.387   5.937   5.949
    1XTA   HL2449361  26.539   5.869   5.998
    1XTA   HL2549362  26.437   5.764   6.186
    1XTA   HL2649363  26.392   5.928   6.190
    1XTA   HL2749364  26.166   5.899   6.120
    1XTA   HL2849365  26.193   5.724   6.083
    1XTA   HL2949366  26.237   5.678   6.324
    1XTA   HL3049367  26.225   5.856   6.359
    1XTA   HL3149368  26.005   5.874   6.297
    1XTA   HL3249369  25.989   5.699   6.240
    1XTA   HL3349370  26.071   5.802   6.520
    1XTA   HL3449371  25.906   5.757   6.493
    1XTA   HL3549372  25.955   5.520   6.318
    1XTA   HL3649373  25.855   5.518   6.460
    1XTA   HL3749374  26.092   5.350   6.261
    1XTA   HL3849375  26.128   5.216   6.374
    1XTA   HL3949376  26.322   5.366   6.311
    1XTA   HL4049377  26.295   5.353   6.480
    1XTA   HL4149378  26.251   5.492   6.398
    1XTA    CO849379  26.374   4.090   6.167
    1XTA    CO949380  26.225   4.236   6.038
    1XTA    OA649381  26.453   4.093   6.248
    1XTA   HL4249382  26.420   4.032   6.086
    1XTA   HL4349383  26.284   4.044   6.205
    1XTA   HL4449384  25.925   5.143   6.510
    1XTA   HL4549385  25.800   5.295   6.512
    1XTA   CO1049386  25.883   5.261   6.449
    1XTA   CO1149387  26.058   5.342   6.606
    1XTA    OA749388  25.972   5.374   6.673
    1XTA   HL4649389  26.103   5.250   6.637
    1XTA   HL4749390  26.124   5.429   6.621
    1XTA   HL4849391  26.269   4.200   5.913
    1XTA   HL4949392  26.157   4.166   6.080
    1XTA     NT49393  31.964   6.836   0.307
    1XTA    CN149394  32.020   6.954   0.281
    1XTA     C149395  31.981   7.021   0.163
    1XTA     C249396  32.041   7.142   0.127
    1XTA     C349397  32.128   7.204   0.224
    1XTA     C449398  32.153   7.145   0.345
    1XTA     C549399  32.104   7.017   0.374
    1XTA    CN249400  31.962   6.736   0.213
    1XTA     C649401  32.068   6.647   0.199
    1XTA     C749402  32.057   6.535   0.113
    1XTA     C849403  31.937   6.516   0.046
    1XTA     C949404  31.837   6.614   0.047
    1XTA    C1049405  31.849   6.718   0.140
    1XTA    CN349406  31.891   6.818   0.416
    1XTA    C1149407  31.940   6.755   0.528
    1XTA    C1249408  31.868   6.747   0.648
    1XTA    C1349409  31.738   6.793   0.646
    1XTA    C1449410  31.681   6.855   0.531
    1XTA    C1549411  31.758   6.862   0.414
    1XTA     H149412  31.924   6.980   0.087
    1XTA     H249413  32.021   7.181   0.028
    1XTA     H349414  32.213   7.202   0.419
    1XTA     H449415  32.124   6.972   0.472
    1XTA     H549416  32.161   6.680   0.252
    1XTA     H649417  32.140   6.467   0.099
    1XTA     H749418  31.752   6.606  -0.013
    1XTA     H849419  31.777   6.801   0.133
    1XTA     H949420  32.039   6.720   0.516
    1XTA    H1049421  31.913   6.707   0.732
    1XTA    H1149422  31.577   6.899   0.521
    1XTA    H1249423  31.717   6.905   0.323
    1XTA    OA149424  32.180   7.327   0.197
    1XTA    CO149425  32.318   7.352   0.209
    1XTA    OA249426  31.933   6.413  -0.044
    1XTA    CO249427  31.962   6.283   0.011
    1XTA    CL149428  32.027   6.191  -0.089
    1XTA    CL249429  32.154   6.250  -0.149
    1XTA    CL349430  32.223   6.158  -0.245
    1XTA    CL449431  32.362   6.220  -0.263
    1XTA    CO349432  32.463   6.121  -0.323
    1XTA    OA349433  32.465   6.004  -0.250
    1XTA    CO449434  32.503   6.008  -0.110
    1XTA    CT149435  32.489   5.864  -0.045
    1XTA    CL549436  32.568   5.840   0.086
    1XTA    CL649437  32.720   5.852   0.069
    1XTA    OA449438  31.648   6.793   0.751
    1XTA    CO549439  31.705   6.735   0.874
    1XTA    CL749440  31.804   6.831   0.942
    1XTA    CL849441  31.895   6.758   1.044
    1XTA    CL949442  31.997   6.662   0.975
    1XTA   CL1049443  32.106   6.595   1.051
    1XTA    CO649444  32.054   6.517   1.170
    1XTA    OA549445  32.056   6.602   1.284
    1XTA    CO749446  31.983   6.559   1.398
    1XTA    CT249447  31.991   6.663   1.516
    1XTA   CL1149448  31.910   6.623   1.641
    1XTA   CL1249449  31.759   6.606   1.603
    1XTA    HL149450  32.331   7.460   0.189
    1XTA    HL249451  32.342   7.343   0.321
    1XTA    HL349452  32.396   7.295   0.160
    1XTA    HL449453  32.015   6.286   0.108
    1XTA    HL549454  31.865   6.246   0.032
    1XTA    HL649455  31.962   6.166  -0.173
    1XTA    HL749456  32.047   6.093  -0.040
    1XTA    HL849457  32.223   6.275  -0.061
    1XTA    HL949458  32.127   6.335  -0.200
    1XTA   HL1049459  32.225   6.063  -0.200
    1XTA   HL1149460  32.181   6.133  -0.342
    1XTA   HL1249461  32.409   6.253  -0.169
    1XTA   HL1349462  32.370   6.303  -0.330
    1XTA   HL1449463  32.434   6.090  -0.423
    1XTA   HL1549464  32.560   6.169  -0.328
    1XTA   HL1649465  32.605   6.025  -0.111
    1XTA   HL1749466  32.462   6.095  -0.050
    1XTA   HL1849467  32.541   5.748   0.124
    1XTA   HL1949468  32.541   5.904   0.168
    1XTA   HL2049469  32.752   5.955   0.057
    1XTA   HL2149470  32.765   5.782  -0.006
    1XTA   HL2249471  32.775   5.815   0.160
    1XTA   HL2349472  31.753   6.641   0.838
    1XTA   HL2449473  31.631   6.701   0.951
    1XTA   HL2549474  31.863   6.888   0.868
    1XTA   HL2649475  31.745   6.904   0.994
    1XTA   HL2749476  31.934   6.833   1.114
    1XTA   HL2849477  31.824   6.696   1.105
    1XTA   HL2949478  31.941   6.594   0.921
    1XTA   HL3049479  32.055   6.713   0.894
    1XTA   HL3149480  32.165   6.535   0.991
    1XTA   HL3249481  32.174   6.677   1.087
    1XTA   HL3349482  31.954   6.473   1.141
    1XTA   HL3449483  32.115   6.433   1.188
    1XTA   HL3549484  32.027   6.464   1.434
    1XTA   HL3649485  31.874   6.555   1.366
    1XTA   HL3749486  31.916   6.699   1.719
    1XTA   HL3849487  31.952   6.530   1.679
    1XTA   HL3949488  31.753   6.516   1.551
    1XTA   HL4049489  31.716   6.687   1.544
    1XTA   HL4149490  31.686   6.602   1.686
    1XTA    CO849491  32.549   5.766  -0.152
    1XTA    CO949492  32.335   5.829  -0.028
    1XTA    OA649493  32.288   5.895   0.095
    1XTA   HL4249494  32.649   5.798  -0.188
    1XTA   HL4349495  32.478   5.764  -0.237
    1XTA   HL4449496  32.019   6.828   1.398
    1XTA   HL4549497  31.876   6.761   1.377
    1XTA   CO1049498  31.940   6.788   1.458
    1XTA   CO1149499  32.138   6.686   1.553
    1XTA    OA749500  31.870   6.884   1.535
    1XTA   HL4649501  32.157   6.772   1.610
    1XTA   HL4749502  32.191   6.704   1.459
    1XTA   HL4849503  32.329   5.725  -0.022
    1XTA   HL4949504  32.285   5.861  -0.115
    1XTA     NT49505  27.440   5.281   3.875
    1XTA    CN149506  27.403   5.319   3.999
    1XTA     C149507  27.285   5.393   4.012
    1XTA     C249508  27.252   5.442   4.139
    1XTA     C349509  27.335   5.414   4.252
    1XTA     C449510  27.450   5.334   4.238
    1XTA     C549511  27.488   5.290   4.113
    1XTA    CN249512  27.531   5.186   3.854
    1XTA     C649513  27.506   5.053   3.823
    1XTA     C749514  27.609   4.960   3.813
    1XTA     C849515  27.741   4.993   3.828
    1XTA     C949516  27.769   5.129   3.860
    1XTA    C1049517  27.667   5.226   3.864
    1XTA    CN349518  27.392   5.343   3.765
    1XTA    C1149519  27.437   5.476   3.741
    1XTA    C1249520  27.377   5.548   3.637
    1XTA    C1349521  27.295   5.484   3.538
    1XTA    C1449522  27.256   5.349   3.562
    1XTA    C1549523  27.295   5.284   3.676
    1XTA     H149524  27.217   5.413   3.934
    1XTA     H249525  27.155   5.495   4.161
    1XTA     H349526  27.510   5.315   4.331
    1XTA     H449527  27.578   5.236   4.105
    1XTA     H549528  27.407   5.022   3.816
    1XTA     H649529  27.577   4.860   3.779
    1XTA     H749530  27.868   5.152   3.889
    1XTA     H849531  27.687   5.326   3.892
    1XTA     H949532  27.503   5.527   3.806
    1XTA    H1049533  27.407   5.646   3.603
    1XTA    H1149534  27.189   5.306   3.493
    1XTA    H1249535  27.259   5.185   3.694
    1XTA    OA149536  27.299   5.478   4.369
    1XTA    CO149537  27.389   5.471   4.475
    1XTA    OA249538  27.839   4.896   3.799
    1XTA    CO249539  27.973   4.937   3.817
    1XTA    CL149540  28.067   4.827   3.768
    1XTA    CL249541  28.053   4.794   3.621
    1XTA    CL349542  27.957   4.676   3.594
    1XTA    CL449543  28.025   4.547   3.550
    1XTA    CO349544  27.917   4.442   3.517
    1XTA    OA349545  27.863   4.462   3.385
    1XTA    CO449546  27.744   4.379   3.368
    1XTA    CT149547  27.700   4.375   3.217
    1XTA    CL549548  27.683   4.521   3.160
    1XTA    CL649549  27.557   4.594   3.226
    1XTA    OA449550  27.252   5.540   3.417
    1XTA    CO549551  27.290   5.673   3.383
    1XTA    CL749552  27.200   5.770   3.450
    1XTA    CL849553  27.164   5.890   3.362
    1XTA    CL949554  27.101   5.864   3.219
    1XTA   CL1049555  26.973   5.793   3.229
    1XTA    CO649556  26.896   5.765   3.100
    1XTA    OA549557  26.765   5.715   3.116
    1XTA    CO749558  26.775   5.578   3.139
    1XTA    CT249559  26.624   5.527   3.153
    1XTA   CL1149560  26.547   5.555   3.024
    1XTA   CL1249561  26.591   5.503   2.887
    1XTA    HL149562  27.398   5.368   4.504
    1XTA    HL249563  27.492   5.496   4.451
    1XTA    HL349564  27.356   5.525   4.565
    1XTA    HL449565  27.998   5.034   3.768
    1XTA    HL549566  27.994   4.950   3.924
    1XTA    HL649567  28.068   4.733   3.825
    1XTA    HL749568  28.161   4.872   3.790
    1XTA    HL849569  28.153   4.775   3.581
    1XTA    HL949570  28.031   4.883   3.561
    1XTA   HL1049571  27.872   4.667   3.665
    1XTA   HL1149572  27.893   4.703   3.508
    1XTA   HL1249573  28.093   4.511   3.623
    1XTA   HL1349574  28.080   4.567   3.463
    1XTA   HL1449575  27.963   4.342   3.520
    1XTA   HL1549576  27.843   4.433   3.597
    1XTA   HL1649577  27.765   4.276   3.396
    1XTA   HL1749578  27.662   4.425   3.425
    1XTA   HL1849579  27.664   4.532   3.049
    1XTA   HL1949580  27.780   4.567   3.185
    1XTA   HL2049581  27.525   4.692   3.179
    1XTA   HL2149582  27.560   4.608   3.336
    1XTA   HL2249583  27.462   4.538   3.199
    1XTA   HL2349584  27.287   5.702   3.275
    1XTA   HL2449585  27.395   5.687   3.402
    1XTA   HL2549586  27.114   5.705   3.485
    1XTA   HL2649587  27.243   5.800   3.546
    1XTA   HL2749588  27.102   5.967   3.417
    1XTA   HL2849589  27.251   5.949   3.345
    1XTA   HL2949590  27.065   5.953   3.179
    1XTA   HL3049591  27.173   5.820   3.146
    1XTA   HL3149592  26.989   5.698   3.269
    1XTA   HL3249593  26.901   5.838   3.298
    1XTA   HL3349594  26.889   5.845   3.022
    1XTA   HL3449595  26.956   5.696   3.036
    1XTA   HL3549596  26.840   5.562   3.226
    1XTA   HL3649597  26.821   5.539   3.054
    1XTA   HL3749598  26.550   5.658   3.007
    1XTA   HL3849599  26.435   5.545   3.038
    1XTA   HL3949600  26.545   5.563   2.801
    1XTA   HL4049601  26.553   5.405   2.854
    1XTA   HL4149602  26.702   5.505   2.871
    1XTA    CO849603  27.579   4.281   3.202
    1XTA    CO949604  27.823   4.302   3.151
    1XTA    OA649605  27.604   4.175   3.221
    1XTA   HL4249606  27.528   4.285   3.108
    1XTA   HL4349607  27.497   4.307   3.266
    1XTA   HL4449608  26.484   5.533   3.322
    1XTA   HL4549609  26.655   5.604   3.357
    1XTA   CO1049610  26.571   5.594   3.278
    1XTA   CO1149611  26.615   5.375   3.163
    1XTA    OA749612  26.535   5.694   3.257
    1XTA   HL4649613  26.482   5.335   3.189
    1XTA   HL4749614  26.652   5.338   3.070
    1XTA   HL4849615  27.943   4.370   3.177
    1XTA   HL4949616  27.836   4.189   3.178
    1XTA     NT49617  25.731   6.159   3.877
    1XTA    CN149618  25.626   6.120   3.952
    1XTA     C149619  25.526   6.213   3.997
    1XTA     C249620  25.424   6.175   4.089
    1XTA     C349621  25.415   6.040   4.127
    1XTA     C449622  25.514   5.950   4.086
    1XTA     C549623  25.626   5.987   4.002
    1XTA    CN249624  25.735   6.119   3.749
    1XTA     C649625  25.673   6.189   3.650
    1XTA     C749626  25.693   6.160   3.509
    1XTA     C849627  25.761   6.045   3.473
    1XTA     C949628  25.814   5.965   3.576
    1XTA    C1049629  25.808   6.003   3.708
    1XTA    CN349630  25.837   6.223   3.930
    1XTA    C1149631  25.875   6.344   3.877
    1XTA    C1249632  25.994   6.402   3.925
    1XTA    C1349633  26.063   6.343   4.029
    1XTA    C1449634  26.022   6.220   4.082
    1XTA    C1549635  25.906   6.157   4.031
    1XTA     H149636  25.531   6.311   3.956
    1XTA     H249637  25.356   6.252   4.121
    1XTA     H349638  25.511   5.843   4.112
    1XTA     H449639  25.704   5.922   3.968
    1XTA     H549640  25.608   6.271   3.686
    1XTA     H649641  25.651   6.214   3.431
    1XTA     H749642  25.860   5.873   3.550
    1XTA     H849643  25.849   5.948   3.785
    1XTA     H949644  25.806   6.385   3.806
    1XTA    H1049645  26.025   6.494   3.881
    1XTA    H1149646  26.087   6.178   4.167
    1XTA    H1249647  25.871   6.066   4.060
    1XTA    OA149648  25.310   6.003   4.202
    1XTA    CO149649  25.294   5.866   4.236
    1XTA    OA249650  25.776   6.023   3.337
    1XTA    CO249651  25.879   5.929   3.294
    1XTA    CL149652  25.913   5.973   3.155
    1XTA    CL249653  25.984   6.109   3.149
    1XTA    CL349654  26.123   6.114   3.220
    1XTA    CL449655  26.223   6.202   3.152
    1XTA    CO349656  26.187   6.346   3.192
    1XTA    OA349657  26.303   6.427   3.201
    1XTA    CO449658  26.339   6.464   3.071
    1XTA    CT149659  26.462   6.558   3.071
    1XTA    CL549660  26.439   6.666   3.185
    1XTA    CL649661  26.337   6.777   3.160
    1XTA    OA449662  26.170   6.410   4.070
    1XTA    CO549663  26.172   6.436   4.208
    1XTA    CL749664  26.261   6.551   4.250
    1XTA    CL849665  26.232   6.609   4.391
    1XTA    CL949666  26.338   6.705   4.447
    1XTA   CL1049667  26.322   6.730   4.599
    1XTA    CO649668  26.446   6.815   4.656
    1XTA    OA549669  26.420   6.820   4.802
    1XTA    CO749670  26.534   6.866   4.869
    1XTA    CT249671  26.494   6.907   5.011
    1XTA   CL1149672  26.623   6.922   5.103
    1XTA   CL1249673  26.703   7.049   5.068
    1XTA    HL149674  25.222   5.865   4.323
    1XTA    HL249675  25.246   5.813   4.151
    1XTA    HL349676  25.388   5.801   4.260
    1XTA    HL449677  25.966   5.924   3.362
    1XTA    HL549678  25.826   5.840   3.301
    1XTA    HL649679  25.838   5.972   3.084
    1XTA    HL749680  25.976   5.896   3.111
    1XTA    HL849681  25.910   6.182   3.176
    1XTA    HL949682  26.002   6.113   3.042
    1XTA   HL1049683  26.117   6.141   3.328
    1XTA   HL1149684  26.171   6.016   3.202
    1XTA   HL1249685  26.236   6.187   3.045
    1XTA   HL1349686  26.325   6.185   3.190
    1XTA   HL1449687  26.116   6.394   3.132
    1XTA   HL1549688  26.141   6.346   3.291
    1XTA   HL1649689  26.354   6.370   3.009
    1XTA   HL1749690  26.263   6.537   3.029
    1XTA   HL1849691  26.533   6.724   3.209
    1XTA   HL1949692  26.408   6.614   3.276
    1XTA   HL2049693  26.376   6.863   3.108
    1XTA   HL2149694  26.302   6.809   3.259
    1XTA   HL2249695  26.250   6.749   3.098
    1XTA   HL2349696  26.211   6.349   4.260
    1XTA   HL2449697  26.074   6.460   4.247
    1XTA   HL2549698  26.368   6.526   4.238
    1XTA   HL2649699  26.235   6.630   4.180
    1XTA   HL2749700  26.130   6.655   4.392
    1XTA   HL2849701  26.224   6.530   4.472
    1XTA   HL2949702  26.433   6.664   4.423
    1XTA   HL3049703  26.342   6.807   4.401
    1XTA   HL3149704  26.229   6.787   4.618
    1XTA   HL3249705  26.324   6.635   4.645
    1XTA   HL3349706  26.545   6.765   4.635
    1XTA   HL3449707  26.461   6.917   4.612
    1XTA   HL3549708  26.595   6.937   4.815
    1XTA   HL3649709  26.605   6.782   4.880
    1XTA   HL3749710  26.676   6.827   5.110
    1XTA   HL3849711  26.573   6.937   5.199
    1XTA   HL3949712  26.804   7.048   5.108
    1XTA   HL4049713  26.654   7.132   5.124
    1XTA   HL4149714  26.735   7.067   4.967
    1XTA    CO849715  26.489   6.629   2.930
    1XTA    CO949716  26.590   6.465   3.105
    1XTA    OA649717  26.606   6.365   3.007
    1XTA   HL4249718  26.574   6.702   2.949
    1XTA   HL4349719  26.533   6.552   2.858
    1XTA   HL4449720  26.429   6.669   5.044
    1XTA   HL4549721  26.291   6.824   5.019
    1XTA   CO1049722  26.389   6.799   5.068
    1XTA   CO1149723  26.414   7.037   5.003
    1XTA    OA749724  26.382   7.072   5.106
    1XTA   HL4649725  26.470   7.123   4.961
    1XTA   HL4749726  26.326   7.014   4.936
    1XTA   HL4849727  26.569   6.420   3.203
    1XTA   HL4949728  26.687   6.523   3.124
    1XTA     NT49729  30.049   0.521   4.285
    1XTA    CN149730  30.164   0.477   4.234
    1XTA     C149731  30.202   0.353   4.265
    1XTA     C249732  30.331   0.307   4.236
    1XTA     C349733  30.423   0.385   4.158
    1XTA     C449734  30.387   0.522   4.131
    1XTA     C549735  30.252   0.560   4.157
    1XTA    CN249736  29.952   0.546   4.196
    1XTA     C649737  29.890   0.677   4.181
    1XTA     C749738  29.789   0.699   4.094
    1XTA     C849739  29.742   0.597   4.009
    1XTA     C949740  29.812   0.471   4.010
    1XTA    C1049741  29.918   0.447   4.101
    1XTA    CN349742  30.030   0.526   4.419
    1XTA    C1149743  30.117   0.595   4.506
    1XTA    C1249744  30.095   0.610   4.643
    1XTA    C1349745  29.974   0.560   4.702
    1XTA    C1449746  29.886   0.498   4.613
    1XTA    C1549747  29.917   0.471   4.477
    1XTA     H149748  30.133   0.280   4.306
    1XTA     H249749  30.342   0.209   4.283
    1XTA     H349750  30.460   0.582   4.081
    1XTA     H449751  30.220   0.660   4.129
    1XTA     H549752  29.908   0.748   4.256
    1XTA     H649753  29.749   0.799   4.088
    1XTA     H749754  29.784   0.395   3.942
    1XTA     H849755  29.964   0.349   4.122
    1XTA     H949756  30.205   0.648   4.471
    1XTA    H1049757  30.164   0.676   4.701
    1XTA    H1149758  29.783   0.475   4.648
    1XTA    H1249759  29.862   0.407   4.412
    1XTA    OA149760  30.555   0.343   4.140
    1XTA    CO149761  30.590   0.213   4.186
    1XTA    OA249762  29.633   0.614   3.930
    1XTA    CO249763  29.521   0.686   3.974
    1XTA    CL149764  29.395   0.630   3.908
    1XTA    CL249765  29.377   0.476   3.938
    1XTA    CL349766  29.266   0.418   3.842
    1XTA    CL449767  29.227   0.271   3.884
    1XTA    CO349768  29.334   0.158   3.887
    1XTA    OA349769  29.278   0.038   3.851
    1XTA    CO449770  29.360  -0.076   3.832
    1XTA    CT149771  29.294  -0.210   3.830
    1XTA    CL549772  29.153  -0.202   3.896
    1XTA    CL649773  29.081  -0.334   3.911
    1XTA    OA449774  29.933   0.582   4.829
    1XTA    CO549775  30.004   0.675   4.914
    1XTA    CL749776  29.976   0.647   5.064
    1XTA    CL849777  29.935   0.503   5.101
    1XTA    CL949778  30.056   0.411   5.084
    1XTA   CL1049779  30.018   0.260   5.121
    1XTA    CO649780  30.114   0.147   5.079
    1XTA    OA549781  30.044   0.028   5.095
    1XTA    CO749782  30.099  -0.074   5.012
    1XTA    CT249783  30.002  -0.202   5.027
    1XTA   CL1149784  30.042  -0.324   4.942
    1XTA   CL1249785  30.146  -0.411   5.015
    1XTA    HL149786  30.558   0.203   4.290
    1XTA    HL249787  30.539   0.125   4.131
    1XTA    HL349788  30.698   0.207   4.182
    1XTA    HL449789  29.506   0.646   4.077
    1XTA    HL549790  29.530   0.792   3.977
    1XTA    HL649791  29.397   0.641   3.799
    1XTA    HL749792  29.307   0.683   3.944
    1XTA    HL849793  29.340   0.469   4.042
    1XTA    HL949794  29.470   0.426   3.917
    1XTA   HL1049795  29.184   0.482   3.851
    1XTA   HL1149796  29.285   0.411   3.733
    1XTA   HL1249797  29.157   0.243   3.804
    1XTA   HL1349798  29.174   0.278   3.977
    1XTA   HL1449799  29.406   0.182   3.813
    1XTA   HL1549800  29.392   0.157   3.984
    1XTA   HL1649801  29.432  -0.047   3.747
    1XTA   HL1749802  29.423  -0.074   3.920
    1XTA   HL1849803  29.088  -0.137   3.843
    1XTA   HL1949804  29.154  -0.158   3.989
    1XTA   HL2049805  29.071  -0.377   3.812
    1XTA   HL2149806  28.988  -0.334   3.960
    1XTA   HL2249807  29.136  -0.403   3.968
    1XTA   HL2349808  29.987   0.777   4.882
    1XTA   HL2449809  30.112   0.639   4.903
    1XTA   HL2549810  30.063   0.665   5.126
    1XTA   HL2649811  29.892   0.700   5.100
    1XTA   HL2749812  29.907   0.493   5.205
    1XTA   HL2849813  29.852   0.485   5.032
    1XTA   HL2949814  30.098   0.425   4.982
    1XTA   HL3049815  30.136   0.452   5.159
    1XTA   HL3149816  29.993   0.265   5.228
    1XTA   HL3249817  29.929   0.240   5.060
    1XTA   HL3349818  30.138   0.150   4.974
    1XTA   HL3449819  30.204   0.153   5.138
    1XTA   HL3549820  30.201  -0.083   5.043
    1XTA   HL3649821  30.101  -0.036   4.910
    1XTA   HL3749822  30.068  -0.292   4.840
    1XTA   HL3849823  29.959  -0.382   4.925
    1XTA   HL3949824  30.235  -0.363   5.065
    1XTA   HL4049825  30.193  -0.475   4.940
    1XTA   HL4149826  30.097  -0.474   5.091
    1XTA    CO849827  29.369  -0.333   3.885
    1XTA    CO949828  29.282  -0.248   3.682
    1XTA    OA649829  29.413  -0.260   3.634
    1XTA   HL4249830  29.318  -0.421   3.846
    1XTA   HL4349831  29.468  -0.328   3.849
    1XTA   HL4449832  29.794  -0.232   4.963
    1XTA   HL4549833  29.814  -0.067   5.024
    1XTA   CO1049834  29.862  -0.152   4.976
    1XTA   CO1149835  29.974  -0.247   5.176
    1XTA    OA749836  29.874  -0.104   4.837
    1XTA   HL4649837  29.894  -0.325   5.164
    1XTA   HL4749838  29.924  -0.159   5.217
    1XTA   HL4849839  29.232  -0.172   3.628
    1XTA   HL4949840  29.229  -0.345   3.673
    1XTA     NT49841  31.970   6.428   4.704
    1XTA    CN149842  31.855   6.486   4.675
    1XTA     C149843  31.742   6.405   4.651
    1XTA     C249844  31.621   6.463   4.620
    1XTA     C349845  31.602   6.604   4.613
    1XTA     C449846  31.714   6.681   4.641
    1XTA     C549847  31.839   6.623   4.678
    1XTA    CN249848  31.986   6.353   4.812
    1XTA     C649849  32.008   6.217   4.794
    1XTA     C749850  32.040   6.142   4.910
    1XTA     C849851  32.042   6.202   5.038
    1XTA     C949852  32.008   6.339   5.058
    1XTA    C1049853  31.983   6.410   4.942
    1XTA    CN349854  32.078   6.465   4.631
    1XTA    C1149855  32.181   6.532   4.686
    1XTA    C1249856  32.290   6.571   4.607
    1XTA    C1349857  32.299   6.530   4.474
    1XTA    C1449858  32.195   6.459   4.415
    1XTA    C1549859  32.078   6.431   4.492
    1XTA     H149860  31.758   6.297   4.646
    1XTA     H249861  31.536   6.398   4.600
    1XTA     H349862  31.713   6.790   4.645
    1XTA     H449863  31.918   6.688   4.716
    1XTA     H549864  32.004   6.166   4.701
    1XTA     H649865  32.073   6.042   4.894
    1XTA     H749866  31.995   6.385   5.155
    1XTA     H849867  31.954   6.513   4.945
    1XTA     H949868  32.173   6.576   4.784
    1XTA    H1049869  32.369   6.625   4.649
    1XTA    H1149870  32.193   6.444   4.304
    1XTA    H1249871  32.002   6.367   4.455
    1XTA    OA149872  31.482   6.660   4.578
    1XTA    CO149873  31.384   6.581   4.512
    1XTA    OA249874  32.075   6.137   5.152
    1XTA    CO249875  32.077   5.993   5.158
    1XTA    CL149876  32.145   5.939   5.283
    1XTA    CL249877  32.297   5.968   5.264
    1XTA    CL349878  32.336   6.117   5.243
    1XTA    CL449879  32.486   6.141   5.246
    1XTA    CO349880  32.535   6.289   5.261
    1XTA    OA349881  32.668   6.306   5.300
    1XTA    CO449882  32.699   6.248   5.425
    1XTA    CT149883  32.811   6.324   5.494
    1XTA    CL549884  32.789   6.479   5.479
    1XTA    CL649885  32.677   6.541   5.559
    1XTA    OA449886  32.411   6.557   4.396
    1XTA    CO549887  32.518   6.638   4.451
    1XTA    CL749888  32.601   6.698   4.340
    1XTA    CL849889  32.530   6.807   4.258
    1XTA    CL949890  32.617   6.884   4.166
    1XTA   CL1049891  32.537   6.944   4.047
    1XTA    CO649892  32.639   7.008   3.953
    1XTA    OA549893  32.729   6.920   3.893
    1XTA    CO749894  32.685   6.850   3.770
    1XTA    CT249895  32.780   6.727   3.747
    1XTA   CL1149896  32.918   6.772   3.692
    1XTA   CL1249897  32.907   6.873   3.581
    1XTA    HL149898  31.298   6.643   4.472
    1XTA    HL249899  31.434   6.530   4.426
    1XTA    HL349900  31.339   6.506   4.572
    1XTA    HL449901  31.979   5.949   5.142
    1XTA    HL549902  32.130   5.958   5.065
    1XTA    HL649903  32.126   5.832   5.286
    1XTA    HL749904  32.113   5.985   5.373
    1XTA    HL849905  32.334   5.907   5.184
    1XTA    HL949906  32.338   5.932   5.354
    1XTA   HL1049907  32.287   6.159   5.155
    1XTA   HL1149908  32.281   6.158   5.330
    1XTA   HL1249909  32.537   6.094   5.158
    1XTA   HL1349910  32.516   6.085   5.334
    1XTA   HL1449911  32.524   6.347   5.168
    1XTA   HL1549912  32.479   6.345   5.330
    1XTA   HL1649913  32.615   6.277   5.486
    1XTA   HL1749914  32.710   6.139   5.427
    1XTA   HL1849915  32.782   6.495   5.366
    1XTA   HL1949916  32.877   6.533   5.512
    1XTA   HL2049917  32.680   6.514   5.674
    1XTA   HL2149918  32.572   6.515   5.537
    1XTA   HL2249919  32.666   6.655   5.568
    1XTA   HL2349920  32.575   6.572   4.514
    1XTA   HL2449921  32.480   6.705   4.520
    1XTA   HL2549922  32.682   6.743   4.386
    1XTA   HL2649923  32.643   6.623   4.271
    1XTA   HL2749924  32.458   6.754   4.196
    1XTA   HL2849925  32.468   6.868   4.321
    1XTA   HL2949926  32.670   6.963   4.227
    1XTA   HL3049927  32.692   6.817   4.125
    1XTA   HL3149928  32.479   6.869   3.996
    1XTA   HL3249929  32.466   7.023   4.083
    1XTA   HL3349930  32.580   7.069   3.879
    1XTA   HL3449931  32.699   7.086   4.006
    1XTA   HL3549932  32.659   6.922   3.690
    1XTA   HL3649933  32.597   6.810   3.797
    1XTA   HL3749934  32.977   6.685   3.660
    1XTA   HL3849935  32.964   6.825   3.771
    1XTA   HL3949936  33.009   6.906   3.556
    1XTA   HL4049937  32.858   6.963   3.596
    1XTA   HL4149938  32.862   6.827   3.492
    1XTA    CO849939  32.950   6.278   5.431
    1XTA    CO949940  32.815   6.280   5.639
    1XTA    OA649941  32.712   6.269   5.675
    1XTA   HL4249942  33.023   6.273   5.509
    1XTA   HL4349943  32.937   6.161   5.365
    1XTA   HL4449944  32.758   6.531   3.638
    1XTA   HL4549945  32.608   6.596   3.701
    1XTA   CO1049946  32.702   6.627   3.654
    1XTA   CO1149947  32.800   6.651   3.886
    1XTA    OA749948  32.681   6.676   3.561
    1XTA   HL4649949  32.691   6.664   3.982
    1XTA   HL4749950  32.881   6.706   3.941
    1XTA   HL4849951  32.864   6.357   5.701
    1XTA   HL4949952  32.873   6.190   5.653
    1XTA     NT49953  31.189   4.031   2.230
    1XTA    CN149954  31.083   3.962   2.278
    1XTA     C149955  31.069   3.956   2.420
    1XTA     C249956  30.974   3.872   2.479
    1XTA     C349957  30.892   3.791   2.399
    1XTA     C449958  30.902   3.805   2.257
    1XTA     C549959  31.000   3.881   2.195
    1XTA    CN249960  31.179   4.155   2.183
    1XTA     C649961  31.139   4.185   2.052
    1XTA     C749962  31.136   4.319   2.012
    1XTA     C849963  31.178   4.425   2.097
    1XTA     C949964  31.217   4.391   2.231
    1XTA    C1049965  31.222   4.257   2.266
    1XTA    CN349966  31.311   3.968   2.230
    1XTA    C1149967  31.398   3.973   2.341
    1XTA    C1249968  31.528   3.927   2.346
    1XTA    C1349969  31.574   3.864   2.229
    1XTA    C1449970  31.498   3.864   2.113
    1XTA    C1549971  31.368   3.911   2.119
    1XTA     H149972  31.136   4.011   2.482
    1XTA     H249973  30.970   3.878   2.584
    1XTA     H349974  30.855   3.738   2.193
    1XTA     H449975  31.012   3.880   2.089
    1XTA     H549976  31.124   4.103   1.983
    1XTA     H649977  31.116   4.343   1.905
    1XTA     H749978  31.250   4.473   2.301
    1XTA     H849979  31.263   4.230   2.364
    1XTA     H949980  31.365   4.035   2.426
    1XTA    H1049981  31.586   3.931   2.434
    1XTA    H1149982  31.547   3.824   2.021
    1XTA    H1249983  31.312   3.910   2.031
    1XTA    OA149984  30.798   3.711   2.462
    1XTA    CO149985  30.696   3.661   2.376
    1XTA    OA249986  31.179   4.550   2.052
    1XTA    CO249987  31.185   4.657   2.142
    1XTA    CL149988  31.201   4.795   2.085
    1XTA    CL249989  31.239   4.894   2.193
    1XTA    CL349990  31.377   4.856   2.261
    1XTA    CL449991  31.480   4.819   2.159
    1XTA    CO349992  31.617   4.805   2.235
    1XTA    OA349993  31.639   4.685   2.302
    1XTA    CO449994  31.638   4.575   2.211
    1XTA    CT149995  31.688   4.444   2.283
    1XTA    CL549996  31.598   4.429   2.409
    1XTA    CL649997  31.618   4.298   2.478
    1XTA    OA449998  31.704   3.813   2.232
    1XTA    CO549999  31.784   3.806   2.116
    1XTA    CL750000  31.927   3.762   2.166
    1XTA    CL850001  32.038   3.745   2.055
    1XTA    CL950002  32.136   3.862   2.050
    1XTA   CL1050003  32.242   3.854   1.947
    1XTA    CO650004  32.184   3.899   1.820
    1XTA    OA550005  32.114   3.781   1.772
    1XTA    CO750006  32.191   3.679   1.708
    1XTA    CT250007  32.109   3.606   1.603
    1XTA   CL1150008  32.203   3.495   1.555
    1XTA   CL1250009  32.333   3.536   1.488
    1XTA    HL150010  30.637   3.731   2.323
    1XTA    HL250011  30.729   3.602   2.294
    1XTA    HL350012  30.639   3.600   2.438
    1XTA    HL450013  31.090   4.649   2.196
    1XTA    HL550014  31.261   4.643   2.221
    1XTA    HL650015  31.107   4.828   2.031
    1XTA    HL750016  31.280   4.800   2.005
    1XTA    HL850017  31.163   4.887   2.270
    1XTA    HL950018  31.242   5.000   2.161
    1XTA   HL1050019  31.416   4.949   2.294
    1XTA   HL1150020  31.376   4.779   2.340
    1XTA   HL1250021  31.491   4.906   2.092
    1XTA   HL1350022  31.449   4.727   2.107
    1XTA   HL1450023  31.688   4.813   2.144
    1XTA   HL1550024  31.644   4.887   2.301
    1XTA   HL1650025  31.540   4.564   2.158
    1XTA   HL1750026  31.691   4.609   2.125
    1XTA   HL1850027  31.493   4.434   2.382
    1XTA   HL1950028  31.622   4.517   2.471
    1XTA   HL2050029  31.563   4.278   2.563
    1XTA   HL2150030  31.720   4.278   2.511
    1XTA   HL2250031  31.585   4.219   2.415
    1XTA   HL2350032  31.797   3.903   2.067
    1XTA   HL2450033  31.740   3.733   2.041
    1XTA   HL2550034  31.955   3.835   2.241
    1XTA   HL2650035  31.909   3.662   2.214
    1XTA   HL2750036  32.094   3.652   2.073
    1XTA   HL2850037  31.987   3.734   1.951
    1XTA   HL2950038  32.085   3.953   2.043
    1XTA   HL3050039  32.188   3.857   2.144
    1XTA   HL3150040  32.312   3.922   1.987
    1XTA   HL3250041  32.290   3.760   1.939
    1XTA   HL3350042  32.116   3.983   1.836
    1XTA   HL3450043  32.270   3.943   1.761
    1XTA   HL3550044  32.236   3.615   1.783
    1XTA   HL3650045  32.266   3.732   1.654
    1XTA   HL3750046  32.149   3.424   1.499
    1XTA   HL3850047  32.227   3.449   1.647
    1XTA   HL3950048  32.308   3.568   1.393
    1XTA   HL4050049  32.402   3.453   1.480
    1XTA   HL4150050  32.385   3.618   1.539
    1XTA    CO850051  31.829   4.467   2.325
    1XTA    CO950052  31.678   4.320   2.189
    1XTA    OA650053  31.702   4.345   2.085
    1XTA   HL4250054  31.831   4.536   2.406
    1XTA   HL4350055  31.861   4.343   2.381
    1XTA   HL4450056  31.994   3.626   1.414
    1XTA   HL4550057  31.983   3.761   1.531
    1XTA   CO1050058  32.052   3.689   1.483
    1XTA   CO1150059  31.991   3.534   1.680
    1XTA    OA750060  32.128   3.739   1.425
    1XTA   HL4650061  31.908   3.626   1.753
    1XTA   HL4750062  32.036   3.478   1.763
    1XTA   HL4850063  31.574   4.274   2.181
    1XTA   HL4950064  31.753   4.248   2.225
    1XTA     NT50065  33.164   5.793   7.381
    1XTA    CN150066  33.171   5.698   7.483
    1XTA     C150067  33.114   5.724   7.611
    1XTA     C250068  33.108   5.623   7.714
    1XTA     C350069  33.155   5.493   7.687
    1XTA     C450070  33.223   5.471   7.562
    1XTA     C550071  33.230   5.571   7.461
    1XTA    CN250072  33.055   5.870   7.348
    1XTA     C650073  33.074   6.009   7.350
    1XTA     C750074  32.968   6.093   7.321
    1XTA     C850075  32.840   6.036   7.291
    1XTA     C950076  32.826   5.895   7.287
    1XTA    C1050077  32.935   5.813   7.306
    1XTA    CN350078  33.260   5.782   7.288
    1XTA    C1150079  33.392   5.819   7.325
    1XTA    C1250080  33.492   5.806   7.220
    1XTA    C1350081  33.461   5.750   7.091
    1XTA    C1450082  33.327   5.719   7.056
    1XTA    C1550083  33.227   5.742   7.157
    1XTA     H150084  33.078   5.830   7.620
    1XTA     H250085  33.068   5.632   7.812
    1XTA     H350086  33.264   5.374   7.530
    1XTA     H450087  33.273   5.545   7.369
    1XTA     H550088  33.175   6.034   7.378
    1XTA     H650089  32.990   6.201   7.307
    1XTA     H750090  32.729   5.852   7.259
    1XTA     H850091  32.915   5.705   7.307
    1XTA     H950092  33.410   5.858   7.425
    1XTA    H1050093  33.593   5.833   7.243
    1XTA    H1150094  33.302   5.674   6.955
    1XTA    H1250095  33.127   5.715   7.137
    1XTA    OA150096  33.143   5.401   7.787
    1XTA    CO150097  33.171   5.269   7.743
    1XTA    OA250098  32.737   6.124   7.267
    1XTA    CO250099  32.606   6.075   7.281
    1XTA    CL150100  32.552   6.006   7.156
    1XTA    CL250101  32.426   5.928   7.177
    1XTA    CL350102  32.458   5.796   7.251
    1XTA    CL450103  32.527   5.692   7.159
    1XTA    CO350104  32.607   5.588   7.241
    1XTA    OA350105  32.517   5.506   7.316
    1XTA    CO450106  32.580   5.430   7.423
    1XTA    CT150107  32.472   5.377   7.517
    1XTA    CL550108  32.346   5.479   7.538
    1XTA    CL650109  32.390   5.606   7.616
    1XTA    OA450110  33.555   5.732   6.989
    1XTA    CO550111  33.683   5.794   7.005
    1XTA    CL750112  33.749   5.803   6.868
    1XTA    CL850113  33.764   5.679   6.780
    1XTA    CL950114  33.774   5.703   6.631
    1XTA   CL1050115  33.785   5.584   6.526
    1XTA    CO650116  33.892   5.479   6.550
    1XTA    OA550117  33.881   5.349   6.494
    1XTA    CO750118  33.903   5.364   6.352
    1XTA    CT250119  33.905   5.232   6.279
    1XTA   CL1150120  33.780   5.147   6.301
    1XTA   CL1250121  33.664   5.194   6.215
    1XTA    HL150122  33.114   5.201   7.808
    1XTA    HL250123  33.167   5.244   7.633
    1XTA    HL350124  33.273   5.243   7.776
    1XTA    HL450125  32.593   6.000   7.358
    1XTA    HL550126  32.553   6.164   7.312
    1XTA    HL650127  32.632   5.950   7.112
    1XTA    HL750128  32.526   6.081   7.078
    1XTA    HL850129  32.381   5.906   7.078
    1XTA    HL950130  32.353   5.986   7.243
    1XTA   HL1050131  32.509   5.816   7.340
    1XTA   HL1150132  32.363   5.745   7.282
    1XTA   HL1250133  32.595   5.742   7.092
    1XTA   HL1350134  32.445   5.654   7.098
    1XTA   HL1450135  32.658   5.517   7.170
    1XTA   HL1550136  32.684   5.628   7.308
    1XTA   HL1650137  32.638   5.355   7.371
    1XTA   HL1750138  32.650   5.487   7.475
    1XTA   HL1850139  32.260   5.428   7.582
    1XTA   HL1950140  32.312   5.503   7.440
    1XTA   HL2050141  32.292   5.650   7.647
    1XTA   HL2150142  32.448   5.682   7.558
    1XTA   HL2250143  32.445   5.584   7.711
    1XTA   HL2350144  33.737   5.729   7.078
    1XTA   HL2450145  33.664   5.892   7.042
    1XTA   HL2550146  33.683   5.865   6.808
    1XTA   HL2650147  33.839   5.859   6.865
    1XTA   HL2750148  33.850   5.628   6.816
    1XTA   HL2850149  33.670   5.623   6.794
    1XTA   HL2950150  33.689   5.766   6.610
    1XTA   HL3050151  33.858   5.760   6.607
    1XTA   HL3150152  33.689   5.533   6.527
    1XTA   HL3250153  33.794   5.610   6.416
    1XTA   HL3350154  33.995   5.513   6.542
    1XTA   HL3450155  33.881   5.455   6.657
    1XTA   HL3550156  33.976   5.439   6.318
    1XTA   HL3650157  33.808   5.406   6.316
    1XTA   HL3750158  33.752   5.147   6.405
    1XTA   HL3850159  33.801   5.039   6.283
    1XTA   HL3950160  33.578   5.126   6.241
    1XTA   HL4050161  33.686   5.177   6.112
    1XTA   HL4150162  33.633   5.295   6.235
    1XTA    CO850163  32.516   5.334   7.662
    1XTA    CO950164  32.411   5.254   7.445
    1XTA    OA650165  32.411   5.289   7.741
    1XTA   HL4250166  32.575   5.413   7.717
    1XTA   HL4350167  32.575   5.244   7.658
    1XTA   HL4450168  34.015   5.141   6.435
    1XTA   HL4550169  34.051   5.073   6.280
    1XTA   CO1050170  34.030   5.169   6.329
    1XTA   CO1150171  33.939   5.255   6.134
    1XTA    OA750172  34.154   5.239   6.313
    1XTA   HL4650173  33.936   5.158   6.089
    1XTA   HL4750174  34.044   5.302   6.120
    1XTA   HL4850175  32.350   5.201   7.516
    1XTA   HL4950176  32.504   5.190   7.445
    1XTA     NT50177  33.786   5.680  -0.580
    1XTA    CN150178  33.784   5.751  -0.696
    1XTA     C150179  33.844   5.700  -0.809
    1XTA     C250180  33.850   5.778  -0.923
    1XTA     C350181  33.787   5.910  -0.918
    1XTA     C450182  33.733   5.968  -0.801
    1XTA     C550183  33.737   5.884  -0.686
    1XTA    CN250184  33.892   5.695  -0.503
    1XTA     C650185  34.010   5.624  -0.534
    1XTA     C750186  34.127   5.641  -0.459
    1XTA     C850187  34.134   5.731  -0.352
    1XTA     C950188  34.017   5.798  -0.313
    1XTA    C1050189  33.899   5.781  -0.388
    1XTA    CN350190  33.689   5.601  -0.541
    1XTA    C1150191  33.711   5.465  -0.543
    1XTA    C1250192  33.623   5.373  -0.482
    1XTA    C1350193  33.514   5.431  -0.414
    1XTA    C1450194  33.492   5.570  -0.418
    1XTA    C1550195  33.578   5.655  -0.486
    1XTA     H150196  33.885   5.598  -0.802
    1XTA     H250197  33.896   5.746  -1.016
    1XTA     H350198  33.690   6.072  -0.798
    1XTA     H450199  33.693   5.922  -0.592
    1XTA     H550200  34.024   5.556  -0.622
    1XTA     H650201  34.214   5.589  -0.483
    1XTA     H750202  34.016   5.867  -0.240
    1XTA     H850203  33.814   5.844  -0.365
    1XTA     H950204  33.803   5.433  -0.592
    1XTA    H1050205  33.634   5.265  -0.479
    1XTA    H1150206  33.403   5.612  -0.366
    1XTA    H1250207  33.563   5.761  -0.502
    1XTA    OA150208  33.774   5.971  -1.042
    1XTA    CO150209  33.714   6.102  -1.047
    1XTA    OA250210  34.258   5.746  -0.290
    1XTA    CO250211  34.254   5.763  -0.147
    1XTA    CL150212  34.378   5.840  -0.096
    1XTA    CL250213  34.383   5.980  -0.167
    1XTA    CL350214  34.254   6.063  -0.144
    1XTA    CL450215  34.237   6.114   0.002
    1XTA    CO350216  34.124   6.230   0.025
    1XTA    OA350217  33.991   6.176   0.054
    1XTA    CO450218  33.991   6.100   0.176
    1XTA    CT150219  33.847   6.054   0.214
    1XTA    CL550220  33.769   5.983   0.102
    1XTA    CL650221  33.848   5.891   0.007
    1XTA    OA450222  33.413   5.362  -0.350
    1XTA    CO550223  33.434   5.231  -0.301
    1XTA    CL750224  33.304   5.171  -0.250
    1XTA    CL850225  33.241   5.280  -0.155
    1XTA    CL950226  33.109   5.223  -0.102
    1XTA   CL1050227  33.006   5.194  -0.209
    1XTA    CO650228  32.930   5.318  -0.268
    1XTA    OA550229  32.856   5.389  -0.170
    1XTA    CO750230  32.726   5.337  -0.158
    1XTA    CT250231  32.629   5.428  -0.082
    1XTA   CL1150232  32.699   5.476   0.046
    1XTA   CL1250233  32.733   5.371   0.147
    1XTA    HL150234  33.767   6.182  -0.992
    1XTA    HL250235  33.700   6.135  -1.146
    1XTA    HL350236  33.615   6.090  -1.011
    1XTA    HL450237  34.169   5.821  -0.110
    1XTA    HL550238  34.244   5.660  -0.104
    1XTA    HL650239  34.469   5.783  -0.119
    1XTA    HL750240  34.373   5.847   0.012
    1XTA    HL850241  34.374   5.953  -0.275
    1XTA    HL950242  34.481   6.032  -0.142
    1XTA   HL1050243  34.255   6.150  -0.204
    1XTA   HL1150244  34.164   6.022  -0.186
    1XTA   HL1250245  34.328   6.168   0.027
    1XTA   HL1350246  34.235   6.033   0.079
    1XTA   HL1450247  34.144   6.305   0.103
    1XTA   HL1550248  34.129   6.290  -0.066
    1XTA   HL1650249  34.047   6.008   0.172
    1XTA   HL1750250  34.034   6.159   0.253
    1XTA   HL1850251  33.716   6.050   0.039
    1XTA   HL1950252  33.685   5.936   0.154
    1XTA   HL2050253  33.794   5.873  -0.092
    1XTA   HL2150254  33.869   5.794   0.054
    1XTA   HL2250255  33.941   5.941  -0.014
    1XTA   HL2350256  33.500   5.237  -0.211
    1XTA   HL2450257  33.477   5.164  -0.377
    1XTA   HL2550258  33.232   5.151  -0.337
    1XTA   HL2650259  33.322   5.083  -0.191
    1XTA   HL2750260  33.305   5.309  -0.071
    1XTA   HL2850261  33.220   5.368  -0.204
    1XTA   HL2950262  33.127   5.126  -0.048
    1XTA   HL3050263  33.068   5.298  -0.036
    1XTA   HL3150264  33.039   5.140  -0.297
    1XTA   HL3250265  32.933   5.129  -0.160
    1XTA   HL3350266  33.010   5.380  -0.314
    1XTA   HL3450267  32.870   5.278  -0.354
    1XTA   HL3550268  32.733   5.247  -0.101
    1XTA   HL3650269  32.691   5.301  -0.253
    1XTA   HL3750270  32.636   5.550   0.100
    1XTA   HL3850271  32.787   5.537   0.017
    1XTA   HL3950272  32.807   5.406   0.226
    1XTA   HL4050273  32.789   5.281   0.098
    1XTA   HL4150274  32.654   5.328   0.207
    1XTA    CO850275  33.764   6.174   0.274
    1XTA    CO950276  33.865   5.958   0.341
    1XTA    OA650277  33.823   6.236   0.345
    1XTA   HL4250278  33.673   6.141   0.321
    1XTA   HL4350279  33.730   6.248   0.196
    1XTA   HL4450280  32.420   5.402   0.040
    1XTA   HL4550281  32.534   5.259  -0.028
    1XTA   CO1050282  32.500   5.353  -0.063
    1XTA   CO1150283  32.589   5.554  -0.169
    1XTA    OA750284  32.561   5.639  -0.108
    1XTA   HL4650285  32.684   5.579  -0.224
    1XTA   HL4750286  32.504   5.538  -0.239
    1XTA   HL4850287  33.957   6.025   0.424
    1XTA   HL4950288  33.776   5.955   0.401
    1XTA     NT50289  28.864  -2.117   1.814
    1XTA    CN150290  28.809  -2.237   1.840
    1XTA     C150291  28.786  -2.279   1.968
    1XTA     C250292  28.717  -2.395   2.003
    1XTA     C350293  28.672  -2.480   1.904
    1XTA     C450294  28.690  -2.440   1.768
    1XTA     C550295  28.753  -2.319   1.738
    1XTA    CN250296  28.807  -2.006   1.875
    1XTA     C650297  28.896  -1.916   1.942
    1XTA     C750298  28.842  -1.796   1.982
    1XTA     C850299  28.706  -1.759   1.971
    1XTA     C950300  28.621  -1.852   1.903
    1XTA    C1050301  28.670  -1.978   1.862
    1XTA    CN350302  28.956  -2.104   1.719
    1XTA    C1150303  28.919  -2.096   1.583
    1XTA    C1250304  29.019  -2.052   1.488
    1XTA    C1350305  29.157  -2.049   1.526
    1XTA    C1450306  29.194  -2.086   1.658
    1XTA    C1550307  29.091  -2.103   1.752
    1XTA     H150308  28.824  -2.217   2.046
    1XTA     H250309  28.688  -2.409   2.107
    1XTA     H350310  28.652  -2.494   1.687
    1XTA     H450311  28.753  -2.301   1.626
    1XTA     H550312  29.002  -1.938   1.955
    1XTA     H650313  28.906  -1.731   2.030
    1XTA     H750314  28.515  -1.830   1.902
    1XTA     H850315  28.595  -2.043   1.809
    1XTA     H950316  28.821  -2.091   1.537
    1XTA    H1050317  28.987  -2.013   1.392
    1XTA    H1150318  29.297  -2.070   1.688
    1XTA    H1250319  29.124  -2.101   1.854
    1XTA    OA150320  28.605  -2.597   1.936
    1XTA    CO150321  28.586  -2.695   1.838
    1XTA    OA250322  28.641  -1.649   2.020
    1XTA    CO250323  28.728  -1.551   2.074
    1XTA    CL150324  28.625  -1.448   2.138
    1XTA    CL250325  28.688  -1.328   2.214
    1XTA    CL350326  28.577  -1.248   2.283
    1XTA    CL450327  28.635  -1.139   2.376
    1XTA    CO350328  28.512  -1.074   2.445
    1XTA    OA350329  28.456  -1.161   2.540
    1XTA    CO450330  28.332  -1.230   2.506
    1XTA    CT150331  28.305  -1.335   2.611
    1XTA    CL550332  28.295  -1.270   2.755
    1XTA    CL650333  28.189  -1.160   2.770
    1XTA    OA450334  29.263  -2.023   1.443
    1XTA    CO550335  29.243  -1.976   1.319
    1XTA    CL750336  29.377  -1.958   1.248
    1XTA    CL850337  29.377  -1.901   1.103
    1XTA    CL950338  29.294  -1.770   1.091
    1XTA   CL1050339  29.302  -1.719   0.956
    1XTA    CO650340  29.214  -1.790   0.858
    1XTA    OA550341  29.189  -1.732   0.731
    1XTA    CO750342  29.086  -1.805   0.666
    1XTA    CT250343  29.038  -1.732   0.540
    1XTA   CL1150344  28.964  -1.610   0.586
    1XTA   CL1250345  28.826  -1.614   0.663
    1XTA    HL150346  28.680  -2.723   1.789
    1XTA    HL250347  28.549  -2.786   1.888
    1XTA    HL350348  28.510  -2.661   1.768
    1XTA    HL450349  28.809  -1.584   2.132
    1XTA    HL550350  28.785  -1.501   1.995
    1XTA    HL650351  28.557  -1.506   2.201
    1XTA    HL750352  28.551  -1.412   2.064
    1XTA    HL850353  28.740  -1.283   2.134
    1XTA    HL950354  28.761  -1.358   2.287
    1XTA   HL1050355  28.520  -1.199   2.201
    1XTA   HL1150356  28.510  -1.316   2.331
    1XTA   HL1250357  28.691  -1.058   2.334
    1XTA   HL1350358  28.707  -1.183   2.442
    1XTA   HL1450359  28.539  -0.987   2.504
    1XTA   HL1550360  28.439  -1.044   2.369
    1XTA   HL1650361  28.265  -1.151   2.522
    1XTA   HL1750362  28.321  -1.256   2.396
    1XTA   HL1850363  28.387  -1.227   2.777
    1XTA   HL1950364  28.279  -1.344   2.832
    1XTA   HL2050365  28.171  -1.118   2.873
    1XTA   HL2150366  28.089  -1.201   2.752
    1XTA   HL2250367  28.192  -1.077   2.688
    1XTA   HL2350368  29.203  -1.873   1.325
    1XTA   HL2450369  29.179  -2.041   1.263
    1XTA   HL2550370  29.442  -1.894   1.316
    1XTA   HL2650371  29.419  -2.054   1.240
    1XTA   HL2750372  29.473  -1.864   1.088
    1XTA   HL2850373  29.358  -1.978   1.020
    1XTA   HL2950374  29.185  -1.786   1.113
    1XTA   HL3050375  29.337  -1.690   1.153
    1XTA   HL3150376  29.267  -1.611   0.955
    1XTA   HL3250377  29.402  -1.712   0.913
    1XTA   HL3350378  29.257  -1.884   0.825
    1XTA   HL3450379  29.128  -1.812   0.914
    1XTA   HL3550380  28.993  -1.826   0.719
    1XTA   HL3650381  29.116  -1.903   0.639
    1XTA   HL3750382  28.939  -1.559   0.491
    1XTA   HL3850383  29.026  -1.541   0.636
    1XTA   HL3950384  28.827  -1.677   0.744
    1XTA   HL4050385  28.748  -1.643   0.602
    1XTA   HL4150386  28.801  -1.515   0.701
    1XTA    CO850387  28.415  -1.453   2.601
    1XTA    CO950388  28.181  -1.411   2.571
    1XTA    OA650389  28.472  -1.472   2.696
    1XTA   HL4250390  28.486  -1.437   2.522
    1XTA   HL4350391  28.375  -1.552   2.582
    1XTA   HL4450392  28.839  -1.827   0.526
    1XTA   HL4550393  28.988  -1.945   0.438
    1XTA   CO1050394  28.931  -1.817   0.468
    1XTA   CO1150395  29.159  -1.700   0.453
    1XTA    OA750396  29.204  -1.804   0.427
    1XTA   HL4650397  29.132  -1.636   0.374
    1XTA   HL4750398  29.225  -1.650   0.527
    1XTA   HL4850399  28.181  -1.464   2.441
    1XTA   HL4950400  28.093  -1.346   2.570
    1XTA     NT50401  25.998  -3.005   2.575
    1XTA    CN150402  26.064  -2.945   2.475
    1XTA     C150403  26.202  -2.905   2.490
    1XTA     C250404  26.266  -2.845   2.379
    1XTA     C350405  26.202  -2.820   2.257
    1XTA     C450406  26.065  -2.845   2.252
    1XTA     C550407  25.996  -2.920   2.350
    1XTA    CN250408  26.020  -2.966   2.702
    1XTA     C650409  25.947  -2.855   2.739
    1XTA     C750410  25.967  -2.795   2.864
    1XTA     C850411  26.061  -2.854   2.959
    1XTA     C950412  26.123  -2.974   2.924
    1XTA    C1050413  26.105  -3.031   2.795
    1XTA    CN350414  25.962  -3.138   2.553
    1XTA    C1150415  26.059  -3.235   2.512
    1XTA    C1250416  26.018  -3.368   2.490
    1XTA    C1350417  25.881  -3.411   2.516
    1XTA    C1450418  25.789  -3.307   2.543
    1XTA    C1550419  25.823  -3.171   2.553
    1XTA     H150420  26.259  -2.928   2.582
    1XTA     H250421  26.371  -2.824   2.393
    1XTA     H350422  26.002  -2.823   2.161
    1XTA     H450423  25.898  -2.953   2.339
    1XTA     H550424  25.872  -2.812   2.672
    1XTA     H650425  25.905  -2.715   2.903
    1XTA     H750426  26.191  -3.006   2.993
    1XTA     H850427  26.152  -3.120   2.766
    1XTA     H950428  26.161  -3.198   2.502
    1XTA    H1050429  26.096  -3.438   2.473
    1XTA    H1150430  25.688  -3.342   2.564
    1XTA    H1250431  25.740  -3.111   2.580
    1XTA    OA150432  26.273  -2.760   2.154
    1XTA    CO150433  26.200  -2.716   2.035
    1XTA    OA250434  26.070  -2.809   3.092
    1XTA    CO250435  26.055  -2.668   3.109
    1XTA    CL150436  26.183  -2.592   3.065
    1XTA    CL250437  26.181  -2.539   2.921
    1XTA    CL350438  26.321  -2.500   2.865
    1XTA    CL450439  26.379  -2.372   2.925
    1XTA    CO350440  26.531  -2.350   2.880
    1XTA    OA350441  26.584  -2.223   2.918
    1XTA    CO450442  26.712  -2.192   2.870
    1XTA    CT150443  26.789  -2.068   2.913
    1XTA    CL550444  26.840  -2.073   3.057
    1XTA    CL650445  26.937  -2.182   3.088
    1XTA    OA450446  25.841  -3.540   2.516
    1XTA    CO550447  25.940  -3.634   2.541
    1XTA    CL750448  25.867  -3.766   2.586
    1XTA    CL850449  25.746  -3.741   2.668
    1XTA    CL950450  25.697  -3.874   2.726
    1XTA   CL1050451  25.558  -3.873   2.809
    1XTA    CO650452  25.526  -4.018   2.856
    1XTA    OA550453  25.629  -4.071   2.942
    1XTA    CO750454  25.633  -4.022   3.076
    1XTA    CT250455  25.777  -4.042   3.122
    1XTA   CL1150456  25.872  -3.932   3.065
    1XTA   CL1250457  25.845  -3.790   3.102
    1XTA    HL150458  26.132  -2.789   1.992
    1XTA    HL250459  26.144  -2.629   2.076
    1XTA    HL350460  26.273  -2.693   1.957
    1XTA    HL450461  25.966  -2.628   3.067
    1XTA    HL550462  26.042  -2.655   3.220
    1XTA    HL650463  26.263  -2.658   3.071
    1XTA    HL750464  26.207  -2.509   3.133
    1XTA    HL850465  26.105  -2.453   2.901
    1XTA    HL950466  26.142  -2.624   2.863
    1XTA   HL1050467  26.388  -2.583   2.874
    1XTA   HL1150468  26.306  -2.493   2.760
    1XTA   HL1250469  26.376  -2.373   3.029
    1XTA   HL1350470  26.326  -2.284   2.895
    1XTA   HL1450471  26.604  -2.424   2.912
    1XTA   HL1550472  26.532  -2.358   2.773
    1XTA   HL1650473  26.770  -2.275   2.906
    1XTA   HL1750474  26.708  -2.206   2.762
    1XTA   HL1850475  26.763  -2.090   3.132
    1XTA   HL1950476  26.887  -1.983   3.092
    1XTA   HL2050477  26.940  -2.204   3.197
    1XTA   HL2150478  27.036  -2.152   3.058
    1XTA   HL2250479  26.919  -2.281   3.053
    1XTA   HL2350480  25.999  -3.617   2.629
    1XTA   HL2450481  26.010  -3.652   2.454
    1XTA   HL2550482  25.851  -3.833   2.507
    1XTA   HL2650483  25.931  -3.829   2.649
    1XTA   HL2750484  25.759  -3.667   2.740
    1XTA   HL2850485  25.670  -3.693   2.604
    1XTA   HL2950486  25.690  -3.956   2.659
    1XTA   HL3050487  25.781  -3.914   2.785
    1XTA   HL3150488  25.550  -3.805   2.891
    1XTA   HL3250489  25.484  -3.855   2.734
    1XTA   HL3350490  25.427  -4.016   2.907
    1XTA   HL3450491  25.526  -4.084   2.771
    1XTA   HL3550492  25.569  -4.083   3.136
    1XTA   HL3650493  25.601  -3.918   3.070
    1XTA   HL3750494  25.865  -3.942   2.958
    1XTA   HL3850495  25.973  -3.941   3.101
    1XTA   HL3950496  25.923  -3.725   3.071
    1XTA   HL4050497  25.846  -3.779   3.207
    1XTA   HL4150498  25.763  -3.747   3.048
    1XTA    CO850499  26.694  -1.946   2.894
    1XTA    CO950500  26.909  -2.037   2.812
    1XTA    OA650501  26.872  -2.032   2.714
    1XTA   HL4250502  26.754  -1.858   2.909
    1XTA   HL4350503  26.622  -1.949   2.772
    1XTA   HL4450504  25.927  -4.222   3.156
    1XTA   HL4550505  25.850  -4.167   2.975
    1XTA   CO1050506  25.821  -4.178   3.077
    1XTA   CO1150507  25.771  -4.050   3.279
    1XTA    OA750508  25.878  -4.050   3.312
    1XTA   HL4650509  25.719  -3.969   3.323
    1XTA   HL4750510  25.713  -4.136   3.315
    1XTA   HL4850511  26.979  -2.114   2.823
    1XTA   HL4950512  26.956  -1.942   2.839
    1XTA     NT50513  35.161  -2.937   0.455
    1XTA    CN150514  35.274  -2.905   0.520
    1XTA     C150515  35.393  -2.865   0.447
    1XTA     C250516  35.505  -2.821   0.509
    1XTA     C350517  35.520  -2.840   0.645
    1XTA     C450518  35.406  -2.866   0.724
    1XTA     C550519  35.280  -2.898   0.660
    1XTA    CN250520  35.088  -3.042   0.505
    1XTA     C650521  34.973  -3.021   0.577
    1XTA     C750522  34.900  -3.123   0.641
    1XTA     C850523  34.949  -3.260   0.632
    1XTA     C950524  35.075  -3.285   0.561
    1XTA    C1050525  35.137  -3.178   0.493
    1XTA    CN350526  35.090  -2.845   0.387
    1XTA    C1150527  35.047  -2.725   0.439
    1XTA    C1250528  34.963  -2.646   0.363
    1XTA    C1350529  34.922  -2.679   0.235
    1XTA    C1450530  34.966  -2.795   0.177
    1XTA    C1550531  35.053  -2.883   0.253
    1XTA     H150532  35.387  -2.868   0.339
    1XTA     H250533  35.587  -2.783   0.454
    1XTA     H350534  35.422  -2.864   0.831
    1XTA     H450535  35.186  -2.911   0.718
    1XTA     H550536  34.918  -2.924   0.567
    1XTA     H650537  34.803  -3.106   0.694
    1XTA     H750538  35.131  -3.377   0.545
    1XTA     H850539  35.231  -3.205   0.444
    1XTA     H950540  35.082  -2.697   0.535
    1XTA    H1050541  34.936  -2.550   0.396
    1XTA    H1150542  34.930  -2.812   0.076
    1XTA    H1250543  35.086  -2.978   0.210
    1XTA    OA150544  35.643  -2.812   0.702
    1XTA    CO150545  35.671  -2.860   0.835
    1XTA    OA250546  34.876  -3.365   0.686
    1XTA    CO250547  34.934  -3.490   0.667
    1XTA    CL150548  34.852  -3.592   0.757
    1XTA    CL250549  34.717  -3.648   0.691
    1XTA    CL350550  34.689  -3.793   0.738
    1XTA    CL450551  34.576  -3.852   0.654
    1XTA    CO350552  34.523  -3.991   0.691
    1XTA    OA350553  34.611  -4.091   0.644
    1XTA    CO450554  34.567  -4.216   0.679
    1XTA    CT150555  34.681  -4.276   0.772
    1XTA    CL550556  34.705  -4.179   0.890
    1XTA    CL650557  34.784  -4.239   1.004
    1XTA    OA450558  34.838  -2.600   0.163
    1XTA    CO550559  34.729  -2.552   0.246
    1XTA    CL750560  34.637  -2.483   0.144
    1XTA    CL850561  34.661  -2.331   0.103
    1XTA    CL950562  34.634  -2.234   0.213
    1XTA   CL1050563  34.496  -2.163   0.213
    1XTA    CO650564  34.468  -2.080   0.332
    1XTA    OA550565  34.580  -1.994   0.360
    1XTA    CO750566  34.584  -1.875   0.281
    1XTA    CT250567  34.727  -1.825   0.290
    1XTA   CL1150568  34.833  -1.924   0.246
    1XTA   CL1250569  34.827  -1.958   0.097
    1XTA    HL150570  35.775  -2.832   0.837
    1XTA    HL250571  35.612  -2.811   0.913
    1XTA    HL350572  35.661  -2.964   0.832
    1XTA    HL450573  34.929  -3.517   0.559
    1XTA    HL550574  35.035  -3.478   0.699
    1XTA    HL650575  34.820  -3.537   0.848
    1XTA    HL750576  34.901  -3.679   0.789
    1XTA    HL850577  34.724  -3.638   0.580
    1XTA    HL950578  34.632  -3.589   0.731
    1XTA   HL1050579  34.785  -3.840   0.731
    1XTA   HL1150580  34.669  -3.796   0.851
    1XTA   HL1250581  34.614  -3.861   0.548
    1XTA   HL1350582  34.490  -3.787   0.657
    1XTA   HL1450583  34.512  -3.997   0.801
    1XTA   HL1550584  34.427  -3.995   0.650
    1XTA   HL1650585  34.472  -4.223   0.729
    1XTA   HL1750586  34.559  -4.273   0.588
    1XTA   HL1850587  34.609  -4.149   0.931
    1XTA   HL1950588  34.766  -4.099   0.858
    1XTA   HL2050589  34.867  -4.302   0.957
    1XTA   HL2150590  34.732  -4.308   1.073
    1XTA   HL2250591  34.827  -4.156   1.067
    1XTA   HL2350592  34.747  -2.482   0.329
    1XTA   HL2450593  34.672  -2.640   0.284
    1XTA   HL2550594  34.632  -2.549   0.052
    1XTA   HL2650595  34.533  -2.471   0.188
    1XTA   HL2750596  34.758  -2.321   0.059
    1XTA   HL2850597  34.608  -2.294   0.021
    1XTA   HL2950598  34.624  -2.295   0.300
    1XTA   HL3050599  34.714  -2.166   0.227
    1XTA   HL3150600  34.487  -2.102   0.121
    1XTA   HL3250601  34.428  -2.243   0.197
    1XTA   HL3350602  34.375  -2.028   0.311
    1XTA   HL3450603  34.454  -2.149   0.421
    1XTA   HL3550604  34.515  -1.794   0.302
    1XTA   HL3650605  34.550  -1.892   0.182
    1XTA   HL3750606  34.829  -2.009   0.321
    1XTA   HL3850607  34.933  -1.879   0.267
    1XTA   HL3950608  34.745  -2.028   0.081
    1XTA   HL4050609  34.921  -1.996   0.076
    1XTA   HL4150610  34.817  -1.871   0.039
    1XTA    CO850611  34.812  -4.284   0.702
    1XTA    CO950612  34.638  -4.415   0.819
    1XTA    OA650613  34.517  -4.404   0.896
    1XTA   HL4250614  34.889  -4.307   0.773
    1XTA   HL4350615  34.841  -4.184   0.674
    1XTA   HL4450616  34.756  -1.881   0.496
    1XTA   HL4550617  34.860  -1.752   0.437
    1XTA   CO1050618  34.760  -1.795   0.429
    1XTA   CO1150619  34.741  -1.692   0.211
    1XTA    OA750620  34.663  -1.704   0.484
    1XTA   HL4650621  34.702  -1.708   0.113
    1XTA   HL4750622  34.663  -1.630   0.254
    1XTA   HL4850623  34.716  -4.470   0.865
    1XTA   HL4950624  34.622  -4.476   0.733
    1XTA     NT50625  26.001   3.961   2.631
    1XTA    CN150626  25.986   3.824   2.625
    1XTA     C150627  25.856   3.769   2.641
    1XTA     C250628  25.831   3.630   2.618
    1XTA     C350629  25.941   3.549   2.582
    1XTA     C450630  26.068   3.603   2.568
    1XTA     C550631  26.091   3.733   2.595
    1XTA    CN250632  25.938   4.028   2.537
    1XTA     C650633  25.999   4.043   2.408
    1XTA     C750634  25.940   4.130   2.315
    1XTA     C850635  25.824   4.205   2.346
    1XTA     C950636  25.762   4.178   2.469
    1XTA    C1050637  25.821   4.098   2.570
    1XTA    CN350638  26.100   4.026   2.697
    1XTA    C1150639  26.065   4.071   2.823
    1XTA    C1250640  26.168   4.129   2.897
    1XTA    C1350641  26.304   4.142   2.848
    1XTA    C1450642  26.336   4.090   2.723
    1XTA    C1550643  26.232   4.031   2.648
    1XTA     H150644  25.775   3.830   2.671
    1XTA     H250645  25.732   3.590   2.639
    1XTA     H350646  26.149   3.540   2.542
    1XTA     H450647  26.196   3.775   2.587
    1XTA     H550648  26.084   3.981   2.387
    1XTA     H650649  25.986   4.134   2.214
    1XTA     H750650  25.669   4.223   2.503
    1XTA     H850651  25.772   4.093   2.667
    1XTA     H950652  25.970   4.030   2.879
    1XTA    H1050653  26.144   4.170   2.991
    1XTA    H1150654  26.436   4.095   2.677
    1XTA    H1250655  26.262   3.987   2.555
    1XTA    OA150656  25.925   3.408   2.569
    1XTA    CO150657  25.794   3.359   2.552
    1XTA    OA250658  25.755   4.291   2.259
    1XTA    CO250659  25.843   4.335   2.151
    1XTA    CL150660  25.776   4.463   2.097
    1XTA    CL250661  25.725   4.557   2.203
    1XTA    CL350662  25.706   4.707   2.180
    1XTA    CL450663  25.600   4.778   2.261
    1XTA    CO350664  25.596   4.920   2.214
    1XTA    OA350665  25.500   5.001   2.278
    1XTA    CO450666  25.371   4.977   2.244
    1XTA    CT150667  25.285   5.074   2.329
    1XTA    CL550668  25.322   5.217   2.289
    1XTA    CL650669  25.254   5.332   2.354
    1XTA    OA450670  26.397   4.211   2.921
    1XTA    CO550671  26.527   4.231   2.865
    1XTA    CL750672  26.534   4.339   2.760
    1XTA    CL850673  26.669   4.342   2.697
    1XTA    CL950674  26.683   4.429   2.578
    1XTA   CL1050675  26.820   4.412   2.520
    1XTA    CO650676  26.841   4.482   2.389
    1XTA    OA550677  26.844   4.618   2.407
    1XTA    CO750678  26.887   4.684   2.284
    1XTA    CT250679  26.975   4.806   2.317
    1XTA   CL1150680  27.098   4.756   2.393
    1XTA   CL1250681  27.212   4.854   2.428
    1XTA    HL150682  25.745   3.402   2.469
    1XTA    HL250683  25.790   3.254   2.528
    1XTA    HL350684  25.738   3.365   2.640
    1XTA    HL450685  25.939   4.349   2.203
    1XTA    HL550686  25.829   4.256   2.075
    1XTA    HL650687  25.707   4.427   2.027
    1XTA    HL750688  25.850   4.495   2.021
    1XTA    HL850689  25.784   4.531   2.290
    1XTA    HL950690  25.628   4.510   2.228
    1XTA   HL1050691  25.799   4.763   2.191
    1XTA   HL1150692  25.684   4.719   2.075
    1XTA   HL1250693  25.630   4.768   2.368
    1XTA   HL1350694  25.508   4.727   2.235
    1XTA   HL1450695  25.695   4.967   2.233
    1XTA   HL1550696  25.576   4.918   2.106
    1XTA   HL1650697  25.357   4.995   2.140
    1XTA   HL1750698  25.332   4.884   2.259
    1XTA   HL1850699  25.298   5.228   2.183
    1XTA   HL1950700  25.434   5.229   2.312
    1XTA   HL2050701  25.240   5.310   2.458
    1XTA   HL2150702  25.156   5.340   2.315
    1XTA   HL2250703  25.298   5.428   2.343
    1XTA   HL2350704  26.565   4.138   2.832
    1XTA   HL2450705  26.585   4.267   2.950
    1XTA   HL2550706  26.459   4.320   2.690
    1XTA   HL2650707  26.505   4.439   2.797
    1XTA   HL2750708  26.751   4.368   2.766
    1XTA   HL2850709  26.702   4.243   2.672
    1XTA   HL2950710  26.609   4.407   2.498
    1XTA   HL3050711  26.675   4.535   2.612
    1XTA   HL3150712  26.893   4.444   2.599
    1XTA   HL3250713  26.845   4.309   2.501
    1XTA   HL3350714  26.940   4.449   2.357
    1XTA   HL3450715  26.771   4.455   2.311
    1XTA   HL3550716  26.795   4.698   2.227
    1XTA   HL3650717  26.949   4.614   2.224
    1XTA   HL3750718  27.143   4.676   2.340
    1XTA   HL3850719  27.072   4.693   2.480
    1XTA   HL3950720  27.288   4.809   2.494
    1XTA   HL4050721  27.187   4.946   2.471
    1XTA   HL4150722  27.259   4.888   2.332
    1XTA    CO850723  25.315   5.044   2.478
    1XTA    CO950724  25.133   5.051   2.301
    1XTA    OA650725  25.306   4.936   2.500
    1XTA   HL4250726  25.253   5.107   2.548
    1XTA   HL4350727  25.415   5.076   2.503
    1XTA   HL4450728  26.948   4.999   2.420
    1XTA   HL4550729  26.810   4.948   2.341
    1XTA   CO1050730  26.893   4.907   2.401
    1XTA   CO1150731  27.021   4.887   2.191
    1XTA    OA750732  26.848   4.861   2.525
    1XTA   HL4650733  27.040   4.992   2.210
    1XTA   HL4750734  26.930   4.893   2.134
    1XTA   HL4850735  25.106   5.099   2.169
    1XTA   HL4950736  25.080   5.122   2.355
    1XTA     NT50737  26.077   3.708   2.165
    1XTA    CN150738  25.949   3.746   2.162
    1XTA     C150739  25.876   3.722   2.282
    1XTA     C250740  25.742   3.770   2.290
    1XTA     C350741  25.683   3.838   2.181
    1XTA     C450742  25.757   3.844   2.059
    1XTA     C550743  25.894   3.814   2.051
    1XTA    CN250744  26.174   3.790   2.209
    1XTA     C650745  26.200   3.916   2.141
    1XTA     C750746  26.302   4.001   2.182
    1XTA     C850747  26.376   3.974   2.297
    1XTA     C950748  26.354   3.852   2.369
    1XTA    C1050749  26.259   3.763   2.323
    1XTA    CN350750  26.113   3.578   2.140
    1XTA    C1150751  26.192   3.554   2.025
    1XTA    C1250752  26.237   3.421   2.005
    1XTA    C1350753  26.204   3.315   2.088
    1XTA    C1450754  26.121   3.343   2.201
    1XTA    C1550755  26.071   3.472   2.224
    1XTA     H150756  25.914   3.656   2.358
    1XTA     H250757  25.696   3.744   2.382
    1XTA     H350758  25.697   3.893   1.973
    1XTA     H450759  25.960   3.830   1.959
    1XTA     H550760  26.139   3.948   2.063
    1XTA     H650761  26.325   4.098   2.137
    1XTA     H750762  26.416   3.839   2.461
    1XTA     H850763  26.235   3.667   2.368
    1XTA     H950764  26.225   3.639   1.964
    1XTA    H1050765  26.299   3.403   1.920
    1XTA    H1150766  26.094   3.267   2.272
    1XTA    H1250767  26.006   3.481   2.307
    1XTA    OA150768  25.549   3.857   2.168
    1XTA    CO150769  25.502   3.952   2.266
    1XTA    OA250770  26.452   4.070   2.358
    1XTA    CO250771  26.387   4.187   2.397
    1XTA    CL150772  26.408   4.298   2.294
    1XTA    CL250773  26.271   4.348   2.234
    1XTA    CL350774  26.295   4.427   2.105
    1XTA    CL450775  26.166   4.445   2.023
    1XTA    CO350776  26.183   4.518   1.894
    1XTA    OA350777  26.276   4.464   1.807
    1XTA    CO450778  26.248   4.339   1.749
    1XTA    CT150779  26.368   4.276   1.672
    1XTA    CL550780  26.482   4.232   1.763
    1XTA    CL650781  26.456   4.110   1.854
    1XTA    OA450782  26.243   3.188   2.069
    1XTA    CO550783  26.262   3.155   1.930
    1XTA    CL750784  26.268   3.000   1.912
    1XTA    CL850785  26.316   2.983   1.761
    1XTA    CL950786  26.311   2.845   1.689
    1XTA   CL1050787  26.410   2.739   1.746
    1XTA    CO650788  26.344   2.660   1.860
    1XTA    OA550789  26.421   2.663   1.977
    1XTA    CO750790  26.343   2.659   2.103
    1XTA    CT250791  26.439   2.627   2.220
    1XTA   CL1150792  26.532   2.746   2.230
    1XTA   CL1250793  26.642   2.734   2.339
    1XTA    HL150794  25.522   3.912   2.362
    1XTA    HL250795  25.558   4.047   2.262
    1XTA    HL350796  25.394   3.965   2.256
    1XTA    HL450797  26.294   4.169   2.426
    1XTA    HL550798  26.435   4.219   2.495
    1XTA    HL650799  26.485   4.281   2.211
    1XTA    HL750800  26.449   4.382   2.355
    1XTA    HL850801  26.222   4.406   2.314
    1XTA    HL950802  26.202   4.263   2.210
    1XTA   HL1050803  26.328   4.525   2.137
    1XTA   HL1150804  26.367   4.382   2.044
    1XTA   HL1250805  26.096   4.509   2.081
    1XTA   HL1350806  26.111   4.353   2.000
    1XTA   HL1450807  26.093   4.543   1.847
    1XTA   HL1550808  26.228   4.619   1.902
    1XTA   HL1650809  26.223   4.273   1.833
    1XTA   HL1750810  26.160   4.337   1.691
    1XTA   HL1850811  26.499   4.314   1.834
    1XTA   HL1950812  26.574   4.210   1.704
    1XTA   HL2050813  26.366   4.112   1.905
    1XTA   HL2150814  26.537   4.112   1.930
    1XTA   HL2250815  26.474   4.029   1.783
    1XTA   HL2350816  26.348   3.205   1.883
    1XTA   HL2450817  26.172   3.187   1.877
    1XTA   HL2550818  26.342   2.952   1.981
    1XTA   HL2650819  26.174   2.955   1.945
    1XTA   HL2750820  26.254   3.046   1.698
    1XTA   HL2850821  26.420   3.017   1.764
    1XTA   HL2950822  26.213   2.806   1.704
    1XTA   HL3050823  26.316   2.864   1.586
    1XTA   HL3150824  26.424   2.659   1.674
    1XTA   HL3250825  26.513   2.777   1.768
    1XTA   HL3350826  26.247   2.688   1.877
    1XTA   HL3450827  26.334   2.555   1.823
    1XTA   HL3550828  26.271   2.574   2.097
    1XTA   HL3650829  26.287   2.748   2.114
    1XTA   HL3750830  26.470   2.831   2.262
    1XTA   HL3850831  26.569   2.775   2.127
    1XTA   HL3950832  26.595   2.694   2.423
    1XTA   HL4050833  26.691   2.831   2.370
    1XTA   HL4150834  26.722   2.664   2.295
    1XTA    CO850835  26.424   4.378   1.562
    1XTA    CO950836  26.315   4.155   1.594
    1XTA    OA650837  26.544   4.322   1.510
    1XTA   HL4250838  26.448   4.479   1.602
    1XTA   HL4350839  26.350   4.388   1.487
    1XTA   HL4450840  26.593   2.452   2.286
    1XTA   HL4550841  26.587   2.525   2.106
    1XTA   CO1050842  26.513   2.499   2.180
    1XTA   CO1150843  26.364   2.593   2.346
    1XTA    OA750844  26.309   2.672   2.402
    1XTA   HL4650845  26.295   2.504   2.331
    1XTA   HL4750846  26.416   2.538   2.422
    1XTA   HL4850847  26.400   4.110   1.536
    1XTA   HL4950848  26.286   4.079   1.669
    1XTA     NT50849  31.650  -1.266   3.580
    1XTA    CN150850  31.595  -1.238   3.461
    1XTA     C150851  31.466  -1.269   3.427
    1XTA     C250852  31.418  -1.245   3.296
    1XTA     C350853  31.496  -1.178   3.204
    1XTA     C450854  31.632  -1.160   3.231
    1XTA     C550855  31.680  -1.189   3.361
    1XTA    CN250856  31.667  -1.394   3.626
    1XTA     C650857  31.554  -1.482   3.636
    1XTA     C750858  31.575  -1.603   3.704
    1XTA     C850859  31.696  -1.638   3.768
    1XTA     C950860  31.808  -1.554   3.740
    1XTA    C1050861  31.794  -1.432   3.674
    1XTA    CN350862  31.633  -1.164   3.673
    1XTA    C1150863  31.520  -1.168   3.764
    1XTA    C1250864  31.516  -1.064   3.860
    1XTA    C1350865  31.610  -0.963   3.868
    1XTA    C1450866  31.714  -0.955   3.770
    1XTA    C1550867  31.729  -1.059   3.676
    1XTA     H150868  31.401  -1.293   3.502
    1XTA     H250869  31.325  -1.285   3.263
    1XTA     H350870  31.697  -1.119   3.150
    1XTA     H450871  31.779  -1.157   3.378
    1XTA     H550872  31.456  -1.461   3.598
    1XTA     H650873  31.490  -1.661   3.708
    1XTA     H750874  31.905  -1.576   3.773
    1XTA     H850875  31.878  -1.365   3.649
    1XTA     H950876  31.458  -1.255   3.764
    1XTA    H1050877  31.446  -1.058   3.944
    1XTA    H1150878  31.786  -0.872   3.767
    1XTA    H1250879  31.804  -1.057   3.601
    1XTA    OA150880  31.461  -1.155   3.075
    1XTA    CO150881  31.324  -1.137   3.047
    1XTA    OA250882  31.699  -1.748   3.850
    1XTA    CO250883  31.795  -1.733   3.960
    1XTA    CL150884  31.733  -1.792   4.090
    1XTA    CL250885  31.624  -1.708   4.148
    1XTA    CL350886  31.485  -1.722   4.080
    1XTA    CL450887  31.408  -1.847   4.128
    1XTA    CO350888  31.287  -1.880   4.044
    1XTA    OA350889  31.326  -1.925   3.913
    1XTA    CO450890  31.210  -1.928   3.828
    1XTA    CT150891  31.231  -2.018   3.703
    1XTA    CL550892  31.301  -2.144   3.745
    1XTA    CL650893  31.249  -2.229   3.865
    1XTA    OA450894  31.595  -0.889   3.980
    1XTA    CO550895  31.649  -0.758   3.970
    1XTA    CL750896  31.604  -0.665   4.090
    1XTA    CL850897  31.657  -0.523   4.072
    1XTA    CL950898  31.795  -0.505   4.132
    1XTA   CL1050899  31.792  -0.474   4.281
    1XTA    CO650900  31.930  -0.480   4.340
    1XTA    OA550901  31.922  -0.420   4.468
    1XTA    CO750902  32.047  -0.380   4.519
    1XTA    CT250903  32.024  -0.293   4.641
    1XTA   CL1150904  31.955  -0.378   4.752
    1XTA   CL1250905  32.036  -0.496   4.811
    1XTA    HL150906  31.291  -1.053   3.104
    1XTA    HL250907  31.310  -1.100   2.944
    1XTA    HL350908  31.260  -1.218   3.075
    1XTA    HL450909  31.877  -1.788   3.927
    1XTA    HL550910  31.831  -1.637   3.984
    1XTA    HL650911  31.817  -1.800   4.157
    1XTA    HL750912  31.708  -1.894   4.070
    1XTA    HL850913  31.646  -1.605   4.124
    1XTA    HL950914  31.629  -1.724   4.254
    1XTA   HL1050915  31.432  -1.629   4.104
    1XTA   HL1150916  31.503  -1.719   3.971
    1XTA   HL1250917  31.389  -1.843   4.234
    1XTA   HL1350918  31.472  -1.930   4.126
    1XTA   HL1450919  31.246  -1.966   4.097
    1XTA   HL1550920  31.211  -1.797   4.040
    1XTA   HL1650921  31.128  -1.973   3.878
    1XTA   HL1750922  31.161  -1.837   3.787
    1XTA   HL1850923  31.389  -2.102   3.776
    1XTA   HL1950924  31.308  -2.214   3.661
    1XTA   HL2050925  31.323  -2.302   3.880
    1XTA   HL2150926  31.152  -2.270   3.849
    1XTA   HL2250927  31.229  -2.176   3.960
    1XTA   HL2350928  31.608  -0.708   3.884
    1XTA   HL2450929  31.755  -0.777   3.969
    1XTA   HL2550930  31.497  -0.661   4.102
    1XTA   HL2650931  31.619  -0.700   4.191
    1XTA   HL2750932  31.653  -0.495   3.966
    1XTA   HL2850933  31.593  -0.453   4.125
    1XTA   HL2950934  31.851  -0.604   4.121
    1XTA   HL3050935  31.854  -0.421   4.080
    1XTA   HL3150936  31.744  -0.379   4.297
    1XTA   HL3250937  31.734  -0.540   4.335
    1XTA   HL3350938  31.974  -0.582   4.340
    1XTA   HL3450939  31.990  -0.412   4.274
    1XTA   HL3550940  32.097  -0.312   4.453
    1XTA   HL3650941  32.119  -0.458   4.540
    1XTA   HL3750942  31.846  -0.400   4.724
    1XTA   HL3850943  31.944  -0.299   4.825
    1XTA   HL3950944  32.143  -0.471   4.843
    1XTA   HL4050945  32.036  -0.558   4.721
    1XTA   HL4150946  31.995  -0.540   4.898
    1XTA    CO850947  31.330  -1.938   3.613
    1XTA    CO950948  31.101  -2.039   3.616
    1XTA    OA650949  31.359  -1.996   3.524
    1XTA   HL4250950  31.417  -1.911   3.675
    1XTA   HL4350951  31.292  -1.844   3.583
    1XTA   HL4450952  31.922  -0.113   4.693
    1XTA   HL4550953  31.800  -0.248   4.597
    1XTA   CO1050954  31.924  -0.184   4.613
    1XTA   CO1150955  32.154  -0.220   4.691
    1XTA    OA750956  32.234  -0.298   4.716
    1XTA   HL4650957  32.174  -0.144   4.615
    1XTA   HL4750958  32.132  -0.168   4.781
    1XTA   HL4850959  31.139  -2.111   3.502
    1XTA   HL4950960  31.023  -2.099   3.667
    1XTA     NT50961  28.880   4.747   4.080
    1XTA    CN150962  28.982   4.680   4.029
    1XTA     C150963  28.966   4.600   3.915
    1XTA     C250964  29.076   4.535   3.863
    1XTA     C350965  29.206   4.563   3.910
    1XTA     C450966  29.219   4.649   4.023
    1XTA     C550967  29.107   4.700   4.090
    1XTA    CN250968  28.806   4.833   4.006
    1XTA     C650969  28.667   4.817   3.988
    1XTA     C750970  28.589   4.917   3.928
    1XTA     C850971  28.650   5.037   3.890
    1XTA     C950972  28.784   5.067   3.922
    1XTA    C1050973  28.863   4.960   3.972
    1XTA    CN350974  28.841   4.717   4.205
    1XTA    C1150975  28.800   4.588   4.244
    1XTA    C1250976  28.763   4.569   4.379
    1XTA    C1350977  28.753   4.672   4.467
    1XTA    C1450978  28.806   4.796   4.429
    1XTA    C1550979  28.839   4.822   4.294
    1XTA     H150980  28.866   4.579   3.873
    1XTA     H250981  29.051   4.454   3.788
    1XTA     H350982  29.319   4.679   4.058
    1XTA     H450983  29.118   4.764   4.177
    1XTA     H550984  28.623   4.729   4.026
    1XTA     H650985  28.482   4.897   3.921
    1XTA     H750986  28.829   5.162   3.913
    1XTA     H850987  28.966   4.990   4.004
    1XTA     H950988  28.811   4.510   4.170
    1XTA    H1050989  28.720   4.474   4.411
    1XTA    H1150990  28.795   4.885   4.493
    1XTA    H1250991  28.873   4.925   4.279
    1XTA    OA150992  29.318   4.493   3.873
    1XTA    CO150993  29.299   4.392   3.781
    1XTA    OA250994  28.572   5.127   3.820
    1XTA    CO250995  28.641   5.200   3.725
    1XTA    CL150996  28.551   5.243   3.612
    1XTA    CL250997  28.511   5.121   3.520
    1XTA    CL350998  28.394   5.036   3.585
    1XTA    CL450999  28.254   5.105   3.582
    1XTA    CO351000  28.194   5.138   3.448
    1XTA    OA351001  28.175   5.015   3.373
    1XTA    CO451002  28.149   5.032   3.240
    1XTA    CT151003  28.095   4.897   3.183
    1XTA    CL551004  28.186   4.770   3.209
    1XTA    CL651005  28.334   4.791   3.166
    1XTA    OA451006  28.697   4.648   4.594
    1XTA    CO551007  28.636   4.760   4.657
    1XTA    CL751008  28.493   4.779   4.610
    1XTA    CL851009  28.426   4.901   4.668
    1XTA    CL951010  28.473   5.030   4.602
    1XTA   CL1051011  28.409   5.043   4.461
    1XTA    CO651012  28.422   5.187   4.400
    1XTA    OA551013  28.556   5.218   4.376
    1XTA    CO751014  28.588   5.352   4.336
    1XTA    CT251015  28.708   5.337   4.241
    1XTA   CL1151016  28.800   5.208   4.263
    1XTA   CL1251017  28.860   5.201   4.402
    1XTA    HL151018  29.224   4.325   3.822
    1XTA    HL251019  29.261   4.440   3.683
    1XTA    HL351020  29.385   4.335   3.753
    1XTA    HL451021  28.697   5.284   3.777
    1XTA    HL551022  28.723   5.136   3.690
    1XTA    HL651023  28.619   5.301   3.542
    1XTA    HL751024  28.460   5.300   3.637
    1XTA    HL851025  28.601   5.057   3.498
    1XTA    HL951026  28.468   5.158   3.430
    1XTA   HL1051027  28.391   4.937   3.541
    1XTA   HL1151028  28.430   5.013   3.687
    1XTA   HL1251029  28.260   5.186   3.653
    1XTA   HL1351030  28.181   5.039   3.635
    1XTA   HL1451031  28.098   5.196   3.455
    1XTA   HL1551032  28.264   5.195   3.383
    1XTA   HL1651033  28.084   5.115   3.234
    1XTA   HL1751034  28.238   5.062   3.187
    1XTA   HL1851035  28.144   4.685   3.154
    1XTA   HL1951036  28.190   4.739   3.312
    1XTA   HL2051037  28.394   4.705   3.167
    1XTA   HL2151038  28.372   4.860   3.240
    1XTA   HL2251039  28.357   4.835   3.067
    1XTA   HL2351040  28.705   4.846   4.656
    1XTA   HL2451041  28.637   4.740   4.768
    1XTA   HL2551042  28.476   4.783   4.504
    1XTA   HL2651043  28.443   4.692   4.648
    1XTA   HL2751044  28.323   4.894   4.666
    1XTA   HL2851045  28.443   4.906   4.778
    1XTA   HL2951046  28.448   5.114   4.665
    1XTA   HL3051047  28.588   5.034   4.605
    1XTA   HL3151048  28.443   4.960   4.396
    1XTA   HL3251049  28.305   5.026   4.478
    1XTA   HL3351050  28.369   5.199   4.306
    1XTA   HL3451051  28.374   5.254   4.470
    1XTA   HL3551052  28.632   5.395   4.430
    1XTA   HL3651053  28.507   5.416   4.297
    1XTA   HL3751054  28.878   5.208   4.187
    1XTA   HL3851055  28.735   5.122   4.256
    1XTA   HL3951056  28.888   5.094   4.424
    1XTA   HL4051057  28.787   5.220   4.486
    1XTA   HL4151058  28.945   5.274   4.408
    1XTA    CO851059  28.059   4.919   3.036
    1XTA    CO951060  27.963   4.867   3.253
    1XTA    OA651061  28.018   4.799   2.964
    1XTA   HL4251062  28.146   4.967   2.987
    1XTA   HL4351063  27.979   4.987   3.024
    1XTA   HL4451064  28.738   5.551   4.205
    1XTA   HL4551065  28.837   5.481   4.338
    1XTA   CO1051066  28.797   5.464   4.238
    1XTA   CO1151067  28.644   5.321   4.100
    1XTA    OA751068  28.894   5.453   4.135
    1XTA   HL4651069  28.601   5.224   4.091
    1XTA   HL4751070  28.708   5.329   4.021
    1XTA   HL4851071  27.928   4.779   3.196
    1XTA   HL4951072  27.989   4.832   3.351
    1XTA     NT51073  31.832   0.842   0.386
    1XTA    CN151074  31.946   0.878   0.326
    1XTA     C151075  32.020   0.980   0.375
    1XTA     C251076  32.149   1.012   0.316
    1XTA     C351077  32.195   0.948   0.200
    1XTA     C451078  32.111   0.857   0.144
    1XTA     C551079  31.988   0.825   0.204
    1XTA    CN251080  31.717   0.857   0.307
    1XTA     C651081  31.638   0.749   0.257
    1XTA     C751082  31.530   0.777   0.178
    1XTA     C851083  31.490   0.915   0.161
    1XTA     C951084  31.560   1.025   0.217
    1XTA    C1051085  31.679   0.981   0.285
    1XTA    CN351086  31.829   0.818   0.516
    1XTA    C1151087  31.792   0.922   0.600
    1XTA    C1251088  31.794   0.887   0.739
    1XTA    C1351089  31.837   0.761   0.790
    1XTA    C1451090  31.877   0.665   0.694
    1XTA    C1551091  31.870   0.695   0.561
    1XTA     H151092  31.995   1.032   0.457
    1XTA     H251093  32.219   1.074   0.363
    1XTA     H351094  32.133   0.810   0.048
    1XTA     H451095  31.935   0.747   0.169
    1XTA     H551096  31.656   0.642   0.279
    1XTA     H651097  31.465   0.703   0.136
    1XTA     H751098  31.533   1.129   0.211
    1XTA     H851099  31.737   1.061   0.334
    1XTA     H951100  31.763   1.021   0.577
    1XTA    H1051101  31.761   0.966   0.804
    1XTA    H1151102  31.881   0.564   0.724
    1XTA    H1251103  31.892   0.612   0.495
    1XTA    OA151104  32.319   0.961   0.145
    1XTA    CO151105  32.405   1.045   0.213
    1XTA    OA251106  31.378   0.935   0.086
    1XTA    CO251107  31.257   0.922   0.153
    1XTA    CL151108  31.182   0.797   0.111
    1XTA    CL251109  31.179   0.781  -0.042
    1XTA    CL351110  31.171   0.633  -0.083
    1XTA    CL451111  31.032   0.573  -0.044
    1XTA    CO351112  31.029   0.420  -0.039
    1XTA    OA351113  31.072   0.367  -0.161
    1XTA    CO451114  31.156   0.249  -0.150
    1XTA    CT151115  31.126   0.148  -0.261
    1XTA    CL551116  30.975   0.108  -0.265
    1XTA    CL651117  30.876   0.212  -0.321
    1XTA    OA451118  31.853   0.737   0.922
    1XTA    CO551119  31.857   0.858   1.002
    1XTA    CL751120  31.892   0.832   1.152
    1XTA    CL851121  32.017   0.741   1.178
    1XTA    CL951122  31.979   0.594   1.187
    1XTA   CL1051123  32.083   0.494   1.126
    1XTA    CO651124  32.068   0.495   0.974
    1XTA    OA551125  32.148   0.394   0.919
    1XTA    CO751126  32.285   0.421   0.893
    1XTA    CT251127  32.356   0.294   0.850
    1XTA   CL1151128  32.515   0.317   0.863
    1XTA   CL1251129  32.545   0.450   0.786
    1XTA    HL151130  32.505   1.041   0.170
    1XTA    HL251131  32.379   1.151   0.207
    1XTA    HL351132  32.417   1.015   0.321
    1XTA    HL451133  31.285   0.929   0.256
    1XTA    HL551134  31.192   1.002   0.126
    1XTA    HL651135  31.084   0.812   0.155
    1XTA    HL751136  31.231   0.712   0.159
    1XTA    HL851137  31.280   0.810  -0.079
    1XTA    HL951138  31.098   0.835  -0.093
    1XTA   HL1051139  31.194   0.642  -0.181
    1XTA   HL1151140  31.241   0.569  -0.033
    1XTA   HL1251141  30.965   0.612  -0.117
    1XTA   HL1351142  31.003   0.614   0.052
    1XTA   HL1451143  31.100   0.394   0.041
    1XTA   HL1551144  30.934   0.372  -0.023
    1XTA   HL1651145  31.262   0.278  -0.149
    1XTA   HL1751146  31.153   0.204  -0.051
    1XTA   HL1851147  30.949   0.087  -0.158
    1XTA   HL1951148  30.957   0.020  -0.330
    1XTA   HL2051149  30.889   0.308  -0.278
    1XTA   HL2151150  30.767   0.188  -0.316
    1XTA   HL2251151  30.914   0.218  -0.424
    1XTA   HL2351152  31.759   0.916   0.997
    1XTA   HL2451153  31.938   0.930   0.971
    1XTA   HL2551154  31.906   0.927   1.204
    1XTA   HL2651155  31.794   0.796   1.194
    1XTA   HL2751156  32.091   0.752   1.100
    1XTA   HL2851157  32.061   0.775   1.263
    1XTA   HL2951158  31.948   0.590   1.294
    1XTA   HL3051159  31.887   0.592   1.129
    1XTA   HL3151160  32.185   0.501   1.160
    1XTA   HL3251161  32.065   0.392   1.163
    1XTA   HL3351162  31.967   0.459   0.944
    1XTA   HL3451163  32.097   0.589   0.930
    1XTA   HL3551164  32.312   0.453   0.993
    1XTA   HL3651165  32.277   0.504   0.828
    1XTA   HL3751166  32.571   0.230   0.826
    1XTA   HL3851167  32.536   0.331   0.971
    1XTA   HL3951168  32.494   0.455   0.690
    1XTA   HL4051169  32.653   0.463   0.770
    1XTA   HL4151170  32.512   0.538   0.840
    1XTA    CO851171  31.204   0.016  -0.243
    1XTA    CO951172  31.180   0.199  -0.404
    1XTA    OA651173  31.140   0.304  -0.418
    1XTA   HL4251174  31.147  -0.041  -0.169
    1XTA   HL4351175  31.193  -0.056  -0.362
    1XTA   HL4451176  32.217   0.309   0.681
    1XTA   HL4551177  32.261   0.139   0.735
    1XTA   CO1051178  32.299   0.244   0.711
    1XTA   CO1151179  32.322   0.186   0.953
    1XTA    OA751180  32.389   0.056   0.926
    1XTA   HL4651181  32.339   0.217   1.055
    1XTA   HL4751182  32.216   0.181   0.931
    1XTA   HL4851183  31.134   0.135  -0.476
    1XTA   HL4951184  31.289   0.182  -0.421
    1XTA     NT51185  32.183   0.346   1.636
    1XTA    CN151186  32.144   0.477   1.661
    1XTA     C151187  32.152   0.567   1.553
    1XTA     C251188  32.146   0.705   1.584
    1XTA     C351189  32.126   0.748   1.724
    1XTA     C451190  32.118   0.650   1.824
    1XTA     C551191  32.129   0.517   1.792
    1XTA    CN251192  32.295   0.293   1.684
    1XTA     C651193  32.405   0.378   1.701
    1XTA     C751194  32.514   0.329   1.769
    1XTA     C851195  32.522   0.194   1.813
    1XTA     C951196  32.418   0.108   1.794
    1XTA    C1051197  32.301   0.157   1.728
    1XTA    CN351198  32.125   0.269   1.540
    1XTA    C1151199  32.002   0.205   1.569
    1XTA    C1251200  31.941   0.122   1.474
    1XTA    C1351201  32.001   0.102   1.348
    1XTA    C1451202  32.122   0.172   1.320
    1XTA    C1551203  32.184   0.255   1.414
    1XTA     H151204  32.158   0.537   1.452
    1XTA     H251205  32.162   0.777   1.503
    1XTA     H351206  32.117   0.673   1.931
    1XTA     H451207  32.120   0.445   1.879
    1XTA     H551208  32.403   0.484   1.676
    1XTA     H651209  32.601   0.382   1.801
    1XTA     H751210  32.429   0.005   1.821
    1XTA     H851211  32.223   0.085   1.722
    1XTA     H951212  31.962   0.218   1.669
    1XTA    H1051213  31.847   0.073   1.497
    1XTA    H1151214  32.161   0.158   1.219
    1XTA    H1251215  32.276   0.303   1.397
    1XTA    OA151216  32.138   0.881   1.753
    1XTA    CO151217  32.081   0.972   1.655
    1XTA    OA251218  32.633   0.153   1.875
    1XTA    CO251219  32.655   0.215   2.003
    1XTA    CL151220  32.584   0.119   2.098
    1XTA    CL251221  32.671   0.004   2.144
    1XTA    CL351222  32.753  -0.075   2.035
    1XTA    CL451223  32.854  -0.176   2.086
    1XTA    CO351224  32.772  -0.297   2.142
    1XTA    OA351225  32.852  -0.381   2.225
    1XTA    CO451226  32.771  -0.476   2.287
    1XTA    CT151227  32.857  -0.606   2.305
    1XTA    CL551228  32.999  -0.600   2.245
    1XTA    CL651229  33.082  -0.719   2.270
    1XTA    OA451230  31.929   0.028   1.261
    1XTA    CO551231  31.996  -0.018   1.146
    1XTA    CL751232  31.897  -0.065   1.045
    1XTA    CL851233  31.794   0.046   1.010
    1XTA    CL951234  31.846   0.165   0.927
    1XTA   CL1051235  31.759   0.288   0.931
    1XTA    CO651236  31.616   0.258   0.874
    1XTA    OA551237  31.533   0.378   0.867
    1XTA    CO751238  31.487   0.417   1.001
    1XTA    CT251239  31.366   0.515   0.987
    1XTA   CL1151240  31.431   0.654   1.012
    1XTA   CL1251241  31.513   0.719   0.900
    1XTA    HL151242  31.979   0.932   1.635
    1XTA    HL251243  32.073   1.069   1.688
    1XTA    HL351244  32.126   0.972   1.556
    1XTA    HL451245  32.765   0.204   2.021
    1XTA    HL551246  32.625   0.323   2.002
    1XTA    HL651247  32.484   0.103   2.060
    1XTA    HL751248  32.554   0.176   2.182
    1XTA    HL851249  32.609  -0.069   2.186
    1XTA    HL951250  32.732   0.030   2.229
    1XTA   HL1051251  32.683  -0.119   1.965
    1XTA   HL1151252  32.808  -0.004   1.967
    1XTA   HL1251253  32.911  -0.130   2.162
    1XTA   HL1351254  32.927  -0.202   2.013
    1XTA   HL1451255  32.692  -0.266   2.211
    1XTA   HL1551256  32.725  -0.349   2.066
    1XTA   HL1651257  32.723  -0.458   2.387
    1XTA   HL1751258  32.690  -0.504   2.223
    1XTA   HL1851259  33.060  -0.514   2.281
    1XTA   HL1951260  32.977  -0.583   2.140
    1XTA   HL2051261  33.110  -0.737   2.373
    1XTA   HL2151262  33.173  -0.699   2.210
    1XTA   HL2251263  33.031  -0.804   2.229
    1XTA   HL2351264  32.078  -0.087   1.170
    1XTA   HL2451265  32.042   0.062   1.088
    1XTA   HL2551266  31.950  -0.102   0.957
    1XTA   HL2651267  31.849  -0.154   1.086
    1XTA   HL2751268  31.705  -0.008   0.967
    1XTA   HL2851269  31.768   0.085   1.107
    1XTA   HL2951270  31.944   0.198   0.959
    1XTA   HL3051271  31.869   0.122   0.830
    1XTA   HL3151272  31.733   0.312   1.034
    1XTA   HL3251273  31.788   0.371   0.875
    1XTA   HL3351274  31.613   0.192   0.788
    1XTA   HL3451275  31.570   0.189   0.955
    1XTA   HL3551276  31.563   0.452   1.071
    1XTA   HL3651277  31.451   0.327   1.046
    1XTA   HL3751278  31.477   0.655   1.110
    1XTA   HL3851279  31.356   0.724   1.038
    1XTA   HL3951280  31.445   0.750   0.821
    1XTA   HL4051281  31.593   0.650   0.874
    1XTA   HL4151282  31.573   0.798   0.939
    1XTA    CO851283  32.785  -0.728   2.236
    1XTA    CO951284  32.862  -0.628   2.452
    1XTA    OA651285  32.733  -0.651   2.503
    1XTA   HL4251286  32.840  -0.749   2.146
    1XTA   HL4351287  32.811  -0.819   2.308
    1XTA   HL4451288  31.325   0.454   1.190
    1XTA   HL4551289  31.207   0.618   1.166
    1XTA   CO1051290  31.271   0.501   1.108
    1XTA   CO1151291  31.302   0.510   0.848
    1XTA    OA751292  31.222   0.590   0.839
    1XTA   HL4651293  31.377   0.522   0.771
    1XTA   HL4751294  31.268   0.405   0.835
    1XTA   HL4851295  32.924  -0.547   2.502
    1XTA   HL4951296  32.912  -0.724   2.472
    1XTA     NT51297  32.785  -1.102   0.388
    1XTA    CN151298  32.759  -1.003   0.300
    1XTA     C151299  32.679  -0.892   0.330
    1XTA     C251300  32.636  -0.799   0.233
    1XTA     C351301  32.691  -0.803   0.102
    1XTA     C451302  32.764  -0.924   0.064
    1XTA     C551303  32.795  -1.022   0.162
    1XTA    CN251304  32.684  -1.151   0.470
    1XTA     C651305  32.666  -1.101   0.601
    1XTA     C751306  32.558  -1.151   0.678
    1XTA     C851307  32.467  -1.250   0.625
    1XTA     C951308  32.490  -1.302   0.495
    1XTA    C1051309  32.594  -1.249   0.419
    1XTA    CN351310  32.910  -1.138   0.411
    1XTA    C1151311  32.996  -1.070   0.494
    1XTA    C1251312  33.129  -1.116   0.513
    1XTA    C1351313  33.175  -1.229   0.444
    1XTA    C1451314  33.082  -1.299   0.365
    1XTA    C1551315  32.948  -1.256   0.353
    1XTA     H151316  32.651  -0.889   0.438
    1XTA     H251317  32.576  -0.707   0.264
    1XTA     H351318  32.776  -0.941  -0.034
    1XTA     H451319  32.853  -1.108   0.136
    1XTA     H551320  32.743  -1.040   0.651
    1XTA     H651321  32.545  -1.107   0.775
    1XTA     H751322  32.422  -1.375   0.455
    1XTA     H851323  32.609  -1.290   0.313
    1XTA     H951324  32.964  -0.988   0.552
    1XTA    H1051325  33.183  -1.059   0.585
    1XTA    H1151326  33.124  -1.385   0.314
    1XTA    H1251327  32.876  -1.301   0.286
    1XTA    OA151328  32.655  -0.704   0.016
    1XTA    CO151329  32.739  -0.688  -0.100
    1XTA    OA251330  32.352  -1.294   0.694
    1XTA    CO251331  32.308  -1.222   0.807
    1XTA    CL151332  32.182  -1.291   0.857
    1XTA    CL251333  32.110  -1.228   0.979
    1XTA    CL351334  32.179  -1.267   1.113
    1XTA    CL451335  32.093  -1.219   1.233
    1XTA    CO351336  32.092  -1.063   1.262
    1XTA    OA351337  32.000  -1.030   1.360
    1XTA    CO451338  31.963  -0.893   1.359
    1XTA    CT151339  31.814  -0.870   1.328
    1XTA    CL551340  31.780  -0.719   1.308
    1XTA    CL651341  31.839  -0.643   1.429
    1XTA    OA451342  33.302  -1.280   0.466
    1XTA    CO551343  33.366  -1.235   0.583
    1XTA    CL751344  33.442  -1.102   0.564
    1XTA    CL851345  33.499  -1.037   0.693
    1XTA    CL951346  33.630  -0.960   0.677
    1XTA   CL1051347  33.601  -0.852   0.580
    1XTA    CO651348  33.513  -0.739   0.641
    1XTA    OA551349  33.525  -0.619   0.563
    1XTA    CO751350  33.411  -0.540   0.579
    1XTA    CT251351  33.431  -0.412   0.483
    1XTA   CL1151352  33.536  -0.318   0.550
    1XTA   CL1251353  33.663  -0.377   0.611
    1XTA    HL151354  32.836  -0.657  -0.067
    1XTA    HL251355  32.730  -0.765  -0.169
    1XTA    HL351356  32.693  -0.605  -0.151
    1XTA    HL451357  32.389  -1.229   0.886
    1XTA    HL551358  32.290  -1.119   0.780
    1XTA    HL651359  32.202  -1.392   0.886
    1XTA    HL751360  32.124  -1.297   0.763
    1XTA    HL851361  32.005  -1.255   0.975
    1XTA    HL951362  32.111  -1.123   0.976
    1XTA   HL1051363  32.179  -1.378   1.125
    1XTA   HL1151364  32.273  -1.226   1.126
    1XTA   HL1251365  32.115  -1.284   1.323
    1XTA   HL1351366  31.988  -1.251   1.215
    1XTA   HL1451367  32.194  -1.023   1.268
    1XTA   HL1551368  32.045  -1.022   1.171
    1XTA   HL1651369  31.974  -0.855   1.463
    1XTA   HL1751370  32.022  -0.832   1.286
    1XTA   HL1851371  31.671  -0.719   1.318
    1XTA   HL1951372  31.806  -0.691   1.210
    1XTA   HL2051373  31.786  -0.549   1.450
    1XTA   HL2151374  31.948  -0.622   1.417
    1XTA   HL2251375  31.818  -0.699   1.525
    1XTA   HL2351376  33.441  -1.304   0.624
    1XTA   HL2451377  33.299  -1.237   0.675
    1XTA   HL2551378  33.520  -1.105   0.492
    1XTA   HL2651379  33.375  -1.026   0.523
    1XTA   HL2751380  33.428  -0.973   0.739
    1XTA   HL2851381  33.530  -1.125   0.750
    1XTA   HL2951382  33.677  -0.943   0.773
    1XTA   HL3051383  33.701  -1.034   0.629
    1XTA   HL3151384  33.703  -0.804   0.563
    1XTA   HL3251385  33.561  -0.880   0.485
    1XTA   HL3351386  33.415  -0.771   0.674
    1XTA   HL3451387  33.553  -0.716   0.734
    1XTA   HL3551388  33.402  -0.504   0.681
    1XTA   HL3651389  33.328  -0.596   0.541
    1XTA   HL3751390  33.493  -0.252   0.624
    1XTA   HL3851391  33.565  -0.255   0.471
    1XTA   HL3951392  33.734  -0.309   0.641
    1XTA   HL4051393  33.713  -0.449   0.542
    1XTA   HL4151394  33.633  -0.433   0.700
    1XTA    CO851395  31.721  -0.923   1.443
    1XTA    CO951396  31.768  -0.956   1.201
    1XTA    OA651397  31.825  -0.924   1.110
    1XTA   HL4251398  31.715  -0.856   1.520
    1XTA   HL4351399  31.585  -0.933   1.403
    1XTA   HL4451400  33.320  -0.253   0.379
    1XTA   HL4551401  33.221  -0.393   0.396
    1XTA   CO1051402  33.301  -0.334   0.450
    1XTA   CO1151403  33.487  -0.462   0.349
    1XTA    OA751404  33.254  -0.299   0.543
    1XTA   HL4651405  33.607  -0.535   0.373
    1XTA   HL4751406  33.520  -0.373   0.294
    1XTA   HL4851407  31.669  -0.916   1.186
    1XTA   HL4951408  31.757  -1.063   1.221
    1XTA     NT51409  33.519  -2.144  -0.276
    1XTA    CN151410  33.636  -2.126  -0.338
    1XTA     C151411  33.642  -2.076  -0.471
    1XTA     C251412  33.765  -2.055  -0.535
    1XTA     C351413  33.882  -2.082  -0.466
    1XTA     C451414  33.880  -2.134  -0.336
    1XTA     C551415  33.755  -2.171  -0.280
    1XTA    CN251416  33.415  -2.180  -0.353
    1XTA     C651417  33.304  -2.101  -0.361
    1XTA     C751418  33.194  -2.142  -0.443
    1XTA     C851419  33.199  -2.260  -0.509
    1XTA     C951420  33.305  -2.347  -0.498
    1XTA    C1051421  33.414  -2.308  -0.417
    1XTA    CN351422  33.489  -2.119  -0.144
    1XTA    C1151423  33.415  -2.218  -0.079
    1XTA    C1251424  33.402  -2.210   0.058
    1XTA    C1351425  33.435  -2.095   0.137
    1XTA    C1451426  33.502  -1.992   0.068
    1XTA    C1551427  33.534  -2.002  -0.070
    1XTA     H151428  33.552  -2.044  -0.523
    1XTA     H251429  33.771  -1.987  -0.619
    1XTA     H351430  33.973  -2.147  -0.289
    1XTA     H451431  33.751  -2.212  -0.178
    1XTA     H551432  33.297  -2.014  -0.298
    1XTA     H651433  33.101  -2.078  -0.444
    1XTA     H751434  33.295  -2.441  -0.548
    1XTA     H851435  33.492  -2.380  -0.405
    1XTA     H951436  33.383  -2.313  -0.127
    1XTA    H1051437  33.354  -2.288   0.108
    1XTA    H1151438  33.525  -1.901   0.119
    1XTA    H1251439  33.579  -1.918  -0.116
    1XTA    OA151440  34.010  -2.066  -0.520
    1XTA    CO151441  34.051  -2.177  -0.599
    1XTA    OA251442  33.091  -2.308  -0.589
    1XTA    CO251443  32.971  -2.233  -0.587
    1XTA    CL151444  32.847  -2.322  -0.620
    1XTA    CL251445  32.734  -2.224  -0.656
    1XTA    CL351446  32.597  -2.285  -0.679
    1XTA    CL451447  32.489  -2.186  -0.710
    1XTA    CO351448  32.376  -2.258  -0.764
    1XTA    OA351449  32.281  -2.163  -0.807
    1XTA    CO451450  32.166  -2.211  -0.862
    1XTA    CT151451  32.072  -2.092  -0.884
    1XTA    CL551452  31.936  -2.138  -0.945
    1XTA    CL651453  31.954  -2.214  -1.073
    1XTA    OA451454  33.397  -2.091   0.269
    1XTA    CO551455  33.377  -1.964   0.325
    1XTA    CL751456  33.331  -1.989   0.472
    1XTA    CL851457  33.190  -2.047   0.494
    1XTA    CL951458  33.154  -2.063   0.647
    1XTA   CL1051459  33.231  -2.174   0.723
    1XTA    CO651460  33.157  -2.309   0.697
    1XTA    OA551461  33.230  -2.409   0.758
    1XTA    CO751462  33.353  -2.436   0.700
    1XTA    CT251463  33.349  -2.575   0.631
    1XTA   CL1151464  33.489  -2.610   0.569
    1XTA   CL1251465  33.541  -2.499   0.476
    1XTA    HL151466  33.990  -2.200  -0.688
    1XTA    HL251467  34.154  -2.151  -0.637
    1XTA    HL351468  34.051  -2.276  -0.545
    1XTA    HL451469  32.946  -2.187  -0.495
    1XTA    HL551470  32.976  -2.155  -0.672
    1XTA    HL651471  32.816  -2.390  -0.542
    1XTA    HL751472  32.865  -2.394  -0.698
    1XTA    HL851473  32.746  -2.172  -0.750
    1XTA    HL951474  32.723  -2.144  -0.588
    1XTA   HL1051475  32.614  -2.359  -0.759
    1XTA   HL1151476  32.565  -2.342  -0.588
    1XTA   HL1251477  32.528  -2.115  -0.787
    1XTA   HL1351478  32.455  -2.112  -0.634
    1XTA   HL1451479  32.399  -2.319  -0.852
    1XTA   HL1551480  32.328  -2.338  -0.699
    1XTA   HL1651481  32.192  -2.274  -0.952
    1XTA   HL1751482  32.125  -2.281  -0.785
    1XTA   HL1851483  31.860  -2.055  -0.940
    1XTA   HL1951484  31.883  -2.204  -0.881
    1XTA   HL2051485  31.993  -2.146  -1.141
    1XTA   HL2151486  31.860  -2.248  -1.115
    1XTA   HL2251487  32.015  -2.308  -1.063
    1XTA   HL2351488  33.287  -1.911   0.286
    1XTA   HL2451489  33.463  -1.895   0.309
    1XTA   HL2551490  33.425  -2.038   0.504
    1XTA   HL2651491  33.333  -1.896   0.527
    1XTA   HL2751492  33.122  -1.977   0.448
    1XTA   HL2851493  33.182  -2.135   0.436
    1XTA   HL2951494  33.166  -1.959   0.695
    1XTA   HL3051495  33.048  -2.075   0.662
    1XTA   HL3151496  33.335  -2.169   0.698
    1XTA   HL3251497  33.218  -2.163   0.829
    1XTA   HL3351498  33.055  -2.295   0.741
    1XTA   HL3451499  33.140  -2.339   0.594
    1XTA   HL3551500  33.438  -2.424   0.761
    1XTA   HL3651501  33.381  -2.360   0.622
    1XTA   HL3751502  33.504  -2.707   0.528
    1XTA   HL3851503  33.550  -2.631   0.653
    1XTA   HL3951504  33.463  -2.474   0.405
    1XTA   HL4051505  33.637  -2.532   0.428
    1XTA   HL4151506  33.555  -2.407   0.533
    1XTA    CO851507  32.143  -1.995  -0.980
    1XTA    CO951508  32.048  -2.016  -0.751
    1XTA    OA651509  31.977  -2.063  -0.683
    1XTA   HL4251510  32.188  -2.055  -1.059
    1XTA   HL4351511  32.258  -1.930  -0.928
    1XTA   HL4451512  33.135  -2.600   0.544
    1XTA   HL4551513  33.250  -2.485   0.461
    1XTA   CO1051514  33.245  -2.578   0.514
    1XTA   CO1151515  33.308  -2.687   0.737
    1XTA    OA751516  33.271  -2.656   0.442
    1XTA   HL4651517  33.277  -2.813   0.688
    1XTA   HL4751518  33.217  -2.662   0.794
    1XTA   HL4851519  32.017  -1.915  -0.780
    1XTA   HL4951520  32.140  -1.991  -0.702
    1XTA     NT51521  33.614   1.196   6.710
    1XTA    CN151522  33.553   1.100   6.640
    1XTA     C151523  33.486   1.001   6.709
    1XTA     C251524  33.420   0.897   6.646
    1XTA     C351525  33.416   0.895   6.508
    1XTA     C451526  33.490   0.991   6.436
    1XTA     C551527  33.554   1.095   6.505
    1XTA    CN251528  33.546   1.296   6.769
    1XTA     C651529  33.554   1.313   6.913
    1XTA     C751530  33.504   1.437   6.965
    1XTA     C851531  33.439   1.535   6.878
    1XTA     C951532  33.415   1.500   6.748
    1XTA    C1051533  33.466   1.384   6.692
    1XTA    CN351534  33.751   1.203   6.705
    1XTA    C1151535  33.817   1.310   6.642
    1XTA    C1251536  33.957   1.299   6.633
    1XTA    C1351537  34.034   1.194   6.692
    1XTA    C1451538  33.963   1.092   6.753
    1XTA    C1551539  33.824   1.097   6.766
    1XTA     H151540  33.492   1.023   6.815
    1XTA     H251541  33.365   0.824   6.698
    1XTA     H351542  33.493   0.979   6.331
    1XTA     H451543  33.604   1.171   6.451
    1XTA     H551544  33.605   1.242   6.982
    1XTA     H651545  33.510   1.446   7.067
    1XTA     H751546  33.355   1.567   6.690
    1XTA     H851547  33.451   1.359   6.587
    1XTA     H951548  33.764   1.392   6.603
    1XTA    H1051549  34.016   1.381   6.590
    1XTA    H1151550  34.025   1.010   6.786
    1XTA    H1251551  33.767   1.023   6.817
    1XTA    OA151552  33.335   0.798   6.452
    1XTA    CO151553  33.337   0.766   6.313
    1XTA    OA251554  33.412   1.663   6.927
    1XTA    CO251555  33.497   1.769   6.874
    1XTA    CL151556  33.408   1.903   6.861
    1XTA    CL251557  33.472   2.020   6.796
    1XTA    CL351558  33.386   2.147   6.792
    1XTA    CL451559  33.461   2.267   6.726
    1XTA    CO351560  33.483   2.240   6.574
    1XTA    OA351561  33.527   2.350   6.497
    1XTA    CO451562  33.580   2.317   6.370
    1XTA    CT151563  33.584   2.444   6.278
    1XTA    CL551564  33.636   2.388   6.142
    1XTA    CL651565  33.696   2.485   6.038
    1XTA    OA451566  34.169   1.176   6.683
    1XTA    CO551567  34.254   1.287   6.650
    1XTA    CL751568  34.264   1.290   6.498
    1XTA    CL851569  34.309   1.435   6.457
    1XTA    CL951570  34.320   1.464   6.310
    1XTA   CL1051571  34.392   1.596   6.265
    1XTA    CO651572  34.398   1.606   6.116
    1XTA    OA551573  34.453   1.737   6.077
    1XTA    CO751574  34.599   1.739   6.071
    1XTA    CT251575  34.661   1.874   6.123
    1XTA   CL1151576  34.608   1.989   6.041
    1XTA   CL1251577  34.659   2.131   6.074
    1XTA    HL151578  33.252   0.695   6.297
    1XTA    HL251579  33.318   0.865   6.270
    1XTA    HL351580  33.426   0.716   6.275
    1XTA    HL451581  33.588   1.781   6.929
    1XTA    HL551582  33.532   1.745   6.780
    1XTA    HL651583  33.382   1.939   6.957
    1XTA    HL751584  33.318   1.880   6.795
    1XTA    HL851585  33.501   1.987   6.694
    1XTA    HL951586  33.569   2.032   6.858
    1XTA   HL1051587  33.307   2.113   6.727
    1XTA   HL1151588  33.341   2.182   6.887
    1XTA   HL1251589  33.552   2.303   6.775
    1XTA   HL1351590  33.404   2.356   6.728
    1XTA   HL1451591  33.552   2.164   6.570
    1XTA   HL1551592  33.394   2.202   6.521
    1XTA   HL1651593  33.684   2.279   6.380
    1XTA   HL1751594  33.512   2.242   6.325
    1XTA   HL1851595  33.557   2.336   6.102
    1XTA   HL1951596  33.713   2.306   6.157
    1XTA   HL2051597  33.782   2.530   6.093
    1XTA   HL2151598  33.625   2.560   6.002
    1XTA   HL2251599  33.753   2.439   5.955
    1XTA   HL2351600  34.355   1.289   6.692
    1XTA   HL2451601  34.209   1.376   6.700
    1XTA   HL2551602  34.328   1.212   6.461
    1XTA   HL2651603  34.166   1.274   6.459
    1XTA   HL2751604  34.238   1.495   6.501
    1XTA   HL2851605  34.403   1.467   6.504
    1XTA   HL2951606  34.372   1.382   6.268
    1XTA   HL3051607  34.219   1.455   6.268
    1XTA   HL3151608  34.347   1.687   6.308
    1XTA   HL3251609  34.497   1.593   6.304
    1XTA   HL3351610  34.462   1.523   6.072
    1XTA   HL3451611  34.288   1.595   6.096
    1XTA   HL3551612  34.631   1.719   5.972
    1XTA   HL3651613  34.634   1.648   6.120
    1XTA   HL3751614  34.501   2.000   6.048
    1XTA   HL3851615  34.622   1.969   5.937
    1XTA   HL3951616  34.605   2.206   6.020
    1XTA   HL4051617  34.760   2.143   6.054
    1XTA   HL4151618  34.649   2.145   6.185
    1XTA    CO851619  33.689   2.540   6.348
    1XTA    CO951620  33.451   2.519   6.274
    1XTA    OA651621  33.365   2.446   6.263
    1XTA   HL4251622  33.664   2.550   6.450
    1XTA   HL4351623  33.823   2.487   6.346
    1XTA   HL4451624  34.866   1.906   6.041
    1XTA   HL4551625  34.850   1.931   6.215
    1XTA   CO1051626  34.811   1.872   6.132
    1XTA   CO1151627  34.615   1.880   6.282
    1XTA    OA751628  34.848   1.746   6.171
    1XTA   HL4651629  34.507   1.848   6.290
    1XTA   HL4751630  34.668   1.806   6.345
    1XTA   HL4851631  33.451   2.584   6.195
    1XTA   HL4951632  33.440   2.565   6.371
    1XTA     NT51633  31.930   3.356  -0.280
    1XTA    CN151634  32.056   3.304  -0.269
    1XTA     C151635  32.107   3.190  -0.337
    1XTA     C251636  32.248   3.158  -0.328
    1XTA     C351637  32.327   3.226  -0.239
    1XTA     C451638  32.271   3.335  -0.163
    1XTA     C551639  32.139   3.375  -0.180
    1XTA    CN251640  31.907   3.464  -0.357
    1XTA     C651641  31.916   3.593  -0.300
    1XTA     C751642  31.876   3.710  -0.361
    1XTA     C851643  31.845   3.702  -0.495
    1XTA     C951644  31.835   3.573  -0.559
    1XTA    C1051645  31.852   3.457  -0.485
    1XTA    CN351646  31.832   3.291  -0.212
    1XTA    C1151647  31.786   3.339  -0.091
    1XTA    C1251648  31.698   3.268  -0.015
    1XTA    C1351649  31.635   3.155  -0.059
    1XTA    C1451650  31.670   3.106  -0.185
    1XTA    C1551651  31.771   3.170  -0.255
    1XTA     H151652  32.049   3.150  -0.413
    1XTA     H251653  32.302   3.074  -0.378
    1XTA     H351654  32.333   3.394  -0.102
    1XTA     H451655  32.106   3.464  -0.125
    1XTA     H551656  31.955   3.592  -0.204
    1XTA     H651657  31.897   3.805  -0.307
    1XTA     H751658  31.813   3.576  -0.664
    1XTA     H851659  31.849   3.361  -0.535
    1XTA     H951660  31.827   3.420  -0.046
    1XTA    H1051661  31.677   3.301   0.085
    1XTA    H1151662  31.624   3.013  -0.230
    1XTA    H1251663  31.807   3.114  -0.345
    1XTA    OA151664  32.450   3.174  -0.233
    1XTA    CO151665  32.538   3.226  -0.133
    1XTA    OA251666  31.804   3.818  -0.552
    1XTA    CO251667  31.837   3.843  -0.689
    1XTA    CL151668  31.795   3.989  -0.736
    1XTA    CL251669  31.651   4.015  -0.719
    1XTA    CL351670  31.619   4.163  -0.703
    1XTA    CL451671  31.666   4.233  -0.575
    1XTA    CO351672  31.637   4.156  -0.444
    1XTA    OA351673  31.504   4.120  -0.439
    1XTA    CO451674  31.487   4.016  -0.348
    1XTA    CT151675  31.347   3.955  -0.368
    1XTA    CL551676  31.314   3.897  -0.507
    1XTA    CL651677  31.375   3.760  -0.535
    1XTA    OA451678  31.538   3.089   0.014
    1XTA    CO551679  31.433   3.024  -0.060
    1XTA    CL751680  31.335   2.961   0.038
    1XTA    CL851681  31.371   2.818   0.089
    1XTA    CL951682  31.319   2.701   0.007
    1XTA   CL1051683  31.374   2.713  -0.138
    1XTA    CO651684  31.356   2.589  -0.218
    1XTA    OA551685  31.417   2.597  -0.347
    1XTA    CO751686  31.394   2.474  -0.415
    1XTA    CT251687  31.495   2.429  -0.524
    1XTA   CL1151688  31.433   2.322  -0.627
    1XTA   CL1251689  31.373   2.190  -0.571
    1XTA    HL151690  32.632   3.182  -0.164
    1XTA    HL251691  32.548   3.336  -0.138
    1XTA    HL351692  32.508   3.207  -0.031
    1XTA    HL451693  31.941   3.843  -0.683
    1XTA    HL551694  31.791   3.767  -0.754
    1XTA    HL651695  31.816   3.995  -0.845
    1XTA    HL751696  31.855   4.055  -0.681
    1XTA    HL851697  31.603   3.950  -0.637
    1XTA    HL951698  31.590   3.977  -0.803
    1XTA   HL1051699  31.643   4.224  -0.788
    1XTA   HL1151700  31.509   4.166  -0.682
    1XTA   HL1251701  31.623   4.333  -0.578
    1XTA   HL1351702  31.769   4.256  -0.582
    1XTA   HL1451703  31.707   4.073  -0.452
    1XTA   HL1551704  31.664   4.205  -0.349
    1XTA   HL1651705  31.571   3.940  -0.355
    1XTA   HL1751706  31.501   4.062  -0.245
    1XTA   HL1851707  31.356   3.967  -0.582
    1XTA   HL1951708  31.208   3.891  -0.534
    1XTA   HL2051709  31.477   3.754  -0.503
    1XTA   HL2151710  31.341   3.730  -0.637
    1XTA   HL2251711  31.316   3.683  -0.491
    1XTA   HL2351712  31.466   2.956  -0.130
    1XTA   HL2451713  31.378   3.103  -0.113
    1XTA   HL2551714  31.310   3.019   0.126
    1XTA   HL2651715  31.243   2.964  -0.019
    1XTA   HL2751716  31.480   2.813   0.087
    1XTA   HL2851717  31.330   2.814   0.185
    1XTA   HL2951718  31.351   2.601   0.051
    1XTA   HL3051719  31.212   2.714   0.014
    1XTA   HL3151720  31.341   2.796  -0.198
    1XTA   HL3251721  31.479   2.737  -0.128
    1XTA   HL3351722  31.398   2.500  -0.176
    1XTA   HL3451723  31.248   2.572  -0.233
    1XTA   HL3551724  31.298   2.487  -0.462
    1XTA   HL3651725  31.379   2.395  -0.345
    1XTA   HL3751726  31.518   2.289  -0.688
    1XTA   HL3851727  31.366   2.373  -0.692
    1XTA   HL3951728  31.446   2.127  -0.523
    1XTA   HL4051729  31.306   2.134  -0.639
    1XTA   HL4151730  31.318   2.215  -0.484
    1XTA    CO851731  31.249   4.071  -0.351
    1XTA    CO951732  31.317   3.849  -0.251
    1XTA    OA651733  31.329   3.905  -0.156
    1XTA   HL4251734  31.258   4.140  -0.434
    1XTA   HL4351735  31.296   4.134  -0.239
    1XTA   HL4451736  31.584   2.304  -0.386
    1XTA   HL4551737  31.682   2.324  -0.515
    1XTA   CO1051738  31.617   2.382  -0.454
    1XTA   CO1151739  31.536   2.546  -0.620
    1XTA    OA751740  31.422   2.613  -0.671
    1XTA   HL4651741  31.585   2.626  -0.567
    1XTA   HL4751742  31.594   2.500  -0.702
    1XTA   HL4851743  31.380   3.765  -0.264
    1XTA   HL4951744  31.211   3.819  -0.255
    1XTA     NT51745  28.377   3.508   5.775
    1XTA    CN151746  28.252   3.483   5.727
    1XTA     C151747  28.215   3.354   5.693
    1XTA     C251748  28.088   3.325   5.646
    1XTA     C351749  27.998   3.428   5.621
    1XTA     C451750  28.030   3.557   5.653
    1XTA     C551751  28.159   3.593   5.707
    1XTA    CN251752  28.417   3.469   5.897
    1XTA     C651753  28.330   3.505   6.005
    1XTA     C751754  28.368   3.475   6.133
    1XTA     C851755  28.483   3.396   6.156
    1XTA     C951756  28.569   3.364   6.050
    1XTA    C1051757  28.536   3.401   5.920
    1XTA    CN351758  28.475   3.572   5.703
    1XTA    C1151759  28.555   3.677   5.755
    1XTA    C1251760  28.670   3.717   5.685
    1XTA    C1351761  28.699   3.666   5.559
    1XTA    C1451762  28.626   3.564   5.506
    1XTA    C1551763  28.510   3.525   5.575
    1XTA     H151764  28.290   3.271   5.693
    1XTA     H251765  28.062   3.219   5.619
    1XTA     H351766  27.946   3.625   5.631
    1XTA     H451767  28.182   3.696   5.737
    1XTA     H551768  28.240   3.554   5.980
    1XTA     H651769  28.304   3.510   6.216
    1XTA     H751770  28.667   3.323   6.063
    1XTA     H851771  28.591   3.380   5.831
    1XTA     H951772  28.522   3.709   5.853
    1XTA    H1051773  28.737   3.788   5.718
    1XTA    H1151774  28.636   3.512   5.415
    1XTA    H1251775  28.462   3.434   5.535
    1XTA    OA151776  27.875   3.414   5.580
    1XTA    CO151777  27.834   3.283   5.549
    1XTA    OA251778  28.513   3.366   6.289
    1XTA    CO251779  28.628   3.284   6.310
    1XTA    CL151780  28.648   3.261   6.464
    1XTA    CL251781  28.520   3.189   6.518
    1XTA    CL351782  28.507   3.173   6.666
    1XTA    CL451783  28.432   3.295   6.724
    1XTA    CO351784  28.421   3.292   6.878
    1XTA    OA351785  28.379   3.421   6.936
    1XTA    CO451786  28.370   3.412   7.080
    1XTA    CT151787  28.381   3.551   7.145
    1XTA    CL551788  28.511   3.616   7.083
    1XTA    CL651789  28.547   3.754   7.115
    1XTA    OA451790  28.819   3.723   5.516
    1XTA    CO551791  28.862   3.673   5.391
    1XTA    CL751792  29.010   3.718   5.397
    1XTA    CL851793  29.095   3.654   5.509
    1XTA    CL951794  29.242   3.701   5.490
    1XTA   CL1051795  29.340   3.653   5.594
    1XTA    CO651796  29.325   3.509   5.632
    1XTA    OA551797  29.400   3.493   5.749
    1XTA    CO751798  29.402   3.357   5.795
    1XTA    CT251799  29.480   3.355   5.929
    1XTA   CL1151800  29.436   3.478   6.012
    1XTA   CL1251801  29.283   3.514   6.033
    1XTA    HL151802  27.726   3.299   5.525
    1XTA    HL251803  27.889   3.244   5.466
    1XTA    HL351804  27.851   3.226   5.636
    1XTA    HL451805  28.611   3.185   6.275
    1XTA    HL551806  28.711   3.336   6.263
    1XTA    HL651807  28.670   3.352   6.516
    1XTA    HL751808  28.741   3.209   6.483
    1XTA    HL851809  28.520   3.089   6.486
    1XTA    HL951810  28.430   3.242   6.480
    1XTA   HL1051811  28.450   3.088   6.696
    1XTA   HL1151812  28.614   3.162   6.702
    1XTA   HL1251813  28.335   3.306   6.680
    1XTA   HL1351814  28.485   3.387   6.704
    1XTA   HL1451815  28.336   3.224   6.903
    1XTA   HL1551816  28.506   3.264   6.935
    1XTA   HL1651817  28.280   3.347   7.102
    1XTA   HL1751818  28.448   3.354   7.116
    1XTA   HL1851819  28.503   3.609   6.978
    1XTA   HL1951820  28.598   3.568   7.112
    1XTA   HL2051821  28.651   3.769   7.121
    1XTA   HL2151822  28.506   3.777   7.212
    1XTA   HL2251823  28.501   3.833   7.053
    1XTA   HL2351824  28.806   3.714   5.307
    1XTA   HL2451825  28.858   3.566   5.396
    1XTA   HL2551826  29.061   3.685   5.302
    1XTA   HL2651827  29.022   3.822   5.399
    1XTA   HL2751828  29.061   3.681   5.603
    1XTA   HL2851829  29.088   3.545   5.499
    1XTA   HL2951830  29.279   3.652   5.398
    1XTA   HL3051831  29.245   3.803   5.472
    1XTA   HL3151832  29.442   3.667   5.569
    1XTA   HL3251833  29.312   3.703   5.693
    1XTA   HL3351834  29.222   3.484   5.643
    1XTA   HL3451835  29.370   3.450   5.544
    1XTA   HL3551836  29.436   3.293   5.717
    1XTA   HL3651837  29.298   3.326   5.812
    1XTA   HL3751838  29.479   3.571   5.968
    1XTA   HL3851839  29.504   3.476   6.100
    1XTA   HL3951840  29.228   3.429   6.068
    1XTA   HL4051841  29.255   3.548   5.934
    1XTA   HL4151842  29.274   3.604   6.089
    1XTA    CO851843  28.390   3.529   7.296
    1XTA    CO951844  28.264   3.646   7.110
    1XTA    OA651845  28.230   3.645   6.999
    1XTA   HL4251846  28.398   3.634   7.334
    1XTA   HL4351847  28.507   3.467   7.349
    1XTA   HL4451848  29.664   3.311   5.801
    1XTA   HL4551849  29.647   3.478   5.849
    1XTA   CO1051850  29.633   3.376   5.887
    1XTA   CO1151851  29.464   3.218   6.007
    1XTA    OA751852  29.724   3.333   5.987
    1XTA   HL4651853  29.549   3.195   6.072
    1XTA   HL4751854  29.450   3.139   5.931
    1XTA   HL4851855  28.283   3.751   7.144
    1XTA   HL4951856  28.176   3.609   7.165
    1XTA     NT51857  27.550   1.436   8.483
    1XTA    CN151858  27.601   1.354   8.581
    1XTA     C151859  27.744   1.336   8.591
    1XTA     C251860  27.794   1.241   8.679
    1XTA     C351861  27.706   1.155   8.756
    1XTA     C451862  27.563   1.174   8.741
    1XTA     C551863  27.513   1.273   8.654
    1XTA    CN251864  27.506   1.558   8.518
    1XTA     C651865  27.366   1.592   8.517
    1XTA     C751866  27.316   1.717   8.575
    1XTA     C851867  27.415   1.804   8.626
    1XTA     C951868  27.552   1.769   8.629
    1XTA    C1051869  27.597   1.652   8.572
    1XTA    CN351870  27.542   1.388   8.358
    1XTA    C1151871  27.607   1.458   8.255
    1XTA    C1251872  27.589   1.427   8.121
    1XTA    C1351873  27.529   1.308   8.084
    1XTA    C1451874  27.468   1.228   8.187
    1XTA    C1551875  27.469   1.274   8.321
    1XTA     H151876  27.804   1.412   8.536
    1XTA     H251877  27.904   1.218   8.686
    1XTA     H351878  27.497   1.106   8.795
    1XTA     H451879  27.410   1.280   8.651
    1XTA     H551880  27.287   1.527   8.469
    1XTA     H651881  27.208   1.727   8.575
    1XTA     H751882  27.623   1.842   8.665
    1XTA     H851883  27.705   1.634   8.567
    1XTA     H951884  27.655   1.549   8.283
    1XTA    H1051885  27.613   1.499   8.044
    1XTA    H1151886  27.415   1.133   8.163
    1XTA    H1251887  27.412   1.222   8.402
    1XTA    OA151888  27.755   1.065   8.841
    1XTA    CO151889  27.865   0.993   8.792
    1XTA    OA251890  27.377   1.924   8.685
    1XTA    CO251891  27.391   2.032   8.593
    1XTA    CL151892  27.303   2.015   8.477
    1XTA    CL251893  27.320   2.133   8.375
    1XTA    CL351894  27.196   2.148   8.281
    1XTA    CL451895  27.222   2.241   8.166
    1XTA    CO351896  27.129   2.226   8.045
    1XTA    OA351897  26.986   2.227   8.077
    1XTA    CO451898  26.896   2.262   7.973
    1XTA    CT151899  26.775   2.156   7.952
    1XTA    CL551900  26.654   2.189   8.051
    1XTA    CL651901  26.697   2.189   8.198
    1XTA    OA451902  27.513   1.265   7.948
    1XTA    CO551903  27.490   1.373   7.861
    1XTA    CL751904  27.423   1.330   7.728
    1XTA    CL851905  27.397   1.453   7.643
    1XTA    CL951906  27.317   1.418   7.517
    1XTA   CL1051907  27.317   1.536   7.422
    1XTA    CO651908  27.231   1.498   7.299
    1XTA    OA551909  27.095   1.484   7.339
    1XTA    CO751910  27.006   1.461   7.235
    1XTA    CT251911  26.882   1.409   7.296
    1XTA   CL1151912  26.851   1.487   7.432
    1XTA   CL1251913  26.706   1.464   7.490
    1XTA    HL151914  27.858   0.904   8.854
    1XTA    HL251915  27.866   0.967   8.683
    1XTA    HL351916  27.958   1.044   8.823
    1XTA    HL451917  27.376   2.127   8.644
    1XTA    HL551918  27.492   2.030   8.566
    1XTA    HL651919  27.204   2.000   8.517
    1XTA    HL751920  27.331   1.928   8.424
    1XTA    HL851921  27.406   2.114   8.316
    1XTA    HL951922  27.332   2.227   8.431
    1XTA   HL1051923  27.167   2.057   8.238
    1XTA   HL1151924  27.108   2.170   8.340
    1XTA   HL1251925  27.324   2.224   8.137
    1XTA   HL1351926  27.207   2.343   8.200
    1XTA   HL1451927  27.145   2.319   7.977
    1XTA   HL1551928  27.149   2.138   7.982
    1XTA   HL1651929  26.859   2.364   7.978
    1XTA   HL1751930  26.940   2.274   7.878
    1XTA   HL1851931  26.575   2.121   8.047
    1XTA   HL1951932  26.615   2.289   8.021
    1XTA   HL2051933  26.761   2.272   8.246
    1XTA   HL2151934  26.757   2.101   8.234
    1XTA   HL2251935  26.611   2.190   8.260
    1XTA   HL2351936  27.590   1.406   7.833
    1XTA   HL2451937  27.450   1.456   7.916
    1XTA   HL2551938  27.483   1.254   7.678
    1XTA   HL2651939  27.323   1.285   7.751
    1XTA   HL2751940  27.349   1.535   7.695
    1XTA   HL2851941  27.493   1.498   7.605
    1XTA   HL2951942  27.354   1.326   7.468
    1XTA   HL3051943  27.213   1.393   7.542
    1XTA   HL3151944  27.283   1.635   7.463
    1XTA   HL3251945  27.421   1.558   7.384
    1XTA   HL3351946  27.248   1.587   7.231
    1XTA   HL3451947  27.270   1.411   7.253
    1XTA   HL3551948  27.045   1.390   7.165
    1XTA   HL3651949  27.001   1.559   7.194
    1XTA   HL3751950  26.858   1.586   7.402
    1XTA   HL3851951  26.926   1.457   7.505
    1XTA   HL3951952  26.672   1.362   7.489
    1XTA   HL4051953  26.635   1.535   7.449
    1XTA   HL4151954  26.713   1.495   7.596
    1XTA    CO851955  26.825   2.012   7.968
    1XTA    CO951956  26.712   2.149   7.810
    1XTA    OA651957  26.727   1.917   8.001
    1XTA   HL4251958  26.888   2.005   8.056
    1XTA   HL4351959  26.881   1.989   7.881
    1XTA   HL4451960  26.986   1.267   7.393
    1XTA   HL4551961  26.813   1.242   7.414
    1XTA   CO1051962  26.892   1.265   7.337
    1XTA   CO1151963  26.765   1.415   7.189
    1XTA    OA751964  26.723   1.556   7.171
    1XTA   HL4651965  26.800   1.377   7.095
    1XTA   HL4751966  26.690   1.342   7.224
    1XTA   HL4851967  26.655   2.063   7.800
    1XTA   HL4951968  26.800   2.135   7.740
    1XTA     NT51969  31.384  -2.836  -0.502
    1XTA    CN151970  31.401  -2.967  -0.487
    1XTA     C151971  31.324  -3.028  -0.392
    1XTA     C251972  31.348  -3.167  -0.369
    1XTA     C351973  31.444  -3.236  -0.446
    1XTA     C451974  31.509  -3.170  -0.550
    1XTA     C551975  31.498  -3.034  -0.564
    1XTA    CN251976  31.429  -2.755  -0.404
    1XTA     C651977  31.565  -2.735  -0.372
    1XTA     C751978  31.604  -2.626  -0.292
    1XTA     C851979  31.509  -2.537  -0.238
    1XTA     C951980  31.368  -2.559  -0.271
    1XTA    C1051981  31.335  -2.668  -0.348
    1XTA    CN351982  31.356  -2.774  -0.622
    1XTA    C1151983  31.452  -2.692  -0.689
    1XTA    C1251984  31.414  -2.632  -0.811
    1XTA    C1351985  31.282  -2.640  -0.859
    1XTA    C1451986  31.188  -2.721  -0.792
    1XTA    C1551987  31.228  -2.789  -0.674
    1XTA     H151988  31.246  -2.974  -0.336
    1XTA     H251989  31.294  -3.214  -0.287
    1XTA     H351990  31.576  -3.224  -0.622
    1XTA     H451991  31.552  -2.977  -0.635
    1XTA     H551992  31.641  -2.797  -0.406
    1XTA     H651993  31.709  -2.620  -0.268
    1XTA     H751994  31.295  -2.489  -0.242
    1XTA     H851995  31.224  -2.685  -0.373
    1XTA     H951996  31.558  -2.694  -0.650
    1XTA    H1051997  31.487  -2.585  -0.874
    1XTA    H1151998  31.087  -2.733  -0.830
    1XTA    H1251999  31.151  -2.842  -0.614
    1XTA    OA152000  31.461  -3.376  -0.443
    1XTA    CO152001  31.393  -3.445  -0.341
    1XTA    OA252002  31.549  -2.433  -0.158
    1XTA    CO252003  31.655  -2.464  -0.072
    1XTA    CL152004  31.610  -2.557   0.042
    1XTA    CL252005  31.493  -2.500   0.124
    1XTA    CL352006  31.455  -2.581   0.240
    1XTA    CL452007  31.355  -2.521   0.336
    1XTA    CO352008  31.420  -2.431   0.442
    1XTA    OA352009  31.480  -2.515   0.542
    1XTA    CO452010  31.564  -2.442   0.629
    1XTA    CT152011  31.621  -2.541   0.727
    1XTA    CL552012  31.524  -2.642   0.781
    1XTA    CL652013  31.408  -2.595   0.871
    1XTA    OA452014  31.247  -2.582  -0.979
    1XTA    CO552015  31.117  -2.580  -1.023
    1XTA    CL752016  31.107  -2.485  -1.142
    1XTA    CL852017  31.177  -2.339  -1.126
    1XTA    CL952018  31.095  -2.239  -1.044
    1XTA   CL1052019  30.968  -2.196  -1.119
    1XTA    CO652020  30.856  -2.140  -1.031
    1XTA    OA552021  30.770  -2.057  -1.110
    1XTA    CO752022  30.819  -1.929  -1.133
    1XTA    CT252023  30.717  -1.820  -1.099
    1XTA   CL1152024  30.771  -1.673  -1.108
    1XTA   CL1252025  30.866  -1.635  -0.994
    1XTA    HL152026  31.420  -3.413  -0.243
    1XTA    HL252027  31.285  -3.424  -0.353
    1XTA    HL352028  31.403  -3.555  -0.348
    1XTA    HL452029  31.741  -2.500  -0.125
    1XTA    HL552030  31.684  -2.373  -0.021
    1XTA    HL652031  31.696  -2.566   0.106
    1XTA    HL752032  31.585  -2.655  -0.002
    1XTA    HL852033  31.408  -2.479   0.052
    1XTA    HL952034  31.516  -2.396   0.154
    1XTA   HL1052035  31.423  -2.682   0.215
    1XTA   HL1152036  31.547  -2.594   0.301
    1XTA   HL1252037  31.314  -2.600   0.399
    1XTA   HL1352038  31.273  -2.486   0.279
    1XTA   HL1452039  31.500  -2.371   0.391
    1XTA   HL1552040  31.343  -2.371   0.487
    1XTA   HL1652041  31.658  -2.402   0.585
    1XTA   HL1752042  31.514  -2.368   0.691
    1XTA   HL1852043  31.596  -2.706   0.835
    1XTA   HL1952044  31.479  -2.691   0.697
    1XTA   HL2052045  31.371  -2.504   0.825
    1XTA   HL2152046  31.433  -2.586   0.980
    1XTA   HL2252047  31.320  -2.663   0.867
    1XTA   HL2352048  31.044  -2.561  -0.943
    1XTA   HL2452049  31.105  -2.683  -1.053
    1XTA   HL2552050  31.140  -2.551  -1.231
    1XTA   HL2652051  31.003  -2.483  -1.142
    1XTA   HL2752052  31.282  -2.355  -1.092
    1XTA   HL2852053  31.189  -2.292  -1.223
    1XTA   HL2952054  31.063  -2.277  -0.944
    1XTA   HL3052055  31.156  -2.149  -1.032
    1XTA   HL3152056  30.998  -2.130  -1.191
    1XTA   HL3252057  30.935  -2.274  -1.187
    1XTA   HL3352058  30.786  -2.213  -0.984
    1XTA   HL3452059  30.902  -2.090  -0.947
    1XTA   HL3552060  30.851  -1.933  -1.235
    1XTA   HL3652061  30.916  -1.914  -1.083
    1XTA   HL3752062  30.686  -1.603  -1.110
    1XTA   HL3852063  30.828  -1.655  -1.207
    1XTA   HL3952064  30.799  -1.619  -0.905
    1XTA   HL4052065  30.919  -1.541  -1.020
    1XTA   HL4152066  30.931  -1.721  -0.966
    1XTA    CO852067  31.698  -2.478   0.841
    1XTA    CO952068  31.733  -2.622   0.642
    1XTA    OA652069  31.789  -2.384   0.793
    1XTA   HL4252070  31.747  -2.558   0.887
    1XTA   HL4352071  31.623  -2.433   0.916
    1XTA   HL4452072  30.568  -1.923  -0.997
    1XTA   HL4552073  30.563  -1.763  -0.957
    1XTA   CO1052074  30.636  -1.842  -0.970
    1XTA   CO1152075  30.618  -1.830  -1.224
    1XTA    OA752076  30.501  -1.756  -1.193
    1XTA   HL4652077  30.672  -1.791  -1.313
    1XTA   HL4752078  30.590  -1.930  -1.252
    1XTA   HL4852079  31.690  -2.647   0.545
    1XTA   HL4952080  31.816  -2.564   0.610
    1XTA     NT52081  25.525  -1.873   6.679
    1XTA    CN152082  25.448  -1.978   6.635
    1XTA     C152083  25.358  -2.047   6.719
    1XTA     C252084  25.291  -2.169   6.679
    1XTA     C352085  25.321  -2.220   6.556
    1XTA     C452086  25.423  -2.161   6.473
    1XTA     C552087  25.477  -2.034   6.510
    1XTA    CN252088  25.639  -1.903   6.748
    1XTA     C652089  25.628  -1.934   6.884
    1XTA     C752090  25.748  -1.946   6.956
    1XTA     C852091  25.880  -1.946   6.897
    1XTA     C952092  25.884  -1.905   6.761
    1XTA    C1052093  25.765  -1.882   6.686
    1XTA    CN352094  25.491  -1.747   6.652
    1XTA    C1152095  25.441  -1.714   6.523
    1XTA    C1252096  25.408  -1.580   6.491
    1XTA    C1352097  25.435  -1.478   6.585
    1XTA    C1452098  25.498  -1.507   6.711
    1XTA    C1552099  25.523  -1.646   6.741
    1XTA     H152100  25.327  -2.005   6.810
    1XTA     H252101  25.214  -2.208   6.745
    1XTA     H352102  25.452  -2.201   6.374
    1XTA     H452103  25.552  -1.994   6.448
    1XTA     H552104  25.536  -1.937   6.930
    1XTA     H652105  25.744  -1.978   7.060
    1XTA     H752106  25.976  -1.895   6.702
    1XTA     H852107  25.763  -1.852   6.581
    1XTA     H952108  25.421  -1.789   6.456
    1XTA    H1052109  25.363  -1.550   6.400
    1XTA    H1152110  25.523  -1.426   6.781
    1XTA    H1252111  25.572  -1.665   6.837
    1XTA    OA152112  25.272  -2.339   6.506
    1XTA    CO152113  25.139  -2.372   6.546
    1XTA    OA252114  25.981  -1.982   6.981
    1XTA    CO252115  26.111  -2.007   6.925
    1XTA    CL152116  26.205  -1.999   7.044
    1XTA    CL252117  26.352  -1.975   7.022
    1XTA    CL352118  26.368  -1.839   6.959
    1XTA    CL452119  26.494  -1.768   7.011
    1XTA    CO352120  26.523  -1.623   6.965
    1XTA    OA352121  26.599  -1.607   6.848
    1XTA    CO452122  26.529  -1.649   6.733
    1XTA    CT152123  26.603  -1.617   6.604
    1XTA    CL552124  26.588  -1.462   6.575
    1XTA    CL652125  26.666  -1.365   6.668
    1XTA    OA452126  25.401  -1.346   6.560
    1XTA    CO552127  25.438  -1.299   6.429
    1XTA    CL752128  25.452  -1.142   6.428
    1XTA    CL852129  25.511  -1.095   6.302
    1XTA    CL952130  25.651  -1.141   6.279
    1XTA   CL1052131  25.740  -1.111   6.399
    1XTA    CO652132  25.877  -1.164   6.378
    1XTA    OA552133  25.861  -1.307   6.377
    1XTA    CO752134  25.979  -1.384   6.352
    1XTA    CT252135  25.952  -1.535   6.378
    1XTA   CL1152136  25.881  -1.555   6.516
    1XTA   CL1252137  25.942  -1.496   6.645
    1XTA    HL152138  25.128  -2.381   6.654
    1XTA    HL252139  25.059  -2.312   6.502
    1XTA    HL352140  25.115  -2.469   6.503
    1XTA    HL452141  26.123  -2.096   6.877
    1XTA    HL552142  26.125  -1.930   6.847
    1XTA    HL652143  26.200  -2.090   7.099
    1XTA    HL752144  26.157  -1.928   7.108
    1XTA    HL852145  26.390  -2.054   6.961
    1XTA    HL952146  26.407  -1.973   7.118
    1XTA   HL1052147  26.382  -1.854   6.850
    1XTA   HL1152148  26.279  -1.775   6.962
    1XTA   HL1252149  26.575  -1.841   6.991
    1XTA   HL1352150  26.473  -1.758   7.117
    1XTA   HL1452151  26.424  -1.579   6.954
    1XTA   HL1552152  26.580  -1.583   7.046
    1XTA   HL1652153  26.515  -1.761   6.731
    1XTA   HL1752154  26.433  -1.593   6.719
    1XTA   HL1852155  26.487  -1.436   6.590
    1XTA   HL1952156  26.605  -1.449   6.468
    1XTA   HL2052157  26.631  -1.267   6.635
    1XTA   HL2152158  26.776  -1.373   6.664
    1XTA   HL2252159  26.636  -1.372   6.773
    1XTA   HL2352160  25.367  -1.332   6.350
    1XTA   HL2452161  25.530  -1.342   6.409
    1XTA   HL2552162  25.353  -1.103   6.430
    1XTA   HL2652163  25.509  -1.107   6.510
    1XTA   HL2752164  25.455  -1.120   6.215
    1XTA   HL2852165  25.515  -0.987   6.299
    1XTA   HL2952166  25.647  -1.245   6.242
    1XTA   HL3052167  25.685  -1.097   6.198
    1XTA   HL3152168  25.743  -1.000   6.413
    1XTA   HL3252169  25.696  -1.167   6.480
    1XTA   HL3352170  25.911  -1.131   6.284
    1XTA   HL3452171  25.940  -1.128   6.457
    1XTA   HL3552172  26.063  -1.359   6.423
    1XTA   HL3652173  26.001  -1.372   6.244
    1XTA   HL3752174  25.863  -1.658   6.534
    1XTA   HL3852175  25.780  -1.521   6.509
    1XTA   HL3952176  25.942  -1.386   6.635
    1XTA   HL4052177  26.046  -1.532   6.648
    1XTA   HL4152178  25.904  -1.537   6.736
    1XTA    CO852179  26.551  -1.707   6.483
    1XTA    CO952180  26.756  -1.645   6.617
    1XTA    OA652181  26.409  -1.707   6.464
    1XTA   HL4252182  26.575  -1.810   6.514
    1XTA   HL4352183  26.612  -1.688   6.397
    1XTA   HL4452184  26.168  -1.572   6.432
    1XTA   HL4552185  26.124  -1.632   6.263
    1XTA   CO1052186  26.093  -1.619   6.370
    1XTA   CO1152187  25.850  -1.592   6.280
    1XTA    OA752188  25.903  -1.582   6.151
    1XTA   HL4652189  25.823  -1.695   6.291
    1XTA   HL4752190  25.753  -1.535   6.285
    1XTA   HL4852191  26.772  -1.754   6.630
    1XTA   HL4952192  26.805  -1.601   6.706
    1XTA     NT52193  27.082  -0.267   1.699
    1XTA    CN152194  27.165  -0.171   1.643
    1XTA     C152195  27.159  -0.149   1.506
    1XTA     C252196  27.243  -0.060   1.442
    1XTA     C352197  27.347   0.002   1.519
    1XTA     C452198  27.354  -0.024   1.661
    1XTA     C552199  27.261  -0.110   1.724
    1XTA    CN252200  26.954  -0.237   1.742
    1XTA     C652201  26.915  -0.264   1.874
    1XTA     C752202  26.793  -0.233   1.927
    1XTA     C852203  26.692  -0.182   1.842
    1XTA     C952204  26.734  -0.157   1.705
    1XTA    C1052205  26.861  -0.180   1.653
    1XTA    CN352206  27.101  -0.399   1.673
    1XTA    C1152207  27.205  -0.465   1.747
    1XTA    C1252208  27.223  -0.599   1.720
    1XTA    C1352209  27.164  -0.667   1.610
    1XTA    C1452210  27.084  -0.594   1.520
    1XTA    C1552211  27.050  -0.462   1.555
    1XTA     H152212  27.073  -0.188   1.448
    1XTA     H252213  27.232  -0.054   1.332
    1XTA     H352214  27.420   0.024   1.728
    1XTA     H452215  27.269  -0.133   1.830
    1XTA     H552216  26.989  -0.313   1.934
    1XTA     H652217  26.775  -0.266   2.028
    1XTA     H752218  26.659  -0.112   1.637
    1XTA     H852219  26.894  -0.143   1.557
    1XTA     H952220  27.258  -0.416   1.829
    1XTA    H1052221  27.290  -0.662   1.781
    1XTA    H1152222  27.048  -0.642   1.432
    1XTA    H1252223  26.978  -0.406   1.495
    1XTA    OA152224  27.438   0.082   1.459
    1XTA    CO152225  27.453   0.078   1.322
    1XTA    OA252226  26.567  -0.148   1.879
    1XTA    CO252227  26.529  -0.180   2.014
    1XTA    CL152228  26.400  -0.114   2.063
    1XTA    CL252229  26.413   0.033   2.106
    1XTA    CL352230  26.275   0.092   2.140
    1XTA    CL452231  26.284   0.246   2.157
    1XTA    CO352232  26.146   0.320   2.136
    1XTA    OA352233  26.123   0.301   2.000
    1XTA    CO452234  26.032   0.392   1.953
    1XTA    CT152235  25.976   0.350   1.819
    1XTA    CL552236  25.868   0.231   1.830
    1XTA    CL652237  25.928   0.092   1.864
    1XTA    OA452238  27.186  -0.800   1.583
    1XTA    CO552239  27.265  -0.885   1.669
    1XTA    CL752240  27.261  -1.036   1.622
    1XTA    CL852241  27.320  -1.060   1.479
    1XTA    CL952242  27.399  -1.189   1.463
    1XTA   CL1052243  27.444  -1.202   1.318
    1XTA    CO652244  27.516  -1.330   1.290
    1XTA    OA552245  27.439  -1.440   1.336
    1XTA    CO752246  27.356  -1.478   1.228
    1XTA    CT252247  27.282  -1.614   1.229
    1XTA   CL1152248  27.175  -1.618   1.117
    1XTA   CL1252249  27.067  -1.727   1.131
    1XTA    HL152250  27.531   0.144   1.303
    1XTA    HL252251  27.482  -0.021   1.291
    1XTA    HL352252  27.358   0.109   1.275
    1XTA    HL452253  26.531  -0.289   2.034
    1XTA    HL552254  26.601  -0.140   2.089
    1XTA    HL652255  26.362  -0.169   2.146
    1XTA    HL752256  26.322  -0.112   1.981
    1XTA    HL852257  26.458   0.081   2.022
    1XTA    HL952258  26.481   0.039   2.187
    1XTA   HL1052259  26.198   0.067   2.059
    1XTA   HL1152260  26.243   0.055   2.234
    1XTA   HL1252261  26.360   0.278   2.087
    1XTA   HL1352262  26.315   0.286   2.246
    1XTA   HL1452263  26.060   0.286   2.199
    1XTA   HL1552264  26.156   0.430   2.165
    1XTA   HL1652265  25.943   0.408   2.023
    1XTA   HL1752266  26.069   0.500   1.943
    1XTA   HL1852267  25.811   0.220   1.738
    1XTA   HL1952268  25.793   0.255   1.908
    1XTA   HL2052269  25.851   0.027   1.908
    1XTA   HL2152270  26.009   0.091   1.930
    1XTA   HL2252271  25.971   0.051   1.773
    1XTA   HL2352272  27.233  -0.870   1.770
    1XTA   HL2452273  27.366  -0.844   1.670
    1XTA   HL2552274  27.316  -1.099   1.695
    1XTA   HL2652275  27.163  -1.080   1.633
    1XTA   HL2752276  27.239  -1.053   1.398
    1XTA   HL2852277  27.382  -0.973   1.465
    1XTA   HL2952278  27.483  -1.191   1.529
    1XTA   HL3052279  27.331  -1.272   1.477
    1XTA   HL3152280  27.364  -1.196   1.250
    1XTA   HL3252281  27.495  -1.108   1.295
    1XTA   HL3352282  27.548  -1.341   1.192
    1XTA   HL3452283  27.611  -1.334   1.350
    1XTA   HL3552284  27.412  -1.485   1.136
    1XTA   HL3652285  27.279  -1.407   1.220
    1XTA   HL3752286  27.224  -1.628   1.022
    1XTA   HL3852287  27.121  -1.522   1.108
    1XTA   HL3952288  27.112  -1.824   1.082
    1XTA   HL4052289  26.980  -1.697   1.064
    1XTA   HL4152290  27.046  -1.763   1.228
    1XTA    CO852291  26.097   0.311   1.724
    1XTA    CO952292  25.916   0.485   1.755
    1XTA    OA652293  25.834   0.527   1.829
    1XTA   HL4252294  26.138   0.215   1.757
    1XTA   HL4352295  26.202   0.403   1.731
    1XTA   HL4452296  27.184  -1.717   1.405
    1XTA   HL4552297  27.274  -1.578   1.447
    1XTA   CO1052298  27.210  -1.615   1.373
    1XTA   CO1152299  27.382  -1.729   1.223
    1XTA    OA752300  27.312  -1.852   1.224
    1XTA   HL4652301  27.441  -1.728   1.126
    1XTA   HL4752302  27.449  -1.723   1.310
    1XTA   HL4852303  25.878   0.472   1.657
    1XTA   HL4952304  25.998   0.557   1.752
    1XTA     NT52305  29.840   1.373   3.283
    1XTA    CN152306  29.962   1.430   3.275
    1XTA     C152307  29.972   1.569   3.244
    1XTA     C252308  30.097   1.635   3.265
    1XTA     C352309  30.220   1.559   3.277
    1XTA     C452310  30.208   1.419   3.285
    1XTA     C552311  30.081   1.356   3.286
    1XTA    CN252312  29.765   1.359   3.171
    1XTA     C652313  29.631   1.404   3.169
    1XTA     C752314  29.560   1.396   3.046
    1XTA     C852315  29.621   1.336   2.935
    1XTA     C952316  29.748   1.270   2.943
    1XTA    C1052317  29.820   1.284   3.064
    1XTA    CN352318  29.803   1.307   3.391
    1XTA    C1152319  29.748   1.375   3.506
    1XTA    C1252320  29.714   1.303   3.623
    1XTA    C1352321  29.717   1.163   3.631
    1XTA    C1452322  29.760   1.099   3.510
    1XTA    C1552323  29.808   1.166   3.399
    1XTA     H152324  29.892   1.632   3.214
    1XTA     H252325  30.098   1.742   3.273
    1XTA     H352326  30.288   1.352   3.293
    1XTA     H452327  30.072   1.248   3.298
    1XTA     H552328  29.573   1.436   3.250
    1XTA     H652329  29.465   1.450   3.025
    1XTA     H752330  29.790   1.219   2.852
    1XTA     H852331  29.921   1.247   3.075
    1XTA     H952332  29.744   1.484   3.513
    1XTA    H1052333  29.688   1.369   3.706
    1XTA    H1152334  29.753   0.995   3.518
    1XTA    H1252335  29.864   1.113   3.327
    1XTA    OA152336  30.339   1.622   3.284
    1XTA    CO152337  30.453   1.541   3.298
    1XTA    OA252338  29.558   1.331   2.815
    1XTA    CO252339  29.618   1.416   2.724
    1XTA    CL152340  29.520   1.422   2.604
    1XTA    CL252341  29.556   1.512   2.482
    1XTA    CL352342  29.436   1.518   2.381
    1XTA    CL452343  29.488   1.610   2.274
    1XTA    CO352344  29.454   1.755   2.307
    1XTA    OA352345  29.481   1.826   2.183
    1XTA    CO452346  29.456   1.963   2.204
    1XTA    CT152347  29.581   2.046   2.174
    1XTA    CL552348  29.647   2.017   2.041
    1XTA    CL652349  29.554   1.997   1.922
    1XTA    OA452350  29.690   1.087   3.741
    1XTA    CO552351  29.625   1.147   3.853
    1XTA    CL752352  29.716   1.221   3.950
    1XTA    CL852353  29.834   1.134   3.987
    1XTA    CL952354  29.887   1.155   4.130
    1XTA   CL1052355  30.007   1.073   4.165
    1XTA    CO652356  30.065   1.094   4.309
    1XTA    OA552357  30.130   1.215   4.311
    1XTA    CO752358  30.093   1.303   4.412
    1XTA    CT252359  30.183   1.432   4.422
    1XTA   CL1152360  30.150   1.511   4.557
    1XTA   CL1252361  30.001   1.548   4.573
    1XTA    HL152362  30.432   1.476   3.388
    1XTA    HL252363  30.459   1.469   3.216
    1XTA    HL352364  30.547   1.600   3.302
    1XTA    HL452365  29.648   1.511   2.766
    1XTA    HL552366  29.714   1.371   2.689
    1XTA    HL652367  29.427   1.463   2.644
    1XTA    HL752368  29.493   1.324   2.573
    1XTA    HL852369  29.645   1.483   2.429
    1XTA    HL952370  29.580   1.602   2.533
    1XTA   HL1052371  29.419   1.417   2.336
    1XTA   HL1152372  29.352   1.557   2.427
    1XTA   HL1252373  29.438   1.585   2.171
    1XTA   HL1352374  29.597   1.615   2.254
    1XTA   HL1452375  29.354   1.775   2.330
    1XTA   HL1552376  29.518   1.789   2.390
    1XTA   HL1652377  29.385   1.986   2.131
    1XTA   HL1752378  29.413   1.982   2.305
    1XTA   HL1852379  29.710   1.924   2.046
    1XTA   HL1952380  29.710   2.090   2.010
    1XTA   HL2052381  29.465   1.946   1.943
    1XTA   HL2152382  29.619   1.943   1.849
    1XTA   HL2252383  29.524   2.087   1.875
    1XTA   HL2352384  29.587   1.058   3.910
    1XTA   HL2452385  29.538   1.206   3.818
    1XTA   HL2552386  29.752   1.319   3.921
    1XTA   HL2652387  29.665   1.236   4.042
    1XTA   HL2752388  29.818   1.028   3.970
    1XTA   HL2852389  29.909   1.169   3.916
    1XTA   HL2952390  29.895   1.259   4.163
    1XTA   HL3052391  29.808   1.109   4.194
    1XTA   HL3152392  29.977   0.969   4.142
    1XTA   HL3252393  30.087   1.101   4.101
    1XTA   HL3352394  29.977   1.082   4.380
    1XTA   HL3452395  30.126   1.012   4.327
    1XTA   HL3552396  30.107   1.245   4.501
    1XTA   HL3652397  29.986   1.316   4.412
    1XTA   HL3752398  30.205   1.608   4.568
    1XTA   HL3852399  30.179   1.458   4.647
    1XTA   HL3952400  29.976   1.601   4.662
    1XTA   HL4052401  29.933   1.466   4.566
    1XTA   HL4152402  29.973   1.610   4.493
    1XTA    CO852403  29.681   2.026   2.293
    1XTA    CO952404  29.562   2.199   2.169
    1XTA    OA652405  29.772   2.082   2.287
    1XTA   HL4252406  29.698   1.918   2.303
    1XTA   HL4352407  29.626   2.071   2.370
    1XTA   HL4452408  30.211   1.485   4.217
    1XTA   HL4552409  30.238   1.652   4.319
    1XTA   CO1052410  30.170   1.529   4.303
    1XTA   CO1152411  30.333   1.387   4.419
    1XTA    OA752412  30.355   1.306   4.492
    1XTA   HL4652413  30.347   1.361   4.314
    1XTA   HL4752414  30.394   1.472   4.443
    1XTA   HL4852415  29.491   2.229   2.058
    1XTA   HL4952416  29.656   2.252   2.147
    1XTA     NT52417  30.839   0.628   2.109
    1XTA    CN152418  30.896   0.690   2.215
    1XTA     C152419  30.966   0.621   2.316
    1XTA     C252420  31.035   0.693   2.414
    1XTA     C352421  31.032   0.836   2.419
    1XTA     C452422  30.958   0.900   2.318
    1XTA     C552423  30.900   0.828   2.211
    1XTA    CN252424  30.743   0.540   2.137
    1XTA     C652425  30.622   0.587   2.194
    1XTA     C752426  30.516   0.500   2.230
    1XTA     C852427  30.544   0.360   2.235
    1XTA     C952428  30.663   0.310   2.185
    1XTA    C1052429  30.767   0.400   2.151
    1XTA    CN352430  30.906   0.608   1.989
    1XTA    C1152431  30.848   0.572   1.870
    1XTA    C1252432  30.917   0.553   1.748
    1XTA    C1352433  31.057   0.549   1.757
    1XTA    C1452434  31.120   0.595   1.873
    1XTA    C1552435  31.046   0.622   1.989
    1XTA     H152436  30.983   0.513   2.310
    1XTA     H252437  31.088   0.640   2.488
    1XTA     H352438  30.959   1.008   2.309
    1XTA     H452439  30.846   0.875   2.134
    1XTA     H552440  30.602   0.686   2.208
    1XTA     H652441  30.421   0.534   2.261
    1XTA     H752442  30.673   0.202   2.180
    1XTA     H852443  30.866   0.365   2.127
    1XTA     H952444  30.743   0.555   1.873
    1XTA    H1052445  30.877   0.524   1.654
    1XTA    H1152446  31.221   0.623   1.871
    1XTA    H1252447  31.109   0.657   2.071
    1XTA    OA152448  31.113   0.908   2.502
    1XTA    CO152449  31.161   0.852   2.625
    1XTA    OA252450  30.446   0.271   2.273
    1XTA    CO252451  30.356   0.302   2.379
    1XTA    CL152452  30.392   0.208   2.495
    1XTA    CL252453  30.340   0.244   2.636
    1XTA    CL352454  30.422   0.193   2.762
    1XTA    CL452455  30.374   0.244   2.899
    1XTA    CO352456  30.234   0.204   2.931
    1XTA    OA352457  30.181   0.264   3.050
    1XTA    CO452458  30.175   0.410   3.055
    1XTA    CT152459  30.145   0.462   3.198
    1XTA    CL552460  30.265   0.522   3.269
    1XTA    CL652461  30.370   0.427   3.308
    1XTA    OA452462  31.130   0.531   1.637
    1XTA    CO552463  31.260   0.468   1.631
    1XTA    CL752464  31.246   0.340   1.539
    1XTA    CL852465  31.375   0.252   1.548
    1XTA    CL952466  31.377   0.150   1.437
    1XTA   CL1052467  31.265   0.051   1.457
    1XTA    CO652468  31.276  -0.058   1.564
    1XTA    OA552469  31.226   0.010   1.679
    1XTA    CO752470  31.218  -0.065   1.789
    1XTA    CT252471  31.201   0.027   1.915
    1XTA   CL1152472  31.128   0.163   1.887
    1XTA   CL1252473  30.989   0.150   1.812
    1XTA    HL152474  31.086   0.809   2.682
    1XTA    HL252475  31.228   0.775   2.606
    1XTA    HL352476  31.215   0.929   2.679
    1XTA    HL452477  30.358   0.404   2.415
    1XTA    HL552478  30.260   0.270   2.352
    1XTA    HL652479  30.502   0.197   2.508
    1XTA    HL752480  30.348   0.116   2.482
    1XTA    HL852481  30.241   0.219   2.645
    1XTA    HL952482  30.337   0.352   2.651
    1XTA   HL1052483  30.425   0.083   2.762
    1XTA   HL1152484  30.522   0.221   2.748
    1XTA   HL1252485  30.367   0.353   2.896
    1XTA   HL1352486  30.445   0.210   2.983
    1XTA   HL1452487  30.161   0.247   2.856
    1XTA   HL1552488  30.233   0.097   2.929
    1XTA   HL1652489  30.272   0.453   3.023
    1XTA   HL1752490  30.096   0.433   2.980
    1XTA   HL1852491  30.239   0.580   3.352
    1XTA   HL1952492  30.302   0.590   3.194
    1XTA   HL2052493  30.424   0.390   3.227
    1XTA   HL2152494  30.317   0.349   3.367
    1XTA   HL2252495  30.447   0.468   3.368
    1XTA   HL2352496  31.278   0.441   1.738
    1XTA   HL2452497  31.333   0.535   1.604
    1XTA   HL2552498  31.154   0.294   1.554
    1XTA   HL2652499  31.252   0.383   1.440
    1XTA   HL2752500  31.478   0.297   1.551
    1XTA   HL2852501  31.367   0.212   1.649
    1XTA   HL2952502  31.376   0.203   1.344
    1XTA   HL3052503  31.470   0.097   1.438
    1XTA   HL3152504  31.172   0.101   1.476
    1XTA   HL3252505  31.247   0.011   1.355
    1XTA   HL3352506  31.197  -0.132   1.551
    1XTA   HL3452507  31.372  -0.098   1.556
    1XTA   HL3552508  31.309  -0.120   1.799
    1XTA   HL3652509  31.133  -0.129   1.769
    1XTA   HL3752510  31.195   0.211   1.816
    1XTA   HL3852511  31.111   0.218   1.979
    1XTA   HL3952512  30.910   0.157   1.885
    1XTA   HL4052513  30.980   0.054   1.756
    1XTA   HL4152514  30.971   0.223   1.735
    1XTA    CO852515  30.072   0.363   3.292
    1XTA    CO952516  30.048   0.575   3.186
    1XTA    OA652517  30.066   0.396   3.397
    1XTA   HL4252518  30.118   0.265   3.287
    1XTA   HL4352519  29.970   0.342   3.260
    1XTA   HL4452520  31.321   0.129   2.050
    1XTA   HL4552521  31.382  -0.038   2.025
    1XTA   CO1052522  31.341   0.050   1.976
    1XTA   CO1152523  31.116  -0.045   2.022
    1XTA    OA752524  30.991  -0.079   1.962
    1XTA   HL4652525  31.170  -0.128   2.068
    1XTA   HL4752526  31.105   0.028   2.101
    1XTA   HL4852527  29.924   0.533   3.138
    1XTA   HL4952528  30.022   0.612   3.289
    1XTA     NT52529  34.659   2.513   0.030
    1XTA    CN152530  34.581   2.525   0.136
    1XTA     C152531  34.562   2.653   0.194
    1XTA     C252532  34.509   2.661   0.323
    1XTA     C352533  34.464   2.542   0.387
    1XTA     C452534  34.478   2.414   0.328
    1XTA     C552535  34.543   2.405   0.204
    1XTA    CN252536  34.791   2.527   0.034
    1XTA     C652537  34.870   2.450   0.120
    1XTA     C752538  35.011   2.459   0.117
    1XTA     C852539  35.078   2.543   0.032
    1XTA     C952540  34.995   2.629  -0.046
    1XTA    C1052541  34.856   2.623  -0.049
    1XTA    CN352542  34.600   2.470  -0.089
    1XTA    C1152543  34.611   2.334  -0.127
    1XTA    C1252544  34.555   2.291  -0.248
    1XTA    C1352545  34.475   2.373  -0.328
    1XTA    C1452546  34.459   2.503  -0.286
    1XTA    C1552547  34.527   2.551  -0.171
    1XTA     H152548  34.603   2.737   0.140
    1XTA     H252549  34.503   2.757   0.370
    1XTA     H352550  34.448   2.321   0.366
    1XTA     H452551  34.549   2.314   0.151
    1XTA     H552552  34.831   2.398   0.205
    1XTA     H652553  35.072   2.410   0.192
    1XTA     H752554  35.040   2.709  -0.091
    1XTA     H852555  34.808   2.694  -0.112
    1XTA     H952556  34.671   2.266  -0.070
    1XTA    H1052557  34.568   2.186  -0.271
    1XTA    H1152558  34.408   2.577  -0.341
    1XTA    H1252559  34.512   2.646  -0.142
    1XTA    OA152560  34.404   2.565   0.510
    1XTA    CO152561  34.328   2.447   0.568
    1XTA    OA252562  35.212   2.564   0.042
    1XTA    CO252563  35.299   2.445   0.044
    1XTA    CL152564  35.428   2.474   0.133
    1XTA    CL252565  35.399   2.485   0.286
    1XTA    CL352566  35.321   2.363   0.353
    1XTA    CL452567  35.421   2.257   0.397
    1XTA    CO352568  35.365   2.126   0.460
    1XTA    OA352569  35.323   2.050   0.351
    1XTA    CO452570  35.271   1.924   0.392
    1XTA    CT152571  35.175   1.855   0.288
    1XTA    CL552572  35.047   1.941   0.281
    1XTA    CL652573  35.052   2.074   0.204
    1XTA    OA452574  34.413   2.328  -0.444
    1XTA    CO552575  34.272   2.352  -0.440
    1XTA    CL752576  34.228   2.437  -0.553
    1XTA    CL852577  34.080   2.408  -0.585
    1XTA    CL952578  34.030   2.506  -0.686
    1XTA   CL1052579  34.079   2.500  -0.833
    1XTA    CO652580  34.026   2.593  -0.948
    1XTA    OA552581  33.898   2.541  -0.971
    1XTA    CO752582  33.795   2.623  -1.015
    1XTA    CT252583  33.661   2.547  -1.015
    1XTA   CL1152584  33.630   2.496  -0.876
    1XTA   CL1252585  33.608   2.608  -0.774
    1XTA    HL152586  34.399   2.375   0.603
    1XTA    HL252587  34.272   2.467   0.667
    1XTA    HL352588  34.269   2.401   0.496
    1XTA    HL452589  35.247   2.364   0.101
    1XTA    HL552590  35.314   2.399  -0.048
    1XTA    HL652591  35.483   2.558   0.098
    1XTA    HL752592  35.488   2.381   0.127
    1XTA    HL852593  35.338   2.577   0.307
    1XTA    HL952594  35.498   2.482   0.331
    1XTA   HL1052595  35.255   2.391   0.435
    1XTA   HL1152596  35.243   2.317   0.290
    1XTA   HL1252597  35.473   2.307   0.476
    1XTA   HL1352598  35.487   2.212   0.327
    1XTA   HL1452599  35.440   2.073   0.526
    1XTA   HL1552600  35.283   2.147   0.526
    1XTA   HL1652601  35.359   1.861   0.417
    1XTA   HL1752602  35.219   1.938   0.486
    1XTA   HL1852603  35.020   1.956   0.384
    1XTA   HL1952604  34.971   1.882   0.227
    1XTA   HL2052605  35.099   2.149   0.270
    1XTA   HL2152606  34.946   2.100   0.190
    1XTA   HL2252607  35.103   2.052   0.108
    1XTA   HL2352608  34.236   2.398  -0.347
    1XTA   HL2452609  34.229   2.250  -0.457
    1XTA   HL2552610  34.242   2.545  -0.531
    1XTA   HL2652611  34.286   2.420  -0.645
    1XTA   HL2752612  34.069   2.306  -0.620
    1XTA   HL2852613  34.019   2.422  -0.493
    1XTA   HL2952614  33.922   2.488  -0.690
    1XTA   HL3052615  34.041   2.613  -0.647
    1XTA   HL3152616  34.189   2.513  -0.833
    1XTA   HL3252617  34.054   2.392  -0.857
    1XTA   HL3352618  34.020   2.685  -0.899
    1XTA   HL3452619  34.077   2.590  -1.048
    1XTA   HL3552620  33.821   2.647  -1.116
    1XTA   HL3652621  33.791   2.718  -0.957
    1XTA   HL3752622  33.706   2.423  -0.835
    1XTA   HL3852623  33.540   2.432  -0.880
    1XTA   HL3952624  33.708   2.656  -0.769
    1XTA   HL4052625  33.593   2.551  -0.683
    1XTA   HL4152626  33.520   2.676  -0.782
    1XTA    CO852627  35.151   1.718   0.350
    1XTA    CO952628  35.245   1.835   0.148
    1XTA    OA652629  35.257   1.633   0.388
    1XTA   HL4252630  35.080   1.681   0.279
    1XTA   HL4352631  35.098   1.727   0.442
    1XTA   HL4452632  33.658   2.449  -1.211
    1XTA   HL4552633  33.770   2.385  -1.115
    1XTA   CO1052634  33.671   2.427  -1.110
    1XTA   CO1152635  33.550   2.641  -1.063
    1XTA    OA752636  33.588   2.319  -1.087
    1XTA   HL4652637  33.457   2.589  -1.083
    1XTA   HL4752638  33.521   2.728  -0.988
    1XTA   HL4852639  35.287   1.925   0.116
    1XTA   HL4952640  35.330   1.761   0.150
    1XTA     NT52641  32.130   1.434   0.163
    1XTA    CN152642  32.033   1.366   0.101
    1XTA     C152643  31.918   1.427   0.055
    1XTA     C252644  31.820   1.355  -0.009
    1XTA     C352645  31.825   1.208  -0.021
    1XTA     C452646  31.946   1.147   0.016
    1XTA     C552647  32.046   1.228   0.082
    1XTA    CN252648  32.152   1.563   0.122
    1XTA     C652649  32.231   1.583   0.012
    1XTA     C752650  32.272   1.713  -0.018
    1XTA     C852651  32.241   1.823   0.062
    1XTA     C952652  32.157   1.802   0.175
    1XTA    C1052653  32.110   1.672   0.202
    1XTA    CN352654  32.154   1.406   0.293
    1XTA    C1152655  32.285   1.401   0.338
    1XTA    C1252656  32.314   1.369   0.474
    1XTA    C1352657  32.209   1.359   0.570
    1XTA    C1452658  32.076   1.366   0.521
    1XTA    C1552659  32.045   1.393   0.381
    1XTA     H152660  31.901   1.530   0.064
    1XTA     H252661  31.739   1.411  -0.045
    1XTA     H352662  31.956   1.043  -0.002
    1XTA     H452663  32.133   1.180   0.129
    1XTA     H552664  32.263   1.501  -0.047
    1XTA     H652665  32.337   1.729  -0.102
    1XTA     H752666  32.137   1.893   0.238
    1XTA     H852667  32.058   1.645   0.290
    1XTA     H952668  32.378   1.417   0.282
    1XTA    H1052669  32.420   1.365   0.502
    1XTA    H1152670  31.996   1.358   0.591
    1XTA    H1252671  31.945   1.391   0.350
    1XTA    OA152672  31.724   1.136  -0.074
    1XTA    CO152673  31.597   1.197  -0.080
    1XTA    OA252674  32.282   1.950   0.035
    1XTA    CO252675  32.399   1.964  -0.043
    1XTA    CL152676  32.433   2.115  -0.053
    1XTA    CL252677  32.581   2.158  -0.045
    1XTA    CL352678  32.654   2.132  -0.171
    1XTA    CL452679  32.808   2.134  -0.157
    1XTA    CO352680  32.894   2.136  -0.283
    1XTA    OA352681  32.870   2.266  -0.341
    1XTA    CO452682  32.789   2.245  -0.464
    1XTA    CT152683  32.739   2.387  -0.512
    1XTA    CL552684  32.864   2.482  -0.536
    1XTA    CL652685  32.979   2.424  -0.618
    1XTA    OA452686  32.234   1.335   0.705
    1XTA    CO552687  32.368   1.340   0.750
    1XTA    CL752688  32.420   1.485   0.750
    1XTA    CL852689  32.312   1.590   0.789
    1XTA    CL952690  32.369   1.736   0.782
    1XTA   CL1052691  32.258   1.838   0.787
    1XTA    CO652692  32.239   1.904   0.928
    1XTA    OA552693  32.343   1.953   1.001
    1XTA    CO752694  32.421   2.052   0.933
    1XTA    CT252695  32.495   2.135   1.035
    1XTA   CL1152696  32.401   2.228   1.113
    1XTA   CL1252697  32.322   2.338   1.034
    1XTA    HL152698  31.526   1.116  -0.098
    1XTA    HL252699  31.583   1.244   0.020
    1XTA    HL352700  31.586   1.273  -0.158
    1XTA    HL452701  32.488   1.912  -0.002
    1XTA    HL552702  32.379   1.940  -0.148
    1XTA    HL652703  32.382   2.173   0.023
    1XTA    HL752704  32.387   2.153  -0.144
    1XTA    HL852705  32.627   2.096   0.028
    1XTA    HL952706  32.599   2.262  -0.020
    1XTA   HL1052707  32.624   2.050  -0.236
    1XTA   HL1152708  32.640   2.220  -0.233
    1XTA   HL1252709  32.845   2.046  -0.099
    1XTA   HL1352710  32.828   2.226  -0.106
    1XTA   HL1452711  32.999   2.117  -0.256
    1XTA   HL1552712  32.870   2.059  -0.353
    1XTA   HL1652713  32.837   2.177  -0.532
    1XTA   HL1752714  32.702   2.190  -0.436
    1XTA   HL1852715  32.905   2.514  -0.441
    1XTA   HL1952716  32.832   2.571  -0.580
    1XTA   HL2052717  33.029   2.345  -0.561
    1XTA   HL2152718  33.055   2.502  -0.622
    1XTA   HL2252719  32.942   2.387  -0.715
    1XTA   HL2352720  32.430   1.263   0.705
    1XTA   HL2452721  32.358   1.314   0.850
    1XTA   HL2552722  32.512   1.486   0.817
    1XTA   HL2652723  32.448   1.500   0.644
    1XTA   HL2752724  32.231   1.573   0.721
    1XTA   HL2852725  32.270   1.571   0.892
    1XTA   HL2952726  32.441   1.750   0.857
    1XTA   HL3052727  32.432   1.751   0.695
    1XTA   HL3152728  32.279   1.915   0.715
    1XTA   HL3252729  32.163   1.792   0.768
    1XTA   HL3352730  32.171   1.993   0.912
    1XTA   HL3452731  32.189   1.833   1.000
    1XTA   HL3552732  32.348   2.111   0.870
    1XTA   HL3652733  32.484   2.012   0.852
    1XTA   HL3752734  32.458   2.276   1.187
    1XTA   HL3852735  32.325   2.166   1.157
    1XTA   HL3952736  32.290   2.312   0.930
    1XTA   HL4052737  32.386   2.412   1.030
    1XTA   HL4152738  32.239   2.382   1.081
    1XTA    CO852739  32.644   2.462  -0.416
    1XTA    CO952740  32.659   2.374  -0.641
    1XTA    OA652741  32.633   2.601  -0.441
    1XTA   HL4252742  32.681   2.459  -0.312
    1XTA   HL4352743  32.544   2.418  -0.396
    1XTA   HL4452744  32.654   2.146   0.896
    1XTA   HL4552745  32.656   2.270   1.037
    1XTA   CO1052746  32.600   2.221   0.955
    1XTA   CO1152747  32.554   2.038   1.139
    1XTA    OA752748  32.645   2.096   1.227
    1XTA   HL4652749  32.479   1.983   1.193
    1XTA   HL4752750  32.587   1.957   1.082
    1XTA   HL4852751  32.716   2.321  -0.718
    1XTA   HL4952752  32.573   2.307  -0.630
    1XTA     NT52753  32.089   3.604   4.327
    1XTA    CN152754  32.073   3.700   4.234
    1XTA     C152755  31.969   3.796   4.252
    1XTA     C252756  31.952   3.899   4.159
    1XTA     C352757  32.039   3.911   4.048
    1XTA     C452758  32.135   3.805   4.023
    1XTA     C552759  32.156   3.701   4.116
    1XTA    CN252760  32.026   3.480   4.318
    1XTA     C652761  32.078   3.382   4.230
    1XTA     C752762  32.032   3.249   4.241
    1XTA     C852763  31.940   3.211   4.336
    1XTA     C952764  31.893   3.306   4.427
    1XTA    C1052765  31.940   3.443   4.423
    1XTA    CN352766  32.192   3.615   4.421
    1XTA    C1152767  32.317   3.555   4.405
    1XTA    C1252768  32.417   3.567   4.504
    1XTA    C1352769  32.395   3.652   4.616
    1XTA    C1452770  32.268   3.712   4.629
    1XTA    C1552771  32.168   3.689   4.535
    1XTA     H152772  31.891   3.777   4.325
    1XTA     H252773  31.870   3.971   4.174
    1XTA     H352774  32.207   3.807   3.945
    1XTA     H452775  32.225   3.615   4.103
    1XTA     H552776  32.149   3.396   4.144
    1XTA     H652777  32.070   3.177   4.170
    1XTA     H752778  31.817   3.285   4.501
    1XTA     H852779  31.912   3.503   4.506
    1XTA     H952780  32.331   3.488   4.322
    1XTA    H1052781  32.512   3.525   4.494
    1XTA    H1152782  32.252   3.778   4.713
    1XTA    H1252783  32.067   3.730   4.554
    1XTA    OA152784  32.014   4.015   3.965
    1XTA    CO152785  32.143   4.079   3.940
    1XTA    OA252786  31.892   3.080   4.343
    1XTA    CO252787  31.938   2.986   4.245
    1XTA    CL152788  31.888   2.857   4.310
    1XTA    CL252789  31.955   2.827   4.443
    1XTA    CL352790  32.102   2.847   4.471
    1XTA    CL452791  32.145   2.818   4.612
    1XTA    CO352792  32.300   2.811   4.626
    1XTA    OA352793  32.344   2.798   4.770
    1XTA    CO452794  32.486   2.798   4.775
    1XTA    CT152795  32.536   2.777   4.919
    1XTA    CL552796  32.451   2.666   4.990
    1XTA    CL652797  32.471   2.527   4.923
    1XTA    OA452798  32.496   3.670   4.701
    1XTA    CO552799  32.616   3.709   4.632
    1XTA    CL752800  32.688   3.824   4.705
    1XTA    CL852801  32.754   3.926   4.613
    1XTA    CL952802  32.890   3.888   4.559
    1XTA   CL1052803  32.887   3.755   4.487
    1XTA    CO652804  33.009   3.734   4.396
    1XTA    OA552805  32.992   3.600   4.342
    1XTA    CO752806  33.100   3.571   4.243
    1XTA    CT252807  33.180   3.450   4.272
    1XTA   CL1152808  33.230   3.439   4.421
    1XTA   CL1252809  33.362   3.511   4.448
    1XTA    HL152810  32.195   4.025   3.861
    1XTA    HL252811  32.122   4.175   3.906
    1XTA    HL352812  32.211   4.084   4.029
    1XTA    HL452813  31.898   3.006   4.144
    1XTA    HL552814  32.047   2.986   4.242
    1XTA    HL652815  31.914   2.773   4.238
    1XTA    HL752816  31.778   2.862   4.314
    1XTA    HL852817  31.932   2.728   4.486
    1XTA    HL952818  31.901   2.892   4.506
    1XTA   HL1052819  32.169   2.817   4.396
    1XTA   HL1152820  32.112   2.955   4.475
    1XTA   HL1252821  32.103   2.723   4.648
    1XTA   HL1352822  32.090   2.894   4.667
    1XTA   HL1452823  32.339   2.725   4.568
    1XTA   HL1552824  32.341   2.898   4.582
    1XTA   HL1652825  32.514   2.718   4.706
    1XTA   HL1752826  32.526   2.889   4.734
    1XTA   HL1852827  32.340   2.684   4.985
    1XTA   HL1952828  32.477   2.656   5.099
    1XTA   HL2052829  32.562   2.478   4.956
    1XTA   HL2152830  32.479   2.534   4.812
    1XTA   HL2252831  32.381   2.460   4.937
    1XTA   HL2352832  32.602   3.738   4.526
    1XTA   HL2452833  32.688   3.630   4.639
    1XTA   HL2552834  32.621   3.870   4.776
    1XTA   HL2652835  32.760   3.783   4.768
    1XTA   HL2752836  32.695   3.947   4.521
    1XTA   HL2852837  32.764   4.023   4.660
    1XTA   HL2952838  32.921   3.964   4.494
    1XTA   HL3052839  32.975   3.888   4.630
    1XTA   HL3152840  32.885   3.675   4.555
    1XTA   HL3252841  32.798   3.752   4.426
    1XTA   HL3352842  33.012   3.815   4.312
    1XTA   HL3452843  33.094   3.743   4.458
    1XTA   HL3552844  33.167   3.660   4.223
    1XTA   HL3652845  33.046   3.558   4.149
    1XTA   HL3752846  33.248   3.335   4.442
    1XTA   HL3852847  33.150   3.463   4.485
    1XTA   HL3952848  33.389   3.514   4.559
    1XTA   HL4052849  33.340   3.613   4.410
    1XTA   HL4152850  33.438   3.468   4.389
    1XTA    CO852851  32.523   2.915   4.993
    1XTA    CO952852  32.691   2.742   4.925
    1XTA    OA652853  32.599   3.021   4.931
    1XTA   HL4252854  32.546   2.906   5.100
    1XTA   HL4352855  32.425   2.956   4.994
    1XTA   HL4452856  33.353   3.353   4.164
    1XTA   HL4552857  33.262   3.450   4.065
    1XTA   CO1052858  33.299   3.444   4.168
    1XTA   CO1152859  33.101   3.317   4.233
    1XTA    OA752860  33.386   3.561   4.181
    1XTA   HL4652861  33.162   3.236   4.215
    1XTA   HL4752862  33.041   3.334   4.145
    1XTA   HL4852863  32.701   2.647   4.872
    1XTA   HL4952864  32.741   2.813   4.857
    1XTA     NT52865  30.050  -0.161  -0.091
    1XTA    CN152866  29.961  -0.254  -0.054
    1XTA     C152867  29.947  -0.288   0.081
    1XTA     C252868  29.865  -0.396   0.118
    1XTA     C352869  29.799  -0.471   0.019
    1XTA     C452870  29.827  -0.442  -0.113
    1XTA     C552871  29.892  -0.322  -0.152
    1XTA    CN252872  30.181  -0.177  -0.063
    1XTA     C652873  30.245  -0.296  -0.108
    1XTA     C752874  30.383  -0.309  -0.101
    1XTA     C852875  30.460  -0.213  -0.030
    1XTA     C952876  30.398  -0.101   0.022
    1XTA    C1052877  30.261  -0.084   0.010
    1XTA    CN352878  30.010  -0.039  -0.132
    1XTA    C1152879  30.020  -0.000  -0.263
    1XTA    C1252880  29.989   0.133  -0.302
    1XTA    C1352881  29.947   0.234  -0.210
    1XTA    C1452882  29.929   0.187  -0.077
    1XTA    C1552883  29.963   0.056  -0.038
    1XTA     H152884  29.994  -0.231   0.159
    1XTA     H252885  29.859  -0.419   0.217
    1XTA     H352886  29.783  -0.501  -0.187
    1XTA     H452887  29.911  -0.306  -0.253
    1XTA     H552888  30.183  -0.365  -0.169
    1XTA     H652889  30.427  -0.397  -0.143
    1XTA     H752890  30.460  -0.035   0.079
    1XTA     H852891  30.213  -0.004   0.061
    1XTA     H952892  30.062  -0.067  -0.341
    1XTA    H1052893  30.008   0.172  -0.403
    1XTA    H1152894  29.906   0.255  -0.007
    1XTA    H1252895  29.951   0.026   0.070
    1XTA    OA152896  29.723  -0.581   0.052
    1XTA    CO152897  29.685  -0.607   0.186
    1XTA    OA252898  30.597  -0.225  -0.012
    1XTA    CO252899  30.677  -0.268  -0.123
    1XTA    CL152900  30.828  -0.243  -0.085
    1XTA    CL252901  30.926  -0.247  -0.198
    1XTA    CL352902  30.942  -0.389  -0.270
    1XTA    CL452903  31.046  -0.366  -0.382
    1XTA    CO352904  31.198  -0.389  -0.350
    1XTA    OA352905  31.251  -0.270  -0.297
    1XTA    CO452906  31.393  -0.287  -0.267
    1XTA    CT152907  31.452  -0.183  -0.171
    1XTA    CL552908  31.597  -0.219  -0.136
    1XTA    CL652909  31.691  -0.224  -0.256
    1XTA    OA452910  29.915   0.359  -0.249
    1XTA    CO552911  29.885   0.454  -0.144
    1XTA    CL752912  29.885   0.595  -0.204
    1XTA    CL852913  29.876   0.690  -0.093
    1XTA    CL952914  29.883   0.838  -0.141
    1XTA   CL1052915  30.013   0.878  -0.210
    1XTA    CO652916  29.990   0.965  -0.334
    1XTA    OA552917  29.990   0.889  -0.460
    1XTA    CO752918  29.879   0.809  -0.488
    1XTA    CT252919  29.892   0.732  -0.623
    1XTA   CL1152920  30.014   0.632  -0.631
    1XTA   CL1252921  29.972   0.487  -0.575
    1XTA    HL152922  29.609  -0.688   0.193
    1XTA    HL252923  29.769  -0.616   0.251
    1XTA    HL352924  29.633  -0.518   0.222
    1XTA    HL452925  30.670  -0.375  -0.143
    1XTA    HL552926  30.647  -0.209  -0.208
    1XTA    HL652927  30.869  -0.299  -0.008
    1XTA    HL752928  30.826  -0.139  -0.052
    1XTA    HL852929  31.017  -0.216  -0.149
    1XTA    HL952930  30.898  -0.166  -0.264
    1XTA   HL1052931  30.986  -0.464  -0.203
    1XTA   HL1152932  30.850  -0.428  -0.316
    1XTA   HL1252933  31.033  -0.280  -0.444
    1XTA   HL1352934  31.014  -0.454  -0.444
    1XTA   HL1452935  31.203  -0.462  -0.270
    1XTA   HL1552936  31.274  -0.428  -0.430
    1XTA   HL1652937  31.415  -0.381  -0.223
    1XTA   HL1752938  31.438  -0.293  -0.362
    1XTA   HL1852939  31.587  -0.311  -0.094
    1XTA   HL1952940  31.635  -0.153  -0.049
    1XTA   HL2052941  31.667  -0.309  -0.317
    1XTA   HL2152942  31.794  -0.241  -0.230
    1XTA   HL2252943  31.682  -0.137  -0.316
    1XTA   HL2352944  29.966   0.447  -0.068
    1XTA   HL2452945  29.793   0.432  -0.099
    1XTA   HL2552946  29.976   0.605  -0.263
    1XTA   HL2652947  29.803   0.600  -0.272
    1XTA   HL2752948  29.786   0.663  -0.033
    1XTA   HL2852949  29.953   0.681  -0.018
    1XTA   HL2952950  29.795   0.854  -0.211
    1XTA   HL3052951  29.864   0.896  -0.056
    1XTA   HL3152952  30.062   0.946  -0.136
    1XTA   HL3252953  30.079   0.797  -0.233
    1XTA   HL3352954  29.896   1.029  -0.322
    1XTA   HL3452955  30.072   1.032  -0.353
    1XTA   HL3552956  29.782   0.860  -0.484
    1XTA   HL3652957  29.873   0.739  -0.408
    1XTA   HL3752958  30.091   0.675  -0.566
    1XTA   HL3852959  30.057   0.629  -0.736
    1XTA   HL3952960  29.901   0.428  -0.645
    1XTA   HL4052961  29.921   0.502  -0.479
    1XTA   HL4152962  30.060   0.424  -0.555
    1XTA    CO852963  31.383  -0.175  -0.030
    1XTA    CO952964  31.444  -0.044  -0.240
    1XTA    OA652965  31.339   0.045  -0.204
    1XTA   HL4252966  31.430  -0.094   0.031
    1XTA   HL4352967  31.280  -0.136  -0.036
    1XTA   HL4452968  29.835   0.924  -0.698
    1XTA   HL4552969  29.973   0.860  -0.789
    1XTA   CO1052970  29.880   0.834  -0.736
    1XTA   CO1152971  29.757   0.683  -0.679
    1XTA    OA752972  29.788   0.745  -0.800
    1XTA   HL4652973  29.748   0.576  -0.699
    1XTA   HL4752974  29.670   0.724  -0.632
    1XTA   HL4852975  31.448  -0.053  -0.346
    1XTA   HL4952976  31.533   0.014  -0.216
    1XTA     NT52977  35.354   0.377  -0.095
    1XTA    CN152978  35.346   0.266  -0.174
    1XTA     C152979  35.455   0.177  -0.174
    1XTA     C252980  35.456   0.066  -0.262
    1XTA     C352981  35.342   0.038  -0.337
    1XTA     C452982  35.236   0.127  -0.346
    1XTA     C552983  35.235   0.238  -0.255
    1XTA    CN252984  35.354   0.369   0.040
    1XTA     C652985  35.259   0.295   0.114
    1XTA     C752986  35.266   0.278   0.257
    1XTA     C852987  35.357   0.360   0.331
    1XTA     C952988  35.447   0.438   0.255
    1XTA    C1052989  35.454   0.433   0.114
    1XTA    CN352990  35.341   0.503  -0.150
    1XTA    C1152991  35.214   0.566  -0.141
    1XTA    C1252992  35.192   0.693  -0.193
    1XTA    C1352993  35.299   0.759  -0.257
    1XTA    C1452994  35.428   0.700  -0.268
    1XTA    C1552995  35.446   0.572  -0.213
    1XTA     H152996  35.541   0.201  -0.108
    1XTA     H252997  35.548   0.016  -0.269
    1XTA     H352998  35.164   0.118  -0.427
    1XTA     H452999  35.158   0.319  -0.260
    1XTA     H553000  35.188   0.236   0.065
    1XTA     H653001  35.192   0.217   0.304
    1XTA     H753002  35.522   0.502   0.300
    1XTA     H853003  35.515   0.505   0.068
    1XTA     H953004  35.136   0.515  -0.086
    1XTA    H1053005  35.094   0.743  -0.185
    1XTA    H1153006  35.506   0.751  -0.320
    1XTA    H1253007  35.549   0.524  -0.227
    1XTA    OA153008  35.343  -0.064  -0.426
    1XTA    CO153009  35.420  -0.185  -0.390
    1XTA    OA253010  35.360   0.358   0.464
    1XTA    CO253011  35.463   0.419   0.533
    1XTA    CL153012  35.450   0.417   0.685
    1XTA    CL253013  35.311   0.470   0.731
    1XTA    CL353014  35.302   0.464   0.884
    1XTA    CL453015  35.154   0.502   0.917
    1XTA    CO353016  35.125   0.502   1.068
    1XTA    OA353017  35.224   0.574   1.146
    1XTA    CO453018  35.223   0.715   1.112
    1XTA    CT153019  35.337   0.790   1.179
    1XTA    CL553020  35.308   0.944   1.196
    1XTA    CL653021  35.291   1.012   1.058
    1XTA    OA453022  35.285   0.882  -0.323
    1XTA    CO553023  35.158   0.947  -0.317
    1XTA    CL753024  35.142   1.021  -0.185
    1XTA    CL853025  35.001   1.074  -0.161
    1XTA    CL953026  34.956   1.069  -0.016
    1XTA   CL1053027  35.019   1.178   0.080
    1XTA    CO653028  35.163   1.174   0.117
    1XTA    OA553029  35.199   1.283   0.194
    1XTA    CO753030  35.324   1.280   0.253
    1XTA    CT253031  35.305   1.393   0.368
    1XTA   CL1153032  35.180   1.361   0.456
    1XTA   CL1253033  35.187   1.229   0.539
    1XTA    HL153034  35.525  -0.160  -0.416
    1XTA    HL253035  35.423  -0.214  -0.289
    1XTA    HL353036  35.394  -0.265  -0.461
    1XTA    HL453037  35.555   0.372   0.502
    1XTA    HL553038  35.455   0.529   0.499
    1XTA    HL653039  35.537   0.466   0.735
    1XTA    HL753040  35.456   0.316   0.714
    1XTA    HL853041  35.226   0.412   0.695
    1XTA    HL953042  35.287   0.577   0.691
    1XTA   HL1053043  35.317   0.360   0.910
    1XTA   HL1153044  35.370   0.533   0.929
    1XTA   HL1253045  35.090   0.429   0.869
    1XTA   HL1353046  35.122   0.598   0.888
    1XTA   HL1453047  35.027   0.548   1.084
    1XTA   HL1553048  35.126   0.404   1.117
    1XTA   HL1653049  35.222   0.725   1.009
    1XTA   HL1753050  35.128   0.755   1.141
    1XTA   HL1853051  35.389   1.000   1.250
    1XTA   HL1953052  35.223   0.954   1.263
    1XTA   HL2053053  35.209   0.968   0.997
    1XTA   HL2153054  35.379   1.015   0.995
    1XTA   HL2253055  35.244   1.108   1.075
    1XTA   HL2353056  35.073   0.892  -0.350
    1XTA   HL2453057  35.167   1.031  -0.387
    1XTA   HL2553058  35.170   0.957  -0.103
    1XTA   HL2653059  35.213   1.103  -0.189
    1XTA   HL2753060  35.001   1.176  -0.195
    1XTA   HL2853061  34.925   1.029  -0.228
    1XTA   HL2953062  34.851   1.080  -0.007
    1XTA   HL3053063  34.970   0.967   0.033
    1XTA   HL3153064  34.984   1.269   0.043
    1XTA   HL3253065  34.970   1.177   0.175
    1XTA   HL3353066  35.173   1.083   0.177
    1XTA   HL3453067  35.227   1.173   0.022
    1XTA   HL3553068  35.408   1.305   0.189
    1XTA   HL3653069  35.333   1.183   0.299
    1XTA   HL3753070  35.096   1.367   0.388
    1XTA   HL3853071  35.174   1.441   0.522
    1XTA   HL3953072  35.257   1.249   0.617
    1XTA   HL4053073  35.197   1.140   0.469
    1XTA   HL4153074  35.093   1.210   0.591
    1XTA    CO853075  35.476   0.760   1.114
    1XTA    CO953076  35.351   0.751   1.326
    1XTA    OA653077  35.369   0.642   1.333
    1XTA   HL4253078  35.494   0.653   1.120
    1XTA   HL4353079  35.586   0.813   1.186
    1XTA   HL4453080  35.191   1.528   0.203
    1XTA   HL4553081  35.387   1.558   0.245
    1XTA   CO1053082  35.294   1.529   0.298
    1XTA   CO1153083  35.431   1.389   0.459
    1XTA    OA753084  35.422   1.454   0.546
    1XTA   HL4653085  35.464   1.291   0.493
    1XTA   HL4753086  35.517   1.429   0.406
    1XTA   HL4853087  35.255   0.768   1.383
    1XTA   HL4953088  35.434   0.808   1.378
    1XTA     NT53089  34.116   1.002   2.319
    1XTA    CN153090  34.161   1.077   2.418
    1XTA     C153091  34.123   1.215   2.429
    1XTA     C253092  34.168   1.290   2.536
    1XTA     C353093  34.264   1.241   2.620
    1XTA     C453094  34.297   1.105   2.613
    1XTA     C553095  34.252   1.018   2.507
    1XTA    CN253096  34.203   0.945   2.232
    1XTA     C653097  34.253   1.010   2.118
    1XTA     C753098  34.338   0.935   2.035
    1XTA     C853099  34.369   0.799   2.064
    1XTA     C953100  34.331   0.740   2.178
    1XTA    C1053101  34.245   0.809   2.257
    1XTA    CN353102  33.985   0.966   2.310
    1XTA    C1153103  33.940   0.861   2.390
    1XTA    C1253104  33.807   0.818   2.388
    1XTA    C1353105  33.713   0.887   2.305
    1XTA    C1453106  33.757   1.004   2.233
    1XTA    C1553107  33.890   1.040   2.234
    1XTA     H153108  34.058   1.246   2.347
    1XTA     H253109  34.136   1.393   2.546
    1XTA     H353110  34.361   1.064   2.685
    1XTA     H453111  34.266   0.910   2.499
    1XTA     H553112  34.226   1.113   2.087
    1XTA     H653113  34.380   0.976   1.946
    1XTA     H753114  34.349   0.634   2.181
    1XTA     H853115  34.199   0.755   2.342
    1XTA     H953116  34.012   0.800   2.446
    1XTA    H1053117  33.774   0.733   2.440
    1XTA    H1153118  33.694   1.082   2.189
    1XTA    H1253119  33.922   1.120   2.170
    1XTA    OA153120  34.311   1.324   2.711
    1XTA    CO153121  34.442   1.294   2.756
    1XTA    OA253122  34.447   0.725   1.976
    1XTA    CO253123  34.529   0.785   1.875
    1XTA    CL153124  34.632   0.684   1.805
    1XTA    CL253125  34.732   0.628   1.897
    1XTA    CL353126  34.824   0.524   1.840
    1XTA    CL453127  34.900   0.447   1.953
    1XTA    CO353128  35.028   0.393   1.911
    1XTA    OA353129  35.095   0.353   2.029
    1XTA    CO453130  35.236   0.341   1.999
    1XTA    CT153131  35.307   0.280   2.125
    1XTA    CL553132  35.242   0.147   2.168
    1XTA    CL653133  35.229   0.038   2.060
    1XTA    OA453134  33.578   0.855   2.304
    1XTA    CO553135  33.497   0.906   2.199
    1XTA    CL753136  33.369   0.829   2.189
    1XTA    CL853137  33.276   0.862   2.072
    1XTA    CL953138  33.136   0.788   2.090
    1XTA   CL1053139  33.022   0.892   2.068
    1XTA    CO653140  32.965   0.967   2.193
    1XTA    OA553141  33.072   1.014   2.274
    1XTA    CO753142  33.012   1.053   2.400
    1XTA    CT253143  33.072   1.189   2.447
    1XTA   CL1153144  33.039   1.303   2.346
    1XTA   CL1253145  33.100   1.447   2.387
    1XTA    HL153146  34.494   1.368   2.815
    1XTA    HL253147  34.450   1.202   2.806
    1XTA    HL353148  34.498   1.284   2.663
    1XTA    HL453149  34.462   0.825   1.802
    1XTA    HL553150  34.582   0.873   1.924
    1XTA    HL653151  34.676   0.744   1.721
    1XTA    HL753152  34.572   0.607   1.753
    1XTA    HL853153  34.684   0.586   1.989
    1XTA    HL953154  34.786   0.713   1.937
    1XTA   HL1053155  34.786   0.445   1.783
    1XTA   HL1153156  34.897   0.582   1.772
    1XTA   HL1253157  34.839   0.367   1.983
    1XTA   HL1353158  34.901   0.510   2.041
    1XTA   HL1453159  35.007   0.301   1.845
    1XTA   HL1553160  35.099   0.455   1.854
    1XTA   HL1653161  35.245   0.277   1.915
    1XTA   HL1753162  35.274   0.439   1.995
    1XTA   HL1853163  35.141   0.169   2.191
    1XTA   HL1953164  35.281   0.100   2.254
    1XTA   HL2053165  35.147   0.067   1.990
    1XTA   HL2153166  35.199  -0.064   2.088
    1XTA   HL2253167  35.321   0.030   1.999
    1XTA   HL2353168  33.544   0.906   2.099
    1XTA   HL2453169  33.469   1.013   2.216
    1XTA   HL2553170  33.395   0.719   2.184
    1XTA   HL2653171  33.311   0.835   2.284
    1XTA   HL2753172  33.252   0.966   2.075
    1XTA   HL2853173  33.327   0.833   1.985
    1XTA   HL2953174  33.111   0.706   2.017
    1XTA   HL3053175  33.131   0.748   2.197
    1XTA   HL3153176  33.065   0.964   1.999
    1XTA   HL3253177  32.940   0.836   2.026
    1XTA   HL3353178  32.906   1.057   2.171
    1XTA   HL3453179  32.909   0.886   2.247
    1XTA   HL3553180  33.026   0.969   2.472
    1XTA   HL3653181  32.904   1.057   2.393
    1XTA   HL3753182  32.930   1.300   2.332
    1XTA   HL3853183  33.062   1.271   2.240
    1XTA   HL3953184  33.055   1.522   2.321
    1XTA   HL4053185  33.207   1.445   2.374
    1XTA   HL4153186  33.087   1.471   2.494
    1XTA    CO853187  35.273   0.372   2.247
    1XTA    CO953188  35.466   0.287   2.110
    1XTA    OA653189  35.349   0.333   2.365
    1XTA   HL4253190  35.169   0.366   2.264
    1XTA   HL4353191  35.298   0.475   2.229
    1XTA   HL4453192  33.265   1.133   2.369
    1XTA   HL4553193  33.281   1.262   2.474
    1XTA   CO1053194  33.226   1.167   2.461
    1XTA   CO1153195  33.005   1.229   2.586
    1XTA    OA753196  33.244   1.101   2.547
    1XTA   HL4653197  33.082   1.329   2.640
    1XTA   HL4753198  33.014   1.145   2.647
    1XTA   HL4853199  35.493   0.352   2.022
    1XTA   HL4953200  35.500   0.353   2.191
    1XTA     NT53201  33.054   3.447   2.161
    1XTA    CN153202  33.111   3.375   2.066
    1XTA     C153203  33.044   3.286   1.980
    1XTA     C253204  33.116   3.211   1.886
    1XTA     C353205  33.258   3.220   1.875
    1XTA     C453206  33.322   3.315   1.962
    1XTA     C553207  33.250   3.392   2.052
    1XTA    CN253208  33.011   3.569   2.137
    1XTA     C653209  33.094   3.680   2.141
    1XTA     C753210  33.042   3.811   2.117
    1XTA     C853211  32.911   3.822   2.072
    1XTA     C953212  32.833   3.708   2.045
    1XTA    C1053213  32.877   3.586   2.095
    1XTA    CN353214  33.035   3.402   2.290
    1XTA    C1153215  32.948   3.289   2.300
    1XTA    C1253216  32.914   3.238   2.426
    1XTA    C1353217  32.974   3.292   2.540
    1XTA    C1453218  33.061   3.403   2.528
    1XTA    C1553219  33.092   3.455   2.405
    1XTA     H153220  32.938   3.269   2.001
    1XTA     H253221  33.076   3.149   1.806
    1XTA     H353222  33.430   3.338   1.968
    1XTA     H453223  33.296   3.454   2.117
    1XTA     H553224  33.196   3.661   2.184
    1XTA     H653225  33.111   3.894   2.138
    1XTA     H753226  32.731   3.719   2.013
    1XTA     H853227  32.808   3.496   2.095
    1XTA     H953228  32.912   3.247   2.206
    1XTA    H1053229  32.850   3.157   2.438
    1XTA    H1153230  33.112   3.440   2.616
    1XTA    H1253231  33.154   3.542   2.404
    1XTA    OA153232  33.316   3.145   1.773
    1XTA    CO153233  33.454   3.160   1.754
    1XTA    OA253234  32.858   3.945   2.054
    1XTA    CO253235  32.729   3.967   2.112
    1XTA    CL153236  32.609   3.964   2.020
    1XTA    CL253237  32.608   4.095   1.947
    1XTA    CL353238  32.544   4.096   1.809
    1XTA    CL453239  32.579   3.979   1.713
    1XTA    CO353240  32.722   3.965   1.663
    1XTA    OA353241  32.720   3.882   1.555
    1XTA    CO453242  32.809   3.920   1.458
    1XTA    CT153243  32.772   3.833   1.336
    1XTA    CL553244  32.854   3.872   1.208
    1XTA    CL653245  32.826   4.011   1.153
    1XTA    OA453246  32.956   3.245   2.667
    1XTA    CO553247  32.861   3.138   2.692
    1XTA    CL753248  32.939   3.013   2.666
    1XTA    CL853249  32.868   2.878   2.686
    1XTA    CL953250  32.943   2.758   2.624
    1XTA   CL1053251  33.077   2.732   2.705
    1XTA    CO653252  33.110   2.585   2.722
    1XTA    OA553253  33.152   2.536   2.597
    1XTA    CO753254  33.183   2.396   2.608
    1XTA    CT253255  33.248   2.350   2.485
    1XTA   CL1153256  33.243   2.191   2.499
    1XTA   CL1253257  33.307   2.131   2.621
    1XTA    HL153258  33.511   3.143   1.844
    1XTA    HL253259  33.495   3.108   1.666
    1XTA    HL353260  33.476   3.271   1.731
    1XTA    HL453261  32.710   3.887   2.184
    1XTA    HL553262  32.721   4.056   2.177
    1XTA    HL653263  32.525   3.961   2.093
    1XTA    HL753264  32.611   3.876   1.956
    1XTA    HL853265  32.712   4.118   1.941
    1XTA    HL953266  32.567   4.173   2.010
    1XTA   HL1053267  32.438   4.091   1.830
    1XTA   HL1153268  32.567   4.191   1.765
    1XTA   HL1253269  32.511   3.986   1.630
    1XTA   HL1353270  32.543   3.892   1.757
    1XTA   HL1453271  32.758   4.061   1.638
    1XTA   HL1553272  32.779   3.932   1.748
    1XTA   HL1653273  32.790   4.026   1.426
    1XTA   HL1753274  32.908   3.904   1.501
    1XTA   HL1853275  32.859   3.804   1.125
    1XTA   HL1953276  32.956   3.870   1.242
    1XTA   HL2053277  32.718   4.039   1.158
    1XTA   HL2153278  32.866   4.009   1.054
    1XTA   HL2253279  32.876   4.089   1.206
    1XTA   HL2353280  32.771   3.154   2.628
    1XTA   HL2453281  32.834   3.138   2.792
    1XTA   HL2553282  32.983   3.016   2.572
    1XTA   HL2653283  33.027   3.016   2.736
    1XTA   HL2753284  32.862   2.864   2.795
    1XTA   HL2853285  32.768   2.873   2.639
    1XTA   HL2953286  32.867   2.684   2.632
    1XTA   HL3053287  32.966   2.764   2.515
    1XTA   HL3153288  33.155   2.785   2.653
    1XTA   HL3253289  33.069   2.776   2.804
    1XTA   HL3353290  33.200   2.573   2.787
    1XTA   HL3453291  33.021   2.529   2.763
    1XTA   HL3553292  33.095   2.342   2.611
    1XTA   HL3653293  33.238   2.378   2.702
    1XTA   HL3753294  33.282   2.151   2.408
    1XTA   HL3853295  33.144   2.143   2.482
    1XTA   HL3953296  33.419   2.159   2.639
    1XTA   HL4053297  33.301   2.025   2.605
    1XTA   HL4153298  33.257   2.153   2.716
    1XTA    CO853299  32.625   3.839   1.299
    1XTA    CO953300  32.801   3.683   1.367
    1XTA    OA653301  32.905   3.653   1.396
    1XTA   HL4253302  32.565   3.805   1.381
    1XTA   HL4353303  32.574   3.971   1.280
    1XTA   HL4453304  33.380   2.540   2.403
    1XTA   HL4553305  33.450   2.407   2.550
    1XTA   CO1053306  33.392   2.408   2.458
    1XTA   CO1153307  33.171   2.375   2.357
    1XTA    OA753308  33.071   2.334   2.356
    1XTA   HL4653309  33.162   2.489   2.346
    1XTA   HL4753310  33.224   2.334   2.273
    1XTA   HL4853311  32.785   3.626   1.280
    1XTA   HL4953312  32.741   3.651   1.459
    1XTA     NT53313  29.712   2.996   3.364
    1XTA    CN153314  29.682   3.128   3.351
    1XTA     C153315  29.766   3.225   3.417
    1XTA     C253316  29.742   3.365   3.404
    1XTA     C353317  29.618   3.404   3.348
    1XTA     C453318  29.539   3.305   3.291
    1XTA     C553319  29.564   3.171   3.291
    1XTA    CN253320  29.835   2.966   3.330
    1XTA     C653321  29.882   2.994   3.198
    1XTA     C753322  29.995   2.928   3.149
    1XTA     C853323  30.080   2.858   3.238
    1XTA     C953324  30.038   2.838   3.369
    1XTA    C1053325  29.917   2.894   3.413
    1XTA    CN353326  29.618   2.899   3.350
    1XTA    C1153327  29.555   2.868   3.224
    1XTA    C1253328  29.458   2.769   3.217
    1XTA    C1353329  29.424   2.696   3.329
    1XTA    C1453330  29.477   2.732   3.454
    1XTA    C1553331  29.581   2.824   3.465
    1XTA     H153332  29.855   3.191   3.474
    1XTA     H253333  29.816   3.441   3.434
    1XTA     H353334  29.451   3.327   3.236
    1XTA     H453335  29.503   3.099   3.239
    1XTA     H553336  29.820   3.049   3.124
    1XTA     H653337  30.025   2.937   3.049
    1XTA     H753338  30.092   2.772   3.432
    1XTA     H853339  29.879   2.861   3.513
    1XTA     H953340  29.586   2.915   3.130
    1XTA    H1053341  29.423   2.738   3.125
    1XTA    H1153342  29.441   2.686   3.546
    1XTA    H1253343  29.622   2.849   3.563
    1XTA    OA153344  29.586   3.537   3.340
    1XTA    CO153345  29.669   3.645   3.391
    1XTA    OA253346  30.191   2.800   3.176
    1XTA    CO253347  30.266   2.702   3.239
    1XTA    CL153348  30.374   2.645   3.150
    1XTA    CL253349  30.453   2.524   3.205
    1XTA    CL353350  30.371   2.396   3.220
    1XTA    CL453351  30.320   2.339   3.087
    1XTA    CO353352  30.255   2.211   3.124
    1XTA    OA353353  30.173   2.191   3.012
    1XTA    CO453354  30.146   2.058   2.971
    1XTA    CT153355  30.044   2.038   2.854
    1XTA    CL553356  30.061   1.897   2.795
    1XTA    CL653357  30.087   1.784   2.893
    1XTA    OA453358  29.316   2.604   3.337
    1XTA    CO553359  29.235   2.580   3.218
    1XTA    CL753360  29.273   2.460   3.129
    1XTA    CL853361  29.396   2.487   3.032
    1XTA    CL953362  29.439   2.366   2.955
    1XTA   CL1053363  29.550   2.408   2.854
    1XTA    CO653364  29.600   2.283   2.774
    1XTA    OA553365  29.706   2.311   2.690
    1XTA    CO753366  29.718   2.222   2.586
    1XTA    CT253367  29.836   2.240   2.486
    1XTA   CL1153368  29.812   2.371   2.405
    1XTA   CL1253369  29.932   2.399   2.311
    1XTA    HL153370  29.668   3.632   3.504
    1XTA    HL253371  29.769   3.624   3.345
    1XTA    HL353372  29.624   3.748   3.377
    1XTA    HL453373  30.307   2.740   3.335
    1XTA    HL553374  30.196   2.627   3.270
    1XTA    HL653375  30.446   2.720   3.124
    1XTA    HL753376  30.338   2.613   3.050
    1XTA    HL853377  30.481   2.545   3.305
    1XTA    HL953378  30.550   2.505   3.160
    1XTA   HL1053379  30.436   2.329   3.280
    1XTA   HL1153380  30.290   2.403   3.292
    1XTA   HL1253381  30.389   2.329   3.011
    1XTA   HL1353382  30.250   2.401   3.027
    1XTA   HL1453383  30.338   2.140   3.129
    1XTA   HL1553384  30.188   2.210   3.209
    1XTA   HL1653385  30.238   2.009   2.948
    1XTA   HL1753386  30.097   2.015   3.054
    1XTA   HL1853387  30.146   1.906   2.734
    1XTA   HL1953388  29.966   1.861   2.744
    1XTA   HL2053389  30.069   1.687   2.857
    1XTA   HL2153390  30.033   1.797   2.982
    1XTA   HL2253391  30.190   1.784   2.923
    1XTA   HL2353392  29.231   2.671   3.158
    1XTA   HL2453393  29.137   2.561   3.257
    1XTA   HL2553394  29.276   2.364   3.189
    1XTA   HL2653395  29.197   2.450   3.056
    1XTA   HL2753396  29.358   2.571   2.970
    1XTA   HL2853397  29.475   2.521   3.095
    1XTA   HL2953398  29.489   2.288   3.017
    1XTA   HL3053399  29.353   2.328   2.886
    1XTA   HL3153400  29.525   2.488   2.782
    1XTA   HL3253401  29.631   2.442   2.916
    1XTA   HL3353402  29.643   2.200   2.833
    1XTA   HL3453403  29.521   2.239   2.711
    1XTA   HL3553404  29.631   2.226   2.528
    1XTA   HL3653405  29.713   2.116   2.621
    1XTA   HL3753406  29.802   2.451   2.475
    1XTA   HL3853407  29.720   2.361   2.354
    1XTA   HL3953408  29.955   2.312   2.254
    1XTA   HL4053409  30.019   2.423   2.363
    1XTA   HL4153410  29.904   2.480   2.241
    1XTA    CO853411  30.070   2.144   2.742
    1XTA    CO953412  29.897   2.062   2.892
    1XTA    OA653413  29.882   2.007   2.987
    1XTA   HL4253414  30.062   2.244   2.782
    1XTA   HL4353415  30.199   2.114   2.693
    1XTA   HL4453416  29.849   2.022   2.463
    1XTA   HL4553417  29.950   2.098   2.360
    1XTA   CO1053418  29.851   2.109   2.401
    1XTA   CO1153419  29.958   2.255   2.579
    1XTA    OA753420  29.966   2.132   2.648
    1XTA   HL4653421  30.056   2.275   2.531
    1XTA   HL4753422  29.942   2.338   2.649
    1XTA   HL4853423  29.838   2.023   2.809
    1XTA   HL4953424  29.889   2.167   2.904
    1XTA     NT53425  27.079   6.173   0.599
    1XTA    CN153426  26.995   6.158   0.496
    1XTA     C153427  26.865   6.197   0.505
    1XTA     C253428  26.783   6.176   0.394
    1XTA     C353429  26.823   6.106   0.278
    1XTA     C453430  26.956   6.070   0.266
    1XTA     C553431  27.037   6.088   0.380
    1XTA    CN253432  27.081   6.073   0.689
    1XTA     C653433  27.200   6.000   0.714
    1XTA     C753434  27.193   5.916   0.830
    1XTA     C853435  27.074   5.886   0.898
    1XTA     C953436  26.951   5.938   0.857
    1XTA    C1053437  26.962   6.041   0.762
    1XTA    CN353438  27.109   6.287   0.653
    1XTA    C1153439  27.029   6.355   0.748
    1XTA    C1253440  27.066   6.482   0.781
    1XTA    C1353441  27.175   6.556   0.729
    1XTA    C1453442  27.259   6.486   0.638
    1XTA    C1553443  27.220   6.353   0.608
    1XTA     H153444  26.839   6.249   0.596
    1XTA     H253445  26.686   6.227   0.396
    1XTA     H353446  26.999   6.017   0.184
    1XTA     H453447  27.133   6.044   0.386
    1XTA     H553448  27.290   6.022   0.659
    1XTA     H653449  27.291   5.878   0.855
    1XTA     H753450  26.852   5.917   0.910
    1XTA     H853451  26.871   6.091   0.740
    1XTA     H953452  26.942   6.312   0.796
    1XTA    H1053453  27.016   6.534   0.859
    1XTA    H1153454  27.348   6.531   0.596
    1XTA    H1253455  27.286   6.292   0.543
    1XTA    OA153456  26.745   6.112   0.165
    1XTA    CO153457  26.755   6.011   0.066
    1XTA    OA253458  27.076   5.811   1.010
    1XTA    CO253459  27.176   5.715   1.012
    1XTA    CL153460  27.278   5.758   1.113
    1XTA    CL253461  27.399   5.655   1.134
    1XTA    CL353462  27.354   5.536   1.211
    1XTA    CL453463  27.461   5.442   1.263
    1XTA    CO353464  27.409   5.312   1.320
    1XTA    OA353465  27.270   5.321   1.333
    1XTA    CO453466  27.202   5.200   1.338
    1XTA    CT153467  27.070   5.194   1.260
    1XTA    CL553468  26.981   5.062   1.290
    1XTA    CL653469  27.061   4.933   1.285
    1XTA    OA453470  27.205   6.678   0.778
    1XTA    CO553471  27.286   6.768   0.702
    1XTA    CL753472  27.290   6.910   0.765
    1XTA    CL853473  27.155   6.979   0.765
    1XTA    CL953474  27.154   7.108   0.844
    1XTA   CL1053475  27.151   7.095   0.998
    1XTA    CO653476  27.022   7.057   1.051
    1XTA    OA553477  27.012   7.032   1.190
    1XTA    CO753478  26.913   6.939   1.237
    1XTA    CT253479  26.925   6.921   1.386
    1XTA   CL1153480  26.826   6.806   1.431
    1XTA   CL1253481  26.851   6.665   1.368
    1XTA    HL153482  26.697   6.039  -0.027
    1XTA    HL253483  26.853   5.995   0.031
    1XTA    HL353484  26.717   5.916   0.111
    1XTA    HL453485  27.132   5.620   1.046
    1XTA    HL553486  27.211   5.693   0.913
    1XTA    HL653487  27.217   5.785   1.196
    1XTA    HL753488  27.327   5.853   1.088
    1XTA    HL853489  27.465   5.718   1.189
    1XTA    HL953490  27.450   5.640   1.039
    1XTA   HL1053491  27.288   5.571   1.286
    1XTA   HL1153492  27.288   5.485   1.144
    1XTA   HL1253493  27.512   5.486   1.347
    1XTA   HL1353494  27.533   5.414   1.184
    1XTA   HL1453495  27.437   5.230   1.251
    1XTA   HL1553496  27.464   5.290   1.410
    1XTA   HL1653497  27.258   5.127   1.290
    1XTA   HL1753498  27.194   5.166   1.442
    1XTA   HL1853499  26.892   5.067   1.230
    1XTA   HL1953500  26.951   5.061   1.394
    1XTA   HL2053501  26.997   4.847   1.266
    1XTA   HL2153502  27.110   4.909   1.376
    1XTA   HL2253503  27.134   4.936   1.203
    1XTA   HL2353504  27.262   6.770   0.594
    1XTA   HL2453505  27.382   6.726   0.720
    1XTA   HL2553506  27.322   6.908   0.867
    1XTA   HL2653507  27.360   6.979   0.706
    1XTA   HL2753508  27.134   6.998   0.657
    1XTA   HL2853509  27.079   6.920   0.809
    1XTA   HL2953510  27.238   7.162   0.820
    1XTA   HL3053511  27.064   7.164   0.817
    1XTA   HL3153512  27.236   7.031   1.027
    1XTA   HL3253513  27.165   7.198   1.038
    1XTA   HL3353514  26.945   7.128   1.039
    1XTA   HL3453515  26.987   6.968   0.999
    1XTA   HL3553516  26.915   6.847   1.181
    1XTA   HL3653517  26.816   6.983   1.217
    1XTA   HL3753518  26.730   6.856   1.407
    1XTA   HL3853519  26.819   6.796   1.537
    1XTA   HL3953520  26.935   6.613   1.423
    1XTA   HL4053521  26.865   6.674   1.259
    1XTA   HL4153522  26.756   6.605   1.378
    1XTA    CO853523  27.084   5.230   1.113
    1XTA    CO953524  26.980   5.301   1.325
    1XTA    OA653525  27.122   5.137   1.062
    1XTA   HL4253526  27.154   5.315   1.101
    1XTA   HL4353527  26.980   5.255   1.072
    1XTA   HL4453528  27.017   7.148   1.430
    1XTA   HL4553529  26.926   7.038   1.561
    1XTA   CO1053530  26.915   7.055   1.455
    1XTA   CO1153531  27.071   6.870   1.417
    1XTA    OA753532  27.092   6.787   1.356
    1XTA   HL4653533  27.129   6.959   1.392
    1XTA   HL4753534  27.074   6.852   1.524
    1XTA   HL4853535  27.042   5.431   1.314
    1XTA   HL4953536  26.963   5.273   1.433
    1XTA     NT53537  29.311  -0.510   0.239
    1XTA    CN153538  29.359  -0.629   0.284
    1XTA     C153539  29.347  -0.746   0.206
    1XTA     C253540  29.383  -0.870   0.267
    1XTA     C353541  29.444  -0.871   0.397
    1XTA     C453542  29.466  -0.749   0.469
    1XTA     C553543  29.424  -0.627   0.414
    1XTA    CN253544  29.383  -0.433   0.158
    1XTA     C653545  29.428  -0.310   0.199
    1XTA     C753546  29.510  -0.228   0.120
    1XTA     C853547  29.534  -0.269  -0.010
    1XTA     C953548  29.494  -0.397  -0.052
    1XTA    C1053549  29.418  -0.481   0.027
    1XTA    CN353550  29.178  -0.497   0.239
    1XTA    C1153551  29.114  -0.441   0.350
    1XTA    C1253552  28.974  -0.424   0.353
    1XTA    C1353553  28.900  -0.448   0.235
    1XTA    C1453554  28.965  -0.499   0.122
    1XTA    C1553555  29.099  -0.528   0.121
    1XTA     H153556  29.294  -0.752   0.116
    1XTA     H253557  29.387  -0.952   0.202
    1XTA     H353558  29.516  -0.751   0.563
    1XTA     H453559  29.423  -0.545   0.478
    1XTA     H553560  29.388  -0.277   0.290
    1XTA     H653561  29.562  -0.146   0.154
    1XTA     H753562  29.525  -0.415  -0.155
    1XTA     H853563  29.404  -0.591  -0.005
    1XTA     H953564  29.166  -0.420   0.442
    1XTA    H1053565  28.919  -0.392   0.437
    1XTA    H1153566  28.911  -0.521   0.029
    1XTA    H1253567  29.145  -0.553   0.032
    1XTA    OA153568  29.496  -0.993   0.438
    1XTA    CO153569  29.542  -0.999   0.573
    1XTA    OA253570  29.603  -0.198  -0.106
    1XTA    CO253571  29.628  -0.058  -0.082
    1XTA    CL153572  29.625   0.020  -0.216
    1XTA    CL253573  29.490   0.015  -0.290
    1XTA    CL353574  29.385   0.095  -0.217
    1XTA    CL453575  29.267   0.136  -0.316
    1XTA    CO353576  29.216   0.044  -0.427
    1XTA    OA353577  29.118  -0.039  -0.368
    1XTA    CO453578  29.155  -0.157  -0.306
    1XTA    CT153579  29.037  -0.238  -0.241
    1XTA    CL553580  28.925  -0.268  -0.342
    1XTA    CL653581  28.817  -0.372  -0.300
    1XTA    OA453582  28.761  -0.432   0.253
    1XTA    CO553583  28.692  -0.375   0.138
    1XTA    CL753584  28.539  -0.351   0.166
    1XTA    CL853585  28.461  -0.259   0.075
    1XTA    CL953586  28.527  -0.134   0.022
    1XTA   CL1053587  28.554  -0.027   0.126
    1XTA    CO653588  28.546   0.114   0.072
    1XTA    OA553589  28.672   0.158   0.017
    1XTA    CO753590  28.695   0.132  -0.125
    1XTA    CT253591  28.833   0.170  -0.170
    1XTA   CL1153592  28.879   0.312  -0.108
    1XTA   CL1253593  28.799   0.432  -0.161
    1XTA    HL153594  29.622  -0.931   0.597
    1XTA    HL253595  29.460  -0.975   0.633
    1XTA    HL353596  29.561  -1.108   0.590
    1XTA    HL453597  29.547  -0.015  -0.022
    1XTA    HL553598  29.720  -0.042  -0.025
    1XTA    HL653599  29.698  -0.031  -0.283
    1XTA    HL753600  29.659   0.119  -0.216
    1XTA    HL853601  29.457  -0.089  -0.304
    1XTA    HL953602  29.500   0.055  -0.387
    1XTA   HL1053603  29.341   0.064  -0.122
    1XTA   HL1153604  29.425   0.195  -0.188
    1XTA   HL1253605  29.287   0.235  -0.356
    1XTA   HL1353606  29.180   0.165  -0.255
    1XTA   HL1453607  29.176   0.094  -0.519
    1XTA   HL1553608  29.298  -0.014  -0.475
    1XTA   HL1653609  29.199  -0.218  -0.382
    1XTA   HL1753610  29.242  -0.143  -0.241
    1XTA   HL1853611  28.982  -0.304  -0.425
    1XTA   HL1953612  28.892  -0.166  -0.376
    1XTA   HL2053613  28.839  -0.473  -0.307
    1XTA   HL2153614  28.718  -0.361  -0.349
    1XTA   HL2253615  28.793  -0.354  -0.199
    1XTA   HL2353616  28.704  -0.433   0.047
    1XTA   HL2453617  28.731  -0.278   0.116
    1XTA   HL2553618  28.498  -0.455   0.176
    1XTA   HL2653619  28.533  -0.314   0.270
    1XTA   HL2753620  28.433  -0.316  -0.010
    1XTA   HL2853621  28.363  -0.239   0.122
    1XTA   HL2953622  28.627  -0.150  -0.018
    1XTA   HL3053623  28.471  -0.093  -0.060
    1XTA   HL3153624  28.485  -0.035   0.209
    1XTA   HL3253625  28.642  -0.053   0.171
    1XTA   HL3353626  28.465   0.110   0.004
    1XTA   HL3453627  28.528   0.190   0.154
    1XTA   HL3553628  28.617   0.170  -0.188
    1XTA   HL3653629  28.675   0.020  -0.133
    1XTA   HL3753630  28.981   0.323  -0.125
    1XTA   HL3853631  28.857   0.316  -0.006
    1XTA   HL3953632  28.832   0.454  -0.267
    1XTA   HL4053633  28.823   0.521  -0.104
    1XTA   HL4153634  28.691   0.404  -0.164
    1XTA    CO853635  28.993  -0.164  -0.116
    1XTA    CO953636  29.101  -0.372  -0.192
    1XTA    OA653637  28.902  -0.062  -0.160
    1XTA   HL4253638  29.088  -0.116  -0.081
    1XTA   HL4353639  28.954  -0.231  -0.037
    1XTA   HL4453640  28.951   0.168  -0.347
    1XTA   HL4553641  28.820   0.064  -0.353
    1XTA   CO1053642  28.846   0.163  -0.325
    1XTA   CO1153643  28.930   0.063  -0.105
    1XTA    OA753644  28.789   0.233  -0.389
    1XTA   HL4653645  28.913   0.061   0.039
    1XTA   HL4753646  29.032   0.093  -0.124
    1XTA   HL4853647  29.022  -0.429  -0.140
    1XTA   HL4953648  29.175  -0.360  -0.115
    1XTA     NT53649  28.898  -0.492   6.961
    1XTA    CN153650  28.926  -0.609   7.019
    1XTA     C153651  28.962  -0.614   7.158
    1XTA     C253652  28.996  -0.734   7.222
    1XTA     C353653  29.009  -0.851   7.143
    1XTA     C453654  28.963  -0.846   7.006
    1XTA     C553655  28.917  -0.729   6.946
    1XTA    CN253656  28.766  -0.451   6.964
    1XTA     C653657  28.732  -0.351   7.061
    1XTA     C753658  28.603  -0.305   7.075
    1XTA     C853659  28.505  -0.353   6.991
    1XTA     C953660  28.533  -0.458   6.898
    1XTA    C1053661  28.662  -0.514   6.887
    1XTA    CN353662  28.995  -0.408   6.913
    1XTA    C1153663  29.018  -0.410   6.775
    1XTA    C1253664  29.108  -0.318   6.717
    1XTA    C1353665  29.176  -0.227   6.798
    1XTA    C1453666  29.157  -0.228   6.942
    1XTA    C1553667  29.065  -0.321   6.997
    1XTA     H153668  28.954  -0.518   7.206
    1XTA     H253669  29.023  -0.739   7.325
    1XTA     H353670  28.955  -0.935   6.939
    1XTA     H453671  28.880  -0.718   6.849
    1XTA     H553672  28.811  -0.307   7.123
    1XTA     H653673  28.592  -0.217   7.137
    1XTA     H753674  28.452  -0.494   6.839
    1XTA     H853675  28.680  -0.601   6.828
    1XTA     H953676  28.968  -0.469   6.703
    1XTA    H1053677  29.130  -0.309   6.608
    1XTA    H1153678  29.207  -0.152   7.005
    1XTA    H1253679  29.055  -0.333   7.103
    1XTA    OA153680  29.056  -0.966   7.206
    1XTA    CO153681  29.074  -1.080   7.120
    1XTA    OA253682  28.371  -0.328   7.005
    1XTA    CO253683  28.334  -0.219   7.093
    1XTA    CL153684  28.190  -0.175   7.079
    1XTA    CL253685  28.162  -0.118   6.939
    1XTA    CL353686  28.020  -0.065   6.922
    1XTA    CL453687  27.913  -0.160   6.882
    1XTA    CO353688  27.792  -0.085   6.826
    1XTA    OA353689  27.704  -0.181   6.767
    1XTA    CO453690  27.580  -0.122   6.730
    1XTA    CT153691  27.483  -0.213   6.662
    1XTA    CL553692  27.556  -0.277   6.538
    1XTA    CL653693  27.466  -0.357   6.452
    1XTA    OA453694  29.265  -0.136   6.734
    1XTA    CO553695  29.277  -0.011   6.798
    1XTA    CL753696  29.373   0.067   6.705
    1XTA    CL853697  29.347   0.221   6.725
    1XTA    CL953698  29.428   0.315   6.631
    1XTA   CL1053699  29.581   0.303   6.652
    1XTA    CO653700  29.631   0.365   6.787
    1XTA    OA553701  29.639   0.506   6.778
    1XTA    CO753702  29.664   0.577   6.899
    1XTA    CT253703  29.720   0.721   6.872
    1XTA   CL1153704  29.854   0.721   6.803
    1XTA   CL1253705  29.964   0.674   6.898
    1XTA    HL153706  29.130  -1.147   7.189
    1XTA    HL253707  28.977  -1.129   7.088
    1XTA    HL353708  29.139  -1.049   7.035
    1XTA    HL453709  28.350  -0.255   7.199
    1XTA    HL553710  28.398  -0.140   7.072
    1XTA    HL653711  28.173  -0.103   7.159
    1XTA    HL753712  28.116  -0.250   7.112
    1XTA    HL853713  28.185  -0.192   6.862
    1XTA    HL953714  28.226  -0.033   6.907
    1XTA   HL1053715  27.986  -0.008   7.006
    1XTA   HL1153716  28.028   0.007   6.847
    1XTA   HL1253717  27.879  -0.219   6.966
    1XTA   HL1353718  27.956  -0.224   6.805
    1XTA   HL1453719  27.750  -0.032   6.915
    1XTA   HL1553720  27.810  -0.026   6.744
    1XTA   HL1653721  27.551  -0.067   6.825
    1XTA   HL1753722  27.609  -0.036   6.662
    1XTA   HL1853723  27.648  -0.336   6.566
    1XTA   HL1953724  27.598  -0.198   6.480
    1XTA   HL2053725  27.396  -0.295   6.400
    1XTA   HL2153726  27.403  -0.428   6.504
    1XTA   HL2253727  27.522  -0.416   6.382
    1XTA   HL2353728  29.325  -0.020   6.896
    1XTA   HL2453729  29.183   0.033   6.801
    1XTA   HL2553730  29.483   0.046   6.737
    1XTA   HL2653731  29.351   0.045   6.599
    1XTA   HL2753732  29.245   0.242   6.712
    1XTA   HL2853733  29.374   0.244   6.828
    1XTA   HL2953734  29.418   0.309   6.528
    1XTA   HL3053735  29.405   0.421   6.645
    1XTA   HL3153736  29.618   0.202   6.655
    1XTA   HL3253737  29.631   0.360   6.573
    1XTA   HL3353738  29.590   0.323   6.879
    1XTA   HL3453739  29.735   0.334   6.807
    1XTA   HL3553740  29.742   0.523   6.953
    1XTA   HL3653741  29.576   0.584   6.968
    1XTA   HL3753742  29.880   0.811   6.753
    1XTA   HL3853743  29.854   0.643   6.728
    1XTA   HL3953744  29.969   0.728   6.991
    1XTA   HL4053745  30.064   0.685   6.856
    1XTA   HL4153746  29.950   0.575   6.943
    1XTA    CO853747  27.363  -0.136   6.616
    1XTA    CO953748  27.445  -0.327   6.753
    1XTA    OA653749  27.309  -0.082   6.695
    1XTA   HL4253750  27.285  -0.195   6.562
    1XTA   HL4353751  27.403  -0.067   6.538
    1XTA   HL4453752  29.622   0.800   7.019
    1XTA   HL4553753  29.754   0.899   6.995
    1XTA   CO1053754  29.729   0.795   7.004
    1XTA   CO1153755  29.612   0.788   6.783
    1XTA    OA753756  29.488   0.779   6.848
    1XTA   HL4653757  29.644   0.886   6.748
    1XTA   HL4753758  29.604   0.718   6.700
    1XTA   HL4853759  27.418  -0.279   6.889
    1XTA   HL4953760  27.355  -0.364   6.709
    1XTA     NT53761  30.862   2.003   0.157
    1XTA    CN153762  30.782   2.080   0.078
    1XTA     C153763  30.702   2.032  -0.029
    1XTA     C253764  30.615   2.117  -0.103
    1XTA     C353765  30.603   2.252  -0.064
    1XTA     C453766  30.698   2.304   0.034
    1XTA     C553767  30.791   2.216   0.098
    1XTA    CN253768  30.808   1.954   0.273
    1XTA     C653769  30.842   2.024   0.392
    1XTA     C753770  30.779   1.988   0.513
    1XTA     C853771  30.695   1.879   0.517
    1XTA     C953772  30.660   1.811   0.397
    1XTA    C1053773  30.720   1.847   0.277
    1XTA    CN353774  30.974   1.940   0.103
    1XTA    C1153775  31.101   2.004   0.099
    1XTA    C1253776  31.214   1.935   0.054
    1XTA    C1353777  31.204   1.800   0.024
    1XTA    C1453778  31.077   1.741   0.008
    1XTA    C1553779  30.961   1.808   0.053
    1XTA     H153780  30.712   1.930  -0.059
    1XTA     H253781  30.553   2.077  -0.180
    1XTA     H353782  30.696   2.410   0.060
    1XTA     H453783  30.864   2.256   0.165
    1XTA     H553784  30.912   2.102   0.399
    1XTA     H653785  30.807   2.042   0.597
    1XTA     H753786  30.591   1.730   0.397
    1XTA     H853787  30.693   1.795   0.189
    1XTA     H953788  31.105   2.111   0.143
    1XTA    H1053789  31.308   1.986   0.037
    1XTA    H1153790  31.072   1.637  -0.023
    1XTA    H1253791  30.866   1.753   0.051
    1XTA    OA153792  30.509   2.338  -0.111
    1XTA    CO153793  30.405   2.291  -0.196
    1XTA    OA253794  30.650   1.837   0.643
    1XTA    CO253795  30.564   1.727   0.656
    1XTA    CL153796  30.523   1.731   0.799
    1XTA    CL253797  30.442   1.611   0.838
    1XTA    CL353798  30.323   1.586   0.748
    1XTA    CL453799  30.243   1.474   0.805
    1XTA    CO353800  30.312   1.335   0.808
    1XTA    OA353801  30.269   1.266   0.921
    1XTA    CO453802  30.331   1.307   1.033
    1XTA    CT153803  30.258   1.232   1.152
    1XTA    CL553804  30.334   1.258   1.284
    1XTA    CL653805  30.287   1.182   1.404
    1XTA    OA453806  31.306   1.724  -0.024
    1XTA    CO553807  31.437   1.755   0.028
    1XTA    CL753808  31.539   1.633   0.024
    1XTA    CL853809  31.482   1.516   0.102
    1XTA    CL953810  31.465   1.532   0.259
    1XTA   CL1053811  31.388   1.417   0.316
    1XTA    CO653812  31.388   1.399   0.476
    1XTA    OA553813  31.279   1.305   0.520
    1XTA    CO753814  31.271   1.277   0.663
    1XTA    CT253815  31.167   1.156   0.671
    1XTA   CL1153816  31.034   1.173   0.596
    1XTA   CL1253817  30.947   1.280   0.658
    1XTA    HL153818  30.342   2.366  -0.232
    1XTA    HL253819  30.459   2.253  -0.286
    1XTA    HL353820  30.347   2.204  -0.156
    1XTA    HL453821  30.492   1.771   0.584
    1XTA    HL553822  30.618   1.634   0.637
    1XTA    HL653823  30.474   1.821   0.818
    1XTA    HL753824  30.603   1.731   0.873
    1XTA    HL853825  30.411   1.615   0.937
    1XTA    HL953826  30.519   1.533   0.823
    1XTA   HL1053827  30.261   1.675   0.728
    1XTA   HL1153828  30.357   1.556   0.647
    1XTA   HL1253829  30.168   1.454   0.731
    1XTA   HL1353830  30.186   1.492   0.901
    1XTA   HL1453831  30.284   1.287   0.723
    1XTA   HL1553832  30.422   1.328   0.807
    1XTA   HL1653833  30.438   1.283   1.023
    1XTA   HL1753834  30.328   1.411   1.045
    1XTA   HL1853835  30.328   1.360   1.309
    1XTA   HL1953836  30.438   1.237   1.263
    1XTA   HL2053837  30.339   1.085   1.392
    1XTA   HL2153838  30.178   1.189   1.410
    1XTA   HL2253839  30.324   1.233   1.496
    1XTA   HL2353840  31.427   1.783   0.138
    1XTA   HL2453841  31.480   1.835  -0.030
    1XTA   HL2553842  31.549   1.616  -0.085
    1XTA   HL2653843  31.636   1.662   0.055
    1XTA   HL2753844  31.384   1.496   0.059
    1XTA   HL2853845  31.548   1.431   0.081
    1XTA   HL2953846  31.562   1.546   0.300
    1XTA   HL3053847  31.409   1.627   0.281
    1XTA   HL3153848  31.287   1.441   0.294
    1XTA   HL3253849  31.403   1.324   0.266
    1XTA   HL3353850  31.491   1.359   0.499
    1XTA   HL3453851  31.360   1.497   0.516
    1XTA   HL3553852  31.246   1.357   0.733
    1XTA   HL3653853  31.377   1.251   0.696
    1XTA   HL3753854  30.973   1.084   0.609
    1XTA   HL3853855  31.045   1.190   0.495
    1XTA   HL3953856  30.870   1.304   0.585
    1XTA   HL4053857  30.997   1.372   0.669
    1XTA   HL4153858  30.888   1.242   0.739
    1XTA    CO853859  30.243   1.081   1.132
    1XTA    CO953860  30.111   1.292   1.156
    1XTA    OA653861  30.050   1.246   1.237
    1XTA   HL4253862  30.164   1.049   1.206
    1XTA   HL4353863  30.184   1.054   1.004
    1XTA   HL4453864  31.096   1.230   0.872
    1XTA   HL4553865  31.102   1.040   0.841
    1XTA   CO1053866  31.149   1.142   0.827
    1XTA   CO1153867  31.224   1.027   0.615
    1XTA    OA753868  31.251   1.142   0.876
    1XTA   HL4653869  31.243   1.029   0.475
    1XTA   HL4753870  31.320   1.021   0.662
    1XTA   HL4853871  30.061   1.272   1.058
    1XTA   HL4953872  30.119   1.402   1.172
    1XTA     NT53873  33.745  -0.189  -0.764
    1XTA    CN153874  33.640  -0.100  -0.758
    1XTA     C153875  33.522  -0.132  -0.690
    1XTA     C253876  33.419  -0.038  -0.686
    1XTA     C353877  33.424   0.082  -0.762
    1XTA     C453878  33.543   0.109  -0.835
    1XTA     C553879  33.648   0.023  -0.821
    1XTA    CN253880  33.870  -0.151  -0.788
    1XTA     C653881  33.951  -0.077  -0.701
    1XTA     C753882  34.074  -0.033  -0.741
    1XTA     C853883  34.129  -0.064  -0.867
    1XTA     C953884  34.049  -0.130  -0.959
    1XTA    C1053885  33.918  -0.173  -0.922
    1XTA    CN353886  33.723  -0.319  -0.729
    1XTA    C1153887  33.770  -0.362  -0.598
    1XTA    C1253888  33.742  -0.492  -0.555
    1XTA    C1353889  33.676  -0.582  -0.643
    1XTA    C1453890  33.638  -0.540  -0.767
    1XTA    C1553891  33.650  -0.408  -0.813
    1XTA     H153892  33.515  -0.230  -0.632
    1XTA     H253893  33.325  -0.047  -0.632
    1XTA     H353894  33.560   0.199  -0.893
    1XTA     H453895  33.741   0.048  -0.868
    1XTA     H553896  33.910  -0.042  -0.606
    1XTA     H653897  34.123   0.025  -0.663
    1XTA     H753898  34.081  -0.153  -1.063
    1XTA     H853899  33.867  -0.228  -0.997
    1XTA     H953900  33.812  -0.283  -0.535
    1XTA    H1053901  33.767  -0.528  -0.458
    1XTA    H1153902  33.590  -0.619  -0.822
    1XTA    H1253903  33.606  -0.377  -0.904
    1XTA    OA153904  33.312   0.162  -0.774
    1XTA    CO153905  33.325   0.242  -0.890
    1XTA    OA253906  34.253  -0.019  -0.903
    1XTA    CO253907  34.358  -0.040  -0.813
    1XTA    CL153908  34.392   0.078  -0.720
    1XTA    CL253909  34.519   0.049  -0.640
    1XTA    CL353910  34.557   0.162  -0.545
    1XTA    CL453911  34.684   0.138  -0.467
    1XTA    CO353912  34.777   0.258  -0.437
    1XTA    OA353913  34.714   0.378  -0.443
    1XTA    CO453914  34.779   0.479  -0.372
    1XTA    CT153915  34.704   0.610  -0.393
    1XTA    CL553916  34.750   0.725  -0.302
    1XTA    CL653917  34.773   0.717  -0.152
    1XTA    OA453918  33.657  -0.712  -0.613
    1XTA    CO553919  33.686  -0.756  -0.477
    1XTA    CL753920  33.665  -0.903  -0.489
    1XTA    CL853921  33.773  -0.963  -0.587
    1XTA    CL953922  33.908  -0.986  -0.525
    1XTA   CL1053923  33.998  -1.079  -0.617
    1XTA    CO653924  34.063  -0.997  -0.736
    1XTA    OA553925  34.136  -0.896  -0.675
    1XTA    CO753926  34.214  -0.810  -0.751
    1XTA    CT253927  34.195  -0.666  -0.690
    1XTA   CL1153928  34.296  -0.582  -0.763
    1XTA   CL1253929  34.300  -0.429  -0.743
    1XTA    HL153930  33.340   0.186  -0.979
    1XTA    HL253931  33.239   0.301  -0.914
    1XTA    HL353932  33.400   0.322  -0.869
    1XTA    HL453933  34.345  -0.127  -0.761
    1XTA    HL553934  34.445  -0.049  -0.879
    1XTA    HL653935  34.322   0.108  -0.650
    1XTA    HL753936  34.417   0.171  -0.782
    1XTA    HL853937  34.609   0.030  -0.707
    1XTA    HL953938  34.504  -0.039  -0.584
    1XTA   HL1053939  34.579   0.246  -0.602
    1XTA   HL1153940  34.475   0.181  -0.474
    1XTA   HL1253941  34.745   0.070  -0.522
    1XTA   HL1353942  34.665   0.094  -0.378
    1XTA   HL1453943  34.819   0.246  -0.335
    1XTA   HL1553944  34.863   0.255  -0.508
    1XTA   HL1653945  34.808   0.464  -0.269
    1XTA   HL1753946  34.864   0.476  -0.434
    1XTA   HL1853947  34.681   0.806  -0.327
    1XTA   HL1953948  34.844   0.765  -0.342
    1XTA   HL2053949  34.845   0.636  -0.128
    1XTA   HL2153950  34.679   0.697  -0.105
    1XTA   HL2253951  34.815   0.809  -0.112
    1XTA   HL2353952  33.619  -0.705  -0.412
    1XTA   HL2453953  33.788  -0.724  -0.453
    1XTA   HL2553954  33.665  -0.958  -0.396
    1XTA   HL2653955  33.564  -0.919  -0.530
    1XTA   HL2753956  33.735  -1.057  -0.622
    1XTA   HL2853957  33.786  -0.905  -0.680
    1XTA   HL2953958  33.946  -0.889  -0.522
    1XTA   HL3053959  33.892  -1.021  -0.420
    1XTA   HL3153960  34.081  -1.130  -0.568
    1XTA   HL3253961  33.941  -1.156  -0.660
    1XTA   HL3353962  34.129  -1.065  -0.794
    1XTA   HL3453963  33.993  -0.949  -0.804
    1XTA   HL3553964  34.197  -0.806  -0.856
    1XTA   HL3653965  34.323  -0.840  -0.738
    1XTA   HL3753966  34.290  -0.595  -0.871
    1XTA   HL3853967  34.394  -0.623  -0.739
    1XTA   HL3953968  34.273  -0.406  -0.640
    1XTA   HL4053969  34.233  -0.370  -0.807
    1XTA   HL4153970  34.400  -0.400  -0.760
    1XTA    CO853971  34.552   0.580  -0.366
    1XTA    CO953972  34.718   0.646  -0.544
    1XTA    OA653973  34.811   0.707  -0.554
    1XTA   HL4253974  34.496   0.669  -0.394
    1XTA   HL4353975  34.504   0.485  -0.465
    1XTA   HL4453976  34.221  -0.570  -0.510
    1XTA   HL4553977  34.153  -0.725  -0.485
    1XTA   CO1053978  34.231  -0.675  -0.542
    1XTA   CO1153979  34.052  -0.608  -0.709
    1XTA    OA753980  34.330  -0.718  -0.527
    1XTA   HL4653981  33.953  -0.686  -0.638
    1XTA   HL4753982  34.054  -0.507  -0.678
    1XTA   HL4853983  34.637   0.707  -0.574
    1XTA   HL4953984  34.705   0.560  -0.596
    1XTA     NT53985  28.331  -0.302   3.217
    1XTA    CN153986  28.214  -0.344   3.164
    1XTA     C153987  28.224  -0.387   3.025
    1XTA     C253988  28.111  -0.407   2.948
    1XTA     C353989  27.979  -0.406   3.014
    1XTA     C453990  27.966  -0.373   3.153
    1XTA     C553991  28.082  -0.335   3.221
    1XTA    CN253992  28.429  -0.391   3.235
    1XTA     C653993  28.400  -0.525   3.265
    1XTA     C753994  28.506  -0.627   3.257
    1XTA     C853995  28.640  -0.580   3.229
    1XTA     C953996  28.664  -0.445   3.199
    1XTA    C1053997  28.559  -0.352   3.201
    1XTA    CN353998  28.329  -0.183   3.285
    1XTA    C1153999  28.297  -0.185   3.424
    1XTA    C1254000  28.296  -0.059   3.491
    1XTA    C1354001  28.308   0.063   3.428
    1XTA    C1454002  28.331   0.064   3.287
    1XTA    C1554003  28.344  -0.059   3.213
    1XTA     H154004  28.323  -0.376   2.975
    1XTA     H254005  28.125  -0.423   2.843
    1XTA     H354006  27.871  -0.360   3.200
    1XTA     H454007  28.075  -0.282   3.314
    1XTA     H554008  28.301  -0.565   3.275
    1XTA     H654009  28.470  -0.730   3.266
    1XTA     H754010  28.769  -0.419   3.170
    1XTA     H854011  28.575  -0.249   3.165
    1XTA     H954012  28.279  -0.269   3.479
    1XTA    H1054013  28.273  -0.052   3.597
    1XTA    H1154014  28.345   0.158   3.242
    1XTA    H1254015  28.372  -0.060   3.110
    1XTA    OA154016  27.860  -0.433   2.946
    1XTA    CO154017  27.874  -0.480   2.810
    1XTA    OA254018  28.739  -0.668   3.198
    1XTA    CO254019  28.761  -0.760   3.296
    1XTA    CL154020  28.872  -0.857   3.251
    1XTA    CL254021  28.882  -0.990   3.323
    1XTA    CL354022  29.005  -1.068   3.292
    1XTA    CL454023  28.998  -1.215   3.333
    1XTA    CO354024  29.126  -1.283   3.293
    1XTA    OA354025  29.132  -1.285   3.158
    1XTA    CO454026  29.071  -1.403   3.106
    1XTA    CT154027  29.114  -1.385   2.957
    1XTA    CL554028  29.266  -1.403   2.937
    1XTA    CL654029  29.321  -1.543   2.975
    1XTA    OA454030  28.299   0.181   3.493
    1XTA    CO554031  28.175   0.203   3.564
    1XTA    CL754032  28.207   0.237   3.713
    1XTA    CL854033  28.085   0.208   3.801
    1XTA    CL954034  28.115   0.232   3.955
    1XTA   CL1054035  27.985   0.228   4.030
    1XTA    CO654036  27.943   0.086   4.079
    1XTA    OA554037  28.017   0.058   4.190
    1XTA    CO754038  27.990  -0.075   4.250
    1XTA    CT254039  28.077  -0.100   4.361
    1XTA   CL1154040  28.046   0.015   4.458
    1XTA   CL1254041  27.902   0.033   4.514
    1XTA    HL154042  27.950  -0.560   2.810
    1XTA    HL254043  27.777  -0.518   2.772
    1XTA    HL354044  27.908  -0.392   2.753
    1XTA    HL454045  28.785  -0.701   3.385
    1XTA    HL554046  28.667  -0.814   3.324
    1XTA    HL654047  28.971  -0.805   3.263
    1XTA    HL754048  28.869  -0.878   3.149
    1XTA    HL854049  28.787  -1.039   3.307
    1XTA    HL954050  28.887  -0.967   3.431
    1XTA   HL1054051  29.024  -1.066   3.186
    1XTA   HL1154052  29.090  -1.024   3.348
    1XTA   HL1254053  28.926  -1.264   3.270
    1XTA   HL1354054  28.954  -1.224   3.431
    1XTA   HL1454055  29.211  -1.230   3.318
    1XTA   HL1554056  29.156  -1.381   3.340
    1XTA   HL1654057  29.112  -1.504   3.147
    1XTA   HL1754058  28.963  -1.407   3.117
    1XTA   HL1854059  29.310  -1.318   2.993
    1XTA   HL1954060  29.289  -1.382   2.834
    1XTA   HL2054061  29.310  -1.562   3.078
    1XTA   HL2154062  29.425  -1.534   2.960
    1XTA   HL2254063  29.289  -1.630   2.913
    1XTA   HL2354064  28.122   0.106   3.560
    1XTA   HL2454065  28.113   0.278   3.524
    1XTA   HL2554066  28.274   0.161   3.748
    1XTA   HL2654067  28.247   0.335   3.717
    1XTA   HL2754068  28.007   0.275   3.772
    1XTA   HL2854069  28.046   0.103   3.791
    1XTA   HL2954070  28.189   0.162   4.002
    1XTA   HL3054071  28.157   0.331   3.963
    1XTA   HL3154072  27.976   0.292   4.118
    1XTA   HL3254073  27.899   0.244   3.962
    1XTA   HL3354074  27.840   0.088   4.113
    1XTA   HL3454075  27.950   0.009   4.005
    1XTA   HL3554076  28.014  -0.146   4.174
    1XTA   HL3654077  27.889  -0.101   4.283
    1XTA   HL3754078  28.078   0.112   4.412
    1XTA   HL3854079  28.118   0.014   4.539
    1XTA   HL3954080  27.903   0.117   4.589
    1XTA   HL4054081  27.844  -0.043   4.554
    1XTA   HL4154082  27.848   0.075   4.434
    1XTA    CO854083  29.068  -1.248   2.900
    1XTA    CO954084  29.037  -1.495   2.876
    1XTA    OA654085  29.082  -1.253   2.763
    1XTA   HL4254086  29.119  -1.161   2.942
    1XTA   HL4354087  28.965  -1.231   2.928
    1XTA   HL4454088  28.238   0.014   4.269
    1XTA   HL4554089  28.287  -0.071   4.412
    1XTA   CO1054090  28.229  -0.081   4.317
    1XTA   CO1154091  28.056  -0.244   4.423
    1XTA    OA754092  28.264  -0.172   4.259
    1XTA   HL4654093  28.170  -0.285   4.503
    1XTA   HL4754094  28.082  -0.312   4.346
    1XTA   HL4854095  29.075  -1.500   2.778
    1XTA   HL4954096  29.059  -1.583   2.931
    1XTA     NT54097  32.517  -0.110   2.566
    1XTA    CN154098  32.431  -0.210   2.540
    1XTA     C154099  32.361  -0.261   2.655
    1XTA     C254100  32.262  -0.353   2.625
    1XTA     C354101  32.233  -0.398   2.493
    1XTA     C454102  32.302  -0.344   2.382
    1XTA     C554103  32.404  -0.250   2.410
    1XTA    CN254104  32.476   0.008   2.603
    1XTA     C654105  32.432   0.094   2.501
    1XTA     C754106  32.386   0.219   2.538
    1XTA     C854107  32.363   0.261   2.669
    1XTA     C954108  32.393   0.166   2.770
    1XTA    C1054109  32.455   0.045   2.736
    1XTA    CN354110  32.640  -0.154   2.586
    1XTA    C1154111  32.680  -0.207   2.710
    1XTA    C1254112  32.807  -0.267   2.722
    1XTA    C1354113  32.896  -0.274   2.611
    1XTA    C1454114  32.857  -0.217   2.489
    1XTA    C1554115  32.731  -0.163   2.473
    1XTA     H154116  32.386  -0.220   2.749
    1XTA     H254117  32.220  -0.401   2.712
    1XTA     H354118  32.272  -0.377   2.282
    1XTA     H454119  32.459  -0.201   2.331
    1XTA     H554120  32.441   0.067   2.390
    1XTA     H654121  32.361   0.292   2.459
    1XTA     H754122  32.391   0.189   2.876
    1XTA     H854123  32.478  -0.033   2.810
    1XTA     H954124  32.613  -0.219   2.795
    1XTA    H1054125  32.851  -0.307   2.806
    1XTA    H1154126  32.925  -0.224   2.405
    1XTA    H1254127  32.703  -0.133   2.370
    1XTA    OA154128  32.133  -0.490   2.474
    1XTA    CO154129  32.021  -0.474   2.554
    1XTA    OA254130  32.328   0.389   2.701
    1XTA    CO254131  32.277   0.405   2.826
    1XTA    CL154132  32.384   0.445   2.932
    1XTA    CL254133  32.322   0.452   3.074
    1XTA    CL354134  32.273   0.316   3.123
    1XTA    CL454135  32.283   0.297   3.283
    1XTA    CO354136  32.424   0.279   3.333
    1XTA    OA354137  32.476   0.159   3.278
    1XTA    CO454138  32.617   0.144   3.289
    1XTA    CT154139  32.658   0.028   3.195
    1XTA    CL554140  32.614   0.061   3.050
    1XTA    CL654141  32.698   0.152   2.968
    1XTA    OA454142  33.022  -0.343   2.610
    1XTA    CO554143  33.049  -0.427   2.722
    1XTA    CL754144  33.193  -0.473   2.716
    1XTA    CL854145  33.200  -0.580   2.600
    1XTA    CL954146  33.337  -0.638   2.609
    1XTA   CL1054147  33.369  -0.737   2.496
    1XTA    CO654148  33.515  -0.793   2.502
    1XTA    OA554149  33.555  -0.872   2.400
    1XTA    CO754150  33.579  -0.801   2.280
    1XTA    CT254151  33.547  -0.898   2.166
    1XTA   CL1154152  33.639  -1.020   2.180
    1XTA   CL1254153  33.625  -1.125   2.067
    1XTA    HL154154  32.018  -0.501   2.664
    1XTA    HL254155  31.990  -0.366   2.561
    1XTA    HL354156  31.940  -0.524   2.509
    1XTA    HL454157  32.214   0.494   2.809
    1XTA    HL554158  32.210   0.323   2.860
    1XTA    HL654159  32.445   0.537   2.914
    1XTA    HL754160  32.472   0.374   2.943
    1XTA    HL854161  32.244   0.529   3.081
    1XTA    HL954162  32.400   0.486   3.139
    1XTA   HL1054163  32.169   0.306   3.094
    1XTA   HL1154164  32.323   0.237   3.073
    1XTA   HL1254165  32.228   0.214   3.311
    1XTA   HL1354166  32.234   0.388   3.333
    1XTA   HL1454167  32.486   0.364   3.292
    1XTA   HL1554168  32.437   0.275   3.440
    1XTA   HL1654169  32.665   0.233   3.252
    1XTA   HL1754170  32.652   0.125   3.392
    1XTA   HL1854171  32.508   0.095   3.037
    1XTA   HL1954172  32.619  -0.029   2.994
    1XTA   HL2054173  32.798   0.112   2.947
    1XTA   HL2154174  32.719   0.245   3.020
    1XTA   HL2254175  32.649   0.170   2.875
    1XTA   HL2354176  32.971  -0.500   2.732
    1XTA   HL2454177  33.054  -0.370   2.811
    1XTA   HL2554178  33.269  -0.397   2.710
    1XTA   HL2654179  33.219  -0.526   2.813
    1XTA   HL2754180  33.118  -0.653   2.609
    1XTA   HL2854181  33.196  -0.545   2.498
    1XTA   HL2954182  33.405  -0.557   2.607
    1XTA   HL3054183  33.337  -0.685   2.707
    1XTA   HL3154184  33.295  -0.812   2.500
    1XTA   HL3254185  33.354  -0.691   2.399
    1XTA   HL3354186  33.586  -0.705   2.498
    1XTA   HL3454187  33.524  -0.863   2.591
    1XTA   HL3554188  33.688  -0.765   2.267
    1XTA   HL3654189  33.521  -0.708   2.261
    1XTA   HL3754190  33.632  -1.074   2.279
    1XTA   HL3854191  33.738  -0.982   2.189
    1XTA   HL3954192  33.524  -1.168   2.070
    1XTA   HL4054193  33.697  -1.207   2.064
    1XTA   HL4154194  33.632  -1.086   1.968
    1XTA    CO854195  32.589  -0.095   3.252
    1XTA    CO954196  32.807  -0.017   3.222
    1XTA    OA654197  32.826  -0.013   3.335
    1XTA   HL4254198  32.609  -0.103   3.358
    1XTA   HL4354199  32.450  -0.091   3.250
    1XTA   HL4454200  33.652  -0.796   1.992
    1XTA   HL4554201  33.518  -0.910   1.965
    1XTA   CO1054202  33.552  -0.829   2.029
    1XTA   CO1154203  33.399  -0.949   2.188
    1XTA    OA754204  33.481  -0.748   2.032
    1XTA   HL4654205  33.335  -1.008   2.077
    1XTA   HL4754206  33.343  -0.860   2.185
    1XTA   HL4854207  32.883   0.027   3.161
    1XTA   HL4954208  32.823  -0.119   3.185
    1XTA     NT54209  26.620   0.499   6.176
    1XTA    CN154210  26.563   0.551   6.290
    1XTA     C154211  26.456   0.633   6.275
    1XTA     C254212  26.399   0.692   6.386
    1XTA     C354213  26.443   0.658   6.515
    1XTA     C454214  26.549   0.563   6.534
    1XTA     C554215  26.610   0.505   6.417
    1XTA    CN254216  26.550   0.411   6.104
    1XTA     C654217  26.525   0.284   6.159
    1XTA     C754218  26.451   0.184   6.094
    1XTA     C854219  26.413   0.213   5.958
    1XTA     C954220  26.447   0.335   5.897
    1XTA    C1054221  26.509   0.434   5.969
    1XTA    CN354222  26.749   0.528   6.139
    1XTA    C1154223  26.782   0.665   6.103
    1XTA    C1254224  26.915   0.700   6.078
    1XTA    C1354225  27.014   0.597   6.084
    1XTA    C1454226  26.985   0.464   6.108
    1XTA    C1554227  26.850   0.428   6.138
    1XTA     H154228  26.422   0.682   6.183
    1XTA     H254229  26.325   0.771   6.360
    1XTA     H354230  26.585   0.534   6.628
    1XTA     H454231  26.691   0.434   6.433
    1XTA     H554232  26.568   0.266   6.255
    1XTA     H654233  26.439   0.094   6.155
    1XTA     H754234  26.415   0.341   5.789
    1XTA     H854235  26.507   0.535   5.935
    1XTA     H954236  26.704   0.746   6.111
    1XTA    H1054237  26.945   0.803   6.059
    1XTA    H1154238  27.056   0.385   6.102
    1XTA    H1254239  26.814   0.322   6.145
    1XTA    OA154240  26.403   0.730   6.623
    1XTA    CO154241  26.444   0.862   6.625
    1XTA    OA254242  26.334   0.127   5.884
    1XTA    CO254243  26.355  -0.015   5.901
    1XTA    CL154244  26.213  -0.075   5.897
    1XTA    CL254245  26.133  -0.041   6.018
    1XTA    CL354246  25.990  -0.096   6.036
    1XTA    CL454247  25.930  -0.038   6.167
    1XTA    CO354248  25.878   0.107   6.150
    1XTA    OA354249  25.776   0.129   6.246
    1XTA    CO454250  25.661   0.180   6.184
    1XTA    CT154251  25.556   0.073   6.141
    1XTA    CL554252  25.432   0.151   6.104
    1XTA    CL654253  25.429   0.244   5.981
    1XTA    OA454254  27.142   0.632   6.054
    1XTA    CO554255  27.228   0.523   6.022
    1XTA    CL754256  27.355   0.572   5.945
    1XTA    CL854257  27.303   0.630   5.811
    1XTA    CL954258  27.429   0.669   5.730
    1XTA   CL1054259  27.406   0.756   5.598
    1XTA    CO654260  27.339   0.894   5.636
    1XTA    OA554261  27.401   0.991   5.719
    1XTA    CO754262  27.327   1.043   5.826
    1XTA    CT254263  27.428   1.134   5.891
    1XTA   CL1154264  27.491   1.233   5.795
    1XTA   CL1254265  27.395   1.317   5.721
    1XTA    HL154266  26.419   0.917   6.541
    1XTA    HL254267  26.412   0.914   6.718
    1XTA    HL354268  26.551   0.861   6.630
    1XTA    HL454269  26.429  -0.056   5.834
    1XTA    HL554270  26.390  -0.020   6.006
    1XTA    HL654271  26.245  -0.185   5.895
    1XTA    HL754272  26.167  -0.062   5.800
    1XTA    HL854273  26.131   0.060   6.011
    1XTA    HL954274  26.184  -0.069   6.114
    1XTA   HL1054275  25.932  -0.070   5.947
    1XTA   HL1154276  25.996  -0.205   6.042
    1XTA   HL1254277  26.005  -0.059   6.249
    1XTA   HL1354278  25.842  -0.091   6.193
    1XTA   HL1454279  25.955   0.189   6.154
    1XTA   HL1554280  25.837   0.113   6.051
    1XTA   HL1654281  25.614   0.236   6.266
    1XTA   HL1754282  25.695   0.248   6.110
    1XTA   HL1854283  25.401   0.220   6.184
    1XTA   HL1954284  25.348   0.092   6.091
    1XTA   HL2054285  25.326   0.275   5.973
    1XTA   HL2154286  25.458   0.188   5.887
    1XTA   HL2254287  25.487   0.334   5.982
    1XTA   HL2354288  27.170   0.462   5.957
    1XTA   HL2454289  27.256   0.470   6.120
    1XTA   HL2554290  27.404   0.643   6.012
    1XTA   HL2654291  27.426   0.500   5.928
    1XTA   HL2754292  27.244   0.563   5.746
    1XTA   HL2854293  27.233   0.715   5.821
    1XTA   HL2954294  27.495   0.724   5.795
    1XTA   HL3054295  27.489   0.583   5.707
    1XTA   HL3154296  27.504   0.766   5.558
    1XTA   HL3254297  27.346   0.704   5.525
    1XTA   HL3354298  27.296   0.949   5.551
    1XTA   HL3454299  27.246   0.866   5.682
    1XTA   HL3554300  27.292   0.965   5.887
    1XTA   HL3654301  27.242   1.099   5.784
    1XTA   HL3754302  27.565   1.186   5.733
    1XTA   HL3854303  27.550   1.300   5.849
    1XTA   HL3954304  27.451   1.380   5.654
    1XTA   HL4054305  27.351   1.387   5.797
    1XTA   HL4154306  27.323   1.261   5.667
    1XTA    CO854307  25.524  -0.026   6.247
    1XTA    CO954308  25.604  -0.003   6.018
    1XTA    OA654309  25.471   0.041   6.363
    1XTA   HL4254310  25.615  -0.070   6.281
    1XTA   HL4354311  25.462  -0.112   6.208
    1XTA   HL4454312  27.496   0.968   6.032
    1XTA   HL4554313  27.578   0.987   5.878
    1XTA   CO1054314  27.537   1.044   5.960
    1XTA   CO1154315  27.351   1.210   6.001
    1XTA    OA754316  27.614   1.117   6.049
    1XTA   HL4654317  27.426   1.265   6.049
    1XTA   HL4754318  27.288   1.294   5.958
    1XTA   HL4854319  25.617   0.078   5.950
    1XTA   HL4954320  25.695  -0.055   6.035
    1XTA     NT54321  36.385  -0.543   3.716
    1XTA    CN154322  36.339  -0.421   3.671
    1XTA     C154323  36.347  -0.308   3.761
    1XTA     C254324  36.301  -0.188   3.708
    1XTA     C354325  36.248  -0.174   3.575
    1XTA     C454326  36.232  -0.285   3.489
    1XTA     C554327  36.286  -0.408   3.540
    1XTA    CN254328  36.295  -0.638   3.749
    1XTA     C654329  36.299  -0.769   3.695
    1XTA     C754330  36.225  -0.877   3.742
    1XTA     C854331  36.146  -0.855   3.855
    1XTA     C954332  36.139  -0.724   3.913
    1XTA    C1054333  36.208  -0.619   3.859
    1XTA    CN354334  36.513  -0.580   3.723
    1XTA    C1154335  36.603  -0.552   3.617
    1XTA    C1254336  36.736  -0.588   3.624
    1XTA    C1354337  36.789  -0.632   3.745
    1XTA    C1454338  36.706  -0.657   3.855
    1XTA    C1554339  36.568  -0.629   3.849
    1XTA     H154340  36.402  -0.321   3.856
    1XTA     H254341  36.327  -0.103   3.766
    1XTA     H354342  36.202  -0.275   3.391
    1XTA     H454343  36.291  -0.496   3.479
    1XTA     H554344  36.374  -0.799   3.620
    1XTA     H654345  36.228  -0.974   3.685
    1XTA     H754346  36.062  -0.710   3.996
    1XTA     H854347  36.193  -0.520   3.908
    1XTA     H954348  36.551  -0.523   3.526
    1XTA    H1054349  36.801  -0.586   3.539
    1XTA    H1154350  36.739  -0.693   3.949
    1XTA    H1254351  36.516  -0.653   3.941
    1XTA    OA154352  36.213  -0.047   3.536
    1XTA    CO154353  36.169  -0.030   3.398
    1XTA    OA254354  36.076  -0.964   3.903
    1XTA    CO254355  35.967  -0.938   3.989
    1XTA    CL154356  35.923  -1.073   4.036
    1XTA    CL254357  35.886  -1.177   3.926
    1XTA    CL354358  35.762  -1.139   3.836
    1XTA    CL454359  35.810  -1.052   3.715
    1XTA    CO354360  35.700  -0.963   3.656
    1XTA    OA354361  35.749  -0.916   3.529
    1XTA    CO454362  35.813  -0.800   3.562
    1XTA    CT154363  35.912  -0.745   3.456
    1XTA    CL554364  35.844  -0.673   3.329
    1XTA    CL654365  35.768  -0.777   3.242
    1XTA    OA454366  36.923  -0.674   3.740
    1XTA    CO554367  36.992  -0.699   3.864
    1XTA    CL754368  36.999  -0.851   3.883
    1XTA    CL854369  37.033  -0.883   4.031
    1XTA    CL954370  36.919  -0.854   4.133
    1XTA   CL1054371  36.791  -0.937   4.098
    1XTA    CO654372  36.691  -0.947   4.218
    1XTA    OA554373  36.637  -0.831   4.270
    1XTA    CO754374  36.550  -0.766   4.183
    1XTA    CT254375  36.454  -0.676   4.257
    1XTA   CL1154376  36.352  -0.615   4.157
    1XTA   CL1254377  36.218  -0.556   4.208
    1XTA    HL154378  36.104  -0.099   3.360
    1XTA    HL254379  36.122   0.068   3.403
    1XTA    HL354380  36.254  -0.027   3.334
    1XTA    HL454381  35.982  -0.875   4.076
    1XTA    HL554382  35.891  -0.887   3.924
    1XTA    HL654383  35.835  -1.048   4.096
    1XTA    HL754384  35.991  -1.119   4.116
    1XTA    HL854385  35.842  -1.260   3.979
    1XTA    HL954386  35.971  -1.230   3.876
    1XTA   HL1054387  35.719  -1.232   3.798
    1XTA   HL1154388  35.690  -1.075   3.893
    1XTA   HL1254389  35.821  -1.125   3.639
    1XTA   HL1354390  35.898  -0.995   3.735
    1XTA   HL1454391  35.613  -1.029   3.628
    1XTA   HL1554392  35.670  -0.885   3.724
    1XTA   HL1654393  35.743  -0.726   3.592
    1XTA   HL1754394  35.877  -0.812   3.650
    1XTA   HL1854395  35.927  -0.626   3.272
    1XTA   HL1954396  35.769  -0.598   3.366
    1XTA   HL2054397  35.698  -0.735   3.173
    1XTA   HL2154398  35.695  -0.831   3.310
    1XTA   HL2254399  35.833  -0.847   3.188
    1XTA   HL2354400  36.962  -0.633   3.937
    1XTA   HL2454401  37.099  -0.674   3.850
    1XTA   HL2554402  36.902  -0.893   3.858
    1XTA   HL2654403  37.077  -0.886   3.822
    1XTA   HL2754404  37.045  -0.989   4.027
    1XTA   HL2854405  37.135  -0.847   4.053
    1XTA   HL2954406  36.961  -0.882   4.229
    1XTA   HL3054407  36.890  -0.747   4.139
    1XTA   HL3154408  36.736  -0.903   4.012
    1XTA   HL3254409  36.809  -1.036   4.071
    1XTA   HL3354410  36.615  -1.014   4.179
    1XTA   HL3454411  36.717  -0.999   4.308
    1XTA   HL3554412  36.495  -0.849   4.132
    1XTA   HL3654413  36.613  -0.706   4.118
    1XTA   HL3754414  36.324  -0.700   4.098
    1XTA   HL3854415  36.402  -0.530   4.091
    1XTA   HL3954416  36.210  -0.474   4.279
    1XTA   HL4054417  36.164  -0.638   4.266
    1XTA   HL4154418  36.160  -0.520   4.118
    1XTA    CO854419  36.013  -0.859   3.410
    1XTA    CO954420  35.987  -0.634   3.531
    1XTA    OA654421  36.077  -0.827   3.328
    1XTA   HL4254422  35.958  -0.946   3.380
    1XTA   HL4354423  36.068  -0.894   3.498
    1XTA   HL4454424  36.629  -0.620   4.352
    1XTA   HL4554425  36.494  -0.511   4.439
    1XTA   CO1054426  36.546  -0.558   4.320
    1XTA   CO1154427  36.393  -0.762   4.372
    1XTA    OA754428  36.330  -0.834   4.321
    1XTA   HL4654429  36.462  -0.825   4.425
    1XTA   HL4754430  36.343  -0.687   4.432
    1XTA   HL4854431  36.078  -0.670   3.633
    1XTA   HL4954432  36.055  -0.586   3.460
    1XTA     NT54433  27.348   1.346   3.493
    1XTA    CN154434  27.338   1.212   3.467
    1XTA     C154435  27.296   1.122   3.568
    1XTA     C254436  27.263   0.994   3.545
    1XTA     C354437  27.281   0.942   3.413
    1XTA     C454438  27.318   1.030   3.311
    1XTA     C554439  27.360   1.164   3.338
    1XTA    CN254440  27.237   1.413   3.461
    1XTA     C654441  27.109   1.380   3.505
    1XTA     C754442  26.995   1.456   3.474
    1XTA     C854443  27.007   1.584   3.412
    1XTA     C954444  27.134   1.617   3.369
    1XTA    C1054445  27.246   1.535   3.387
    1XTA    CN354446  27.420   1.388   3.599
    1XTA    C1154447  27.353   1.439   3.712
    1XTA    C1254448  27.425   1.491   3.817
    1XTA    C1354449  27.564   1.490   3.817
    1XTA    C1454450  27.631   1.438   3.701
    1XTA    C1554451  27.564   1.383   3.597
    1XTA     H154452  27.278   1.156   3.671
    1XTA     H254453  27.232   0.928   3.622
    1XTA     H354454  27.337   1.000   3.211
    1XTA     H454455  27.400   1.224   3.254
    1XTA     H554456  27.090   1.283   3.550
    1XTA     H654457  26.893   1.419   3.481
    1XTA     H754458  27.147   1.720   3.332
    1XTA     H854459  27.348   1.559   3.351
    1XTA     H954460  27.247   1.447   3.712
    1XTA    H1054461  27.374   1.532   3.902
    1XTA    H1154462  27.740   1.422   3.700
    1XTA    H1254463  27.617   1.341   3.511
    1XTA    OA154464  27.258   0.817   3.367
    1XTA    CO154465  27.161   0.749   3.448
    1XTA    OA254466  26.894   1.666   3.394
    1XTA    CO254467  26.792   1.661   3.501
    1XTA    CL154468  26.718   1.796   3.509
    1XTA    CL254469  26.647   1.843   3.382
    1XTA    CL354470  26.529   1.751   3.337
    1XTA    CL454471  26.428   1.799   3.229
    1XTA    CO354472  26.494   1.848   3.095
    1XTA    OA354473  26.619   1.780   3.068
    1XTA    CO454474  26.674   1.830   2.954
    1XTA    CT154475  26.808   1.756   2.923
    1XTA    CL554476  26.864   1.830   2.799
    1XTA    CL654477  26.792   1.803   2.660
    1XTA    OA454478  27.646   1.529   3.923
    1XTA    CO554479  27.592   1.591   4.033
    1XTA    CL754480  27.703   1.627   4.127
    1XTA    CL854481  27.663   1.721   4.244
    1XTA    CL954482  27.788   1.776   4.322
    1XTA   CL1054483  27.854   1.692   4.427
    1XTA    CO654484  27.752   1.622   4.516
    1XTA    OA554485  27.820   1.563   4.630
    1XTA    CO754486  27.877   1.430   4.602
    1XTA    CT254487  27.937   1.363   4.725
    1XTA   CL1154488  27.940   1.211   4.709
    1XTA   CL1254489  27.988   1.131   4.824
    1XTA    HL154490  27.154   0.644   3.417
    1XTA    HL254491  27.199   0.733   3.551
    1XTA    HL354492  27.067   0.802   3.445
    1XTA    HL454493  26.718   1.583   3.484
    1XTA    HL554494  26.842   1.637   3.597
    1XTA    HL654495  26.794   1.872   3.542
    1XTA    HL754496  26.648   1.786   3.592
    1XTA    HL854497  26.722   1.838   3.303
    1XTA    HL954498  26.619   1.947   3.381
    1XTA   HL1054499  26.567   1.658   3.300
    1XTA   HL1154500  26.458   1.712   3.421
    1XTA   HL1254501  26.360   1.881   3.255
    1XTA   HL1354502  26.365   1.721   3.194
    1XTA   HL1454503  26.425   1.861   3.010
    1XTA   HL1554504  26.518   1.946   3.116
    1XTA   HL1654505  26.608   1.812   2.873
    1XTA   HL1754506  26.684   1.936   2.973
    1XTA   HL1854507  26.962   1.792   2.778
    1XTA   HL1954508  26.872   1.941   2.810
    1XTA   HL2054509  26.847   1.844   2.576
    1XTA   HL2154510  26.689   1.834   2.645
    1XTA   HL2254511  26.783   1.693   2.653
    1XTA   HL2354512  27.517   1.534   4.087
    1XTA   HL2454513  27.541   1.685   3.998
    1XTA   HL2554514  27.738   1.532   4.166
    1XTA   HL2654515  27.792   1.673   4.077
    1XTA   HL2754516  27.612   1.808   4.200
    1XTA   HL2854517  27.604   1.670   4.320
    1XTA   HL2954518  27.856   1.817   4.243
    1XTA   HL3054519  27.760   1.870   4.374
    1XTA   HL3154520  27.924   1.623   4.381
    1XTA   HL3254521  27.919   1.756   4.490
    1XTA   HL3354522  27.670   1.684   4.549
    1XTA   HL3454523  27.709   1.535   4.467
    1XTA   HL3554524  27.962   1.441   4.526
    1XTA   HL3654525  27.812   1.368   4.543
    1XTA   HL3754526  28.005   1.182   4.624
    1XTA   HL3854527  27.838   1.182   4.681
    1XTA   HL3954528  28.089   1.140   4.863
    1XTA   HL4054529  27.987   1.034   4.782
    1XTA   HL4154530  27.920   1.141   4.906
    1XTA    CO854531  26.782   1.612   2.903
    1XTA    CO954532  26.899   1.775   3.049
    1XTA    OA654533  26.889   1.543   2.845
    1XTA   HL4254534  26.695   1.611   2.837
    1XTA   HL4354535  26.752   1.565   2.995
    1XTA   HL4454536  27.886   1.354   4.939
    1XTA   HL4554537  27.833   1.503   4.877
    1XTA   CO1054538  27.845   1.398   4.851
    1XTA   CO1154539  28.077   1.413   4.759
    1XTA    OA754540  27.739   1.360   4.834
    1XTA   HL4654541  28.070   1.551   4.761
    1XTA   HL4754542  28.107   1.374   4.855
    1XTA   HL4854543  26.835   1.740   3.132
    1XTA   HL4954544  26.988   1.712   3.051
    1XTA     NT54545  33.910   0.398   7.446
    1XTA    CN154546  33.845   0.350   7.344
    1XTA     C154547  33.739   0.420   7.289
    1XTA     C254548  33.675   0.367   7.178
    1XTA     C354549  33.707   0.234   7.125
    1XTA     C454550  33.801   0.161   7.199
    1XTA     C554551  33.873   0.225   7.303
    1XTA    CN254552  34.027   0.454   7.421
    1XTA     C654553  34.142   0.381   7.451
    1XTA     C754554  34.268   0.441   7.421
    1XTA     C854555  34.274   0.568   7.359
    1XTA     C954556  34.153   0.637   7.335
    1XTA    C1054557  34.029   0.583   7.363
    1XTA    CN354558  33.856   0.390   7.573
    1XTA    C1154559  33.848   0.265   7.638
    1XTA    C1254560  33.800   0.256   7.768
    1XTA    C1354561  33.744   0.369   7.830
    1XTA    C1454562  33.750   0.490   7.762
    1XTA    C1554563  33.811   0.505   7.638
    1XTA     H154564  33.710   0.522   7.332
    1XTA     H254565  33.602   0.429   7.129
    1XTA     H354566  33.838   0.065   7.169
    1XTA     H454567  33.957   0.173   7.351
    1XTA     H554568  34.146   0.292   7.500
    1XTA     H654569  34.361   0.389   7.436
    1XTA     H754570  34.167   0.736   7.295
    1XTA     H854571  33.938   0.636   7.355
    1XTA     H954572  33.870   0.174   7.581
    1XTA    H1054573  33.789   0.172   7.819
    1XTA    H1154574  33.723   0.579   7.808
    1XTA    H1254575  33.830   0.598   7.590
    1XTA    OA154576  33.654   0.173   7.014
    1XTA    CO154577  33.582   0.257   6.922
    1XTA    OA254578  34.393   0.611   7.327
    1XTA    CO254579  34.473   0.532   7.238
    1XTA    CL154580  34.417   0.549   7.093
    1XTA    CL254581  34.501   0.491   6.978
    1XTA    CL354582  34.641   0.559   6.947
    1XTA    CL454583  34.751   0.450   6.948
    1XTA    CO354584  34.892   0.502   6.957
    1XTA    OA354585  34.923   0.568   7.078
    1XTA    CO454586  35.058   0.616   7.078
    1XTA    CT154587  35.094   0.646   7.226
    1XTA    CL554588  35.074   0.520   7.320
    1XTA    CL654589  34.936   0.467   7.357
    1XTA    OA454590  33.704   0.359   7.964
    1XTA    CO554591  33.688   0.485   8.038
    1XTA    CL754592  33.657   0.460   8.187
    1XTA    CL854593  33.624   0.592   8.257
    1XTA    CL954594  33.481   0.636   8.230
    1XTA   CL1054595  33.462   0.774   8.299
    1XTA    CO654596  33.320   0.838   8.274
    1XTA    OA554597  33.302   0.977   8.289
    1XTA    CO754598  33.347   1.057   8.176
    1XTA    CT254599  33.310   1.208   8.205
    1XTA   CL1154600  33.360   1.290   8.087
    1XTA   CL1254601  33.335   1.439   8.091
    1XTA    HL154602  33.639   0.345   6.888
    1XTA    HL254603  33.566   0.198   6.837
    1XTA    HL354604  33.493   0.301   6.962
    1XTA    HL454605  34.576   0.565   7.236
    1XTA    HL554606  34.469   0.427   7.255
    1XTA    HL654607  34.416   0.650   7.070
    1XTA    HL754608  34.318   0.508   7.080
    1XTA    HL854609  34.435   0.474   6.893
    1XTA    HL954610  34.532   0.387   7.001
    1XTA   HL1054611  34.627   0.613   6.858
    1XTA   HL1154612  34.663   0.628   7.027
    1XTA   HL1254613  34.743   0.389   6.861
    1XTA   HL1354614  34.741   0.385   7.037
    1XTA   HL1454615  34.949   0.410   6.957
    1XTA   HL1554616  34.927   0.555   6.871
    1XTA   HL1654617  35.140   0.548   7.056
    1XTA   HL1754618  35.066   0.702   7.014
    1XTA   HL1854619  35.112   0.550   7.418
    1XTA   HL1954620  35.138   0.438   7.286
    1XTA   HL2054621  34.864   0.548   7.365
    1XTA   HL2154622  34.944   0.413   7.456
    1XTA   HL2254623  34.913   0.389   7.286
    1XTA   HL2354624  33.598   0.524   7.998
    1XTA   HL2454625  33.776   0.543   8.024
    1XTA   HL2554626  33.569   0.402   8.186
    1XTA   HL2654627  33.730   0.397   8.236
    1XTA   HL2754628  33.628   0.586   8.363
    1XTA   HL2854629  33.690   0.669   8.223
    1XTA   HL2954630  33.455   0.637   8.123
    1XTA   HL3054631  33.412   0.571   8.287
    1XTA   HL3154632  33.469   0.765   8.406
    1XTA   HL3254633  33.536   0.842   8.273
    1XTA   HL3354634  33.276   0.818   8.174
    1XTA   HL3454635  33.253   0.789   8.351
    1XTA   HL3554636  33.299   1.020   8.085
    1XTA   HL3654637  33.455   1.056   8.170
    1XTA   HL3754638  33.298   1.261   8.010
    1XTA   HL3854639  33.456   1.261   8.047
    1XTA   HL3954640  33.384   1.494   8.017
    1XTA   HL4054641  33.377   1.484   8.177
    1XTA   HL4154642  33.228   1.450   8.087
    1XTA    CO854643  35.000   0.763   7.263
    1XTA    CO954644  35.232   0.705   7.242
    1XTA    OA654645  35.262   0.807   7.147
    1XTA   HL4254646  34.900   0.745   7.234
    1XTA   HL4354647  35.032   0.860   7.227
    1XTA   HL4454648  33.340   1.357   8.355
    1XTA   HL4554649  33.314   1.201   8.416
    1XTA   CO1054650  33.363   1.256   8.339
    1XTA   CO1154651  33.156   1.207   8.226
    1XTA    OA754652  33.473   1.244   8.335
    1XTA   HL4654653  33.087   1.177   8.108
    1XTA   HL4754654  33.122   1.308   8.233
    1XTA   HL4854655  35.319   0.637   7.245
    1XTA   HL4954656  35.240   0.759   7.334
    1XTA     NT54657  29.891   2.189   1.322
    1XTA    CN154658  29.824   2.220   1.209
    1XTA     C154659  29.865   2.156   1.089
    1XTA     C254660  29.803   2.181   0.965
    1XTA     C354661  29.704   2.273   0.962
    1XTA     C454662  29.659   2.337   1.080
    1XTA     C554663  29.721   2.312   1.205
    1XTA    CN254664  29.838   2.087   1.394
    1XTA     C654665  29.721   2.116   1.469
    1XTA     C754666  29.672   2.017   1.553
    1XTA     C854667  29.730   1.884   1.552
    1XTA     C954668  29.849   1.857   1.487
    1XTA    C1054669  29.906   1.965   1.410
    1XTA    CN354670  29.999   2.258   1.366
    1XTA    C1154671  30.122   2.261   1.294
    1XTA    C1254672  30.234   2.321   1.352
    1XTA    C1354673  30.230   2.369   1.482
    1XTA    C1454674  30.109   2.370   1.554
    1XTA    C1554675  29.997   2.313   1.490
    1XTA     H154676  29.937   2.072   1.099
    1XTA     H254677  29.830   2.124   0.879
    1XTA     H354678  29.575   2.408   1.083
    1XTA     H454679  29.686   2.363   1.291
    1XTA     H554680  29.674   2.215   1.469
    1XTA     H654681  29.582   2.039   1.604
    1XTA     H754682  29.890   1.755   1.493
    1XTA     H854683  29.993   1.943   1.352
    1XTA     H954684  30.124   2.220   1.194
    1XTA    H1054685  30.329   2.322   1.298
    1XTA    H1154686  30.098   2.397   1.660
    1XTA    H1254687  29.906   2.313   1.552
    1XTA    OA154688  29.652   2.300   0.839
    1XTA    CO154689  29.542   2.384   0.828
    1XTA    OA254690  29.685   1.788   1.638
    1XTA    CO254691  29.554   1.783   1.668
    1XTA    CL154692  29.489   1.680   1.558
    1XTA    CL254693  29.340   1.663   1.573
    1XTA    CL354694  29.269   1.587   1.467
    1XTA    CL454695  29.271   1.646   1.328
    1XTA    CO354696  29.201   1.548   1.234
    1XTA    OA354697  29.217   1.601   1.098
    1XTA    CO454698  29.150   1.518   1.003
    1XTA    CT154699  29.039   1.599   0.930
    1XTA    CL554700  29.095   1.723   0.848
    1XTA    CL654701  29.192   1.818   0.924
    1XTA    OA454702  30.345   2.424   1.523
    1XTA    CO554703  30.339   2.468   1.663
    1XTA    CL754704  30.479   2.536   1.699
    1XTA    CL854705  30.509   2.576   1.847
    1XTA    CL954706  30.642   2.660   1.862
    1XTA   CL1054707  30.657   2.794   1.788
    1XTA    CO654708  30.792   2.863   1.774
    1XTA    OA554709  30.865   2.796   1.670
    1XTA    CO754710  30.839   2.833   1.535
    1XTA    CT254711  30.923   2.747   1.436
    1XTA   CL1154712  31.076   2.760   1.459
    1XTA   CL1254713  31.129   2.897   1.416
    1XTA    HL154714  29.545   2.472   0.892
    1XTA    HL254715  29.519   2.416   0.728
    1XTA    HL354716  29.471   2.316   0.872
    1XTA    HL454717  29.559   1.737   1.761
    1XTA    HL554718  29.506   1.884   1.692
    1XTA    HL654719  29.545   1.581   1.560
    1XTA    HL754720  29.515   1.718   1.460
    1XTA    HL854721  29.293   1.768   1.588
    1XTA    HL954722  29.329   1.612   1.667
    1XTA   HL1054723  29.316   1.490   1.463
    1XTA   HL1154724  29.163   1.572   1.494
    1XTA   HL1254725  29.376   1.645   1.287
    1XTA   HL1354726  29.233   1.747   1.326
    1XTA   HL1454727  29.241   1.441   1.247
    1XTA   HL1554728  29.093   1.543   1.251
    1XTA   HL1654729  29.224   1.491   0.925
    1XTA   HL1754730  29.119   1.410   1.051
    1XTA   HL1854731  29.004   1.762   0.808
    1XTA   HL1954732  29.146   1.688   0.756
    1XTA   HL2054733  29.291   1.769   0.945
    1XTA   HL2154734  29.147   1.844   1.020
    1XTA   HL2254735  29.209   1.910   0.863
    1XTA   HL2354736  30.333   2.385   1.728
    1XTA   HL2454737  30.259   2.534   1.692
    1XTA   HL2554738  30.564   2.473   1.648
    1XTA   HL2654739  30.475   2.630   1.640
    1XTA   HL2754740  30.424   2.636   1.878
    1XTA   HL2854741  30.505   2.485   1.902
    1XTA   HL2954742  30.654   2.683   1.971
    1XTA   HL3054743  30.729   2.606   1.833
    1XTA   HL3154744  30.624   2.772   1.684
    1XTA   HL3254745  30.589   2.871   1.821
    1XTA   HL3354746  30.777   2.966   1.736
    1XTA   HL3454747  30.838   2.870   1.870
    1XTA   HL3554748  30.861   2.936   1.525
    1XTA   HL3654749  30.735   2.827   1.499
    1XTA   HL3754750  31.140   2.680   1.417
    1XTA   HL3854751  31.095   2.758   1.566
    1XTA   HL3954752  31.227   2.909   1.461
    1XTA   HL4054753  31.067   2.976   1.469
    1XTA   HL4154754  31.123   2.906   1.309
    1XTA    CO854755  28.922   1.639   1.026
    1XTA    CO954756  28.975   1.501   0.829
    1XTA    OA654757  28.906   1.542   0.762
    1XTA   HL4254758  28.845   1.673   0.962
    1XTA   HL4354759  28.950   1.744   1.109
    1XTA   HL4454760  30.918   2.896   1.260
    1XTA   HL4554761  30.957   2.722   1.230
    1XTA   CO1054762  30.891   2.790   1.291
    1XTA   CO1154763  30.877   2.595   1.456
    1XTA    OA754764  30.787   2.765   1.262
    1XTA   HL4654765  30.750   2.571   1.512
    1XTA   HL4754766  30.880   2.558   1.354
    1XTA   HL4854767  28.933   1.416   0.872
    1XTA   HL4954768  29.060   1.467   0.768
    1XTA     NT54769  35.016   2.174   2.524
    1XTA    CN154770  35.101   2.247   2.603
    1XTA     C154771  35.214   2.183   2.650
    1XTA     C254772  35.304   2.253   2.724
    1XTA     C354773  35.289   2.385   2.761
    1XTA     C454774  35.179   2.461   2.702
    1XTA     C554775  35.084   2.387   2.634
    1XTA    CN254776  35.051   2.136   2.400
    1XTA     C654777  35.121   2.231   2.312
    1XTA     C754778  35.166   2.195   2.187
    1XTA     C854779  35.141   2.063   2.140
    1XTA     C954780  35.079   1.969   2.229
    1XTA    C1054781  35.031   2.008   2.355
    1XTA    CN354782  34.880   2.171   2.560
    1XTA    C1154783  34.835   2.104   2.680
    1XTA    C1254784  34.696   2.095   2.703
    1XTA    C1354785  34.604   2.157   2.624
    1XTA    C1454786  34.646   2.217   2.505
    1XTA    C1554787  34.785   2.226   2.473
    1XTA     H154788  35.218   2.081   2.628
    1XTA     H254789  35.386   2.198   2.770
    1XTA     H354790  35.159   2.567   2.718
    1XTA     H454791  34.997   2.423   2.582
    1XTA     H554792  35.142   2.330   2.349
    1XTA     H654793  35.203   2.269   2.128
    1XTA     H754794  35.050   1.865   2.197
    1XTA     H854795  34.981   1.941   2.431
    1XTA     H954796  34.902   2.063   2.755
    1XTA    H1054797  34.660   2.048   2.792
    1XTA    H1154798  34.578   2.259   2.432
    1XTA    H1254799  34.816   2.275   2.383
    1XTA    OA154800  35.390   2.448   2.836
    1XTA    CO154801  35.337   2.551   2.928
    1XTA    OA254802  35.191   2.015   2.024
    1XTA    CO254803  35.326   2.041   2.007
    1XTA    CL154804  35.398   1.961   1.888
    1XTA    CL254805  35.445   1.817   1.929
    1XTA    CL354806  35.326   1.735   1.990
    1XTA    CL454807  35.221   1.693   1.889
    1XTA    CO354808  35.089   1.626   1.942
    1XTA    OA354809  35.004   1.633   1.826
    1XTA    CO454810  34.865   1.606   1.847
    1XTA    CT154811  34.811   1.568   1.712
    1XTA    CL554812  34.869   1.443   1.644
    1XTA    CL654813  34.859   1.314   1.728
    1XTA    OA454814  34.468   2.154   2.660
    1XTA    CO554815  34.365   2.182   2.565
    1XTA    CL754816  34.220   2.148   2.611
    1XTA    CL854817  34.177   2.209   2.742
    1XTA    CL954818  34.069   2.319   2.739
    1XTA   CL1054819  34.114   2.435   2.656
    1XTA    CO654820  34.230   2.518   2.720
    1XTA    OA554821  34.255   2.629   2.647
    1XTA    CO754822  34.346   2.603   2.538
    1XTA    CT254823  34.391   2.733   2.458
    1XTA   CL1154824  34.460   2.831   2.562
    1XTA   CL1254825  34.505   2.968   2.509
    1XTA    HL154826  35.416   2.593   2.986
    1XTA    HL254827  35.294   2.635   2.877
    1XTA    HL354828  35.266   2.508   2.992
    1XTA    HL454829  35.329   2.149   1.979
    1XTA    HL554830  35.377   2.035   2.098
    1XTA    HL654831  35.496   1.997   1.860
    1XTA    HL754832  35.344   1.972   1.795
    1XTA    HL854833  35.520   1.825   2.007
    1XTA    HL954834  35.483   1.770   1.837
    1XTA   HL1054835  35.368   1.645   2.035
    1XTA   HL1154836  35.277   1.790   2.077
    1XTA   HL1254837  35.268   1.639   1.812
    1XTA   HL1354838  35.183   1.778   1.833
    1XTA   HL1454839  35.119   1.520   1.953
    1XTA   HL1554840  35.036   1.665   2.026
    1XTA   HL1654841  34.849   1.531   1.923
    1XTA   HL1754842  34.824   1.703   1.885
    1XTA   HL1854843  34.984   1.457   1.630
    1XTA   HL1954844  34.836   1.433   1.536
    1XTA   HL2054845  34.864   1.229   1.660
    1XTA   HL2154846  34.770   1.310   1.789
    1XTA   HL2254847  34.940   1.313   1.802
    1XTA   HL2354848  34.390   2.123   2.487
    1XTA   HL2454849  34.381   2.284   2.532
    1XTA   HL2554850  34.149   2.169   2.529
    1XTA   HL2654851  34.220   2.041   2.625
    1XTA   HL2754852  34.138   2.131   2.816
    1XTA   HL2854853  34.264   2.251   2.791
    1XTA   HL2954854  33.979   2.276   2.700
    1XTA   HL3054855  34.058   2.354   2.843
    1XTA   HL3154856  34.129   2.405   2.550
    1XTA   HL3254857  34.025   2.497   2.642
    1XTA   HL3354858  34.194   2.553   2.817
    1XTA   HL3454859  34.322   2.453   2.734
    1XTA   HL3554860  34.289   2.541   2.469
    1XTA   HL3654861  34.431   2.555   2.579
    1XTA   HL3754862  34.544   2.777   2.613
    1XTA   HL3854863  34.385   2.851   2.640
    1XTA   HL3954864  34.600   2.967   2.451
    1XTA   HL4054865  34.516   3.030   2.598
    1XTA   HL4154866  34.433   3.012   2.449
    1XTA    CO854867  34.831   1.688   1.613
    1XTA    CO954868  34.663   1.550   1.730
    1XTA    OA654869  34.791   1.668   1.510
    1XTA   HL4254870  34.943   1.700   1.603
    1XTA   HL4354871  34.784   1.778   1.659
    1XTA   HL4454872  34.218   2.844   2.438
    1XTA   HL4554873  34.321   2.863   2.286
    1XTA   CO1054874  34.283   2.789   2.367
    1XTA   CO1154875  34.499   2.703   2.356
    1XTA    OA754876  34.232   2.709   2.314
    1XTA   HL4654877  34.518   2.820   2.279
    1XTA   HL4754878  34.466   2.615   2.290
    1XTA   HL4854879  34.609   1.477   1.622
    1XTA   HL4954880  34.649   1.482   1.812
    1XTA     NT54881  27.094   0.101   3.236
    1XTA    CN154882  26.997   0.165   3.172
    1XTA     C154883  27.020   0.290   3.117
    1XTA     C254884  26.918   0.361   3.047
    1XTA     C354885  26.789   0.319   3.054
    1XTA     C454886  26.767   0.189   3.105
    1XTA     C554887  26.874   0.107   3.156
    1XTA    CN254888  27.153  -0.006   3.175
    1XTA     C654889  27.176  -0.125   3.251
    1XTA     C754890  27.231  -0.236   3.189
    1XTA     C854891  27.269  -0.231   3.052
    1XTA     C954892  27.246  -0.115   2.979
    1XTA    C1054893  27.193  -0.003   3.040
    1XTA    CN354894  27.135   0.135   3.368
    1XTA    C1154895  27.038   0.159   3.462
    1XTA    C1254896  27.079   0.220   3.584
    1XTA    C1354897  27.214   0.266   3.605
    1XTA    C1454898  27.307   0.237   3.505
    1XTA    C1554899  27.267   0.176   3.382
    1XTA     H154900  27.115   0.324   3.121
    1XTA     H254901  26.940   0.462   3.010
    1XTA     H354902  26.669   0.147   3.099
    1XTA     H454903  26.862   0.007   3.189
    1XTA     H554904  27.149  -0.126   3.349
    1XTA     H654905  27.263  -0.320   3.247
    1XTA     H754906  27.277  -0.102   2.876
    1XTA     H854907  27.181   0.087   2.985
    1XTA     H954908  26.940   0.140   3.435
    1XTA    H1054909  27.010   0.243   3.658
    1XTA    H1154910  27.401   0.293   3.518
    1XTA    H1254911  27.330   0.167   3.299
    1XTA    OA154912  26.689   0.403   3.011
    1XTA    CO154913  26.555   0.365   3.039
    1XTA    OA254914  27.333  -0.340   2.992
    1XTA    CO254915  27.381  -0.457   3.066
    1XTA    CL154916  27.456  -0.552   2.968
    1XTA    CL254917  27.366  -0.643   2.891
    1XTA    CL354918  27.270  -0.578   2.788
    1XTA    CL454919  27.352  -0.532   2.667
    1XTA    CO354920  27.261  -0.472   2.560
    1XTA    OA354921  27.335  -0.431   2.449
    1XTA    CO454922  27.261  -0.378   2.343
    1XTA    CT154923  27.346  -0.365   2.218
    1XTA    CL554924  27.252  -0.316   2.108
    1XTA    CL654925  27.192  -0.174   2.128
    1XTA    OA454926  27.251   0.326   3.720
    1XTA    CO554927  27.154   0.347   3.821
    1XTA    CL754928  27.229   0.424   3.928
    1XTA    CL854929  27.278   0.565   3.893
    1XTA    CL954930  27.411   0.573   3.821
    1XTA   CL1054931  27.479   0.709   3.843
    1XTA    CO654932  27.628   0.702   3.816
    1XTA    OA554933  27.670   0.655   3.684
    1XTA    CO754934  27.640   0.747   3.581
    1XTA    CT254935  27.647   0.670   3.442
    1XTA   CL1154936  27.533   0.566   3.438
    1XTA   CL1254937  27.513   0.483   3.312
    1XTA    HL154938  26.537   0.335   3.139
    1XTA    HL254939  26.500   0.455   3.017
    1XTA    HL354940  26.507   0.282   2.980
    1XTA    HL454941  27.443  -0.424   3.145
    1XTA    HL554942  27.300  -0.512   3.124
    1XTA    HL654943  27.529  -0.606   3.030
    1XTA    HL754944  27.511  -0.494   2.894
    1XTA    HL854945  27.307  -0.696   2.967
    1XTA    HL954946  27.426  -0.724   2.852
    1XTA   HL1054947  27.186  -0.644   2.760
    1XTA   HL1154948  27.221  -0.490   2.829
    1XTA   HL1254949  27.399  -0.618   2.618
    1XTA   HL1354950  27.424  -0.460   2.700
    1XTA   HL1454951  27.203  -0.562   2.535
    1XTA   HL1554952  27.192  -0.392   2.592
    1XTA   HL1654953  27.174  -0.433   2.317
    1XTA   HL1754954  27.231  -0.280   2.370
    1XTA   HL1854955  27.175  -0.385   2.093
    1XTA   HL1954956  27.305  -0.321   2.014
    1XTA   HL2054957  27.106  -0.149   2.068
    1XTA   HL2154958  27.264  -0.101   2.101
    1XTA   HL2254959  27.149  -0.164   2.222
    1XTA   HL2354960  27.113   0.243   3.850
    1XTA   HL2454961  27.071   0.408   3.785
    1XTA   HL2554962  27.146   0.437   4.003
    1XTA   HL2654963  27.309   0.366   3.974
    1XTA   HL2754964  27.208   0.637   3.847
    1XTA   HL2854965  27.299   0.609   3.990
    1XTA   HL2954966  27.469   0.487   3.846
    1XTA   HL3054967  27.387   0.556   3.716
    1XTA   HL3154968  27.432   0.777   3.771
    1XTA   HL3254969  27.470   0.743   3.948
    1XTA   HL3354970  27.670   0.796   3.832
    1XTA   HL3454971  27.662   0.635   3.889
    1XTA   HL3554972  27.703   0.838   3.584
    1XTA   HL3654973  27.541   0.781   3.589
    1XTA   HL3754974  27.440   0.614   3.457
    1XTA   HL3854975  27.540   0.516   3.534
    1XTA   HL3954976  27.411   0.440   3.307
    1XTA   HL4054977  27.581   0.398   3.295
    1XTA   HL4154978  27.536   0.555   3.229
    1XTA    CO854979  27.402  -0.507   2.181
    1XTA    CO954980  27.465  -0.272   2.240
    1XTA    OA654981  27.510  -0.209   2.122
    1XTA   HL4254982  27.489  -0.504   2.245
    1XTA   HL4354983  27.445  -0.519   2.074
    1XTA   HL4454984  27.873   0.669   3.447
    1XTA   HL4554985  27.804   0.543   3.512
    1XTA   CO1054986  27.788   0.607   3.424
    1XTA   CO1154987  27.638   0.779   3.335
    1XTA    OA754988  27.738   0.881   3.344
    1XTA   HL4654989  27.622   0.737   3.240
    1XTA   HL4754990  27.545   0.819   3.362
    1XTA   HL4854991  27.545  -0.317   2.304
    1XTA   HL4954992  27.422  -0.194   2.294
    1XTA     NT54993  29.282   2.766   1.144
    1XTA    CN154994  29.164   2.731   1.082
    1XTA     C154995  29.141   2.608   1.017
    1XTA     C254996  29.021   2.585   0.950
    1XTA     C354997  28.923   2.689   0.941
    1XTA     C454998  28.949   2.815   1.005
    1XTA     C554999  29.070   2.833   1.073
    1XTA    CN255000  29.286   2.785   1.277
    1XTA     C655001  29.239   2.677   1.351
    1XTA     C755002  29.247   2.687   1.492
    1XTA     C855003  29.277   2.805   1.559
    1XTA     C955004  29.312   2.920   1.486
    1XTA    C1055005  29.321   2.903   1.343
    1XTA    CN355006  29.391   2.782   1.061
    1XTA    C1155007  29.390   2.878   0.960
    1XTA    C1255008  29.495   2.879   0.870
    1XTA    C1355009  29.604   2.795   0.888
    1XTA    C1455010  29.610   2.703   0.994
    1XTA    C1555011  29.504   2.700   1.082
    1XTA     H155012  29.209   2.528   1.021
    1XTA     H255013  28.999   2.487   0.915
    1XTA     H355014  28.886   2.903   1.007
    1XTA     H455015  29.093   2.920   1.128
    1XTA     H555016  29.208   2.585   1.300
    1XTA     H655017  29.220   2.611   1.553
    1XTA     H755018  29.338   3.011   1.540
    1XTA     H855019  29.347   2.997   1.285
    1XTA     H955020  29.300   2.935   0.948
    1XTA    H1055021  29.492   2.944   0.782
    1XTA    H1155022  29.700   2.637   1.002
    1XTA    H1255023  29.504   2.640   1.171
    1XTA    OA155024  28.816   2.664   0.866
    1XTA    CO155025  28.712   2.762   0.849
    1XTA    OA255026  29.271   2.808   1.702
    1XTA    CO255027  29.184   2.911   1.746
    1XTA    CL155028  29.050   2.861   1.795
    1XTA    CL255029  29.061   2.745   1.897
    1XTA    CL355030  28.922   2.696   1.940
    1XTA    CL455031  28.842   2.624   1.825
    1XTA    CO355032  28.728   2.540   1.873
    1XTA    OA355033  28.628   2.619   1.928
    1XTA    CO455034  28.524   2.548   1.991
    1XTA    CT155035  28.524   2.549   2.145
    1XTA    CL555036  28.537   2.690   2.207
    1XTA    CL655037  28.436   2.787   2.154
    1XTA    OA455038  29.708   2.783   0.803
    1XTA    CO555039  29.683   2.737   0.673
    1XTA    CL755040  29.776   2.802   0.574
    1XTA    CL855041  29.767   2.957   0.568
    1XTA    CL955042  29.636   3.000   0.493
    1XTA   CL1055043  29.614   3.147   0.475
    1XTA    CO655044  29.546   3.207   0.594
    1XTA    OA555045  29.639   3.252   0.688
    1XTA    CO755046  29.568   3.302   0.805
    1XTA    CT255047  29.660   3.275   0.936
    1XTA   CL1155048  29.584   3.279   1.074
    1XTA   CL1255049  29.504   3.406   1.098
    1XTA    HL155050  28.753   2.854   0.837
    1XTA    HL255051  28.649   2.737   0.765
    1XTA    HL355052  28.649   2.756   0.941
    1XTA    HL455053  29.224   2.961   1.837
    1XTA    HL555054  29.182   2.994   1.674
    1XTA    HL655055  28.998   2.842   1.705
    1XTA    HL755056  29.000   2.942   1.851
    1XTA    HL855057  29.118   2.789   1.976
    1XTA    HL955058  29.113   2.667   1.852
    1XTA   HL1055059  28.932   2.614   2.012
    1XTA   HL1155060  28.867   2.766   1.991
    1XTA   HL1255061  28.904   2.546   1.768
    1XTA   HL1355062  28.804   2.696   1.752
    1XTA   HL1455063  28.675   2.491   1.789
    1XTA   HL1555064  28.766   2.462   1.939
    1XTA   HL1655065  28.430   2.595   1.952
    1XTA   HL1755066  28.515   2.450   1.956
    1XTA   HL1855067  28.631   2.731   2.169
    1XTA   HL1955068  28.558   2.690   2.312
    1XTA   HL2055069  28.452   2.809   2.047
    1XTA   HL2155070  28.446   2.879   2.209
    1XTA   HL2255071  28.333   2.756   2.176
    1XTA   HL2355072  29.581   2.731   0.623
    1XTA   HL2455073  29.707   2.632   0.674
    1XTA   HL2555074  29.877   2.770   0.605
    1XTA   HL2655075  29.764   2.770   0.478
    1XTA   HL2755076  29.763   3.003   0.670
    1XTA   HL2855077  29.861   2.998   0.525
    1XTA   HL2955078  29.626   2.934   0.402
    1XTA   HL3055079  29.556   2.955   0.546
    1XTA   HL3155080  29.710   3.201   0.438
    1XTA   HL3255081  29.544   3.161   0.387
    1XTA   HL3355082  29.483   3.295   0.570
    1XTA   HL3455083  29.469   3.137   0.631
    1XTA   HL3555084  29.473   3.254   0.822
    1XTA   HL3655085  29.539   3.412   0.808
    1XTA   HL3755086  29.651   3.262   1.158
    1XTA   HL3855087  29.519   3.191   1.070
    1XTA   HL3955088  29.555   3.502   1.100
    1XTA   HL4055089  29.448   3.401   1.196
    1XTA   HL4155090  29.428   3.435   1.023
    1XTA    CO855091  28.640   2.460   2.196
    1XTA    CO955092  28.396   2.471   2.202
    1XTA    OA655093  28.674   2.345   2.118
    1XTA   HL4255094  28.611   2.410   2.294
    1XTA   HL4355095  28.732   2.514   2.202
    1XTA   HL4455096  29.847   3.367   1.028
    1XTA   HL4555097  29.835   3.369   0.847
    1XTA   CO1055098  29.776   3.380   0.939
    1XTA   CO1155099  29.735   3.142   0.922
    1XTA    OA755100  29.719   3.509   0.939
    1XTA   HL4655101  29.816   3.141   0.853
    1XTA   HL4755102  29.672   3.059   0.895
    1XTA   HL4855103  28.314   2.499   2.137
    1XTA   HL4955104  28.410   2.364   2.175
    1XTA     NT55105  29.381  -0.898   3.588
    1XTA    CN155106  29.340  -1.029   3.610
    1XTA     C155107  29.434  -1.134   3.613
    1XTA     C255108  29.389  -1.259   3.646
    1XTA     C355109  29.250  -1.294   3.644
    1XTA     C455110  29.158  -1.189   3.623
    1XTA     C555111  29.204  -1.062   3.607
    1XTA    CN255112  29.478  -0.844   3.651
    1XTA     C655113  29.610  -0.839   3.600
    1XTA     C755114  29.719  -0.789   3.668
    1XTA     C855115  29.695  -0.719   3.785
    1XTA     C955116  29.566  -0.722   3.848
    1XTA    C1055117  29.461  -0.791   3.778
    1XTA    CN355118  29.332  -0.825   3.484
    1XTA    C1155119  29.277  -0.700   3.511
    1XTA    C1255120  29.222  -0.624   3.409
    1XTA    C1355121  29.220  -0.679   3.274
    1XTA    C1455122  29.282  -0.795   3.253
    1XTA    C1555123  29.340  -0.870   3.353
    1XTA     H155124  29.537  -1.108   3.598
    1XTA     H255125  29.471  -1.324   3.658
    1XTA     H355126  29.051  -1.196   3.609
    1XTA     H455127  29.126  -0.992   3.588
    1XTA     H555128  29.627  -0.894   3.508
    1XTA     H655129  29.814  -0.784   3.620
    1XTA     H755130  29.544  -0.675   3.945
    1XTA     H855131  29.371  -0.802   3.831
    1XTA     H955132  29.273  -0.663   3.617
    1XTA    H1055133  29.168  -0.538   3.440
    1XTA    H1155134  29.273  -0.833   3.148
    1XTA    H1255135  29.400  -0.962   3.343
    1XTA    OA155136  29.212  -1.425   3.664
    1XTA    CO155137  29.079  -1.461   3.662
    1XTA    OA255138  29.795  -0.641   3.839
    1XTA    CO255139  29.923  -0.685   3.822
    1XTA    CL155140  29.950  -0.820   3.903
    1XTA    CL255141  29.911  -0.797   4.051
    1XTA    CL355142  29.767  -0.814   4.095
    1XTA    CL455143  29.727  -0.823   4.246
    1XTA    CO355144  29.579  -0.789   4.279
    1XTA    OA355145  29.553  -0.657   4.235
    1XTA    CO455146  29.428  -0.623   4.282
    1XTA    CT155147  29.388  -0.478   4.228
    1XTA    CL555148  29.231  -0.458   4.250
    1XTA    CL655149  29.152  -0.500   4.377
    1XTA    OA455150  29.160  -0.630   3.166
    1XTA    CO555151  29.085  -0.512   3.165
    1XTA    CL755152  29.029  -0.476   3.018
    1XTA    CL855153  29.009  -0.333   2.988
    1XTA    CL955154  29.128  -0.258   2.932
    1XTA   CL1055155  29.217  -0.204   3.046
    1XTA    CO655156  29.332  -0.300   3.087
    1XTA    OA555157  29.374  -0.276   3.216
    1XTA    CO755158  29.484  -0.355   3.260
    1XTA    CT255159  29.522  -0.305   3.402
    1XTA   CL1155160  29.655  -0.373   3.434
    1XTA   CL1255161  29.642  -0.513   3.487
    1XTA    HL155162  29.026  -1.433   3.571
    1XTA    HL255163  29.070  -1.571   3.662
    1XTA    HL355164  29.026  -1.406   3.747
    1XTA    HL455165  29.956  -0.686   3.722
    1XTA    HL555166  29.990  -0.602   3.862
    1XTA    HL655167  30.061  -0.827   3.904
    1XTA    HL755168  29.902  -0.903   3.849
    1XTA    HL855169  29.943  -0.698   4.078
    1XTA    HL955170  29.967  -0.870   4.105
    1XTA   HL1055171  29.718  -0.718   4.066
    1XTA   HL1155172  29.716  -0.891   4.042
    1XTA   HL1255173  29.794  -0.759   4.300
    1XTA   HL1355174  29.750  -0.919   4.283
    1XTA   HL1455175  29.521  -0.861   4.226
    1XTA   HL1555176  29.559  -0.805   4.382
    1XTA   HL1655177  29.370  -0.708   4.242
    1XTA   HL1755178  29.425  -0.641   4.391
    1XTA   HL1855179  29.179  -0.479   4.162
    1XTA   HL1955180  29.231  -0.350   4.246
    1XTA   HL2055181  29.225  -0.492   4.456
    1XTA   HL2155182  29.120  -0.606   4.367
    1XTA   HL2255183  29.058  -0.442   4.386
    1XTA   HL2355184  29.148  -0.429   3.192
    1XTA   HL2455185  29.008  -0.529   3.239
    1XTA   HL2555186  29.098  -0.510   2.948
    1XTA   HL2655187  28.937  -0.532   2.999
    1XTA   HL2755188  28.932  -0.324   2.912
    1XTA   HL2855189  28.982  -0.275   3.072
    1XTA   HL2955190  29.191  -0.336   2.881
    1XTA   HL3055191  29.096  -0.178   2.859
    1XTA   HL3155192  29.260  -0.105   3.030
    1XTA   HL3255193  29.154  -0.190   3.135
    1XTA   HL3355194  29.310  -0.402   3.066
    1XTA   HL3455195  29.423  -0.282   3.022
    1XTA   HL3555196  29.575  -0.366   3.187
    1XTA   HL3655197  29.452  -0.460   3.267
    1XTA   HL3755198  29.704  -0.318   3.511
    1XTA   HL3855199  29.726  -0.371   3.351
    1XTA   HL3955200  29.599  -0.575   3.408
    1XTA   HL4055201  29.592  -0.508   3.583
    1XTA   HL4155202  29.742  -0.552   3.514
    1XTA    CO855203  29.418  -0.465   4.076
    1XTA    CO955204  29.468  -0.362   4.297
    1XTA    OA655205  29.367  -0.341   4.024
    1XTA   HL4255206  29.374  -0.556   4.024
    1XTA   HL4355207  29.524  -0.469   4.052
    1XTA   HL4455208  29.402  -0.440   3.525
    1XTA   HL4555209  29.292  -0.314   3.440
    1XTA   CO1055210  29.408  -0.329   3.510
    1XTA   CO1155211  29.540  -0.149   3.403
    1XTA    OA755212  29.449  -0.089   3.385
    1XTA   HL4655213  29.587  -0.132   3.503
    1XTA   HL4755214  29.619  -0.119   3.339
    1XTA   HL4855215  29.408  -0.310   4.373
    1XTA   HL4955216  29.497  -0.283   4.235
    1XTA     NT55217  33.469   1.695   8.683
    1XTA    CN155218  33.531   1.615   8.773
    1XTA     C155219  33.507   1.477   8.775
    1XTA     C255220  33.566   1.400   8.876
    1XTA     C355221  33.644   1.461   8.977
    1XTA     C455222  33.684   1.597   8.957
    1XTA     C555223  33.623   1.672   8.857
    1XTA    CN255224  33.352   1.656   8.627
    1XTA     C655225  33.234   1.686   8.690
    1XTA     C755226  33.104   1.665   8.630
    1XTA     C855227  33.103   1.613   8.493
    1XTA     C955228  33.225   1.587   8.431
    1XTA    C1055229  33.347   1.609   8.490
    1XTA    CN355230  33.516   1.809   8.637
    1XTA    C1155231  33.434   1.926   8.622
    1XTA    C1255232  33.480   2.043   8.563
    1XTA    C1355233  33.615   2.048   8.514
    1XTA    C1455234  33.697   1.931   8.531
    1XTA    C1555235  33.650   1.816   8.590
    1XTA     H155236  33.431   1.434   8.704
    1XTA     H255237  33.550   1.287   8.868
    1XTA     H355238  33.745   1.664   9.018
    1XTA     H455239  33.645   1.776   8.861
    1XTA     H555240  33.239   1.722   8.792
    1XTA     H655241  33.013   1.686   8.687
    1XTA     H755242  33.230   1.549   8.326
    1XTA     H855243  33.436   1.585   8.439
    1XTA     H955244  33.336   1.919   8.658
    1XTA    H1055245  33.404   2.122   8.557
    1XTA    H1155246  33.796   1.947   8.502
    1XTA    H1255247  33.711   1.735   8.613
    1XTA    OA155248  33.685   1.381   9.080
    1XTA    CO155249  33.780   1.430   9.166
    1XTA    OA255250  32.991   1.584   8.419
    1XTA    CO255251  32.864   1.599   8.477
    1XTA    CL155252  32.750   1.564   8.375
    1XTA    CL255253  32.731   1.676   8.267
    1XTA    CL355254  32.616   1.623   8.177
    1XTA    CL455255  32.606   1.687   8.042
    1XTA    CO355256  32.505   1.615   7.951
    1XTA    OA355257  32.517   1.667   7.817
    1XTA    CO455258  32.416   1.614   7.733
    1XTA    CT155259  32.416   1.699   7.603
    1XTA    CL555260  32.376   1.846   7.636
    1XTA    CL655261  32.248   1.864   7.716
    1XTA    OA455262  33.666   2.159   8.454
    1XTA    CO555263  33.583   2.271   8.468
    1XTA    CL755264  33.644   2.386   8.378
    1XTA    CL855265  33.592   2.520   8.417
    1XTA    CL955266  33.459   2.563   8.352
    1XTA   CL1055267  33.387   2.682   8.415
    1XTA    CO655268  33.437   2.810   8.354
    1XTA    OA555269  33.554   2.854   8.416
    1XTA    CO755270  33.600   2.978   8.363
    1XTA    CT255271  33.731   3.016   8.427
    1XTA   CL1155272  33.781   3.145   8.360
    1XTA   CL1255273  33.680   3.270   8.363
    1XTA    HL155274  33.874   1.450   9.111
    1XTA    HL255275  33.745   1.522   9.205
    1XTA    HL355276  33.813   1.351   9.234
    1XTA    HL455277  32.857   1.533   8.562
    1XTA    HL555278  32.849   1.701   8.521
    1XTA    HL655279  32.658   1.576   8.428
    1XTA    HL755280  32.749   1.464   8.329
    1XTA    HL855281  32.822   1.684   8.211
    1XTA    HL955282  32.704   1.764   8.324
    1XTA   HL1055283  32.630   1.515   8.159
    1XTA   HL1155284  32.526   1.639   8.230
    1XTA   HL1255285  32.704   1.685   7.996
    1XTA   HL1355286  32.570   1.790   8.043
    1XTA   HL1455287  32.523   1.503   7.951
    1XTA   HL1555288  32.399   1.639   7.990
    1XTA   HL1655289  32.429   1.508   7.710
    1XTA   HL1755290  32.322   1.634   7.779
    1XTA   HL1855291  32.377   1.906   7.548
    1XTA   HL1955292  32.448   1.886   7.700
    1XTA   HL2055293  32.157   1.838   7.674
    1XTA   HL2155294  32.227   1.969   7.707
    1XTA   HL2255295  32.266   1.838   7.822
    1XTA   HL2355296  33.593   2.299   8.571
    1XTA   HL2455297  33.481   2.255   8.432
    1XTA   HL2555298  33.751   2.405   8.393
    1XTA   HL2655299  33.627   2.353   8.272
    1XTA   HL2755300  33.587   2.520   8.525
    1XTA   HL2855301  33.657   2.598   8.387
    1XTA   HL2955302  33.477   2.591   8.243
    1XTA   HL3055303  33.395   2.477   8.360
    1XTA   HL3155304  33.280   2.679   8.382
    1XTA   HL3255305  33.388   2.677   8.524
    1XTA   HL3355306  33.470   2.789   8.258
    1XTA   HL3455307  33.352   2.882   8.353
    1XTA   HL3555308  33.523   3.052   8.376
    1XTA   HL3655309  33.611   2.956   8.249
    1XTA   HL3755310  33.805   3.120   8.250
    1XTA   HL3855311  33.874   3.177   8.402
    1XTA   HL3955312  33.709   3.353   8.306
    1XTA   HL4055313  33.661   3.300   8.465
    1XTA   HL4155314  33.581   3.247   8.322
    1XTA    CO855315  32.330   1.631   7.497
    1XTA    CO955316  32.562   1.686   7.544
    1XTA    OA655317  32.582   1.757   7.423
    1XTA   HL4255318  32.376   1.539   7.470
    1XTA   HL4355319  32.319   1.685   7.396
    1XTA   HL4455320  33.801   2.801   8.406
    1XTA   HL4555321  33.854   2.926   8.293
    1XTA   CO1055322  33.834   2.906   8.403
    1XTA   CO1155323  33.720   3.027   8.581
    1XTA    OA755324  33.949   2.914   8.486
    1XTA   HL4655325  33.687   2.931   8.619
    1XTA   HL4755326  33.818   3.033   8.622
    1XTA   HL4855327  32.595   1.589   7.519
    1XTA   HL4955328  32.636   1.722   7.611
    1XTA     NT55329  29.274   0.806   1.559
    1XTA    CN155330  29.274   0.939   1.593
    1XTA     C155331  29.183   0.981   1.693
    1XTA     C255332  29.145   1.113   1.704
    1XTA     C355333  29.212   1.214   1.634
    1XTA     C455334  29.312   1.176   1.537
    1XTA     C555335  29.329   1.039   1.513
    1XTA    CN255336  29.278   0.767   1.429
    1XTA     C655337  29.397   0.720   1.374
    1XTA     C755338  29.401   0.657   1.245
    1XTA     C855339  29.280   0.652   1.170
    1XTA     C955340  29.159   0.709   1.224
    1XTA    C1055341  29.161   0.762   1.352
    1XTA    CN355342  29.317   0.723   1.655
    1XTA    C1155343  29.269   0.588   1.672
    1XTA    C1255344  29.321   0.498   1.763
    1XTA    C1355345  29.434   0.537   1.844
    1XTA    C1455346  29.486   0.669   1.826
    1XTA    C1555347  29.427   0.759   1.734
    1XTA     H155348  29.126   0.907   1.760
    1XTA     H255349  29.069   1.133   1.763
    1XTA     H355350  29.352   1.254   1.475
    1XTA     H455351  29.394   1.010   1.432
    1XTA     H555352  29.483   0.744   1.423
    1XTA     H655353  29.482   0.603   1.198
    1XTA     H755354  29.069   0.705   1.164
    1XTA     H855355  29.066   0.787   1.412
    1XTA     H955356  29.185   0.555   1.605
    1XTA    H1055357  29.271   0.402   1.766
    1XTA    H1155358  29.570   0.702   1.888
    1XTA    H1255359  29.468   0.860   1.728
    1XTA    OA155360  29.179   1.346   1.637
    1XTA    CO155361  29.124   1.386   1.760
    1XTA    OA255362  29.288   0.592   1.047
    1XTA    CO255363  29.182   0.503   1.015
    1XTA    CL155364  29.230   0.382   0.933
    1XTA    CL255365  29.367   0.331   0.974
    1XTA    CL355366  29.469   0.334   0.866
    1XTA    CL455367  29.613   0.315   0.913
    1XTA    CO355368  29.662   0.422   1.009
    1XTA    OA355369  29.799   0.408   1.025
    1XTA    CO455370  29.849   0.500   1.122
    1XTA    CT155371  29.994   0.527   1.089
    1XTA    CL555372  30.067   0.389   1.082
    1XTA    CL655373  30.079   0.310   0.945
    1XTA    OA455374  29.502   0.451   1.922
    1XTA    CO555375  29.456   0.319   1.926
    1XTA    CL755376  29.548   0.265   2.037
    1XTA    CL855377  29.698   0.255   2.023
    1XTA    CL955378  29.783   0.378   1.995
    1XTA   CL1055379  29.802   0.397   1.846
    1XTA    CO655380  29.840   0.536   1.800
    1XTA    OA555381  29.874   0.540   1.663
    1XTA    CO755382  29.919   0.670   1.620
    1XTA    CT255383  30.041   0.645   1.530
    1XTA   CL1155384  30.110   0.783   1.495
    1XTA   CL1255385  30.181   0.845   1.616
    1XTA    HL155386  29.151   1.490   1.775
    1XTA    HL255387  29.015   1.373   1.785
    1XTA    HL355388  29.180   1.339   1.838
    1XTA    HL455389  29.143   0.455   1.102
    1XTA    HL555390  29.095   0.542   0.962
    1XTA    HL655391  29.232   0.404   0.829
    1XTA    HL755392  29.156   0.302   0.929
    1XTA    HL855393  29.361   0.223   1.007
    1XTA    HL955394  29.411   0.381   1.065
    1XTA   HL1055395  29.446   0.261   0.796
    1XTA   HL1155396  29.453   0.426   0.817
    1XTA   HL1255397  29.663   0.331   0.813
    1XTA   HL1355398  29.625   0.218   0.954
    1XTA   HL1455399  29.635   0.523   0.971
    1XTA   HL1555400  29.609   0.400   1.105
    1XTA   HL1655401  29.793   0.599   1.125
    1XTA   HL1755402  29.847   0.456   1.228
    1XTA   HL1855403  30.022   0.327   1.146
    1XTA   HL1955404  30.165   0.407   1.126
    1XTA   HL2055405  30.069   0.203   0.975
    1XTA   HL2155406  30.173   0.327   0.887
    1XTA   HL2255407  29.996   0.310   0.879
    1XTA   HL2355408  29.471   0.272   1.829
    1XTA   HL2455409  29.350   0.314   1.947
    1XTA   HL2555410  29.512   0.310   2.123
    1XTA   HL2655411  29.505   0.170   2.046
    1XTA   HL2755412  29.728   0.232   2.123
    1XTA   HL2855413  29.718   0.172   1.949
    1XTA   HL2955414  29.738   0.470   2.035
    1XTA   HL3055415  29.887   0.373   2.035
    1XTA   HL3155416  29.871   0.326   1.803
    1XTA   HL3255417  29.711   0.377   1.794
    1XTA   HL3355418  29.752   0.589   1.825
    1XTA   HL3455419  29.916   0.593   1.862
    1XTA   HL3555420  29.943   0.733   1.703
    1XTA   HL3655421  29.840   0.716   1.561
    1XTA   HL3755422  30.037   0.848   1.446
    1XTA   HL3855423  30.179   0.763   1.415
    1XTA   HL3955424  30.120   0.855   1.705
    1XTA   HL4055425  30.216   0.948   1.583
    1XTA   HL4155426  30.267   0.794   1.650
    1XTA    CO855427  30.070   0.602   1.208
    1XTA    CO955428  30.013   0.614   0.960
    1XTA    OA655429  30.114   0.616   0.927
    1XTA   HL4255430  30.174   0.613   1.175
    1XTA   HL4355431  30.029   0.737   1.222
    1XTA   HL4455432  29.949   0.467   1.437
    1XTA   HL4555433  29.904   0.612   1.360
    1XTA   CO1055434  29.994   0.567   1.407
    1XTA   CO1155435  30.148   0.558   1.599
    1XTA    OA755436  30.074   0.542   1.339
    1XTA   HL4655437  30.116   0.418   1.584
    1XTA   HL4755438  30.238   0.569   1.542
    1XTA   HL4855439  29.989   0.716   0.985
    1XTA   HL4955440  29.955   0.566   0.877
    1XTA     NT55441  30.743   2.902   7.474
    1XTA    CN155442  30.798   2.904   7.596
    1XTA     C155443  30.716   2.879   7.715
    1XTA     C255444  30.779   2.863   7.842
    1XTA     C355445  30.923   2.874   7.855
    1XTA     C455446  30.997   2.906   7.736
    1XTA     C555447  30.939   2.915   7.610
    1XTA    CN255448  30.760   2.794   7.388
    1XTA     C655449  30.723   2.661   7.426
    1XTA     C755450  30.765   2.555   7.349
    1XTA     C855451  30.828   2.572   7.222
    1XTA     C955452  30.851   2.708   7.180
    1XTA    C1055453  30.830   2.814   7.267
    1XTA    CN355454  30.652   2.993   7.452
    1XTA    C1155455  30.682   3.134   7.454
    1XTA    C1255456  30.587   3.233   7.431
    1XTA    C1355457  30.455   3.188   7.408
    1XTA    C1455458  30.419   3.054   7.415
    1XTA    C1555459  30.518   2.958   7.435
    1XTA     H155460  30.612   2.863   7.725
    1XTA     H255461  30.718   2.831   7.922
    1XTA     H355462  31.109   2.914   7.748
    1XTA     H455463  31.005   2.928   7.526
    1XTA     H555464  30.683   2.646   7.526
    1XTA     H655465  30.747   2.452   7.384
    1XTA     H755466  30.886   2.727   7.085
    1XTA     H855467  30.855   2.919   7.241
    1XTA     H955468  30.780   3.174   7.463
    1XTA    H1055469  30.613   3.339   7.442
    1XTA    H1155470  30.320   3.018   7.398
    1XTA    H1255471  30.497   2.850   7.432
    1XTA    OA155472  30.977   2.849   7.978
    1XTA    CO155473  31.110   2.810   7.987
    1XTA    OA255474  30.868   2.462   7.149
    1XTA    CO255475  30.770   2.362   7.122
    1XTA    CL155476  30.792   2.320   6.977
    1XTA    CL255477  30.732   2.182   6.945
    1XTA    CL355478  30.772   2.115   6.812
    1XTA    CL455479  30.751   2.213   6.699
    1XTA    CO355480  30.805   2.168   6.561
    1XTA    OA355481  30.770   2.261   6.466
    1XTA    CO455482  30.837   2.249   6.342
    1XTA    CT155483  30.827   2.377   6.260
    1XTA    CL555484  30.888   2.498   6.332
    1XTA    CL655485  30.861   2.635   6.267
    1XTA    OA455486  30.375   3.292   7.384
    1XTA    CO555487  30.241   3.260   7.354
    1XTA    CL755488  30.163   3.241   7.484
    1XTA    CL855489  30.012   3.232   7.475
    1XTA    CL955490  29.959   3.105   7.409
    1XTA   CL1055491  29.814   3.108   7.366
    1XTA    CO655492  29.790   3.012   7.247
    1XTA    OA555493  29.642   3.005   7.225
    1XTA    CO755494  29.589   3.107   7.152
    1XTA    CT255495  29.434   3.097   7.140
    1XTA   CL1155496  29.401   2.972   7.055
    1XTA   CL1255497  29.248   2.958   7.030
    1XTA    HL155498  31.129   2.813   8.098
    1XTA    HL255499  31.118   2.718   7.942
    1XTA    HL355500  31.183   2.878   7.939
    1XTA    HL455501  30.796   2.279   7.183
    1XTA    HL555502  30.662   2.393   7.141
    1XTA    HL655503  30.899   2.316   6.954
    1XTA    HL755504  30.750   2.386   6.904
    1XTA    HL855505  30.628   2.172   6.954
    1XTA    HL955506  30.765   2.119   7.022
    1XTA   HL1055507  30.873   2.089   6.804
    1XTA   HL1155508  30.723   2.021   6.795
    1XTA   HL1255509  30.800   2.305   6.719
    1XTA   HL1355510  30.643   2.229   6.690
    1XTA   HL1455511  30.918   2.155   6.568
    1XTA   HL1555512  30.772   2.065   6.536
    1XTA   HL1655513  30.940   2.234   6.361
    1XTA   HL1755514  30.814   2.162   6.283
    1XTA   HL1855515  30.998   2.482   6.334
    1XTA   HL1955516  30.842   2.502   6.429
    1XTA   HL2055517  30.758   2.642   6.247
    1XTA   HL2155518  30.918   2.645   6.174
    1XTA   HL2255519  30.898   2.717   6.326
    1XTA   HL2355520  30.225   3.176   7.291
    1XTA   HL2455521  30.203   3.347   7.301
    1XTA   HL2555522  30.207   3.155   7.534
    1XTA   HL2655523  30.179   3.324   7.550
    1XTA   HL2755524  29.978   3.250   7.575
    1XTA   HL2855525  29.970   3.321   7.428
    1XTA   HL2955526  30.025   3.074   7.326
    1XTA   HL3055527  29.979   3.025   7.482
    1XTA   HL3155528  29.753   3.074   7.444
    1XTA   HL3255529  29.788   3.206   7.328
    1XTA   HL3355530  29.836   3.034   7.152
    1XTA   HL3455531  29.805   2.907   7.281
    1XTA   HL3555532  29.646   3.107   7.056
    1XTA   HL3655533  29.604   3.208   7.189
    1XTA   HL3755534  29.440   2.878   7.091
    1XTA   HL3855535  29.454   2.988   6.958
    1XTA   HL3955536  29.224   3.038   6.963
    1XTA   HL4055537  29.190   2.971   7.124
    1XTA   HL4155538  29.230   2.869   6.978
    1XTA    CO855539  30.675   2.396   6.234
    1XTA    CO955540  30.901   2.357   6.131
    1XTA    OA655541  30.610   2.469   6.338
    1XTA   HL4255542  30.619   2.301   6.220
    1XTA   HL4355543  30.660   2.462   6.145
    1XTA   HL4455544  29.284   3.214   7.037
    1XTA   HL4555545  29.401   3.311   7.122
    1XTA   CO1055546  29.387   3.222   7.062
    1XTA   CO1155547  29.362   3.088   7.279
    1XTA    OA755548  29.464   3.247   6.952
    1XTA   HL4655549  29.283   3.161   7.264
    1XTA   HL4755550  29.431   3.141   7.347
    1XTA   HL4855551  30.853   2.265   6.088
    1XTA   HL4955552  30.880   2.419   6.046
    1XTA     NT55553  31.867   3.749   0.187
    1XTA    CN155554  31.756   3.702   0.123
    1XTA     C155555  31.758   3.687  -0.017
    1XTA     C255556  31.652   3.631  -0.094
    1XTA     C355557  31.547   3.569  -0.031
    1XTA     C455558  31.546   3.575   0.112
    1XTA     C555559  31.645   3.643   0.186
    1XTA    CN255560  31.992   3.712   0.160
    1XTA     C655561  32.091   3.799   0.120
    1XTA     C755562  32.225   3.747   0.101
    1XTA     C855563  32.255   3.612   0.111
    1XTA     C955564  32.160   3.521   0.151
    1XTA    C1055565  32.026   3.576   0.173
    1XTA    CN355566  31.839   3.822   0.299
    1XTA    C1155567  31.797   3.956   0.281
    1XTA    C1255568  31.740   4.038   0.382
    1XTA    C1355569  31.739   3.985   0.508
    1XTA    C1455570  31.775   3.846   0.532
    1XTA    C1555571  31.827   3.768   0.429
    1XTA     H155572  31.855   3.731  -0.061
    1XTA     H255573  31.660   3.639  -0.204
    1XTA     H355574  31.457   3.531   0.161
    1XTA     H455575  31.639   3.651   0.297
    1XTA     H555576  32.076   3.905   0.123
    1XTA     H655577  32.305   3.814   0.068
    1XTA     H755578  32.176   3.414   0.175
    1XTA     H855579  31.952   3.504   0.202
    1XTA     H955580  31.804   3.991   0.176
    1XTA    H1055581  31.715   4.145   0.363
    1XTA    H1155582  31.779   3.810   0.630
    1XTA    H1255583  31.869   3.678   0.443
    1XTA    OA155584  31.446   3.501  -0.088
    1XTA    CO155585  31.473   3.456  -0.225
    1XTA    OA255586  32.385   3.570   0.085
    1XTA    CO255587  32.439   3.464   0.154
    1XTA    CL155588  32.592   3.459   0.130
    1XTA    CL255589  32.661   3.375   0.241
    1XTA    CL355590  32.600   3.241   0.262
    1XTA    CL455591  32.695   3.123   0.292
    1XTA    CO355592  32.616   2.986   0.310
    1XTA    OA355593  32.542   2.956   0.194
    1XTA    CO455594  32.523   2.815   0.171
    1XTA    CT155595  32.398   2.781   0.099
    1XTA    CL555596  32.420   2.629   0.064
    1XTA    CL655597  32.309   2.578  -0.033
    1XTA    OA455598  31.681   4.054   0.608
    1XTA    CO555599  31.762   4.056   0.723
    1XTA    CL755600  31.675   4.070   0.840
    1XTA    CL855601  31.616   3.929   0.867
    1XTA    CL955602  31.517   3.920   0.979
    1XTA   CL1055603  31.505   3.777   1.034
    1XTA    CO655604  31.380   3.755   1.118
    1XTA    OA555605  31.387   3.838   1.233
    1XTA    CO755606  31.306   3.952   1.217
    1XTA    CT255607  31.252   4.001   1.351
    1XTA   CL1155608  31.179   3.888   1.423
    1XTA   CL1255609  31.047   3.834   1.361
    1XTA    HL155610  31.467   3.532  -0.305
    1XTA    HL255611  31.570   3.410  -0.230
    1XTA    HL355612  31.408   3.376  -0.254
    1XTA    HL455613  32.431   3.491   0.260
    1XTA    HL555614  32.397   3.368   0.143
    1XTA    HL655615  32.633   3.558   0.131
    1XTA    HL755616  32.614   3.427   0.025
    1XTA    HL855617  32.666   3.429   0.333
    1XTA    HL955618  32.762   3.362   0.216
    1XTA   HL1055619  32.520   3.245   0.339
    1XTA   HL1155620  32.541   3.214   0.171
    1XTA   HL1255621  32.754   3.151   0.375
    1XTA   HL1355622  32.756   3.106   0.203
    1XTA   HL1455623  32.698   2.909   0.324
    1XTA   HL1555624  32.553   2.970   0.399
    1XTA   HL1655625  32.608   2.796   0.107
    1XTA   HL1755626  32.523   2.768   0.274
    1XTA   HL1855627  32.413   2.572   0.157
    1XTA   HL1955628  32.522   2.619   0.028
    1XTA   HL2055629  32.336   2.472  -0.049
    1XTA   HL2155630  32.321   2.620  -0.133
    1XTA   HL2255631  32.212   2.571   0.007
    1XTA   HL2355632  31.831   4.144   0.715
    1XTA   HL2455633  31.826   3.968   0.733
    1XTA   HL2555634  31.726   4.096   0.937
    1XTA   HL2655635  31.603   4.143   0.822
    1XTA   HL2755636  31.574   3.881   0.777
    1XTA   HL2855637  31.698   3.860   0.872
    1XTA   HL2955638  31.564   3.980   1.053
    1XTA   HL3055639  31.421   3.962   0.946
    1XTA   HL3155640  31.491   3.705   0.949
    1XTA   HL3255641  31.593   3.742   1.085
    1XTA   HL3355642  31.282   3.761   1.072
    1XTA   HL3455643  31.382   3.648   1.145
    1XTA   HL3555644  31.229   3.932   1.144
    1XTA   HL3655645  31.364   4.024   1.166
    1XTA   HL3755646  31.153   3.909   1.525
    1XTA   HL3855647  31.248   3.808   1.408
    1XTA   HL3955648  30.974   3.908   1.377
    1XTA   HL4055649  31.011   3.743   1.405
    1XTA   HL4155650  31.058   3.817   1.252
    1XTA    CO855651  32.389   2.865  -0.034
    1XTA    CO955652  32.274   2.803   0.187
    1XTA    OA655653  32.184   2.807   0.122
    1XTA   HL4255654  32.426   2.969  -0.020
    1XTA   HL4355655  32.261   2.873  -0.096
    1XTA   HL4455656  31.200   4.225   1.325
    1XTA   HL4555657  31.101   4.142   1.430
    1XTA   CO1055658  31.152   4.128   1.334
    1XTA   CO1155659  31.367   4.055   1.442
    1XTA    OA755660  31.401   4.190   1.410
    1XTA   HL4655661  31.316   4.071   1.535
    1XTA   HL4755662  31.450   3.978   1.470
    1XTA   HL4855663  32.277   2.897   0.245
    1XTA   HL4955664  32.271   2.724   0.254
    1XTA     NT55665  26.716   2.505   4.122
    1XTA    CN155666  26.735   2.405   4.210
    1XTA     C155667  26.785   2.282   4.169
    1XTA     C255668  26.789   2.170   4.256
    1XTA     C355669  26.756   2.176   4.390
    1XTA     C455670  26.713   2.300   4.435
    1XTA     C555671  26.707   2.414   4.350
    1XTA    CN255672  26.739   2.631   4.154
    1XTA     C655673  26.636   2.725   4.151
    1XTA     C755674  26.657   2.866   4.157
    1XTA     C855675  26.793   2.912   4.166
    1XTA     C955676  26.899   2.813   4.172
    1XTA    C1055677  26.869   2.677   4.162
    1XTA    CN355678  26.665   2.473   4.002
    1XTA    C1155679  26.732   2.511   3.885
    1XTA    C1255680  26.683   2.477   3.757
    1XTA    C1355681  26.570   2.392   3.748
    1XTA    C1455682  26.506   2.347   3.862
    1XTA    C1555683  26.548   2.400   3.984
    1XTA     H155684  26.806   2.267   4.066
    1XTA     H255685  26.830   2.080   4.221
    1XTA     H355686  26.657   2.311   4.528
    1XTA     H455687  26.679   2.510   4.390
    1XTA     H555688  26.537   2.684   4.137
    1XTA     H655689  26.570   2.936   4.150
    1XTA     H755690  27.002   2.854   4.187
    1XTA     H855691  26.949   2.609   4.149
    1XTA     H955692  26.819   2.568   3.891
    1XTA    H1055693  26.734   2.501   3.666
    1XTA    H1155694  26.424   2.280   3.867
    1XTA    H1255695  26.487   2.376   4.073
    1XTA    OA155696  26.750   2.075   4.479
    1XTA    CO155697  26.752   1.948   4.423
    1XTA    OA255698  26.829   3.043   4.160
    1XTA    CO255699  26.722   3.128   4.145
    1XTA    CL155700  26.776   3.276   4.156
    1XTA    CL255701  26.678   3.379   4.098
    1XTA    CL355702  26.565   3.403   4.196
    1XTA    CL455703  26.440   3.464   4.127
    1XTA    CO355704  26.330   3.515   4.231
    1XTA    OA355705  26.270   3.423   4.311
    1XTA    CO455706  26.336   3.406   4.437
    1XTA    CT155707  26.293   3.272   4.491
    1XTA    CL555708  26.141   3.266   4.524
    1XTA    CL655709  26.100   3.366   4.630
    1XTA    OA455710  26.522   2.358   3.626
    1XTA    CO555711  26.580   2.239   3.572
    1XTA    CL755712  26.457   2.170   3.506
    1XTA    CL855713  26.360   2.102   3.610
    1XTA    CL955714  26.415   1.964   3.636
    1XTA   CL1055715  26.343   1.888   3.743
    1XTA    CO655716  26.401   1.746   3.752
    1XTA    OA555717  26.351   1.657   3.650
    1XTA    CO755718  26.214   1.610   3.669
    1XTA    CT255719  26.162   1.544   3.546
    1XTA   CL1155720  26.263   1.439   3.486
    1XTA   CL1255721  26.291   1.329   3.583
    1XTA    HL155722  26.852   1.926   4.396
    1XTA    HL255723  26.718   1.877   4.494
    1XTA    HL355724  26.693   1.948   4.331
    1XTA    HL455725  26.679   3.114   4.045
    1XTA    HL555726  26.644   3.114   4.218
    1XTA    HL655727  26.881   3.288   4.119
    1XTA    HL755728  26.783   3.305   4.258
    1XTA    HL855729  26.646   3.343   4.001
    1XTA    HL955730  26.721   3.472   4.080
    1XTA   HL1055731  26.543   3.311   4.254
    1XTA   HL1155732  26.589   3.485   4.267
    1XTA   HL1255733  26.399   3.397   4.049
    1XTA   HL1355734  26.464   3.551   4.060
    1XTA   HL1455735  26.376   3.600   4.283
    1XTA   HL1555736  26.255   3.556   4.169
    1XTA   HL1655737  26.443   3.412   4.420
    1XTA   HL1755738  26.317   3.490   4.503
    1XTA   HL1855739  26.106   3.162   4.558
    1XTA   HL1955740  26.096   3.297   4.432
    1XTA   HL2055741  26.148   3.461   4.614
    1XTA   HL2155742  26.121   3.339   4.732
    1XTA   HL2255743  25.998   3.387   4.611
    1XTA   HL2355744  26.629   2.174   3.640
    1XTA   HL2455745  26.647   2.251   3.482
    1XTA   HL2555746  26.400   2.243   3.448
    1XTA   HL2655747  26.492   2.097   3.433
    1XTA   HL2755748  26.351   2.143   3.712
    1XTA   HL2855749  26.253   2.115   3.577
    1XTA   HL2955750  26.406   1.903   3.540
    1XTA   HL3055751  26.520   1.963   3.652
    1XTA   HL3155752  26.362   1.942   3.834
    1XTA   HL3255753  26.236   1.888   3.732
    1XTA   HL3355754  26.506   1.774   3.735
    1XTA   HL3455755  26.402   1.696   3.847
    1XTA   HL3555756  26.159   1.697   3.693
    1XTA   HL3655757  26.196   1.544   3.752
    1XTA   HL3755758  26.365   1.480   3.469
    1XTA   HL3855759  26.228   1.403   3.391
    1XTA   HL3955760  26.377   1.282   3.551
    1XTA   HL4055761  26.211   1.260   3.600
    1XTA   HL4155762  26.316   1.368   3.684
    1XTA    CO855763  26.379   3.242   4.615
    1XTA    CO955764  26.325   3.154   4.399
    1XTA    OA655765  26.270   3.034   4.451
    1XTA   HL4255766  26.348   3.320   4.686
    1XTA   HL4355767  26.346   3.147   4.666
    1XTA   HL4455768  26.127   1.747   3.484
    1XTA   HL4555769  26.194   1.641   3.356
    1XTA   CO1055770  26.132   1.648   3.441
    1XTA   CO1155771  26.026   1.485   3.544
    1XTA    OA755772  26.014   1.569   3.430
    1XTA   HL4655773  26.010   1.384   3.507
    1XTA   HL4755774  25.962   1.511   3.630
    1XTA   HL4855775  26.432   3.148   4.392
    1XTA   HL4955776  26.280   3.169   4.303
    1XTA     NT55777  27.559   4.420   0.234
    1XTA    CN155778  27.581   4.524   0.315
    1XTA     C155779  27.614   4.653   0.267
    1XTA     C255780  27.644   4.756   0.358
    1XTA     C355781  27.639   4.740   0.498
    1XTA     C455782  27.599   4.613   0.541
    1XTA     C555783  27.568   4.500   0.454
    1XTA    CN255784  27.432   4.391   0.206
    1XTA     C655785  27.350   4.455   0.114
    1XTA     C755786  27.210   4.420   0.094
    1XTA     C855787  27.153   4.315   0.174
    1XTA     C955788  27.238   4.249   0.261
    1XTA    C1055789  27.377   4.283   0.271
    1XTA    CN355790  27.656   4.369   0.157
    1XTA    C1155791  27.721   4.254   0.195
    1XTA    C1255792  27.808   4.193   0.105
    1XTA    C1355793  27.841   4.244  -0.023
    1XTA    C1455794  27.795   4.376  -0.053
    1XTA    C1555795  27.699   4.431   0.034
    1XTA     H155796  27.622   4.681   0.162
    1XTA     H255797  27.658   4.861   0.330
    1XTA     H355798  27.598   4.594   0.646
    1XTA     H455799  27.554   4.394   0.485
    1XTA     H555800  27.388   4.536   0.055
    1XTA     H655801  27.156   4.480   0.025
    1XTA     H755802  27.199   4.167   0.312
    1XTA     H855803  27.418   4.235   0.361
    1XTA     H955804  27.690   4.202   0.285
    1XTA    H1055805  27.852   4.098   0.136
    1XTA    H1155806  27.811   4.422  -0.152
    1XTA    H1255807  27.646   4.515  -0.014
    1XTA    OA155808  27.687   4.849   0.568
    1XTA    CO155809  27.645   4.859   0.705
    1XTA    OA255810  27.017   4.272   0.171
    1XTA    CO255811  26.949   4.287   0.044
    1XTA    CL155812  26.801   4.313   0.074
    1XTA    CL255813  26.716   4.336  -0.061
    1XTA    CL355814  26.560   4.350  -0.041
    1XTA    CL455815  26.485   4.332  -0.172
    1XTA    CO355816  26.501   4.186  -0.214
    1XTA    OA355817  26.498   4.098  -0.100
    1XTA    CO455818  26.507   3.964  -0.136
    1XTA    CT155819  26.560   3.869  -0.028
    1XTA    CL555820  26.539   3.714  -0.052
    1XTA    CL655821  26.398   3.667  -0.046
    1XTA    OA455822  27.915   4.160  -0.104
    1XTA    CO555823  27.960   4.209  -0.231
    1XTA    CL755824  28.003   4.084  -0.314
    1XTA    CL855825  27.888   3.986  -0.329
    1XTA    CL955826  27.794   4.025  -0.439
    1XTA   CL1055827  27.689   3.920  -0.454
    1XTA    CO655828  27.592   3.949  -0.570
    1XTA    OA555829  27.507   3.837  -0.584
    1XTA    CO755830  27.403   3.830  -0.491
    1XTA    CT255831  27.286   3.763  -0.565
    1XTA   CL1155832  27.242   3.855  -0.680
    1XTA   CL1255833  27.120   3.803  -0.751
    1XTA    HL155834  27.678   4.957   0.729
    1XTA    HL255835  27.542   4.854   0.726
    1XTA    HL355836  27.704   4.792   0.774
    1XTA    HL455837  26.994   4.368  -0.015
    1XTA    HL555838  26.957   4.193  -0.018
    1XTA    HL655839  26.782   4.392   0.147
    1XTA    HL755840  26.774   4.217   0.130
    1XTA    HL855841  26.736   4.257  -0.133
    1XTA    HL955842  26.751   4.433  -0.099
    1XTA   HL1055843  26.514   4.285   0.034
    1XTA   HL1155844  26.533   4.449  -0.014
    1XTA   HL1255845  26.521   4.398  -0.247
    1XTA   HL1355846  26.383   4.350  -0.158
    1XTA   HL1455847  26.417   4.172  -0.289
    1XTA   HL1555848  26.589   4.192  -0.277
    1XTA   HL1655849  26.412   3.924  -0.177
    1XTA   HL1755850  26.581   3.945  -0.218
    1XTA   HL1855851  26.596   3.660   0.027
    1XTA   HL1955852  26.595   3.686  -0.146
    1XTA   HL2055853  26.347   3.684  -0.136
    1XTA   HL2155854  26.348   3.725   0.034
    1XTA   HL2255855  26.389   3.561  -0.015
    1XTA   HL2355856  28.042   4.281  -0.214
    1XTA   HL2455857  27.884   4.263  -0.290
    1XTA   HL2555858  28.055   4.111  -0.410
    1XTA   HL2655859  28.072   4.045  -0.247
    1XTA   HL2755860  27.921   3.885  -0.355
    1XTA   HL2855861  27.850   3.967  -0.226
    1XTA   HL2955862  27.754   4.117  -0.415
    1XTA   HL3055863  27.850   4.039  -0.532
    1XTA   HL3155864  27.728   3.824  -0.474
    1XTA   HL3255865  27.632   3.909  -0.362
    1XTA   HL3355866  27.536   4.044  -0.562
    1XTA   HL3455867  27.645   3.952  -0.654
    1XTA   HL3555868  27.377   3.929  -0.466
    1XTA   HL3655869  27.438   3.771  -0.400
    1XTA   HL3755870  27.323   3.879  -0.750
    1XTA   HL3855871  27.218   3.957  -0.638
    1XTA   HL3955872  27.131   3.697  -0.781
    1XTA   HL4055873  27.081   3.878  -0.820
    1XTA   HL4155874  27.037   3.797  -0.681
    1XTA    CO855875  26.505   3.910   0.107
    1XTA    CO955876  26.715   3.897  -0.030
    1XTA    OA655877  26.548   3.849   0.193
    1XTA   HL4255878  26.393   3.915   0.108
    1XTA   HL4355879  26.527   4.015   0.117
    1XTA   HL4455880  27.096   3.659  -0.511
    1XTA   HL4555881  27.205   3.673  -0.380
    1XTA   CO1055882  27.170   3.727  -0.467
    1XTA   CO1155883  27.332   3.636  -0.632
    1XTA    OA755884  27.108   3.843  -0.411
    1XTA   HL4655885  27.407   3.597  -0.572
    1XTA   HL4755886  27.396   3.657  -0.719
    1XTA   HL4855887  26.764   3.819   0.073
    1XTA   HL4955888  26.726   3.999   0.013
    1XTA     NT55889  34.773   0.828   1.357
    1XTA    CN155890  34.645   0.820   1.397
    1XTA     C155891  34.587   0.705   1.446
    1XTA     C255892  34.445   0.702   1.468
    1XTA     C355893  34.377   0.829   1.466
    1XTA     C455894  34.440   0.946   1.418
    1XTA     C555895  34.577   0.942   1.387
    1XTA    CN255896  34.872   0.805   1.443
    1XTA     C655897  34.933   0.920   1.504
    1XTA     C755898  35.025   0.902   1.604
    1XTA     C855899  35.073   0.773   1.635
    1XTA     C955900  35.024   0.668   1.559
    1XTA    C1055901  34.925   0.678   1.463
    1XTA    CN355902  34.795   0.821   1.222
    1XTA    C1155903  34.874   0.914   1.156
    1XTA    C1255904  34.891   0.905   1.013
    1XTA    C1355905  34.841   0.798   0.939
    1XTA    C1455906  34.763   0.702   1.011
    1XTA    C1555907  34.735   0.719   1.150
    1XTA     H155908  34.641   0.612   1.456
    1XTA     H255909  34.396   0.612   1.502
    1XTA     H355910  34.381   1.032   1.390
    1XTA     H455911  34.616   1.028   1.340
    1XTA     H555912  34.897   1.016   1.471
    1XTA     H655913  35.056   0.995   1.651
    1XTA     H755914  35.054   0.562   1.578
    1XTA     H855915  34.895   0.602   1.398
    1XTA     H955916  34.916   0.999   1.205
    1XTA    H1055917  34.968   0.972   0.969
    1XTA    H1155918  34.713   0.620   0.957
    1XTA    H1255919  34.673   0.642   1.201
    1XTA    OA155920  34.242   0.831   1.486
    1XTA    CO155921  34.194   0.953   1.541
    1XTA    OA255922  35.174   0.745   1.727
    1XTA    CO255923  35.183   0.820   1.847
    1XTA    CL155924  35.103   0.735   1.948
    1XTA    CL255925  35.107   0.781   2.088
    1XTA    CL355926  35.005   0.704   2.181
    1XTA    CL455927  35.009   0.747   2.333
    1XTA    CO355928  35.145   0.759   2.400
    1XTA    OA355929  35.204   0.632   2.427
    1XTA    CO455930  35.336   0.635   2.480
    1XTA    CT155931  35.345   0.500   2.572
    1XTA    CL555932  35.252   0.518   2.695
    1XTA    CL655933  35.110   0.572   2.679
    1XTA    OA455934  34.854   0.785   0.808
    1XTA    CO555935  34.946   0.869   0.729
    1XTA    CL755936  34.947   0.810   0.587
    1XTA    CL855937  35.022   0.898   0.485
    1XTA    CL955938  35.171   0.851   0.443
    1XTA   CL1055939  35.277   0.884   0.552
    1XTA    CO655940  35.419   0.889   0.487
    1XTA    OA555941  35.517   0.918   0.588
    1XTA    CO755942  35.516   0.822   0.693
    1XTA    CT255943  35.638   0.837   0.781
    1XTA   CL1155944  35.771   0.785   0.727
    1XTA   CL1255945  35.825   0.859   0.608
    1XTA    HL155946  34.172   1.017   1.456
    1XTA    HL255947  34.106   0.940   1.603
    1XTA    HL355948  34.278   1.002   1.608
    1XTA    HL455949  35.284   0.836   1.889
    1XTA    HL555950  35.132   0.917   1.849
    1XTA    HL655951  35.147   0.633   1.943
    1XTA    HL755952  35.002   0.726   1.913
    1XTA    HL855953  35.098   0.890   2.100
    1XTA    HL955954  35.198   0.766   2.132
    1XTA   HL1055955  34.911   0.727   2.147
    1XTA   HL1155956  35.024   0.603   2.172
    1XTA   HL1255957  34.943   0.680   2.385
    1XTA   HL1355958  34.967   0.850   2.340
    1XTA   HL1455959  35.200   0.821   2.333
    1XTA   HL1555960  35.134   0.818   2.492
    1XTA   HL1655961  35.421   0.617   2.409
    1XTA   HL1755962  35.350   0.735   2.537
    1XTA   HL1855963  35.312   0.587   2.759
    1XTA   HL1955964  35.251   0.419   2.742
    1XTA   HL2055965  35.050   0.514   2.620
    1XTA   HL2155966  35.103   0.674   2.651
    1XTA   HL2255967  35.065   0.558   2.778
    1XTA   HL2355968  35.050   0.866   0.775
    1XTA   HL2455969  34.919   0.976   0.738
    1XTA   HL2555970  34.994   0.709   0.603
    1XTA   HL2655971  34.841   0.795   0.540
    1XTA   HL2755972  34.960   0.892   0.393
    1XTA   HL2855973  35.036   1.002   0.507
    1XTA   HL2955974  35.172   0.751   0.401
    1XTA   HL3055975  35.198   0.905   0.354
    1XTA   HL3155976  35.263   0.980   0.593
    1XTA   HL3255977  35.263   0.814   0.639
    1XTA   HL3355978  35.443   0.810   0.429
    1XTA   HL3455979  35.418   0.986   0.428
    1XTA   HL3555980  35.501   0.722   0.654
    1XTA   HL3655981  35.426   0.840   0.762
    1XTA   HL3755982  35.760   0.683   0.699
    1XTA   HL3855983  35.842   0.796   0.809
    1XTA   HL3955984  35.766   0.863   0.514
    1XTA   HL4055985  35.931   0.826   0.585
    1XTA   HL4155986  35.840   0.965   0.634
    1XTA    CO855987  35.493   0.484   2.621
    1XTA    CO955988  35.299   0.379   2.489
    1XTA    OA655989  35.532   0.578   2.664
    1XTA   HL4255990  35.554   0.454   2.530
    1XTA   HL4355991  35.489   0.397   2.693
    1XTA   HL4455992  35.582   0.653   0.864
    1XTA   HL4555993  35.689   0.748   0.976
    1XTA   CO1055994  35.602   0.753   0.906
    1XTA   CO1155995  35.649   0.983   0.826
    1XTA    OA755996  35.491   0.803   0.980
    1XTA   HL4655997  35.558   1.009   0.880
    1XTA   HL4755998  35.665   1.050   0.743
    1XTA   HL4855999  35.329   0.267   2.571
    1XTA   HL4956000  35.192   0.379   2.474
    1XTA     NT56001  28.401   3.628   4.112
    1XTA    CN156002  28.495   3.663   4.205
    1XTA     C156003  28.630   3.664   4.173
    1XTA     C256004  28.725   3.694   4.275
    1XTA     C356005  28.689   3.716   4.402
    1XTA     C456006  28.557   3.706   4.442
    1XTA     C556007  28.462   3.678   4.345
    1XTA    CN256008  28.380   3.495   4.084
    1XTA     C656009  28.345   3.466   3.949
    1XTA     C756010  28.319   3.338   3.912
    1XTA     C856011  28.304   3.236   4.014
    1XTA     C956012  28.343   3.271   4.145
    1XTA    C1056013  28.368   3.397   4.185
    1XTA    CN356014  28.312   3.726   4.072
    1XTA    C1156015  28.351   3.838   3.996
    1XTA    C1256016  28.260   3.943   3.959
    1XTA    C1356017  28.124   3.927   3.983
    1XTA    C1456018  28.084   3.810   4.050
    1XTA    C1556019  28.174   3.714   4.096
    1XTA     H156020  28.674   3.642   4.075
    1XTA     H256021  28.822   3.706   4.259
    1XTA     H356022  28.518   3.725   4.538
    1XTA     H456023  28.354   3.678   4.360
    1XTA     H556024  28.348   3.547   3.874
    1XTA     H656025  28.302   3.322   3.809
    1XTA     H756026  28.329   3.198   4.223
    1XTA     H856027  28.377   3.417   4.295
    1XTA     H956028  28.453   3.856   3.968
    1XTA    H1056029  28.288   4.037   3.909
    1XTA    H1156030  27.988   3.794   4.085
    1XTA    H1256031  28.156   3.628   4.157
    1XTA    OA156032  28.785   3.772   4.491
    1XTA    CO156033  28.743   3.815   4.623
    1XTA    OA256034  28.260   3.113   3.978
    1XTA    CO256035  28.230   3.007   4.075
    1XTA    CL156036  28.091   3.038   4.127
    1XTA    CL256037  28.030   2.934   4.225
    1XTA    CL356038  27.916   2.993   4.308
    1XTA    CL456039  27.853   2.901   4.411
    1XTA    CO356040  27.739   2.965   4.487
    1XTA    OA356041  27.646   2.858   4.507
    1XTA    CO456042  27.528   2.893   4.576
    1XTA    CT156043  27.423   2.772   4.552
    1XTA    CL556044  27.401   2.748   4.399
    1XTA    CL656045  27.318   2.853   4.335
    1XTA    OA456046  28.033   4.029   3.965
    1XTA    CO556047  28.086   4.158   3.999
    1XTA    CL756048  27.977   4.264   3.987
    1XTA    CL856049  27.868   4.253   4.102
    1XTA    CL956050  27.778   4.134   4.113
    1XTA   CL1056051  27.661   4.136   4.014
    1XTA    CO656052  27.536   4.067   4.059
    1XTA    OA556053  27.467   4.143   4.154
    1XTA    CO756054  27.446   4.082   4.282
    1XTA    CT256055  27.409   4.186   4.394
    1XTA   CL1156056  27.395   4.118   4.535
    1XTA   CL1256057  27.529   4.095   4.612
    1XTA    HL156058  28.693   3.731   4.678
    1XTA    HL256059  28.829   3.839   4.685
    1XTA    HL356060  28.675   3.900   4.599
    1XTA    HL456061  28.217   2.912   4.024
    1XTA    HL556062  28.303   2.991   4.153
    1XTA    HL656063  28.033   3.069   4.042
    1XTA    HL756064  28.101   3.128   4.183
    1XTA    HL856065  28.109   2.898   4.286
    1XTA    HL956066  27.995   2.845   4.169
    1XTA   HL1056067  27.947   3.083   4.353
    1XTA   HL1156068  27.844   3.021   4.233
    1XTA   HL1256069  27.933   2.857   4.472
    1XTA   HL1356070  27.807   2.820   4.356
    1XTA   HL1456071  27.773   3.011   4.581
    1XTA   HL1556072  27.681   3.035   4.426
    1XTA   HL1656073  27.533   2.922   4.681
    1XTA   HL1756074  27.477   2.983   4.535
    1XTA   HL1856075  27.345   2.656   4.386
    1XTA   HL1956076  27.500   2.740   4.339
    1XTA   HL2056077  27.307   2.830   4.233
    1XTA   HL2156078  27.365   2.958   4.331
    1XTA   HL2256079  27.216   2.853   4.364
    1XTA   HL2356080  28.170   4.185   3.935
    1XTA   HL2456081  28.133   4.152   4.097
    1XTA   HL2556082  28.026   4.357   3.971
    1XTA   HL2656083  27.913   4.244   3.895
    1XTA   HL2756084  27.918   4.267   4.191
    1XTA   HL2856085  27.808   4.345   4.096
    1XTA   HL2956086  27.826   4.034   4.124
    1XTA   HL3056087  27.736   4.147   4.211
    1XTA   HL3156088  27.636   4.233   3.973
    1XTA   HL3256089  27.704   4.109   3.916
    1XTA   HL3356090  27.467   4.048   3.971
    1XTA   HL3456091  27.557   3.964   4.088
    1XTA   HL3556092  27.551   4.043   4.308
    1XTA   HL3656093  27.384   3.986   4.274
    1XTA   HL3756094  27.349   4.020   4.516
    1XTA   HL3856095  27.316   4.165   4.593
    1XTA   HL3956096  27.572   4.189   4.642
    1XTA   HL4056097  27.612   4.055   4.551
    1XTA   HL4156098  27.514   4.029   4.698
    1XTA    CO856099  27.288   2.813   4.626
    1XTA    CO956100  27.489   2.646   4.627
    1XTA    OA656101  27.218   2.730   4.622
    1XTA   HL4256102  27.251   2.911   4.591
    1XTA   HL4356103  27.322   2.821   4.727
    1XTA   HL4456104  27.260   4.331   4.401
    1XTA   HL4556105  27.279   4.257   4.238
    1XTA   CO1056106  27.273   4.236   4.347
    1XTA   CO1156107  27.509   4.305   4.398
    1XTA    OA756108  27.182   4.180   4.366
    1XTA   HL4656109  27.541   4.347   4.260
    1XTA   HL4756110  27.610   4.272   4.435
    1XTA   HL4856111  27.624   2.662   4.665
    1XTA   HL4956112  27.432   2.625   4.718
    1XTA     NT56113  28.449   3.224   2.235
    1XTA    CN156114  28.551   3.194   2.150
    1XTA     C156115  28.579   3.256   2.028
    1XTA     C256116  28.688   3.227   1.951
    1XTA     C356117  28.783   3.137   2.001
    1XTA     C456118  28.757   3.064   2.124
    1XTA     C556119  28.639   3.097   2.195
    1XTA    CN256120  28.460   3.344   2.307
    1XTA     C656121  28.434   3.348   2.447
    1XTA     C756122  28.464   3.469   2.522
    1XTA     C856123  28.497   3.592   2.458
    1XTA     C956124  28.519   3.596   2.320
    1XTA    C1056125  28.492   3.471   2.248
    1XTA    CN356126  28.325   3.197   2.193
    1XTA    C1156127  28.267   3.276   2.090
    1XTA    C1256128  28.139   3.240   2.052
    1XTA    C1356129  28.069   3.127   2.102
    1XTA    C1456130  28.121   3.050   2.206
    1XTA    C1556131  28.247   3.094   2.254
    1XTA     H156132  28.505   3.328   2.003
    1XTA     H256133  28.697   3.281   1.864
    1XTA     H356134  28.838   3.000   2.152
    1XTA     H456135  28.617   3.056   2.294
    1XTA     H556136  28.399   3.260   2.498
    1XTA     H656137  28.445   3.471   2.628
    1XTA     H756138  28.545   3.688   2.274
    1XTA     H856139  28.493   3.477   2.143
    1XTA     H956140  28.320   3.361   2.039
    1XTA    H1056141  28.108   3.291   1.962
    1XTA    H1156142  28.065   2.964   2.240
    1XTA    H1256143  28.294   3.042   2.333
    1XTA    OA156144  28.909   3.124   1.948
    1XTA    CO156145  28.938   3.216   1.839
    1XTA    OA256146  28.512   3.705   2.539
    1XTA    CO256147  28.525   3.835   2.480
    1XTA    CL156148  28.520   3.950   2.578
    1XTA    CL256149  28.531   4.079   2.497
    1XTA    CL356150  28.451   4.188   2.562
    1XTA    CL456151  28.487   4.225   2.707
    1XTA    CO356152  28.625   4.296   2.723
    1XTA    OA356153  28.629   4.313   2.860
    1XTA    CO456154  28.755   4.325   2.914
    1XTA    CT156155  28.749   4.324   3.071
    1XTA    CL556156  28.661   4.441   3.115
    1XTA    CL656157  28.647   4.467   3.268
    1XTA    OA456158  27.944   3.091   2.052
    1XTA    CO556159  27.888   3.179   1.953
    1XTA    CL756160  27.735   3.152   1.955
    1XTA    CL856161  27.676   3.201   1.814
    1XTA    CL956162  27.632   3.352   1.816
    1XTA   CL1056163  27.520   3.391   1.913
    1XTA    CO656164  27.387   3.348   1.862
    1XTA    OA556165  27.289   3.398   1.957
    1XTA    CO756166  27.288   3.322   2.076
    1XTA    CT256167  27.141   3.302   2.105
    1XTA   CL1156168  27.106   3.214   2.224
    1XTA   CL1256169  27.141   3.271   2.361
    1XTA    HL156170  29.035   3.184   1.813
    1XTA    HL256171  28.874   3.191   1.747
    1XTA    HL356172  28.944   3.324   1.871
    1XTA    HL456173  28.616   3.822   2.419
    1XTA    HL556174  28.446   3.845   2.408
    1XTA    HL656175  28.590   3.955   2.656
    1XTA    HL756176  28.423   3.937   2.617
    1XTA    HL856177  28.495   4.056   2.399
    1XTA    HL956178  28.638   4.106   2.488
    1XTA   HL1056179  28.454   4.275   2.502
    1XTA   HL1156180  28.340   4.159   2.568
    1XTA   HL1256181  28.494   4.135   2.763
    1XTA   HL1356182  28.405   4.276   2.754
    1XTA   HL1456183  28.707   4.229   2.691
    1XTA   HL1556184  28.653   4.391   2.674
    1XTA   HL1656185  28.821   4.249   2.879
    1XTA   HL1756186  28.779   4.422   2.876
    1XTA   HL1856187  28.562   4.433   3.065
    1XTA   HL1956188  28.685   4.532   3.069
    1XTA   HL2056189  28.743   4.514   3.302
    1XTA   HL2156190  28.631   4.382   3.333
    1XTA   HL2256191  28.579   4.557   3.286
    1XTA   HL2356192  27.931   3.145   1.863
    1XTA   HL2456193  27.907   3.288   1.975
    1XTA   HL2556194  27.713   3.054   1.969
    1XTA   HL2656195  27.686   3.206   2.034
    1XTA   HL2756196  27.731   3.163   1.730
    1XTA   HL2856197  27.584   3.145   1.795
    1XTA   HL2956198  27.718   3.424   1.840
    1XTA   HL3056199  27.611   3.380   1.718
    1XTA   HL3156200  27.539   3.350   2.013
    1XTA   HL3256201  27.512   3.502   1.940
    1XTA   HL3356202  27.363   3.391   1.767
    1XTA   HL3456203  27.370   3.241   1.843
    1XTA   HL3556204  27.346   3.377   2.150
    1XTA   HL3656205  27.344   3.231   2.070
    1XTA   HL3756206  27.148   3.115   2.209
    1XTA   HL3856207  26.992   3.196   2.217
    1XTA   HL3956208  27.251   3.300   2.358
    1XTA   HL4056209  27.107   3.195   2.435
    1XTA   HL4156210  27.095   3.368   2.373
    1XTA    CO856211  28.893   4.336   3.128
    1XTA    CO956212  28.700   4.196   3.129
    1XTA    OA656213  28.793   4.098   3.099
    1XTA   HL4256214  28.894   4.336   3.238
    1XTA   HL4356215  28.969   4.262   3.097
    1XTA   HL4456216  26.978   3.194   1.991
    1XTA   HL4556217  27.101   3.275   1.894
    1XTA   CO1056218  27.084   3.220   1.982
    1XTA   CO1156219  27.062   3.439   2.117
    1XTA    OA756220  27.162   3.095   1.971
    1XTA   HL4656221  26.957   3.422   2.141
    1XTA   HL4756222  27.056   3.481   2.016
    1XTA   HL4856223  28.600   4.166   3.082
    1XTA   HL4956224  28.703   4.210   3.244
    1XTA     NT56225  26.819   3.219   5.413
    1XTA    CN156226  26.940   3.166   5.435
    1XTA     C156227  27.058   3.219   5.380
    1XTA     C256228  27.179   3.159   5.402
    1XTA     C356229  27.188   3.042   5.487
    1XTA     C456230  27.069   2.990   5.538
    1XTA     C556231  26.948   3.053   5.520
    1XTA    CN256232  26.749   3.155   5.314
    1XTA     C656233  26.671   3.043   5.340
    1XTA     C756234  26.597   2.977   5.235
    1XTA     C856235  26.590   3.038   5.108
    1XTA     C956236  26.667   3.152   5.084
    1XTA    C1056237  26.747   3.205   5.187
    1XTA    CN356238  26.760   3.306   5.501
    1XTA    C1156239  26.815   3.431   5.533
    1XTA    C1256240  26.760   3.523   5.627
    1XTA    C1356241  26.657   3.475   5.712
    1XTA    C1456242  26.606   3.343   5.688
    1XTA    C1556243  26.654   3.259   5.585
    1XTA     H156244  27.052   3.304   5.310
    1XTA     H256245  27.269   3.201   5.366
    1XTA     H356246  27.067   2.892   5.590
    1XTA     H456247  26.858   3.016   5.573
    1XTA     H556248  26.661   3.007   5.444
    1XTA     H656249  26.538   2.893   5.258
    1XTA     H756250  26.665   3.200   4.992
    1XTA     H856251  26.800   3.299   5.169
    1XTA     H956252  26.903   3.462   5.473
    1XTA    H1056253  26.810   3.619   5.646
    1XTA    H1156254  26.530   3.307   5.747
    1XTA    H1256255  26.624   3.151   5.568
    1XTA    OA156256  27.309   2.978   5.510
    1XTA    CO156257  27.424   3.040   5.468
    1XTA    OA256258  26.511   2.992   5.005
    1XTA    CO256259  26.472   2.854   5.004
    1XTA    CL156260  26.457   2.820   4.851
    1XTA    CL256261  26.583   2.858   4.771
    1XTA    CL356262  26.550   2.873   4.626
    1XTA    CL456263  26.661   2.938   4.543
    1XTA    CO356264  26.760   2.839   4.492
    1XTA    OA356265  26.818   2.764   4.597
    1XTA    CO456266  26.912   2.673   4.546
    1XTA    CT156267  26.995   2.635   4.672
    1XTA    CL556268  27.069   2.507   4.639
    1XTA    CL656269  27.173   2.450   4.737
    1XTA    OA456270  26.599   3.561   5.796
    1XTA    CO556271  26.508   3.502   5.890
    1XTA    CL756272  26.488   3.607   5.993
    1XTA    CL856273  26.611   3.624   6.091
    1XTA    CL956274  26.631   3.532   6.215
    1XTA   CL1056275  26.523   3.571   6.317
    1XTA    CO656276  26.549   3.525   6.460
    1XTA    OA556277  26.453   3.565   6.553
    1XTA    CO756278  26.505   3.596   6.684
    1XTA    CT256279  26.399   3.575   6.788
    1XTA   CL1156280  26.454   3.607   6.928
    1XTA   CL1256281  26.493   3.754   6.960
    1XTA    HL156282  27.433   3.047   5.359
    1XTA    HL256283  27.421   3.144   5.514
    1XTA    HL356284  27.520   2.998   5.519
    1XTA    HL456285  26.552   2.796   5.055
    1XTA    HL556286  26.373   2.843   5.041
    1XTA    HL656287  26.375   2.888   4.829
    1XTA    HL756288  26.434   2.722   4.828
    1XTA    HL856289  26.646   2.775   4.784
    1XTA    HL956290  26.636   2.943   4.805
    1XTA   HL1056291  26.512   2.778   4.584
    1XTA   HL1156292  26.467   2.944   4.616
    1XTA   HL1256293  26.712   3.013   4.596
    1XTA   HL1356294  26.607   2.981   4.455
    1XTA   HL1456295  26.699   2.773   4.429
    1XTA   HL1556296  26.834   2.885   4.424
    1XTA   HL1656297  26.851   2.590   4.501
    1XTA   HL1756298  26.973   2.704   4.463
    1XTA   HL1856299  27.117   2.510   4.541
    1XTA   HL1956300  26.995   2.429   4.617
    1XTA   HL2056301  27.131   2.405   4.830
    1XTA   HL2156302  27.251   2.517   4.762
    1XTA   HL2256303  27.228   2.360   4.696
    1XTA   HL2356304  26.541   3.408   5.940
    1XTA   HL2456305  26.410   3.482   5.841
    1XTA   HL2556306  26.476   3.705   5.933
    1XTA   HL2656307  26.397   3.596   6.045
    1XTA   HL2756308  26.708   3.607   6.040
    1XTA   HL2856309  26.603   3.724   6.131
    1XTA   HL2956310  26.619   3.426   6.189
    1XTA   HL3056311  26.730   3.546   6.263
    1XTA   HL3156312  26.517   3.684   6.313
    1XTA   HL3256313  26.426   3.542   6.280
    1XTA   HL3356314  26.571   3.424   6.459
    1XTA   HL3456315  26.648   3.568   6.492
    1XTA   HL3556316  26.530   3.700   6.672
    1XTA   HL3656317  26.596   3.549   6.706
    1XTA   HL3756318  26.540   3.539   6.929
    1XTA   HL3856319  26.390   3.560   7.004
    1XTA   HL3956320  26.533   3.812   6.876
    1XTA   HL4056321  26.571   3.747   7.035
    1XTA   HL4156322  26.404   3.801   7.005
    1XTA    CO856323  26.890   2.619   4.791
    1XTA    CO956324  27.102   2.749   4.702
    1XTA    OA656325  26.798   2.516   4.762
    1XTA   HL4256326  26.831   2.716   4.807
    1XTA   HL4356327  26.932   2.601   4.889
    1XTA   HL4456328  26.279   3.405   6.851
    1XTA   HL4556329  26.295   3.426   6.684
    1XTA   CO1056330  26.357   3.430   6.773
    1XTA   CO1156331  26.277   3.663   6.759
    1XTA    OA756332  26.433   3.349   6.779
    1XTA   HL4656333  26.310   3.793   6.790
    1XTA   HL4756334  26.221   3.650   6.851
    1XTA   HL4856335  27.047   2.840   4.684
    1XTA   HL4956336  27.124   2.743   4.804
    1XTA     NT56337  26.787  -0.518   5.149
    1XTA    CN156338  26.823  -0.427   5.238
    1XTA     C156339  26.848  -0.459   5.373
    1XTA     C256340  26.902  -0.364   5.463
    1XTA     C356341  26.929  -0.232   5.425
    1XTA     C456342  26.910  -0.203   5.287
    1XTA     C556343  26.852  -0.298   5.195
    1XTA    CN256344  26.653  -0.527   5.136
    1XTA     C656345  26.594  -0.486   5.016
    1XTA     C756346  26.457  -0.505   4.991
    1XTA     C856347  26.377  -0.575   5.082
    1XTA     C956348  26.443  -0.618   5.198
    1XTA    C1056349  26.575  -0.598   5.232
    1XTA    CN356350  26.877  -0.619   5.120
    1XTA    C1156351  26.867  -0.738   5.191
    1XTA    C1256352  26.944  -0.850   5.156
    1XTA    C1356353  27.026  -0.842   5.051
    1XTA    C1456354  27.044  -0.725   4.981
    1XTA    C1556355  26.971  -0.607   5.015
    1XTA     H156356  26.817  -0.556   5.414
    1XTA     H256357  26.927  -0.385   5.573
    1XTA     H356358  26.936  -0.108   5.248
    1XTA     H456359  26.839  -0.273   5.090
    1XTA     H556360  26.661  -0.431   4.948
    1XTA     H656361  26.409  -0.458   4.910
    1XTA     H756362  26.375  -0.675   5.269
    1XTA     H856363  26.617  -0.652   5.316
    1XTA     H956364  26.811  -0.739   5.282
    1XTA    H1056365  26.946  -0.942   5.208
    1XTA    H1156366  27.108  -0.710   4.896
    1XTA    H1256367  26.981  -0.516   4.959
    1XTA    OA156368  26.986  -0.141   5.511
    1XTA    CO156369  26.898  -0.026   5.523
    1XTA    OA256370  26.240  -0.599   5.072
    1XTA    CO256371  26.181  -0.590   4.936
    1XTA    CL156372  26.051  -0.655   4.918
    1XTA    CL256373  26.012  -0.641   4.767
    1XTA    CL356374  25.866  -0.635   4.749
    1XTA    CL456375  25.801  -0.506   4.804
    1XTA    CO356376  25.663  -0.480   4.741
    1XTA    OA356377  25.603  -0.369   4.801
    1XTA    CO456378  25.643  -0.248   4.736
    1XTA    CT156379  25.574  -0.118   4.790
    1XTA    CL556380  25.433  -0.145   4.846
    1XTA    CL656381  25.321  -0.188   4.744
    1XTA    OA456382  27.111  -0.942   5.031
    1XTA    CO556383  27.194  -0.978   5.143
    1XTA    CL756384  27.303  -0.871   5.168
    1XTA    CL856385  27.384  -0.907   5.296
    1XTA    CL956386  27.296  -0.899   5.429
    1XTA   CL1056387  27.367  -0.863   5.556
    1XTA    CO656388  27.262  -0.835   5.667
    1XTA    OA556389  27.312  -0.753   5.765
    1XTA    CO756390  27.204  -0.682   5.826
    1XTA    CT256391  27.248  -0.605   5.957
    1XTA   CL1156392  27.338  -0.695   6.041
    1XTA   CL1256393  27.347  -0.664   6.193
    1XTA    HL156394  26.793  -0.056   5.537
    1XTA    HL256395  26.928   0.045   5.599
    1XTA    HL356396  26.908   0.024   5.427
    1XTA    HL456397  26.165  -0.488   4.898
    1XTA    HL556398  26.254  -0.629   4.867
    1XTA    HL656399  25.993  -0.598   4.991
    1XTA    HL756400  26.049  -0.762   4.948
    1XTA    HL856401  26.065  -0.721   4.704
    1XTA    HL956402  26.050  -0.556   4.715
    1XTA   HL1056403  25.843  -0.661   4.642
    1XTA   HL1156404  25.833  -0.711   4.817
    1XTA   HL1256405  25.866  -0.423   4.787
    1XTA   HL1356406  25.802  -0.505   4.909
    1XTA   HL1456407  25.672  -0.473   4.633
    1XTA   HL1556408  25.602  -0.569   4.755
    1XTA   HL1656409  25.754  -0.238   4.739
    1XTA   HL1756410  25.623  -0.244   4.622
    1XTA   HL1856411  25.395  -0.057   4.897
    1XTA   HL1956412  25.454  -0.220   4.920
    1XTA   HL2056413  25.234  -0.204   4.808
    1XTA   HL2156414  25.357  -0.283   4.707
    1XTA   HL2256415  25.297  -0.113   4.672
    1XTA   HL2356416  27.227  -1.073   5.113
    1XTA   HL2456417  27.135  -1.009   5.230
    1XTA   HL2556418  27.365  -0.858   5.081
    1XTA   HL2656419  27.272  -0.771   5.185
    1XTA   HL2756420  27.415  -1.012   5.283
    1XTA   HL2856421  27.464  -0.833   5.308
    1XTA   HL2956422  27.220  -0.820   5.414
    1XTA   HL3056423  27.253  -0.992   5.450
    1XTA   HL3156424  27.443  -0.935   5.583
    1XTA   HL3256425  27.426  -0.774   5.532
    1XTA   HL3356426  27.168  -0.792   5.623
    1XTA   HL3456427  27.232  -0.931   5.719
    1XTA   HL3556428  27.135  -0.747   5.880
    1XTA   HL3656429  27.161  -0.618   5.749
    1XTA   HL3756430  27.434  -0.691   5.993
    1XTA   HL3856431  27.311  -0.800   6.025
    1XTA   HL3956432  27.251  -0.655   6.246
    1XTA   HL4056433  27.385  -0.559   6.202
    1XTA   HL4156434  27.420  -0.723   6.247
    1XTA    CO856435  25.560  -0.024   4.673
    1XTA    CO956436  25.663  -0.052   4.896
    1XTA    OA656437  25.660  -0.108   5.022
    1XTA   HL4256438  25.655  -0.020   4.615
    1XTA   HL4356439  25.488  -0.061   4.606
    1XTA   HL4456440  27.164  -0.493   6.112
    1XTA   HL4556441  27.074  -0.469   5.964
    1XTA   CO1056442  27.125  -0.545   6.025
    1XTA   CO1156443  27.324  -0.489   5.888
    1XTA    OA756444  27.401  -0.415   5.982
    1XTA   HL4656445  27.398  -0.528   5.812
    1XTA   HL4756446  27.257  -0.425   5.837
    1XTA   HL4856447  25.622   0.053   4.914
    1XTA   HL4956448  25.764  -0.030   4.862
    1XTA     NT56449  29.925   0.043  -1.651
    1XTA    CN156450  29.820  -0.009  -1.581
    1XTA     C156451  29.755  -0.130  -1.626
    1XTA     C256452  29.657  -0.191  -1.551
    1XTA     C356453  29.615  -0.143  -1.427
    1XTA     C456454  29.671  -0.020  -1.384
    1XTA     C556455  29.770   0.049  -1.465
    1XTA    CN256456  30.028  -0.028  -1.697
    1XTA     C656457  30.057  -0.062  -1.832
    1XTA     C756458  30.168  -0.140  -1.865
    1XTA     C856459  30.258  -0.180  -1.763
    1XTA     C956460  30.231  -0.146  -1.631
    1XTA    C1056461  30.117  -0.076  -1.600
    1XTA    CN356462  29.938   0.172  -1.680
    1XTA    C1156463  30.032   0.253  -1.609
    1XTA    C1256464  30.039   0.396  -1.632
    1XTA    C1356465  29.978   0.452  -1.744
    1XTA    C1456466  29.902   0.367  -1.825
    1XTA    C1556467  29.872   0.237  -1.790
    1XTA     H156468  29.794  -0.176  -1.715
    1XTA     H256469  29.620  -0.288  -1.591
    1XTA     H356470  29.647   0.022  -1.290
    1XTA     H456471  29.827   0.125  -1.427
    1XTA     H556472  29.993  -0.033  -1.910
    1XTA     H656473  30.185  -0.156  -1.968
    1XTA     H756474  30.297  -0.159  -1.554
    1XTA     H856475  30.084  -0.044  -1.503
    1XTA     H956476  30.102   0.212  -1.535
    1XTA    H1056477  30.107   0.464  -1.580
    1XTA    H1156478  29.855   0.404  -1.917
    1XTA    H1256479  29.801   0.195  -1.856
    1XTA    OA156480  29.531  -0.206  -1.338
    1XTA    CO156481  29.478  -0.332  -1.382
    1XTA    OA256482  30.364  -0.256  -1.804
    1XTA    CO256483  30.472  -0.255  -1.711
    1XTA    CL156484  30.468  -0.379  -1.613
    1XTA    CL256485  30.593  -0.394  -1.530
    1XTA    CL356486  30.614  -0.536  -1.461
    1XTA    CL456487  30.759  -0.547  -1.397
    1XTA    CO356488  30.808  -0.424  -1.335
    1XTA    OA356489  30.926  -0.462  -1.278
    1XTA    CO456490  30.988  -0.364  -1.203
    1XTA    CT156491  31.098  -0.441  -1.119
    1XTA    CL556492  31.170  -0.344  -1.009
    1XTA    CL656493  31.229  -0.216  -1.065
    1XTA    OA456494  29.997   0.584  -1.767
    1XTA    CO556495  29.986   0.633  -1.904
    1XTA    CL756496  29.857   0.723  -1.929
    1XTA    CL856497  29.729   0.634  -1.933
    1XTA    CL956498  29.613   0.706  -1.996
    1XTA   CL1056499  29.543   0.791  -1.897
    1XTA    CO656500  29.422   0.858  -1.961
    1XTA    OA556501  29.368   0.960  -1.877
    1XTA    CO756502  29.279   1.040  -1.949
    1XTA    CT256503  29.156   1.090  -1.868
    1XTA   CL1156504  29.202   1.211  -1.782
    1XTA   CL1256505  29.297   1.177  -1.663
    1XTA    HL156506  29.409  -0.317  -1.467
    1XTA    HL256507  29.565  -0.391  -1.411
    1XTA    HL356508  29.418  -0.367  -1.300
    1XTA    HL456509  30.566  -0.269  -1.770
    1XTA    HL556510  30.477  -0.156  -1.649
    1XTA    HL656511  30.446  -0.468  -1.664
    1XTA    HL756512  30.385  -0.372  -1.547
    1XTA    HL856513  30.587  -0.319  -1.446
    1XTA    HL956514  30.683  -0.375  -1.587
    1XTA   HL1056515  30.551  -0.551  -1.372
    1XTA   HL1156516  30.594  -0.618  -1.527
    1XTA   HL1256517  30.835  -0.586  -1.465
    1XTA   HL1356518  30.729  -0.615  -1.313
    1XTA   HL1456519  30.837  -0.352  -1.404
    1XTA   HL1556520  30.739  -0.376  -1.268
    1XTA   HL1656521  31.015  -0.283  -1.269
    1XTA   HL1756522  30.917  -0.326  -1.133
    1XTA   HL1856523  31.236  -0.407  -0.952
    1XTA   HL1956524  31.092  -0.319  -0.940
    1XTA   HL2056525  31.155  -0.149  -1.108
    1XTA   HL2156526  31.298  -0.225  -1.152
    1XTA   HL2256527  31.282  -0.160  -0.987
    1XTA   HL2356528  30.013   0.561  -1.981
    1XTA   HL2456529  30.072   0.699  -1.920
    1XTA   HL2556530  29.863   0.789  -1.844
    1XTA   HL2656531  29.873   0.793  -2.014
    1XTA   HL2756532  29.739   0.553  -2.002
    1XTA   HL2856533  29.711   0.601  -1.831
    1XTA   HL2956534  29.638   0.759  -2.087
    1XTA   HL3056535  29.545   0.626  -2.025
    1XTA   HL3156536  29.518   0.729  -1.808
    1XTA   HL3256537  29.608   0.869  -1.862
    1XTA   HL3356538  29.447   0.903  -2.050
    1XTA   HL3456539  29.334   0.791  -1.986
    1XTA   HL3556540  29.237   0.982  -2.036
    1XTA   HL3656541  29.330   1.123  -1.989
    1XTA   HL3756542  29.113   1.255  -1.734
    1XTA   HL3856543  29.246   1.293  -1.841
    1XTA   HL3956544  29.322   1.266  -1.614
    1XTA   HL4056545  29.391   1.134  -1.704
    1XTA   HL4156546  29.249   1.109  -1.590
    1XTA    CO856547  31.203  -0.507  -1.215
    1XTA    CO956548  31.028  -0.550  -1.037
    1XTA    OA656549  31.276  -0.432  -1.258
    1XTA   HL4256550  31.161  -0.562  -1.301
    1XTA   HL4356551  31.253  -0.593  -1.168
    1XTA   HL4456552  28.970   1.053  -1.719
    1XTA   HL4556553  29.026   0.907  -1.847
    1XTA   CO1056554  29.079   0.986  -1.784
    1XTA   CO1156555  29.050   1.141  -1.959
    1XTA    OA756556  29.092   1.226  -2.019
    1XTA   HL4656557  29.005   1.066  -2.018
    1XTA   HL4756558  28.974   1.191  -1.904
    1XTA   HL4856559  30.966  -0.659  -1.109
    1XTA   HL4956560  31.093  -0.601  -0.964
    1XTA     NT56561  33.612   5.310   1.600
    1XTA    CN156562  33.631   5.444   1.618
    1XTA     C156563  33.526   5.533   1.652
    1XTA     C256564  33.557   5.667   1.672
    1XTA     C356565  33.683   5.720   1.652
    1XTA     C456566  33.784   5.636   1.605
    1XTA     C556567  33.757   5.496   1.602
    1XTA    CN256568  33.554   5.260   1.488
    1XTA     C656569  33.619   5.261   1.360
    1XTA     C756570  33.553   5.201   1.250
    1XTA     C856571  33.417   5.159   1.258
    1XTA     C956572  33.348   5.169   1.379
    1XTA    C1056573  33.423   5.214   1.495
    1XTA    CN356574  33.620   5.219   1.697
    1XTA    C1156575  33.724   5.129   1.696
    1XTA    C1256576  33.722   5.017   1.784
    1XTA    C1356577  33.611   5.002   1.869
    1XTA    C1456578  33.514   5.103   1.878
    1XTA    C1556579  33.525   5.215   1.796
    1XTA     H156580  33.421   5.500   1.655
    1XTA     H256581  33.473   5.739   1.687
    1XTA     H356582  33.886   5.677   1.611
    1XTA     H456583  33.839   5.427   1.580
    1XTA     H556584  33.714   5.304   1.349
    1XTA     H656585  33.603   5.212   1.159
    1XTA     H756586  33.247   5.132   1.396
    1XTA     H856587  33.362   5.209   1.590
    1XTA     H956588  33.796   5.134   1.621
    1XTA    H1056589  33.803   4.949   1.766
    1XTA    H1156590  33.431   5.095   1.951
    1XTA    H1256591  33.440   5.286   1.795
    1XTA    OA156592  33.700   5.855   1.670
    1XTA    CO156593  33.812   5.916   1.613
    1XTA    OA256594  33.353   5.133   1.137
    1XTA    CO256595  33.270   5.017   1.147
    1XTA    CL156596  33.339   4.889   1.171
    1XTA    CL256597  33.282   4.815   1.291
    1XTA    CL356598  33.366   4.697   1.336
    1XTA    CL456599  33.493   4.726   1.403
    1XTA    CO356600  33.484   4.798   1.538
    1XTA    OA356601  33.426   4.706   1.636
    1XTA    CO456602  33.367   4.776   1.741
    1XTA    CT156603  33.221   4.747   1.769
    1XTA    CL556604  33.132   4.785   1.651
    1XTA    CL656605  33.107   4.936   1.637
    1XTA    OA456606  33.581   4.891   1.940
    1XTA    CO556607  33.676   4.786   1.946
    1XTA    CL756608  33.610   4.671   2.020
    1XTA    CL856609  33.683   4.537   2.006
    1XTA    CL956610  33.590   4.421   2.044
    1XTA   CL1056611  33.646   4.274   2.023
    1XTA    CO656612  33.565   4.166   2.097
    1XTA    OA556613  33.432   4.150   2.047
    1XTA    CO756614  33.430   4.096   1.913
    1XTA    CT256615  33.314   3.998   1.885
    1XTA   CL1156616  33.349   3.853   1.924
    1XTA   CL1256617  33.402   3.840   2.067
    1XTA    HL156618  33.840   5.864   1.526
    1XTA    HL256619  33.786   6.024   1.595
    1XTA    HL356620  33.904   5.919   1.681
    1XTA    HL456621  33.191   5.042   1.211
    1XTA    HL556622  33.216   5.019   1.052
    1XTA    HL656623  33.451   4.907   1.183
    1XTA    HL756624  33.328   4.817   1.094
    1XTA    HL856625  33.182   4.785   1.260
    1XTA    HL956626  33.280   4.887   1.369
    1XTA   HL1056627  33.316   4.644   1.419
    1XTA   HL1156628  33.389   4.631   1.251
    1XTA   HL1256629  33.569   4.775   1.330
    1XTA   HL1356630  33.539   4.628   1.421
    1XTA   HL1456631  33.582   4.828   1.567
    1XTA   HL1556632  33.426   4.887   1.531
    1XTA   HL1656633  33.425   4.751   1.832
    1XTA   HL1756634  33.381   4.884   1.726
    1XTA   HL1856635  33.032   4.734   1.649
    1XTA   HL1956636  33.186   4.743   1.564
    1XTA   HL2056637  33.074   4.985   1.542
    1XTA   HL2156638  33.200   4.980   1.664
    1XTA   HL2256639  33.024   4.955   1.707
    1XTA   HL2356640  33.769   4.809   1.997
    1XTA   HL2456641  33.688   4.756   1.843
    1XTA   HL2556642  33.624   4.694   2.124
    1XTA   HL2656643  33.507   4.666   2.005
    1XTA   HL2756644  33.718   4.502   1.911
    1XTA   HL2856645  33.766   4.546   2.075
    1XTA   HL2956646  33.546   4.445   2.142
    1XTA   HL3056647  33.499   4.429   1.981
    1XTA   HL3156648  33.661   4.247   1.917
    1XTA   HL3256649  33.747   4.258   2.067
    1XTA   HL3356650  33.623   4.069   2.087
    1XTA   HL3456651  33.534   4.194   2.195
    1XTA   HL3556652  33.519   4.049   1.891
    1XTA   HL3656653  33.411   4.184   1.849
    1XTA   HL3756654  33.424   3.803   1.860
    1XTA   HL3856655  33.252   3.798   1.917
    1XTA   HL3956656  33.354   3.920   2.134
    1XTA   HL4056657  33.511   3.841   2.067
    1XTA   HL4156658  33.370   3.744   2.113
    1XTA    CO856659  33.175   4.804   1.903
    1XTA    CO956660  33.219   4.593   1.784
    1XTA    OA656661  33.229   4.749   1.986
    1XTA   HL4256662  33.068   4.787   1.907
    1XTA   HL4356663  33.188   4.905   1.916
    1XTA   HL4456664  33.249   4.083   1.697
    1XTA   HL4556665  33.230   3.901   1.716
    1XTA   CO1056666  33.294   3.989   1.732
    1XTA   CO1156667  33.181   4.046   1.943
    1XTA    OA756668  33.159   4.174   1.893
    1XTA   HL4656669  33.091   3.982   1.922
    1XTA   HL4756670  33.194   4.051   2.052
    1XTA   HL4856671  33.314   4.554   1.871
    1XTA   HL4956672  33.251   4.563   1.691
    1XTA     NT56673  27.101   4.859  -1.041
    1XTA    CN156674  27.150   4.849  -0.918
    1XTA     C156675  27.049   4.824  -0.812
    1XTA     C256676  27.084   4.824  -0.679
    1XTA     C356677  27.215   4.857  -0.645
    1XTA     C456678  27.311   4.884  -0.741
    1XTA     C556679  27.284   4.884  -0.880
    1XTA    CN256680  27.083   4.979  -1.108
    1XTA     C656681  27.108   4.996  -1.246
    1XTA     C756682  27.093   5.118  -1.314
    1XTA     C856683  27.057   5.234  -1.239
    1XTA     C956684  27.023   5.222  -1.098
    1XTA    C1056685  27.042   5.095  -1.036
    1XTA    CN356686  27.072   4.745  -1.105
    1XTA    C1156687  26.943   4.691  -1.096
    1XTA    C1256688  26.910   4.578  -1.172
    1XTA    C1356689  27.006   4.512  -1.253
    1XTA    C1456690  27.137   4.559  -1.255
    1XTA    C1556691  27.164   4.681  -1.191
    1XTA     H156692  26.944   4.800  -0.839
    1XTA     H256693  27.003   4.800  -0.613
    1XTA     H356694  27.414   4.905  -0.706
    1XTA     H456695  27.367   4.899  -0.947
    1XTA     H556696  27.146   4.909  -1.290
    1XTA     H656697  27.128   5.129  -1.411
    1XTA     H756698  26.997   5.317  -1.051
    1XTA     H856699  27.019   5.097  -0.933
    1XTA     H956700  26.870   4.740  -1.032
    1XTA    H1056701  26.814   4.543  -1.176
    1XTA    H1156702  27.225   4.502  -1.296
    1XTA    H1256703  27.266   4.722  -1.184
    1XTA    OA156704  27.235   4.859  -0.511
    1XTA    CO156705  27.364   4.911  -0.458
    1XTA    OA256706  27.052   5.345  -1.316
    1XTA    CO256707  27.070   5.470  -1.253
    1XTA    CL156708  27.067   5.583  -1.361
    1XTA    CL256709  27.070   5.718  -1.295
    1XTA    CL356710  27.088   5.843  -1.387
    1XTA    CL456711  27.102   5.976  -1.308
    1XTA    CO356712  27.116   6.082  -1.411
    1XTA    OA356713  27.240   6.046  -1.483
    1XTA    CO456714  27.268   6.128  -1.597
    1XTA    CT156715  27.393   6.080  -1.660
    1XTA    CL556716  27.505   6.078  -1.550
    1XTA    CL656717  27.645   6.036  -1.591
    1XTA    OA456718  26.955   4.405  -1.317
    1XTA    CO556719  26.995   4.389  -1.449
    1XTA    CL756720  26.895   4.286  -1.499
    1XTA    CL856721  26.928   4.244  -1.648
    1XTA    CL956722  26.921   4.343  -1.761
    1XTA   CL1056723  26.965   4.291  -1.902
    1XTA    CO656724  27.114   4.258  -1.926
    1XTA    OA556725  27.137   4.142  -1.998
    1XTA    CO756726  27.107   4.019  -1.934
    1XTA    CT256727  27.058   3.906  -2.020
    1XTA   CL1156728  27.053   3.776  -1.927
    1XTA   CL1256729  26.950   3.667  -1.974
    1XTA    HL156730  27.361   4.887  -0.349
    1XTA    HL256731  27.446   4.852  -0.490
    1XTA    HL356732  27.384   5.012  -0.461
    1XTA    HL456733  26.979   5.490  -1.200
    1XTA    HL556734  27.162   5.473  -1.195
    1XTA    HL656735  26.984   5.567  -1.432
    1XTA    HL756736  27.150   5.576  -1.433
    1XTA    HL856737  27.157   5.728  -1.226
    1XTA    HL956738  26.985   5.743  -1.230
    1XTA   HL1056739  27.168   5.823  -1.449
    1XTA   HL1156740  27.002   5.859  -1.451
    1XTA   HL1256741  27.185   5.958  -1.238
    1XTA   HL1356742  27.007   5.995  -1.244
    1XTA   HL1456743  27.021   6.076  -1.463
    1XTA   HL1556744  27.136   6.179  -1.356
    1XTA   HL1656745  27.188   6.127  -1.669
    1XTA   HL1756746  27.284   6.223  -1.556
    1XTA   HL1856747  27.482   6.005  -1.476
    1XTA   HL1956748  27.513   6.175  -1.499
    1XTA   HL2056749  27.681   5.946  -1.544
    1XTA   HL2156750  27.712   6.114  -1.567
    1XTA   HL2256751  27.647   6.013  -1.699
    1XTA   HL2356752  27.093   4.356  -1.458
    1XTA   HL2456753  26.986   4.474  -1.512
    1XTA   HL2556754  26.899   4.198  -1.445
    1XTA   HL2656755  26.792   4.325  -1.493
    1XTA   HL2756756  27.030   4.219  -1.639
    1XTA   HL2856757  26.870   4.154  -1.668
    1XTA   HL2956758  26.824   4.390  -1.776
    1XTA   HL3056759  26.979   4.434  -1.731
    1XTA   HL3156760  26.903   4.209  -1.933
    1XTA   HL3256761  26.936   4.374  -1.971
    1XTA   HL3356762  27.153   4.345  -1.984
    1XTA   HL3456763  27.172   4.260  -1.834
    1XTA   HL3556764  27.029   4.045  -1.856
    1XTA   HL3656765  27.196   3.984  -1.888
    1XTA   HL3756766  27.020   3.806  -1.827
    1XTA   HL3856767  27.155   3.728  -1.915
    1XTA   HL3956768  26.856   3.693  -1.957
    1XTA   HL4056769  26.955   3.566  -1.936
    1XTA   HL4156770  26.962   3.646  -2.079
    1XTA    CO856771  27.437   6.179  -1.774
    1XTA    CO956772  27.367   5.945  -1.731
    1XTA    OA656773  27.369   6.194  -1.854
    1XTA   HL4256774  27.509   6.122  -1.831
    1XTA   HL4356775  27.478   6.268  -1.738
    1XTA   HL4456776  27.168   3.998  -2.187
    1XTA   HL4556777  27.247   3.872  -2.119
    1XTA   CO1056778  27.145   3.895  -2.150
    1XTA   CO1156779  26.921   3.939  -2.077
    1XTA    OA756780  27.105   3.813  -2.213
    1XTA   HL4656781  26.934   4.046  -2.166
    1XTA   HL4756782  26.890   3.849  -2.141
    1XTA   HL4856783  27.306   5.855  -1.645
    1XTA   HL4956784  27.283   5.963  -1.807
    1XTA     NT56785  26.444   1.266   3.028
    1XTA    CN156786  26.380   1.386   3.012
    1XTA     C156787  26.413   1.460   2.900
    1XTA     C256788  26.350   1.584   2.874
    1XTA     C356789  26.248   1.634   2.955
    1XTA     C456790  26.212   1.559   3.069
    1XTA     C556791  26.284   1.437   3.097
    1XTA    CN256792  26.373   1.152   3.007
    1XTA     C656793  26.397   1.079   2.895
    1XTA     C756794  26.323   0.963   2.861
    1XTA     C856795  26.224   0.917   2.950
    1XTA     C956796  26.204   0.983   3.073
    1XTA    C1056797  26.284   1.098   3.104
    1XTA    CN356798  26.544   1.247   3.120
    1XTA    C1156799  26.659   1.178   3.075
    1XTA    C1256800  26.772   1.156   3.166
    1XTA    C1356801  26.766   1.205   3.298
    1XTA    C1456802  26.664   1.291   3.333
    1XTA    C1556803  26.546   1.309   3.250
    1XTA     H156804  26.491   1.423   2.840
    1XTA     H256805  26.365   1.642   2.779
    1XTA     H356806  26.144   1.593   3.145
    1XTA     H456807  26.266   1.377   3.183
    1XTA     H556808  26.470   1.115   2.827
    1XTA     H656809  26.347   0.907   2.770
    1XTA     H756810  26.117   0.957   3.138
    1XTA     H856811  26.262   1.154   3.189
    1XTA     H956812  26.649   1.133   2.980
    1XTA    H1056813  26.843   1.079   3.130
    1XTA    H1156814  26.666   1.335   3.426
    1XTA    H1256815  26.459   1.380   3.270
    1XTA    OA156816  26.194   1.755   2.923
    1XTA    CO156817  26.102   1.805   3.013
    1XTA    OA256818  26.137   0.815   2.922
    1XTA    CO256819  26.149   0.756   2.799
    1XTA    CL156820  26.031   0.667   2.771
    1XTA    CL256821  26.037   0.626   2.620
    1XTA    CL356822  25.930   0.518   2.601
    1XTA    CL456823  25.796   0.566   2.652
    1XTA    CO356824  25.694   0.463   2.599
    1XTA    OA356825  25.692   0.472   2.457
    1XTA    CO456826  25.589   0.399   2.397
    1XTA    CT156827  25.608   0.396   2.244
    1XTA    CL556828  25.748   0.336   2.206
    1XTA    CL656829  25.780   0.209   2.280
    1XTA    OA456830  26.864   1.183   3.390
    1XTA    CO556831  26.876   1.049   3.425
    1XTA    CL756832  26.889   1.039   3.575
    1XTA    CL856833  26.755   1.037   3.647
    1XTA    CL956834  26.763   1.057   3.796
    1XTA   CL1056835  26.825   0.938   3.869
    1XTA    CO656836  26.855   0.979   4.011
    1XTA    OA556837  26.732   0.993   4.084
    1XTA    CO756838  26.752   1.028   4.222
    1XTA    CT256839  26.622   1.024   4.306
    1XTA   CL1156840  26.653   1.087   4.448
    1XTA   CL1256841  26.664   1.237   4.457
    1XTA    HL156842  26.015   1.745   3.030
    1XTA    HL256843  26.153   1.826   3.114
    1XTA    HL356844  26.077   1.898   2.972
    1XTA    HL456845  26.150   0.838   2.726
    1XTA    HL556846  26.246   0.706   2.790
    1XTA    HL656847  25.947   0.733   2.794
    1XTA    HL756848  26.035   0.585   2.845
    1XTA    HL856849  26.133   0.576   2.597
    1XTA    HL956850  26.026   0.710   2.553
    1XTA   HL1056851  25.923   0.485   2.492
    1XTA   HL1156852  25.959   0.426   2.650
    1XTA   HL1256853  25.767   0.663   2.602
    1XTA   HL1356854  25.788   0.573   2.761
    1XTA   HL1456855  25.725   0.369   2.634
    1XTA   HL1556856  25.595   0.483   2.635
    1XTA   HL1656857  25.594   0.303   2.452
    1XTA   HL1756858  25.495   0.439   2.424
    1XTA   HL1856859  25.833   0.405   2.236
    1XTA   HL1956860  25.758   0.315   2.096
    1XTA   HL2056861  25.879   0.166   2.250
    1XTA   HL2156862  25.705   0.128   2.277
    1XTA   HL2256863  25.797   0.241   2.383
    1XTA   HL2356864  26.960   0.997   3.377
    1XTA   HL2456865  26.789   0.986   3.402
    1XTA   HL2556866  26.938   0.944   3.595
    1XTA   HL2656867  26.955   1.117   3.602
    1XTA   HL2756868  26.701   1.126   3.617
    1XTA   HL2856869  26.698   0.951   3.615
    1XTA   HL2956870  26.826   1.141   3.811
    1XTA   HL3056871  26.677   1.090   3.847
    1XTA   HL3156872  26.755   0.851   3.873
    1XTA   HL3256873  26.923   0.906   3.833
    1XTA   HL3356874  26.921   0.914   4.065
    1XTA   HL3456875  26.905   1.072   4.006
    1XTA   HL3556876  26.789   1.132   4.222
    1XTA   HL3656877  26.831   0.972   4.259
    1XTA   HL3756878  26.744   1.037   4.481
    1XTA   HL3856879  26.566   1.051   4.511
    1XTA   HL3956880  26.715   1.245   4.552
    1XTA   HL4056881  26.564   1.276   4.456
    1XTA   HL4156882  26.734   1.298   4.391
    1XTA    CO856883  25.624   0.546   2.201
    1XTA    CO956884  25.494   0.319   2.180
    1XTA    OA656885  25.398   0.356   2.194
    1XTA   HL4256886  25.530   0.582   2.247
    1XTA   HL4356887  25.737   0.607   2.265
    1XTA   HL4456888  26.489   0.888   4.378
    1XTA   HL4556889  26.541   0.846   4.215
    1XTA   CO1056890  26.579   0.878   4.312
    1XTA   CO1156891  26.513   1.108   4.236
    1XTA    OA756892  26.661   0.804   4.351
    1XTA   HL4656893  26.566   1.220   4.181
    1XTA   HL4756894  26.490   1.046   4.152
    1XTA   HL4856895  25.489   0.217   2.202
    1XTA   HL4956896  25.520   0.319   2.069
    1XTA     NT56897  33.590   7.597   2.996
    1XTA    CN156898  33.646   7.597   3.123
    1XTA     C156899  33.606   7.696   3.214
    1XTA     C256900  33.644   7.700   3.347
    1XTA     C356901  33.726   7.595   3.390
    1XTA     C456902  33.768   7.491   3.301
    1XTA     C556903  33.733   7.493   3.166
    1XTA    CN256904  33.615   7.700   2.913
    1XTA     C656905  33.516   7.801   2.891
    1XTA     C756906  33.544   7.909   2.806
    1XTA     C856907  33.664   7.919   2.739
    1XTA     C956908  33.754   7.811   2.743
    1XTA    C1056909  33.734   7.702   2.836
    1XTA    CN356910  33.538   7.484   2.952
    1XTA    C1156911  33.420   7.445   3.003
    1XTA    C1256912  33.361   7.324   2.970
    1XTA    C1356913  33.426   7.241   2.871
    1XTA    C1456914  33.548   7.283   2.813
    1XTA    C1556915  33.610   7.401   2.862
    1XTA     H156916  33.534   7.773   3.186
    1XTA     H256917  33.604   7.769   3.413
    1XTA     H356918  33.821   7.411   3.339
    1XTA     H456919  33.768   7.417   3.098
    1XTA     H556920  33.422   7.807   2.944
    1XTA     H656921  33.470   7.989   2.782
    1XTA     H756922  33.844   7.815   2.686
    1XTA     H856923  33.813   7.626   2.838
    1XTA     H956924  33.377   7.512   3.074
    1XTA    H1056925  33.264   7.299   3.004
    1XTA    H1156926  33.596   7.230   2.735
    1XTA    H1256927  33.709   7.428   2.833
    1XTA    OA156928  33.764   7.581   3.524
    1XTA    CO156929  33.741   7.691   3.609
    1XTA    OA256930  33.686   8.024   2.654
    1XTA    CO256931  33.697   8.150   2.721
    1XTA    CL156932  33.771   8.244   2.627
    1XTA    CL256933  33.825   8.374   2.696
    1XTA    CL356934  33.927   8.355   2.812
    1XTA    CL456935  33.974   8.497   2.846
    1XTA    CO356936  34.040   8.519   2.982
    1XTA    OA356937  33.960   8.457   3.082
    1XTA    CO456938  34.019   8.449   3.206
    1XTA    CT156939  33.914   8.407   3.320
    1XTA    CL556940  33.996   8.439   3.448
    1XTA    CL656941  33.944   8.380   3.580
    1XTA    OA456942  33.364   7.123   2.828
    1XTA    CO556943  33.439   7.040   2.750
    1XTA    CL756944  33.375   6.904   2.770
    1XTA    CL856945  33.472   6.798   2.715
    1XTA    CL956946  33.564   6.741   2.823
    1XTA   CL1056947  33.658   6.630   2.766
    1XTA    CO656948  33.760   6.575   2.869
    1XTA    OA556949  33.872   6.528   2.807
    1XTA    CO756950  33.859   6.413   2.730
    1XTA    CT256951  33.990   6.379   2.648
    1XTA   CL1156952  34.043   6.513   2.591
    1XTA   CL1256953  33.946   6.584   2.496
    1XTA    HL156954  33.632   7.726   3.606
    1XTA    HL256955  33.758   7.657   3.713
    1XTA    HL356956  33.806   7.781   3.592
    1XTA    HL456957  33.609   8.192   2.767
    1XTA    HL556958  33.756   8.139   2.812
    1XTA    HL656959  33.726   8.259   2.529
    1XTA    HL756960  33.860   8.182   2.599
    1XTA    HL856961  33.732   8.432   2.737
    1XTA    HL956962  33.872   8.447   2.625
    1XTA   HL1056963  33.877   8.305   2.889
    1XTA   HL1156964  34.011   8.298   2.789
    1XTA   HL1256965  33.885   8.555   2.844
    1XTA   HL1356966  34.036   8.544   2.767
    1XTA   HL1456967  34.143   8.476   2.994
    1XTA   HL1556968  34.055   8.618   3.007
    1XTA   HL1656969  34.114   8.386   3.210
    1XTA   HL1756970  34.059   8.547   3.237
    1XTA   HL1856971  33.988   8.545   3.465
    1XTA   HL1956972  34.105   8.425   3.426
    1XTA   HL2056973  34.023   8.415   3.645
    1XTA   HL2156974  33.924   8.266   3.563
    1XTA   HL2256975  33.850   8.424   3.616
    1XTA   HL2356976  33.537   7.036   2.799
    1XTA   HL2456977  33.454   7.075   2.650
    1XTA   HL2556978  33.353   6.895   2.876
    1XTA   HL2656979  33.276   6.914   2.716
    1XTA   HL2756980  33.416   6.710   2.685
    1XTA   HL2856981  33.532   6.830   2.625
    1XTA   HL2956982  33.612   6.825   2.878
    1XTA   HL3056983  33.492   6.701   2.893
    1XTA   HL3156984  33.605   6.547   2.713
    1XTA   HL3256985  33.728   6.688   2.699
    1XTA   HL3356986  33.779   6.664   2.938
    1XTA   HL3456987  33.711   6.504   2.937
    1XTA   HL3556988  33.783   6.428   2.655
    1XTA   HL3656989  33.828   6.318   2.786
    1XTA   HL3756990  34.135   6.497   2.533
    1XTA   HL3856991  34.068   6.585   2.667
    1XTA   HL3956992  33.990   6.672   2.442
    1XTA   HL4056993  33.862   6.619   2.549
    1XTA   HL4156994  33.908   6.524   2.417
    1XTA    CO856995  33.885   8.262   3.299
    1XTA    CO956996  33.792   8.509   3.303
    1XTA    OA656997  33.965   8.193   3.325
    1XTA   HL4256998  33.870   8.246   3.188
    1XTA   HL4356999  33.795   8.256   3.365
    1XTA   HL4457000  33.948   6.157   2.589
    1XTA   HL4557001  34.060   6.274   2.477
    1XTA   CO1057002  33.965   6.281   2.533
    1XTA   CO1157003  34.107   6.309   2.726
    1XTA    OA757004  34.200   6.327   2.668
    1XTA   HL4657005  34.121   6.351   2.824
    1XTA   HL4757006  34.084   6.203   2.725
    1XTA   HL4857007  33.744   8.498   3.174
    1XTA   HL4957008  33.841   8.611   3.303
    1XTA     NT57009  26.430   4.618   4.228
    1XTA    CN157010  26.439   4.616   4.364
    1XTA     C157011  26.422   4.491   4.431
    1XTA     C257012  26.406   4.483   4.571
    1XTA     C357013  26.427   4.604   4.649
    1XTA     C457014  26.429   4.726   4.580
    1XTA     C557015  26.437   4.735   4.438
    1XTA    CN257016  26.312   4.605   4.161
    1XTA     C657017  26.302   4.663   4.034
    1XTA     C757018  26.189   4.664   3.955
    1XTA     C857019  26.076   4.601   4.004
    1XTA     C957020  26.073   4.540   4.131
    1XTA    C1057021  26.189   4.545   4.205
    1XTA    CN357022  26.551   4.642   4.170
    1XTA    C1157023  26.639   4.533   4.143
    1XTA    C1257024  26.767   4.560   4.090
    1XTA    C1357025  26.811   4.689   4.061
    1XTA    C1457026  26.729   4.798   4.092
    1XTA    C1557027  26.598   4.771   4.141
    1XTA     H157028  26.420   4.402   4.373
    1XTA     H257029  26.380   4.396   4.624
    1XTA     H357030  26.418   4.819   4.631
    1XTA     H457031  26.438   4.834   4.392
    1XTA     H557032  26.394   4.718   3.995
    1XTA     H657033  26.189   4.699   3.855
    1XTA     H757034  25.984   4.495   4.172
    1XTA     H857035  26.169   4.487   4.302
    1XTA     H957036  26.612   4.429   4.175
    1XTA    H1057037  26.831   4.476   4.080
    1XTA    H1157038  26.770   4.900   4.072
    1XTA    H1257039  26.533   4.852   4.170
    1XTA    OA157040  26.411   4.604   4.789
    1XTA    CO157041  26.481   4.506   4.854
    1XTA    OA257042  25.979   4.583   3.911
    1XTA    CO257043  25.859   4.526   3.956
    1XTA    CL157044  25.764   4.527   3.833
    1XTA    CL257045  25.615   4.484   3.870
    1XTA    CL357046  25.523   4.466   3.747
    1XTA    CL457047  25.491   4.598   3.681
    1XTA    CO357048  25.603   4.631   3.585
    1XTA    OA357049  25.597   4.772   3.556
    1XTA    CO457050  25.633   4.862   3.653
    1XTA    CT157051  25.635   5.004   3.590
    1XTA    CL557052  25.497   5.036   3.531
    1XTA    CL657053  25.380   5.012   3.627
    1XTA    OA457054  26.942   4.699   4.027
    1XTA    CO557055  26.974   4.771   3.908
    1XTA    CL757056  27.097   4.868   3.932
    1XTA    CL857057  27.147   4.939   3.803
    1XTA    CL957058  27.246   4.850   3.723
    1XTA   CL1057059  27.287   4.907   3.588
    1XTA    CO657060  27.402   4.824   3.522
    1XTA    OA557061  27.464   4.883   3.412
    1XTA    CO757062  27.546   4.991   3.453
    1XTA    CT257063  27.641   5.030   3.330
    1XTA   CL1157064  27.706   5.162   3.367
    1XTA   CL1257065  27.796   5.148   3.486
    1XTA    HL157066  26.428   4.412   4.867
    1XTA    HL257067  26.580   4.492   4.802
    1XTA    HL357068  26.509   4.543   4.951
    1XTA    HL457069  25.859   4.430   4.002
    1XTA    HL557070  25.804   4.588   4.036
    1XTA    HL657071  25.803   4.460   3.767
    1XTA    HL757072  25.754   4.630   3.798
    1XTA    HL857073  25.568   4.565   3.926
    1XTA    HL957074  25.611   4.388   3.926
    1XTA   HL1057075  25.563   4.402   3.670
    1XTA   HL1157076  25.428   4.418   3.779
    1XTA   HL1257077  25.478   4.676   3.758
    1XTA   HL1357078  25.392   4.591   3.634
    1XTA   HL1457079  25.701   4.602   3.606
    1XTA   HL1557080  25.580   4.571   3.499
    1XTA   HL1657081  25.567   4.849   3.739
    1XTA   HL1757082  25.726   4.834   3.690
    1XTA   HL1857083  25.488   4.988   3.434
    1XTA   HL1957084  25.490   5.137   3.503
    1XTA   HL2057085  25.409   5.004   3.729
    1XTA   HL2157086  25.321   4.920   3.599
    1XTA   HL2257087  25.310   5.090   3.611
    1XTA   HL2357088  26.884   4.830   3.881
    1XTA   HL2457089  27.011   4.700   3.837
    1XTA   HL2557090  27.065   4.939   4.007
    1XTA   HL2657091  27.186   4.819   3.980
    1XTA   HL2757092  27.072   4.958   3.725
    1XTA   HL2857093  27.192   5.037   3.826
    1XTA   HL2957094  27.332   4.848   3.788
    1XTA   HL3057095  27.203   4.748   3.719
    1XTA   HL3157096  27.204   4.911   3.517
    1XTA   HL3257097  27.324   5.004   3.607
    1XTA   HL3357098  27.488   4.796   3.590
    1XTA   HL3457099  27.374   4.723   3.486
    1XTA   HL3557100  27.611   4.972   3.535
    1XTA   HL3657101  27.488   5.072   3.489
    1XTA   HL3757102  27.636   5.241   3.388
    1XTA   HL3857103  27.772   5.204   3.281
    1XTA   HL3957104  27.733   5.111   3.570
    1XTA   HL4057105  27.836   5.241   3.512
    1XTA   HL4157106  27.878   5.086   3.468
    1XTA    CO857107  25.746   5.005   3.484
    1XTA    CO957108  25.661   5.110   3.696
    1XTA    OA657109  25.592   5.082   3.819
    1XTA   HL4257110  25.784   4.908   3.465
    1XTA   HL4357111  25.836   5.065   3.517
    1XTA   HL4457112  27.639   5.061   3.128
    1XTA   HL4557113  27.497   5.167   3.204
    1XTA   CO1057114  27.560   5.042   3.200
    1XTA   CO1157115  27.755   4.914   3.303
    1XTA    OA757116  27.850   4.952   3.261
    1XTA   HL4657117  27.774   4.865   3.398
    1XTA   HL4757118  27.722   4.837   3.239
    1XTA   HL4857119  25.646   5.214   3.653
    1XTA   HL4957120  25.769   5.103   3.716
    1XTA     NT57121  30.642   4.951   2.126
    1XTA    CN157122  30.537   5.036   2.133
    1XTA     C157123  30.502   5.098   2.251
    1XTA     C257124  30.378   5.162   2.264
    1XTA     C357125  30.296   5.180   2.153
    1XTA     C457126  30.335   5.132   2.026
    1XTA     C557127  30.457   5.057   2.020
    1XTA    CN257128  30.648   4.852   2.215
    1XTA     C657129  30.571   4.734   2.184
    1XTA     C757130  30.559   4.630   2.278
    1XTA     C857131  30.610   4.647   2.405
    1XTA     C957132  30.702   4.751   2.429
    1XTA    C1057133  30.721   4.857   2.331
    1XTA    CN357134  30.755   4.988   2.065
    1XTA    C1157135  30.820   5.107   2.101
    1XTA    C1257136  30.946   5.136   2.048
    1XTA    C1357137  30.993   5.054   1.941
    1XTA    C1457138  30.916   4.943   1.894
    1XTA    C1557139  30.795   4.911   1.953
    1XTA     H157140  30.565   5.085   2.341
    1XTA     H257141  30.348   5.199   2.365
    1XTA     H357142  30.274   5.159   1.940
    1XTA     H457143  30.485   5.023   1.922
    1XTA     H557144  30.533   4.732   2.078
    1XTA     H657145  30.500   4.538   2.253
    1XTA     H757146  30.754   4.749   2.520
    1XTA     H857147  30.785   4.939   2.348
    1XTA     H957148  30.783   5.166   2.181
    1XTA    H1057149  30.998   5.227   2.078
    1XTA    H1157150  30.954   4.877   1.810
    1XTA    H1257151  30.742   4.823   1.929
    1XTA    OA157152  30.175   5.251   2.152
    1XTA    CO157153  30.132   5.288   2.281
    1XTA    OA257154  30.571   4.558   2.503
    1XTA    CO257155  30.489   4.602   2.615
    1XTA    CL157156  30.353   4.625   2.554
    1XTA    CL257157  30.254   4.507   2.520
    1XTA    CL357158  30.119   4.552   2.460
    1XTA    CL457159  30.029   4.626   2.558
    1XTA    CO357160  29.928   4.529   2.629
    1XTA    OA357161  29.983   4.440   2.732
    1XTA    CO457162  29.879   4.367   2.798
    1XTA    CT157163  29.948   4.297   2.928
    1XTA    CL557164  30.009   4.392   3.028
    1XTA    CL657165  29.917   4.490   3.092
    1XTA    OA457166  31.117   5.062   1.879
    1XTA    CO557167  31.161   5.200   1.858
    1XTA    CL757168  31.310   5.210   1.832
    1XTA    CL857169  31.388   5.151   1.955
    1XTA    CL957170  31.540   5.178   1.961
    1XTA   CL1057171  31.626   5.136   1.838
    1XTA    CO657172  31.645   4.984   1.854
    1XTA    OA557173  31.713   4.940   1.746
    1XTA    CO757174  31.737   4.795   1.766
    1XTA    CT257175  31.823   4.734   1.651
    1XTA   CL1157176  31.949   4.816   1.622
    1XTA   CL1257177  32.050   4.844   1.741
    1XTA    HL157178  30.202   5.355   2.336
    1XTA    HL257179  30.029   5.330   2.283
    1XTA    HL357180  30.122   5.192   2.339
    1XTA    HL457181  30.473   4.534   2.695
    1XTA    HL557182  30.538   4.695   2.651
    1XTA    HL657183  30.362   4.674   2.456
    1XTA    HL757184  30.301   4.697   2.619
    1XTA    HL857185  30.230   4.452   2.611
    1XTA    HL957186  30.297   4.429   2.458
    1XTA   HL1057187  30.143   4.597   2.366
    1XTA   HL1157188  30.072   4.458   2.437
    1XTA   HL1257189  29.966   4.699   2.496
    1XTA   HL1357190  30.095   4.674   2.626
    1XTA   HL1457191  29.847   4.578   2.681
    1XTA   HL1557192  29.892   4.472   2.544
    1XTA   HL1657193  29.798   4.436   2.824
    1XTA   HL1757194  29.824   4.297   2.732
    1XTA   HL1857195  30.084   4.452   2.967
    1XTA   HL1957196  30.064   4.339   3.103
    1XTA   HL2057197  29.877   4.436   3.181
    1XTA   HL2157198  29.838   4.526   3.028
    1XTA   HL2257199  29.975   4.575   3.138
    1XTA   HL2357200  31.148   5.263   1.947
    1XTA   HL2457201  31.114   5.245   1.774
    1XTA   HL2557202  31.346   5.177   1.736
    1XTA   HL2657203  31.331   5.315   1.826
    1XTA   HL2757204  31.347   5.187   2.051
    1XTA   HL2857205  31.371   5.044   1.960
    1XTA   HL2957206  31.544   5.287   1.973
    1XTA   HL3057207  31.579   5.137   2.058
    1XTA   HL3157208  31.588   5.168   1.739
    1XTA   HL3257209  31.719   5.193   1.839
    1XTA   HL3357210  31.680   4.967   1.958
    1XTA   HL3457211  31.552   4.935   1.855
    1XTA   HL3557212  31.645   4.732   1.766
    1XTA   HL3657213  31.786   4.771   1.866
    1XTA   HL3757214  31.903   4.912   1.595
    1XTA   HL3857215  32.005   4.777   1.535
    1XTA   HL3957216  32.131   4.920   1.718
    1XTA   HL4057217  32.093   4.756   1.786
    1XTA   HL4157218  31.986   4.882   1.819
    1XTA    CO857219  30.062   4.207   2.890
    1XTA    CO957220  29.849   4.212   3.012
    1XTA    OA657221  30.035   4.131   2.805
    1XTA   HL4257222  30.099   4.150   2.972
    1XTA   HL4357223  30.150   4.262   2.857
    1XTA   HL4457224  31.788   4.696   1.433
    1XTA   HL4557225  31.669   4.636   1.537
    1XTA   CO1057226  31.737   4.721   1.524
    1XTA   CO1157227  31.873   4.591   1.689
    1XTA    OA757228  31.690   4.821   1.497
    1XTA   HL4657229  31.940   4.608   1.810
    1XTA   HL4757230  31.950   4.560   1.616
    1XTA   HL4857231  29.747   4.290   3.064
    1XTA   HL4957232  29.910   4.165   3.094
    1XTA     NT57233  33.880   3.010   3.469
    1XTA    CN157234  33.746   3.020   3.464
    1XTA     C157235  33.676   2.910   3.510
    1XTA     C257236  33.536   2.911   3.490
    1XTA     C357237  33.466   3.023   3.447
    1XTA     C457238  33.541   3.139   3.411
    1XTA     C557239  33.683   3.141   3.419
    1XTA    CN257240  33.950   2.994   3.583
    1XTA     C657241  33.992   3.105   3.655
    1XTA     C757242  34.080   3.089   3.758
    1XTA     C857243  34.130   2.963   3.791
    1XTA     C957244  34.097   2.854   3.713
    1XTA    C1057245  34.000   2.866   3.613
    1XTA    CN357246  33.945   2.982   3.362
    1XTA    C1157247  34.049   3.067   3.330
    1XTA    C1257248  34.127   3.037   3.217
    1XTA    C1357249  34.106   2.926   3.144
    1XTA    C1457250  33.994   2.845   3.172
    1XTA    C1557251  33.917   2.873   3.281
    1XTA     H157252  33.731   2.824   3.543
    1XTA     H257253  33.482   2.832   3.528
    1XTA     H357254  33.498   3.231   3.390
    1XTA     H457255  33.735   3.219   3.379
    1XTA     H557256  33.954   3.195   3.616
    1XTA     H657257  34.111   3.177   3.814
    1XTA     H757258  34.152   2.764   3.738
    1XTA     H857259  33.968   2.784   3.553
    1XTA     H957260  34.076   3.152   3.390
    1XTA    H1057261  34.216   3.087   3.194
    1XTA    H1157262  33.986   2.754   3.128
    1XTA    H1257263  33.834   2.805   3.306
    1XTA    OA157264  33.330   3.030   3.439
    1XTA    CO157265  33.258   2.912   3.478
    1XTA    OA257266  34.228   2.951   3.885
    1XTA    CO257267  34.361   2.941   3.825
    1XTA    CL157268  34.468   2.941   3.932
    1XTA    CL257269  34.602   2.969   3.861
    1XTA    CL357270  34.725   2.966   3.955
    1XTA    CL457271  34.851   2.992   3.876
    1XTA    CO357272  34.874   3.136   3.819
    1XTA    OA357273  35.009   3.136   3.787
    1XTA    CO457274  35.051   3.258   3.733
    1XTA    CT157275  35.187   3.254   3.654
    1XTA    CL557276  35.315   3.290   3.732
    1XTA    CL657277  35.381   3.181   3.822
    1XTA    OA457278  34.188   2.898   3.035
    1XTA    CO557279  34.289   2.806   3.071
    1XTA    CL757280  34.392   2.789   2.961
    1XTA    CL857281  34.467   2.921   2.926
    1XTA    CL957282  34.583   2.934   3.023
    1XTA   CL1057283  34.665   3.061   3.010
    1XTA    CO657284  34.770   3.071   3.122
    1XTA    OA557285  34.852   3.183   3.097
    1XTA    CO757286  34.946   3.197   3.203
    1XTA    CT257287  34.962   3.352   3.229
    1XTA   CL1157288  34.819   3.413   3.276
    1XTA   CL1257289  34.765   3.347   3.416
    1XTA    HL157290  33.289   2.824   3.419
    1XTA    HL257291  33.273   2.883   3.580
    1XTA    HL357292  33.150   2.914   3.464
    1XTA    HL457293  34.363   2.847   3.772
    1XTA    HL557294  34.388   3.023   3.756
    1XTA    HL657295  34.478   2.838   3.968
    1XTA    HL757296  34.438   3.021   4.006
    1XTA    HL857297  34.597   3.058   3.809
    1XTA    HL957298  34.613   2.892   3.790
    1XTA   HL1057299  34.705   3.047   4.024
    1XTA   HL1157300  34.730   2.878   4.020
    1XTA   HL1257301  34.842   2.915   3.797
    1XTA   HL1357302  34.933   2.966   3.938
    1XTA   HL1457303  34.811   3.154   3.733
    1XTA   HL1557304  34.853   3.216   3.893
    1XTA   HL1657305  34.968   3.282   3.667
    1XTA   HL1757306  35.066   3.332   3.810
    1XTA   HL1857307  35.305   3.379   3.800
    1XTA   HL1957308  35.384   3.338   3.666
    1XTA   HL2057309  35.452   3.234   3.885
    1XTA   HL2157310  35.422   3.100   3.770
    1XTA   HL2257311  35.311   3.124   3.882
    1XTA   HL2357312  34.239   2.708   3.096
    1XTA   HL2457313  34.334   2.840   3.166
    1XTA   HL2557314  34.456   2.696   2.981
    1XTA   HL2657315  34.331   2.749   2.877
    1XTA   HL2757316  34.509   2.889   2.828
    1XTA   HL2857317  34.412   3.011   2.906
    1XTA   HL2957318  34.553   2.950   3.128
    1XTA   HL3057319  34.646   2.846   3.017
    1XTA   HL3157320  34.726   3.081   2.917
    1XTA   HL3257321  34.603   3.155   3.017
    1XTA   HL3357322  34.712   3.093   3.212
    1XTA   HL3457323  34.839   2.992   3.132
    1XTA   HL3557324  35.038   3.144   3.184
    1XTA   HL3657325  34.918   3.140   3.297
    1XTA   HL3757326  34.752   3.385   3.191
    1XTA   HL3857327  34.828   3.522   3.281
    1XTA   HL3957328  34.660   3.362   3.431
    1XTA   HL4057329  34.823   3.385   3.500
    1XTA   HL4157330  34.781   3.237   3.418
    1XTA    CO857331  35.166   3.363   3.542
    1XTA    CO957332  35.217   3.124   3.585
    1XTA    OA657333  35.343   3.096   3.522
    1XTA   HL4257334  35.123   3.458   3.584
    1XTA   HL4357335  35.256   3.389   3.485
    1XTA   HL4457336  34.937   3.391   3.024
    1XTA   HL4557337  35.092   3.363   3.079
    1XTA   CO1057338  35.001   3.417   3.105
    1XTA   CO1157339  35.066   3.391   3.331
    1XTA    OA757340  35.074   3.312   3.446
    1XTA   HL4657341  35.173   3.390   3.302
    1XTA   HL4757342  35.048   3.492   3.359
    1XTA   HL4857343  35.142   3.098   3.510
    1XTA   HL4957344  35.205   3.048   3.663
    1XTA   HL5057345  27.943  -1.848  -0.577
    1XTA   HL5057346  26.810   1.632   7.095
    1XTA   HL5057347  26.735   1.421   2.339
    1XTA   HL5057348  27.781   1.090   2.973
    1XTA   HL5057349  26.612   1.426   6.453
    1XTA   HL5057350  27.280   0.968   2.986
    1XTA   HL5057351  26.832   2.603   1.252
    1XTA   HL5057352  33.137   4.368   5.453
    1XTA   HL5057353  27.368   5.216   6.648
    1XTA   HL5057354  27.161   1.623   6.929
    1XTA   HL5057355  27.411   3.239   0.831
    1XTA   HL5057356  29.173   5.795   3.886
    1XTA   HL5057357  27.350  -1.326   3.375
    1XTA   HL5057358  31.669   1.135   0.891
    1XTA   HL5057359  30.283   1.497   6.694
    1XTA   HL5057360  32.627   1.893   7.460
    1XTA   HL5057361  32.906   1.924  -0.879
    1XTA   HL5057362  31.531   4.193   1.361
    1XTA   HL5057363  32.416   2.997   3.230
    1XTA   HL5057364  32.468   3.916   3.188
    1XTA   HL5057365  32.468   4.094   3.945
    1XTA   HL5057366  31.750   6.050   0.341
    1XTA   HL5057367  32.353   6.011   0.136
    1XTA   HL5057368  27.627  -1.546   2.665
    1XTA   HL5057369  29.281   5.724   3.705
    2PF6     PT57370  32.447   3.636   3.762
    2PF6     F157371  32.495   3.756   3.858
    2PF6     F257372  32.538   3.716   3.658
    2PF6     F357373  32.378   3.564   3.893
    2PF6     F457374  32.385   3.516   3.674
    2PF6     F557375  32.318   3.730   3.721
    2PF6     F657376  32.567   3.533   3.775
   8.32241   8.32241   8.32241   0.00000   0.00000   0.00000   0.00000   0.00000   0.00000
