generated by VMD
  40623  
    1XTA     NT    1  -5.919  27.862 -11.064
    1XTA    CN1    2  -5.924  27.844 -10.927
    1XTA     C1    3  -5.996  27.931 -10.849
    1XTA     C2    4  -5.992  27.927 -10.713
    1XTA     C3    5  -5.947  27.810 -10.645
    1XTA     C4    6  -5.883  27.713 -10.729
    1XTA     C5    7  -5.865  27.738 -10.870
    1XTA    CN2    8  -5.800  27.878 -11.122
    1XTA     C6    9  -5.702  27.958 -11.058
    1XTA     C7   10  -5.577  27.979 -11.118
    1XTA     C8   11  -5.544  27.911 -11.242
    1XTA     C9   12  -5.640  27.824 -11.296
    1XTA    C10   13  -5.768  27.810 -11.243
    1XTA    CN3   14  -6.032  27.888 -11.144
    1XTA    C11   15  -6.124  27.789 -11.162
    1XTA    C12   16  -6.251  27.812 -11.227
    1XTA    C13   17  -6.266  27.941 -11.289
    1XTA    C14   18  -6.158  28.030 -11.293
    1XTA    C15   19  -6.039  28.010 -11.217
    1XTA     H1   20  -6.055  28.011 -10.891
    1XTA     H2   21  -6.033  28.003 -10.658
    1XTA     H3   22  -5.839  27.627 -10.683
    1XTA     H4   23  -5.806  27.663 -10.918
    1XTA     H5   24  -5.712  28.003 -10.961
    1XTA     H6   25  -5.500  28.038 -11.071
    1XTA     H7   26  -5.596  27.756 -11.372
    1XTA     H8   27  -5.840  27.751 -11.300
    1XTA     H9   28  -6.104  27.690 -11.118
    1XTA    H10   29  -6.329  27.734 -11.236
    1XTA    H11   30  -6.165  28.121 -11.345
    1XTA    H12   31  -5.956  28.089 -11.214
    1XTA    OA1   32  -5.942  27.808 -10.509
    1XTA    CO1   33  -5.859  27.706 -10.453
    1XTA    OA2   34  -5.419  27.903 -11.294
    1XTA    CO2   35  -5.337  28.015 -11.260
    1XTA    CL1   36  -5.248  28.050 -11.387
    1XTA    CL2   37  -5.164  28.166 -11.341
    1XTA    CL3   38  -5.097  28.247 -11.446
    1XTA    CL4   39  -5.045  28.381 -11.395
    1XTA    CO3   40  -5.019  28.487 -11.493
    1XTA    OA3   41  -4.917  28.449 -11.584
    1XTA    CO4   42  -4.856  28.547 -11.661
    1XTA    CT1   43  -4.773  28.477 -11.767
    1XTA    CL5   44  -4.870  28.403 -11.873
    1XTA    CL6   45  -4.959  28.492 -11.955
    1XTA    OA4   46  -6.383  27.979 -11.352
    1XTA    CO5   47  -6.501  27.923 -11.309
    1XTA    HL1   48  -6.508  27.820 -11.343
    1XTA    HL2   49  -5.859  27.732 -10.349
    1XTA    HL3   50  -5.906  27.607 -10.466
    1XTA    HL4   51  -5.755  27.708 -10.482
    1XTA    HL5   52  -5.398  28.105 -11.231
    1XTA    HL6   53  -5.271  28.001 -11.174
    1XTA    HL7   54  -5.322  28.072 -11.466
    1XTA    HL8   55  -5.182  27.968 -11.420
    1XTA    HL9   56  -5.094  28.110 -11.283
    1XTA   HL10   57  -5.217  28.234 -11.272
    1XTA   HL11   58  -5.014  28.189 -11.488
    1XTA   HL12   59  -5.166  28.266 -11.535
    1XTA   HL13   60  -4.950  28.358 -11.346
    1XTA   HL14   61  -5.114  28.426 -11.311
    1XTA   HL15   62  -5.101  28.520 -11.555
    1XTA   HL16   63  -4.983  28.574 -11.433
    1XTA   HL17   64  -4.928  28.621 -11.703
    1XTA   HL18   65  -4.789  28.611 -11.605
    1XTA   HL19   66  -4.942  28.350 -11.820
    1XTA   HL20   67  -4.805  28.341 -11.929
    1XTA   HL21   68  -5.023  28.440 -12.027
    1XTA   HL22   69  -4.902  28.566 -12.003
    1XTA   HL23   70  -5.027  28.544 -11.889
    1XTA   HL24   71  -6.584  27.979 -11.353
    1XTA   HL25   72  -6.514  27.918 -11.199
    1XTA    CO6   73  -4.678  28.374 -11.697
    1XTA    CO7   74  -4.690  28.573 -11.853
    1XTA    OA5   75  -4.623  28.506 -11.969
    1XTA   HL26   76  -4.741  28.296 -11.652
    1XTA   HL27   77  -4.609  28.334 -11.756
    1XTA   HL28   78  -4.609  28.606 -11.793
    1XTA   HL29   79  -4.755  28.656 -11.870
    2XTH     NT   80  -9.063  25.385 -10.376
    2XTH    CN1   81  -9.093  25.503 -10.427
    2XTH     C1   82  -8.995  25.581 -10.484
    2XTH     C2   83  -9.023  25.699 -10.551
    2XTH     C3   84  -9.158  25.756 -10.544
    2XTH     C4   85  -9.258  25.681 -10.477
    2XTH     C5   86  -9.225  25.554 -10.429
    2XTH    CN2   87  -9.113  25.279 -10.446
    2XTH     C6   88  -9.062  25.259 -10.575
    2XTH     C7   89  -9.110  25.150 -10.659
    2XTH     C8   90  -9.206  25.064 -10.608
    2XTH     C9   91  -9.251  25.077 -10.474
    2XTH    C10   92  -9.200  25.178 -10.392
    2XTH    CN3   93  -9.004  25.381 -10.250
    2XTH    C11   94  -8.867  25.395 -10.235
    2XTH    C12   95  -8.802  25.399 -10.106
    2XTH    C13   96  -8.881  25.396  -9.990
    2XTH    C14   97  -9.021  25.393 -10.006
    2XTH    C15   98  -9.082  25.381 -10.136
    2XTH     H1   99  -8.895  25.545 -10.494
    2XTH     H2  100  -8.941  25.760 -10.600
    2XTH     H3  101  -9.358  25.712 -10.476
    2XTH     H4  102  -9.307  25.498 -10.383
    2XTH     H5  103  -8.992  25.334 -10.612
    2XTH     H6  104  -9.066  25.135 -10.756
    2XTH     H7  105  -9.318  25.006 -10.436
    2XTH     H8  106  -9.229  25.183 -10.289
    2XTH     H9  107  -8.805  25.410 -10.324
    2XTH    H10  108  -8.693  25.400 -10.105
    2XTH    H11  109  -9.094  25.399  -9.926
    2XTH    H12  110  -9.190  25.373 -10.145
    2XTH    OA1  111  -9.182  25.877 -10.606
    2XTH    CO1  112  -9.282  25.872 -10.701
    2XTH    OA2  113  -9.275  24.970 -10.681
    2XTH    CO2  114  -9.225  24.935 -10.809
    2XTH    CL1  115  -9.267  25.024 -10.918
    2XTH    CL2  116  -9.418  25.051 -10.921
    2XTH    CL3  117  -9.457  25.156 -11.029
    2XTH    CL4  118  -9.604  25.158 -11.062
    2XTH    CO3  119  -9.638  25.225 -11.196
    2XTH    OA3  120  -9.707  25.342 -11.177
    2XTH    CO4  121  -9.699  25.429 -11.289
    2XTH    CT1  122  -9.745  25.568 -11.249
    2XTH    CL5  123  -9.685  25.614 -11.114
    2XTH    CL6  124  -9.541  25.584 -11.071
    2XTH    OA4  125  -8.832  25.398  -9.866
    2XTH    CO5  126  -8.713  25.462  -9.863
    2XTH    HL1  127  -8.718  25.564  -9.901
    2XTH    HL2  128  -9.238  25.817 -10.785
    2XTH    HL3  129  -9.373  25.828 -10.669
    2XTH    HL4  130  -9.305  25.975 -10.731
    2XTH    HL5  131  -9.122  24.936 -10.815
    2XTH    HL6  132  -9.251  24.829 -10.841
    2XTH    HL7  133  -9.232  24.975 -11.008
    2XTH    HL8  134  -9.225  25.128 -10.909
    2XTH    HL9  135  -9.452  25.105 -10.830
    2XTH   HL10  136  -9.475  24.956 -10.936
    2XTH   HL11  137  -9.409  25.251 -11.005
    2XTH   HL12  138  -9.408  25.125 -11.124
    2XTH   HL13  139  -9.658  25.191 -10.974
    2XTH   HL14  140  -9.629  25.052 -11.074
    2XTH   HL15  141  -9.539  25.247 -11.243
    2XTH   HL16  142  -9.702  25.163 -11.260
    2XTH   HL17  143  -9.600  25.435 -11.329
    2XTH   HL18  144  -9.748  25.383 -11.376
    2XTH   HL19  145  -9.745  25.564 -11.039
    2XTH   HL20  146  -9.706  25.723 -11.114
    2XTH   HL21  147  -9.464  25.670 -11.083
    2XTH   HL22  148  -9.491  25.498 -11.123
    2XTH   HL23  149  -9.536  25.580 -10.963
    2XTH   HL24  150  -8.637  25.397  -9.900
    2XTH   HL25  151  -8.683  25.473  -9.756
    2XTH    CO6  152  -9.902  25.583 -11.248
    2XTH    CO7  153  -9.705  25.660 -11.363
    2XTH    OA5  154  -9.943  25.522 -11.329
    2XTH   HL26  155  -9.941  25.685 -11.257
    2XTH   HL27  156  -9.950  25.534 -11.158
    2XTH   HL28  157  -9.748  25.626 -11.490
    2XTH   HL29  158  -9.747  25.757 -11.344
    3XTA     NT  159  -3.081  26.819  -7.697
    3XTA    CN1  160  -3.129  26.926  -7.767
    3XTA     C1  161  -3.209  26.896  -7.878
    3XTA     C2  162  -3.252  27.007  -7.957
    3XTA     C3  163  -3.221  27.141  -7.923
    3XTA     C4  164  -3.138  27.168  -7.810
    3XTA     C5  165  -3.095  27.061  -7.726
    3XTA    CN2  166  -3.006  26.724  -7.757
    3XTA     C6  167  -3.026  26.580  -7.745
    3XTA     C7  168  -2.935  26.488  -7.797
    3XTA     C8  169  -2.816  26.537  -7.863
    3XTA     C9  170  -2.800  26.673  -7.889
    3XTA    C10  171  -2.896  26.768  -7.840
    3XTA    CN3  172  -3.123  26.790  -7.574
    3XTA    C11  173  -3.259  26.821  -7.542
    3XTA    C12  174  -3.314  26.788  -7.410
    3XTA    C13  175  -3.234  26.727  -7.307
    3XTA    C14  176  -3.101  26.693  -7.335
    3XTA    C15  177  -3.051  26.729  -7.468
    3XTA     H1  178  -3.224  26.792  -7.903
    3XTA     H2  179  -3.310  27.001  -8.043
    3XTA     H3  180  -3.108  27.271  -7.779
    3XTA     H4  181  -3.029  27.075  -7.639
    3XTA     H5  182  -3.104  26.537  -7.680
    3XTA     H6  183  -2.949  26.376  -7.784
    3XTA     H7  184  -2.704  26.702  -7.936
    3XTA     H8  185  -2.880  26.877  -7.856
    3XTA     H9  186  -3.322  26.865  -7.614
    3XTA    H10  187  -3.414  26.802  -7.385
    3XTA    H11  188  -3.047  26.635  -7.261
    3XTA    H12  189  -2.941  26.711  -7.493
    3XTA    OA1  190  -3.259  27.238  -8.012
    3XTA    CO1  191  -3.261  27.372  -7.961
    3XTA    OA2  192  -2.730  26.451  -7.935
    3XTA    CO2  193  -2.761  26.313  -7.964
    3XTA    CL1  194  -2.626  26.250  -8.005
    3XTA    CL2  195  -2.568  26.314  -8.132
    3XTA    CL3  196  -2.650  26.280  -8.263
    3XTA    CL4  197  -2.557  26.297  -8.379
    3XTA    CO3  198  -2.624  26.257  -8.509
    3XTA    OA3  199  -2.526  26.288  -8.613
    3XTA    CO4  200  -2.596  26.294  -8.739
    3XTA    CT1  201  -2.504  26.277  -8.863
    3XTA    CL5  202  -2.418  26.404  -8.881
    3XTA    CL6  203  -2.311  26.426  -8.772
    3XTA    OA4  204  -3.285  26.689  -7.183
    3XTA    CO5  205  -3.423  26.710  -7.160
    3XTA    HL1  206  -3.482  26.665  -7.240
    3XTA    HL2  207  -3.320  27.433  -8.025
    3XTA    HL3  208  -3.307  27.372  -7.865
    3XTA    HL4  209  -3.162  27.422  -7.953
    3XTA    HL5  210  -2.805  26.268  -7.878
    3XTA    HL6  211  -2.834  26.298  -8.042
    3XTA    HL7  212  -2.638  26.142  -8.003
    3XTA    HL8  213  -2.564  26.264  -7.915
    3XTA    HL9  214  -2.466  26.277  -8.133
    3XTA   HL10  215  -2.555  26.420  -8.107
    3XTA   HL11  216  -2.691  26.182  -8.260
    3XTA   HL12  217  -2.744  26.344  -8.271
    3XTA   HL13  218  -2.467  26.244  -8.368
    3XTA   HL14  219  -2.536  26.400  -8.391
    3XTA   HL15  220  -2.645  26.149  -8.511
    3XTA   HL16  221  -2.725  26.303  -8.520
    3XTA   HL17  222  -2.667  26.214  -8.743
    3XTA   HL18  223  -2.642  26.391  -8.748
    3XTA   HL19  224  -2.475  26.487  -8.883
    3XTA   HL20  225  -2.364  26.407  -8.979
    3XTA   HL21  226  -2.360  26.429  -8.670
    3XTA   HL22  227  -2.277  26.530  -8.779
    3XTA   HL23  228  -2.231  26.358  -8.774
    3XTA   HL24  229  -3.444  26.807  -7.161
    3XTA   HL25  230  -3.450  26.663  -7.066
    3XTA    CO6  231  -2.589  26.235  -8.983
    3XTA    CO7  232  -2.425  26.147  -8.830
    3XTA    OA5  233  -2.491  26.059  -8.821
    3XTA   HL26  234  -2.520  26.249  -9.061
    3XTA   HL27  235  -2.630  26.095  -8.988
    3XTA   HL28  236  -2.358  26.165  -8.745
    3XTA   HL29  237  -2.350  26.126  -8.918
    4XTA     NT  238  -4.120  25.725  -6.758
    4XTA    CN1  239  -4.239  25.736  -6.702
    4XTA     C1  240  -4.289  25.648  -6.600
    4XTA     C2  241  -4.420  25.660  -6.550
    4XTA     C3  242  -4.498  25.768  -6.588
    4XTA     C4  243  -4.453  25.862  -6.680
    4XTA     C5  244  -4.321  25.849  -6.733
    4XTA    CN2  245  -4.113  25.691  -6.887
    4XTA     C6  246  -4.061  25.789  -6.972
    4XTA     C7  247  -4.042  25.763  -7.109
    4XTA     C8  248  -4.071  25.639  -7.165
    4XTA     C9  249  -4.135  25.550  -7.084
    4XTA    C10  250  -4.152  25.570  -6.948
    4XTA    CN3  251  -4.016  25.706  -6.680
    4XTA    C11  252  -3.950  25.823  -6.625
    4XTA    C12  253  -3.828  25.808  -6.554
    4XTA    C13  254  -3.774  25.685  -6.534
    4XTA    C14  255  -3.845  25.572  -6.582
    4XTA    C15  256  -3.965  25.579  -6.648
    4XTA     H1  257  -4.235  25.563  -6.563
    4XTA     H2  258  -4.458  25.583  -6.472
    4XTA     H3  259  -4.511  25.954  -6.699
    4XTA     H4  260  -4.293  25.914  -6.806
    4XTA     H5  261  -4.021  25.888  -6.934
    4XTA     H6  262  -3.994  25.848  -7.162
    4XTA     H7  263  -4.172  25.464  -7.132
    4XTA     H8  264  -4.200  25.496  -6.886
    4XTA     H9  265  -3.979  25.926  -6.638
    4XTA    H10  266  -3.761  25.892  -6.534
    4XTA    H11  267  -3.800  25.474  -6.553
    4XTA    H12  268  -4.005  25.485  -6.688
    4XTA    OA1  269  -4.611  25.775  -6.516
    4XTA    CO1  270  -4.661  25.905  -6.487
    4XTA    OA2  271  -4.058  25.601  -7.300
    4XTA    CO2  272  -3.989  25.692  -7.384
    4XTA    CL1  273  -3.947  25.606  -7.501
    4XTA    CL2  274  -3.843  25.500  -7.465
    4XTA    CL3  275  -3.693  25.541  -7.431
    4XTA    CL4  276  -3.610  25.424  -7.378
    4XTA    CO3  277  -3.468  25.452  -7.356
    4XTA    OA3  278  -3.407  25.487  -7.475
    4XTA    CO4  279  -3.268  25.491  -7.481
    4XTA    CT1  280  -3.214  25.487  -7.627
    4XTA    CL5  281  -3.217  25.345  -7.680
    4XTA    CL6  282  -3.348  25.273  -7.657
    4XTA    OA4  283  -3.648  25.677  -6.481
    4XTA    CO5  284  -3.550  25.629  -6.569
    4XTA    HL1  285  -3.451  25.630  -6.519
    4XTA    HL2  286  -4.587  25.982  -6.469
    4XTA    HL3  287  -4.731  25.943  -6.562
    4XTA    HL4  288  -4.724  25.893  -6.401
    4XTA    HL5  289  -4.052  25.769  -7.413
    4XTA    HL6  290  -3.901  25.732  -7.334
    4XTA    HL7  291  -3.898  25.672  -7.579
    4XTA    HL8  292  -4.024  25.558  -7.557
    4XTA    HL9  293  -3.835  25.431  -7.555
    4XTA   HL10  294  -3.888  25.445  -7.383
    4XTA   HL11  295  -3.643  25.598  -7.513
    4XTA   HL12  296  -3.687  25.625  -7.358
    4XTA   HL13  297  -3.613  25.340  -7.452
    4XTA   HL14  298  -3.654  25.384  -7.289
    4XTA   HL15  299  -3.440  25.527  -7.284
    4XTA   HL16  300  -3.433  25.356  -7.329
    4XTA   HL17  301  -3.242  25.583  -7.435
    4XTA   HL18  302  -3.222  25.421  -7.417
    4XTA   HL19  303  -3.136  25.289  -7.639
    4XTA   HL20  304  -3.195  25.340  -7.785
    4XTA   HL21  305  -3.370  25.179  -7.712
    4XTA   HL22  306  -3.430  25.329  -7.678
    4XTA   HL23  307  -3.362  25.255  -7.549
    4XTA   HL24  308  -3.534  25.695  -6.656
    4XTA   HL25  309  -3.565  25.526  -6.608
    4XTA    CO6  310  -3.067  25.537  -7.632
    4XTA    CO7  311  -3.295  25.574  -7.720
    4XTA    OA5  312  -2.979  25.437  -7.591
    4XTA   HL26  313  -3.066  25.641  -7.601
    4XTA   HL27  314  -3.031  25.542  -7.737
    4XTA   HL28  315  -3.241  25.589  -7.817
    4XTA   HL29  316  -3.385  25.518  -7.727
    5XTA     NT  317  -2.792  25.850 -10.599
    5XTA    CN1  318  -2.758  25.729 -10.545
    5XTA     C1  319  -2.722  25.622 -10.622
    5XTA     C2  320  -2.693  25.493 -10.564
    5XTA     C3  321  -2.709  25.475 -10.432
    5XTA     C4  322  -2.739  25.587 -10.354
    5XTA     C5  323  -2.769  25.711 -10.408
    5XTA    CN2  324  -2.735  25.964 -10.549
    5XTA     C6  325  -2.600  25.967 -10.509
    5XTA     C7  326  -2.552  26.083 -10.450
    5XTA     C8  327  -2.637  26.188 -10.419
    5XTA     C9  328  -2.770  26.183 -10.450
    5XTA    C10  329  -2.822  26.069 -10.517
    5XTA    CN3  330  -2.835  25.861 -10.725
    5XTA    C11  331  -2.740  25.891 -10.826
    5XTA    C12  332  -2.786  25.899 -10.960
    5XTA    C13  333  -2.921  25.881 -10.991
    5XTA    C14  334  -3.005  25.846 -10.890
    5XTA    C15  335  -2.963  25.824 -10.760
    5XTA     H1  336  -2.705  25.632 -10.730
    5XTA     H2  337  -2.662  25.411 -10.634
    5XTA     H3  338  -2.762  25.576 -10.245
    5XTA     H4  339  -2.805  25.790 -10.334
    5XTA     H5  340  -2.532  25.887 -10.528
    5XTA     H6  341  -2.451  26.081 -10.424
    5XTA     H7  342  -2.829  26.270 -10.421
    5XTA     H8  343  -2.922  26.067 -10.543
    5XTA     H9  344  -2.636  25.908 -10.798
    5XTA    H10  345  -2.704  25.918 -11.032
    5XTA    H11  346  -3.107  25.832 -10.909
    5XTA    H12  347  -3.040  25.793 -10.686
    5XTA    OA1  348  -2.704  25.356 -10.370
    5XTA    CO1  349  -2.632  25.255 -10.436
    5XTA    OA2  350  -2.587  26.308 -10.373
    5XTA    CO2  351  -2.447  26.321 -10.342
    5XTA    CL1  352  -2.358  26.320 -10.461
    5XTA    CL2  353  -2.397  26.381 -10.599
    5XTA    CL3  354  -2.395  26.530 -10.601
    5XTA    CL4  355  -2.424  26.583 -10.736
    5XTA    CO3  356  -2.415  26.737 -10.763
    5XTA    OA3  357  -2.355  26.794 -10.647
    5XTA    CO4  358  -2.370  26.935 -10.626
    5XTA    CT1  359  -2.281  26.986 -10.511
    5XTA    CL5  360  -2.137  26.947 -10.554
    5XTA    CL6  361  -2.022  27.021 -10.482
    5XTA    OA4  362  -2.969  25.880 -11.120
    5XTA    CO5  363  -2.878  25.862 -11.227
    5XTA    HL1  364  -2.828  25.958 -11.256
    5XTA    HL2  365  -2.531  25.277 -10.437
    5XTA    HL3  366  -2.629  25.169 -10.374
    5XTA    HL4  367  -2.670  25.223 -10.527
    5XTA    HL5  368  -2.436  26.408 -10.286
    5XTA    HL6  369  -2.426  26.243 -10.263
    5XTA    HL7  370  -2.328  26.222 -10.467
    5XTA    HL8  371  -2.259  26.364 -10.439
    5XTA    HL9  372  -2.492  26.342 -10.631
    5XTA   HL10  373  -2.320  26.340 -10.666
    5XTA   HL11  374  -2.461  26.562 -10.521
    5XTA   HL12  375  -2.294  26.557 -10.580
    5XTA   HL13  376  -2.530  26.557 -10.762
    5XTA   HL14  377  -2.353  26.530 -10.809
    5XTA   HL15  378  -2.352  26.757 -10.849
    5XTA   HL16  379  -2.519  26.763 -10.778
    5XTA   HL17  380  -2.353  26.989 -10.718
    5XTA   HL18  381  -2.476  26.951 -10.608
    5XTA   HL19  382  -2.129  26.981 -10.657
    5XTA   HL20  383  -2.114  26.840 -10.541
    5XTA   HL21  384  -2.031  27.130 -10.483
    5XTA   HL22  385  -1.938  26.997 -10.543
    5XTA   HL23  386  -2.011  26.992 -10.379
    5XTA   HL24  387  -2.954  25.841 -11.304
    5XTA   HL25  388  -2.807  25.776 -11.209
    5XTA    CO6  389  -2.324  26.916 -10.375
    5XTA    CO7  390  -2.298  27.135 -10.494
    5XTA    OA5  391  -2.259  27.202 -10.604
    5XTA   HL26  392  -2.419  26.962 -10.369
    5XTA   HL27  393  -2.348  26.816 -10.400
    5XTA   HL28  394  -2.232  27.165 -10.412
    5XTA   HL29  395  -2.401  27.158 -10.474
    6XTA     NT  396  -6.829  29.608 -11.019
    6XTA    CN1  397  -6.864  29.686 -10.910
    6XTA     C1  398  -6.850  29.643 -10.778
    6XTA     C2  399  -6.894  29.713 -10.669
    6XTA     C3  400  -6.963  29.834 -10.679
    6XTA     C4  401  -6.976  29.886 -10.812
    6XTA     C5  402  -6.918  29.818 -10.924
    6XTA    CN2  403  -6.918  29.562 -11.110
    6XTA     C6  404  -7.045  29.511 -11.068
    6XTA     C7  405  -7.134  29.471 -11.164
    6XTA     C8  406  -7.102  29.465 -11.299
    6XTA     C9  407  -6.970  29.500 -11.343
    6XTA    C10  408  -6.882  29.545 -11.242
    6XTA    CN3  409  -6.717  29.531 -11.009
    6XTA    C11  410  -6.592  29.593 -11.050
    6XTA    C12  411  -6.468  29.528 -11.031
    6XTA    C13  412  -6.457  29.405 -10.973
    6XTA    C14  413  -6.577  29.337 -10.946
    6XTA    C15  414  -6.704  29.401 -10.962
    6XTA     H1  415  -6.819  29.542 -10.763
    6XTA     H2  416  -6.883  29.661 -10.578
    6XTA     H3  417  -7.021  29.971 -10.837
    6XTA     H4  418  -6.926  29.856 -11.026
    6XTA     H5  419  -7.074  29.486 -10.966
    6XTA     H6  420  -7.232  29.439 -11.138
    6XTA     H7  421  -6.935  29.491 -11.443
    6XTA     H8  422  -6.780  29.576 -11.271
    6XTA     H9  423  -6.601  29.690 -11.093
    6XTA    H10  424  -6.377  29.567 -11.078
    6XTA    H11  425  -6.563  29.233 -10.910
    6XTA    H12  426  -6.791  29.343 -10.927
    6XTA    OA1  427  -7.004  29.904 -10.567
    6XTA    CO1  428  -6.996  29.837 -10.433
    6XTA    OA2  429  -7.182  29.407 -11.398
    6XTA    CO2  430  -7.316  29.365 -11.358
    6XTA    CL1  431  -7.394  29.308 -11.477
    6XTA    CL2  432  -7.399  29.410 -11.594
    6XTA    CL3  433  -7.479  29.538 -11.570
    6XTA    CL4  434  -7.495  29.628 -11.698
    6XTA    CO3  435  -7.366  29.666 -11.765
    6XTA    OA3  436  -7.322  29.564 -11.851
    6XTA    CO4  437  -7.204  29.610 -11.925
    6XTA    CT1  438  -7.104  29.501 -11.960
    6XTA    CL5  439  -7.058  29.411 -11.843
    6XTA    CL6  440  -7.004  29.489 -11.725
    6XTA    OA4  441  -6.338  29.340 -10.968
    6XTA    CO5  442  -6.238  29.373 -11.055
    6XTA    HL1  443  -6.261  29.371 -11.163
    6XTA    HL2  444  -6.890  29.832 -10.406
    6XTA    HL3  445  -7.050  29.911 -10.370
    6XTA    HL4  446  -7.036  29.738 -10.418
    6XTA    HL5  447  -7.305  29.296 -11.276
    6XTA    HL6  448  -7.372  29.451 -11.329
    6XTA    HL7  449  -7.491  29.261 -11.455
    6XTA    HL8  450  -7.333  29.227 -11.524
    6XTA    HL9  451  -7.442  29.353 -11.677
    6XTA   HL10  452  -7.292  29.449 -11.613
    6XTA   HL11  453  -7.581  29.523 -11.545
    6XTA   HL12  454  -7.445  29.610 -11.495
    6XTA   HL13  455  -7.545  29.716 -11.659
    6XTA   HL14  456  -7.558  29.574 -11.764
    6XTA   HL15  457  -7.382  29.753 -11.829
    6XTA   HL16  458  -7.295  29.706 -11.692
    6XTA   HL17  459  -7.247  29.652 -12.024
    6XTA   HL18  460  -7.156  29.694 -11.876
    6XTA   HL19  461  -6.984  29.342 -11.886
    6XTA   HL20  462  -7.132  29.337 -11.816
    6XTA   HL21  463  -6.963  29.417 -11.657
    6XTA   HL22  464  -7.088  29.542 -11.679
    6XTA   HL23  465  -6.921  29.556 -11.755
    6XTA   HL24  466  -6.150  29.309 -11.040
    6XTA   HL25  467  -6.195  29.467 -11.039
    6XTA    CO6  468  -6.999  29.541 -12.045
    6XTA    CO7  469  -7.150  29.426 -12.082
    6XTA    OA5  470  -7.026  29.489 -12.140
    6XTA   HL26  471  -6.908  29.507 -11.997
    6XTA   HL27  472  -7.004  29.653 -12.045
    6XTA   HL28  473  -7.275  29.458 -12.141
    6XTA   HL29  474  -7.147  29.318 -12.065
    7XTH     NT  475  -3.876  26.166  -6.130
    7XTH    CN1  476  -3.778  26.078  -6.091
    7XTH     C1  477  -3.799  25.946  -6.138
    7XTH     C2  478  -3.700  25.845  -6.118
    7XTH     C3  479  -3.593  25.877  -6.040
    7XTH     C4  480  -3.571  26.005  -5.983
    7XTH     C5  481  -3.663  26.111  -6.008
    7XTH    CN2  482  -3.944  26.214  -6.023
    7XTH     C6  483  -3.919  26.333  -5.951
    7XTH     C7  484  -3.993  26.366  -5.836
    7XTH     C8  485  -4.097  26.285  -5.783
    7XTH     C9  486  -4.134  26.173  -5.867
    7XTH    C10  487  -4.053  26.138  -5.975
    7XTH    CN3  488  -3.853  26.258  -6.238
    7XTH    C11  489  -3.950  26.349  -6.273
    7XTH    C12  490  -3.928  26.426  -6.390
    7XTH    C13  491  -3.807  26.419  -6.469
    7XTH    C14  492  -3.715  26.317  -6.437
    7XTH    C15  493  -3.741  26.238  -6.322
    7XTH     H1  494  -3.892  25.918  -6.188
    7XTH     H2  495  -3.707  25.747  -6.164
    7XTH     H3  496  -3.486  26.018  -5.924
    7XTH     H4  497  -3.647  26.208  -5.966
    7XTH     H5  498  -3.851  26.409  -5.986
    7XTH     H6  499  -3.976  26.464  -5.792
    7XTH     H7  500  -4.216  26.111  -5.835
    7XTH     H8  501  -4.085  26.051  -6.036
    7XTH     H9  502  -4.041  26.349  -6.216
    7XTH    H10  503  -4.001  26.505  -6.422
    7XTH    H11  504  -3.622  26.304  -6.488
    7XTH    H12  505  -3.670  26.173  -6.288
    7XTH    OA1  506  -3.507  25.769  -6.021
    7XTH    CO1  507  -3.420  25.769  -5.901
    7XTH    OA2  508  -4.170  26.325  -5.675
    7XTH    CO2  509  -4.281  26.242  -5.642
    7XTH    CL1  510  -4.360  26.305  -5.527
    7XTH    CL2  511  -4.452  26.207  -5.452
    7XTH    CL3  512  -4.547  26.124  -5.539
    7XTH    CL4  513  -4.636  26.217  -5.615
    7XTH    CO3  514  -4.741  26.126  -5.680
    7XTH    OA3  515  -4.821  26.205  -5.762
    7XTH    CO4  516  -4.913  26.135  -5.837
    7XTH    CT1  517  -5.044  26.219  -5.828
    7XTH    CL5  518  -5.048  26.337  -5.929
    7XTH    CL6  519  -4.943  26.443  -5.904
    7XTH    OA4  520  -3.792  26.499  -6.574
    7XTH    CO5  521  -3.795  26.644  -6.538
    7XTH    HL1  522  -3.690  26.676  -6.530
    7XTH    HL2  523  -3.426  25.664  -5.862
    7XTH    HL3  524  -3.322  25.801  -5.923
    7XTH    HL4  525  -3.468  25.829  -5.816
    7XTH    HL5  526  -4.336  26.239  -5.731
    7XTH    HL6  527  -4.244  26.145  -5.605
    7XTH    HL7  528  -4.421  26.396  -5.561
    7XTH    HL8  529  -4.287  26.361  -5.468
    7XTH    HL9  530  -4.513  26.259  -5.378
    7XTH   HL10  531  -4.389  26.140  -5.392
    7XTH   HL11  532  -4.503  26.057  -5.614
    7XTH   HL12  533  -4.613  26.067  -5.471
    7XTH   HL13  534  -4.573  26.264  -5.694
    7XTH   HL14  535  -4.678  26.293  -5.559
    7XTH   HL15  536  -4.699  26.048  -5.740
    7XTH   HL16  537  -4.804  26.073  -5.605
    7XTH   HL17  538  -4.887  26.127  -5.944
    7XTH   HL18  539  -4.935  26.032  -5.813
    7XTH   HL19  540  -5.147  26.380  -5.935
    7XTH   HL20  541  -5.016  26.301  -6.026
    7XTH   HL21  542  -4.841  26.421  -5.907
    7XTH   HL22  543  -4.952  26.501  -5.811
    7XTH   HL23  544  -4.950  26.516  -5.985
    7XTH   HL24  545  -3.833  26.660  -6.437
    7XTH   HL25  546  -3.844  26.692  -6.619
    7XTH    CO6  547  -5.074  26.260  -5.676
    7XTH    CO7  548  -5.158  26.127  -5.875
    7XTH    OA5  549  -5.257  26.178  -5.899
    7XTH   HL26  550  -4.990  26.323  -5.640
    7XTH   HL27  551  -5.178  26.345  -5.665
    7XTH   HL28  552  -5.171  26.043  -5.800
    7XTH   HL29  553  -5.121  26.078  -5.964
    8XTA     NT  554  -4.175  31.268 -10.669
    8XTA    CN1  555  -4.301  31.323 -10.675
    8XTA     C1  556  -4.389  31.304 -10.570
    8XTA     C2  557  -4.526  31.345 -10.579
    8XTA     C3  558  -4.569  31.424 -10.688
    8XTA     C4  559  -4.482  31.445 -10.795
    8XTA     C5  560  -4.348  31.391 -10.792
    8XTA    CN2  561  -4.092  31.298 -10.567
    8XTA     C6  562  -4.044  31.426 -10.552
    8XTA     C7  563  -3.945  31.462 -10.458
    8XTA     C8  564  -3.891  31.364 -10.375
    8XTA     C9  565  -3.941  31.230 -10.387
    8XTA    C10  566  -4.045  31.198 -10.479
    8XTA    CN3  567  -4.119  31.203 -10.776
    8XTA    C11  568  -4.182  31.085 -10.826
    8XTA    C12  569  -4.122  31.017 -10.932
    8XTA    C13  570  -4.011  31.072 -11.002
    8XTA    C14  571  -3.961  31.197 -10.960
    8XTA    C15  572  -4.017  31.263 -10.852
    8XTA     H1  573  -4.359  31.239 -10.483
    8XTA     H2  574  -4.589  31.331 -10.497
    8XTA     H3  575  -4.510  31.499 -10.886
    8XTA     H4  576  -4.286  31.410 -10.878
    8XTA     H5  577  -4.078  31.506 -10.615
    8XTA     H6  578  -3.913  31.568 -10.452
    8XTA     H7  579  -3.901  31.162 -10.319
    8XTA     H8  580  -4.081  31.096 -10.497
    8XTA     H9  581  -4.273  31.049 -10.789
    8XTA    H10  582  -4.181  30.935 -10.966
    8XTA    H11  583  -3.879  31.244 -11.020
    8XTA    H12  584  -3.982  31.367 -10.835
    8XTA    OA1  585  -4.703  31.470 -10.704
    8XTA    CO1  586  -4.804  31.419 -10.632
    8XTA    OA2  587  -3.794  31.407 -10.288
    8XTA    CO2  588  -3.752  31.327 -10.171
    8XTA    CL1  589  -3.858  31.338 -10.064
    8XTA    CL2  590  -3.848  31.234  -9.951
    8XTA    CL3  591  -3.877  31.086  -9.993
    8XTA    CL4  592  -4.018  31.059 -10.039
    8XTA    CO3  593  -4.031  30.919 -10.098
    8XTA    OA3  594  -4.036  30.821  -9.993
    8XTA    CO4  595  -4.041  30.695 -10.048
    8XTA    CT1  596  -4.073  30.580  -9.942
    8XTA    CL5  597  -4.199  30.610  -9.862
    8XTA    CL6  598  -4.320  30.633  -9.951
    8XTA    OA4  599  -3.974  31.016 -11.123
    8XTA    CO5  600  -3.946  30.878 -11.123
    8XTA    HL1  601  -3.958  30.839 -11.227
    8XTA    HL2  602  -4.779  31.402 -10.534
    8XTA    HL3  603  -4.880  31.487 -10.626
    8XTA    HL4  604  -4.848  31.328 -10.671
    8XTA    HL5  605  -3.724  31.227 -10.197
    8XTA    HL6  606  -3.660  31.371 -10.124
    8XTA    HL7  607  -3.963  31.343 -10.110
    8XTA    HL8  608  -3.845  31.430 -10.011
    8XTA    HL9  609  -3.922  31.271  -9.875
    8XTA   HL10  610  -3.750  31.242  -9.903
    8XTA   HL11  611  -3.807  31.057 -10.066
    8XTA   HL12  612  -3.863  31.012  -9.908
    8XTA   HL13  613  -4.054  31.139 -10.113
    8XTA   HL14  614  -4.089  31.063  -9.953
    8XTA   HL15  615  -4.119  30.905 -10.161
    8XTA   HL16  616  -3.945  30.888 -10.161
    8XTA   HL17  617  -4.124  30.698 -10.126
    8XTA   HL18  618  -3.947  30.670 -10.106
    8XTA   HL19  619  -4.181  30.702  -9.813
    8XTA   HL20  620  -4.222  30.524  -9.791
    8XTA   HL21  621  -4.346  30.559 -10.027
    8XTA   HL22  622  -4.293  30.733  -9.990
    8XTA   HL23  623  -4.414  30.659  -9.907
    8XTA   HL24  624  -4.012  30.822 -11.054
    8XTA   HL25  625  -3.847  30.853 -11.093
    8XTA    CO6  626  -3.961  30.568  -9.835
    8XTA    CO7  627  -4.083  30.441 -10.016
    8XTA    OA5  628  -4.010  30.443 -10.096
    8XTA   HL26  629  -3.879  30.531  -9.887
    8XTA   HL27  630  -3.927  30.706  -9.794
    8XTA   HL28  631  -4.188  30.444 -10.057
    8XTA   HL29  632  -4.063  30.355  -9.946
    9XTA     NT  633  -4.172  31.552  -9.613
    9XTA    CN1  634  -4.207  31.486  -9.724
    9XTA     C1  635  -4.206  31.551  -9.845
    9XTA     C2  636  -4.232  31.488  -9.970
    9XTA     C3  637  -4.255  31.352  -9.975
    9XTA     C4  638  -4.258  31.284  -9.851
    9XTA     C5  639  -4.252  31.356  -9.729
    9XTA    CN2  640  -4.066  31.508  -9.541
    9XTA     C6  641  -4.076  31.508  -9.404
    9XTA     C7  642  -3.972  31.455  -9.326
    9XTA     C8  643  -3.851  31.408  -9.383
    9XTA     C9  644  -3.841  31.430  -9.523
    9XTA    C10  645  -3.948  31.468  -9.604
    9XTA    CN3  646  -4.226  31.669  -9.593
    9XTA    C11  647  -4.367  31.689  -9.573
    9XTA    C12  648  -4.412  31.820  -9.557
    9XTA    C13  649  -4.328  31.937  -9.571
    9XTA    C14  650  -4.194  31.916  -9.601
    9XTA    C15  651  -4.145  31.783  -9.613
    9XTA     H1  652  -4.179  31.657  -9.854
    9XTA     H2  653  -4.238  31.541 -10.068
    9XTA     H3  654  -4.286  31.172  -9.843
    9XTA     H4  655  -4.272  31.304  -9.634
    9XTA     H5  656  -4.154  31.544  -9.352
    9XTA     H6  657  -3.994  31.446  -9.220
    9XTA     H7  658  -3.749  31.403  -9.569
    9XTA     H8  659  -3.921  31.466  -9.710
    9XTA     H9  660  -4.429  31.608  -9.565
    9XTA    H10  661  -4.507  31.838  -9.539
    9XTA    H11  662  -4.130  32.000  -9.609
    9XTA    H12  663  -4.040  31.768  -9.628
    9XTA    OA1  664  -4.268  31.275 -10.091
    9XTA    CO1  665  -4.267  31.348 -10.213
    9XTA    OA2  666  -3.740  31.371  -9.310
    9XTA    CO2  667  -3.768  31.278  -9.206
    9XTA    CL1  668  -3.648  31.210  -9.145
    9XTA    CL2  669  -3.676  31.124  -9.014
    9XTA    CL3  670  -3.562  31.033  -8.985
    9XTA    CL4  671  -3.544  30.913  -9.080
    9XTA    CO3  672  -3.669  30.821  -9.081
    9XTA    OA3  673  -3.649  30.711  -9.171
    9XTA    CO4  674  -3.665  30.736  -9.307
    9XTA    CT1  675  -3.598  30.627  -9.388
    9XTA    CL5  676  -3.447  30.606  -9.355
    9XTA    CL6  677  -3.409  30.549  -9.211
    9XTA    OA4  678  -4.368  32.073  -9.565
    9XTA    CO5  679  -4.473  32.097  -9.477
    9XTA    HL1  680  -4.484  32.207  -9.464
    9XTA    HL2  681  -4.285  31.267 -10.281
    9XTA    HL3  682  -4.345  31.423 -10.217
    9XTA    HL4  683  -4.162  31.392 -10.227
    9XTA    HL5  684  -3.834  31.332  -9.134
    9XTA    HL6  685  -3.824  31.194  -9.240
    9XTA    HL7  686  -3.579  31.289  -9.104
    9XTA    HL8  687  -3.590  31.163  -9.224
    9XTA    HL9  688  -3.769  31.070  -9.014
    9XTA   HL10  689  -3.680  31.198  -8.933
    9XTA   HL11  690  -3.466  31.096  -8.985
    9XTA   HL12  691  -3.576  31.005  -8.882
    9XTA   HL13  692  -3.455  30.861  -9.043
    9XTA   HL14  693  -3.528  30.951  -9.183
    9XTA   HL15  694  -3.698  30.777  -8.987
    9XTA   HL16  695  -3.755  30.875  -9.103
    9XTA   HL17  696  -3.773  30.745  -9.318
    9XTA   HL18  697  -3.609  30.827  -9.327
    9XTA   HL19  698  -3.391  30.698  -9.361
    9XTA   HL20  699  -3.411  30.533  -9.427
    9XTA   HL21  700  -3.485  30.482  -9.175
    9XTA   HL22  701  -3.406  30.638  -9.139
    9XTA   HL23  702  -3.318  30.491  -9.215
    9XTA   HL24  703  -4.456  32.058  -9.382
    9XTA   HL25  704  -4.564  32.048  -9.509
    9XTA    CO6  705  -3.594  30.663  -9.540
    9XTA    CO7  706  -3.675  30.495  -9.381
    9XTA    OA5  707  -3.766  30.496  -9.442
    9XTA   HL26  708  -3.546  30.587  -9.594
    9XTA   HL27  709  -3.722  30.660  -9.606
    9XTA   HL28  710  -3.684  30.466  -9.281
    9XTA   HL29  711  -3.619  30.420  -9.431
   10XTH     NT  712  -2.127  24.012 -12.415
   10XTH    CN1  713  -2.187  24.054 -12.530
   10XTH     C1  714  -2.282  24.163 -12.531
   10XTH     C2  715  -2.345  24.213 -12.646
   10XTH     C3  716  -2.312  24.155 -12.770
   10XTH     C4  717  -2.224  24.044 -12.773
   10XTH     C5  718  -2.167  23.991 -12.653
   10XTH    CN2  719  -2.200  23.960 -12.312
   10XTH     C6  720  -2.205  24.029 -12.191
   10XTH     C7  721  -2.277  23.975 -12.079
   10XTH     C8  722  -2.351  23.857 -12.092
   10XTH     C9  723  -2.345  23.787 -12.215
   10XTH    C10  724  -2.272  23.840 -12.322
   10XTH    CN3  725  -1.992  24.012 -12.415
   10XTH    C11  726  -1.918  23.895 -12.429
   10XTH    C12  727  -1.778  23.901 -12.445
   10XTH    C13  728  -1.705  24.019 -12.445
   10XTH    C14  729  -1.780  24.141 -12.426
   10XTH    C15  730  -1.919  24.132 -12.418
   10XTH     H1  731  -2.291  24.211 -12.438
   10XTH     H2  732  -2.410  24.295 -12.645
   10XTH     H3  733  -2.194  23.996 -12.864
   10XTH     H4  734  -2.090  23.912 -12.673
   10XTH     H5  735  -2.147  24.120 -12.175
   10XTH     H6  736  -2.279  24.027 -11.985
   10XTH     H7  737  -2.410  23.712 -12.232
   10XTH     H8  738  -2.272  23.770 -12.407
   10XTH     H9  739  -1.956  23.794 -12.422
   10XTH    H10  740  -1.721  23.808 -12.457
   10XTH    H11  741  -1.740  24.242 -12.429
   10XTH    H12  742  -1.974  24.227 -12.404
   10XTH    OA1  743  -2.383  24.193 -12.880
   10XTH    CO1  744  -2.342  24.145 -13.010
   10XTH    OA2  745  -2.434  23.808 -11.996
   10XTH    CO2  746  -2.419  23.860 -11.856
   10XTH    CL1  747  -2.428  23.744 -11.754
   10XTH    CL2  748  -2.415  23.799 -11.610
   10XTH    CL3  749  -2.441  23.700 -11.491
   10XTH    CL4  750  -2.424  23.774 -11.353
   10XTH    CO3  751  -2.272  23.781 -11.325
   10XTH    OA3  752  -2.257  23.865 -11.212
   10XTH    CO4  753  -2.120  23.900 -11.197
   10XTH    CT1  754  -2.117  23.998 -11.077
   10XTH    CL5  755  -2.238  24.098 -11.075
   10XTH    CL6  756  -2.269  24.174 -11.201
   10XTH    OA4  757  -1.570  24.018 -12.464
   10XTH    CO5  758  -1.505  23.905 -12.526
   10XTH    HL1  759  -1.514  23.807 -12.468
   10XTH    HL2  760  -2.234  24.145 -13.027
   10XTH    HL3  761  -2.378  24.041 -13.023
   10XTH    HL4  762  -2.395  24.204 -13.087
   10XTH    HL5  763  -2.320  23.907 -11.844
   10XTH    HL6  764  -2.478  23.951 -11.829
   10XTH    HL7  765  -2.343  23.681 -11.772
   10XTH    HL8  766  -2.519  23.689 -11.786
   10XTH    HL9  767  -2.488  23.883 -11.602
   10XTH   HL10  768  -2.317  23.847 -11.603
   10XTH   HL11  769  -2.544  23.667 -11.510
   10XTH   HL12  770  -2.379  23.614 -11.498
   10XTH   HL13  771  -2.465  23.727 -11.267
   10XTH   HL14  772  -2.466  23.873 -11.366
   10XTH   HL15  773  -2.228  23.686 -11.293
   10XTH   HL16  774  -2.212  23.822 -11.411
   10XTH   HL17  775  -2.068  23.810 -11.171
   10XTH   HL18  776  -2.078  23.955 -11.281
   10XTH   HL19  777  -2.217  24.173 -10.991
   10XTH   HL20  778  -2.331  24.051 -11.037
   10XTH   HL21  779  -2.324  24.116 -11.277
   10XTH   HL22  780  -2.176  24.221 -11.245
   10XTH   HL23  781  -2.329  24.266 -11.177
   10XTH   HL24  782  -1.393  23.921 -12.513
   10XTH   HL25  783  -1.537  23.898 -12.631
   10XTH    CO6  784  -1.987  24.088 -11.089
   10XTH    CO7  785  -2.094  23.925 -10.946
   10XTH    OA5  786  -2.215  23.849 -10.930
   10XTH   HL26  787  -1.907  24.019 -11.069
   10XTH   HL27  788  -1.978  24.116 -11.198
   10XTH   HL28  789  -2.079  23.991 -10.864
   10XTH   HL29  790  -2.012  23.861 -10.956
   11XTA     NT  791  -6.877  26.452  -5.217
   11XTA    CN1  792  -7.002  26.502  -5.228
   11XTA     C1  793  -7.091  26.484  -5.118
   11XTA     C2  794  -7.218  26.544  -5.122
   11XTA     C3  795  -7.267  26.597  -5.244
   11XTA     C4  796  -7.177  26.605  -5.352
   11XTA     C5  797  -7.043  26.572  -5.346
   11XTA    CN2  798  -6.795  26.492  -5.114
   11XTA     C6  799  -6.739  26.619  -5.100
   11XTA     C7  800  -6.655  26.648  -4.994
   11XTA     C8  801  -6.634  26.558  -4.889
   11XTA     C9  802  -6.701  26.433  -4.894
   11XTA    C10  803  -6.776  26.397  -5.011
   11XTA    CN3  804  -6.848  26.330  -5.283
   11XTA    C11  805  -6.730  26.312  -5.353
   11XTA    C12  806  -6.701  26.190  -5.411
   11XTA    C13  807  -6.789  26.082  -5.397
   11XTA    C14  808  -6.911  26.098  -5.331
   11XTA    C15  809  -6.946  26.223  -5.273
   11XTA     H1  810  -7.055  26.432  -5.029
   11XTA     H2  811  -7.278  26.549  -5.030
   11XTA     H3  812  -7.215  26.660  -5.439
   11XTA     H4  813  -6.979  26.604  -5.419
   11XTA     H5  814  -6.769  26.695  -5.177
   11XTA     H6  815  -6.608  26.742  -4.987
   11XTA     H7  816  -6.686  26.365  -4.807
   11XTA     H8  817  -6.819  26.298  -5.017
   11XTA     H9  818  -6.656  26.395  -5.359
   11XTA    H10  819  -6.605  26.171  -5.460
   11XTA    H11  820  -6.988  26.024  -5.327
   11XTA    H12  821  -7.041  26.241  -5.226
   11XTA    OA1  822  -7.400  26.632  -5.273
   11XTA    CO1  823  -7.500  26.611  -5.172
   11XTA    OA2  824  -6.541  26.589  -4.795
   11XTA    CO2  825  -6.461  26.492  -4.722
   11XTA    CL1  826  -6.370  26.402  -4.813
   11XTA    CL2  827  -6.271  26.481  -4.893
   11XTA    CL3  828  -6.217  26.395  -5.001
   11XTA    CL4  829  -6.173  26.472  -5.122
   11XTA    CO3  830  -6.070  26.396  -5.203
   11XTA    OA3  831  -6.130  26.297  -5.286
   11XTA    CO4  832  -6.140  26.171  -5.225
   11XTA    CT1  833  -6.194  26.074  -5.332
   11XTA    CL5  834  -6.330  26.128  -5.386
   11XTA    CL6  835  -6.328  26.239  -5.490
   11XTA    OA4  836  -6.768  25.969  -5.470
   11XTA    CO5  837  -6.633  25.927  -5.500
   11XTA    HL1  838  -6.632  25.820  -5.524
   11XTA    HL2  839  -7.487  26.519  -5.127
   11XTA    HL3  840  -7.505  26.692  -5.097
   11XTA    HL4  841  -7.599  26.624  -5.219
   11XTA    HL5  842  -6.393  26.545  -4.659
   11XTA    HL6  843  -6.525  26.436  -4.657
   11XTA    HL7  844  -6.439  26.346  -4.881
   11XTA    HL8  845  -6.319  26.329  -4.750
   11XTA    HL9  846  -6.192  26.527  -4.838
   11XTA   HL10  847  -6.336  26.563  -4.946
   11XTA   HL11  848  -6.130  26.332  -4.958
   11XTA   HL12  849  -6.294  26.324  -5.033
   11XTA   HL13  850  -6.124  26.559  -5.087
   11XTA   HL14  851  -6.251  26.510  -5.197
   11XTA   HL15  852  -6.026  26.463  -5.277
   11XTA   HL16  853  -5.979  26.362  -5.148
   11XTA   HL17  854  -6.045  26.149  -5.190
   11XTA   HL18  855  -6.224  26.169  -5.151
   11XTA   HL19  856  -6.387  26.170  -5.305
   11XTA   HL20  857  -6.387  26.047  -5.428
   11XTA   HL21  858  -6.314  26.208  -5.599
   11XTA   HL22  859  -6.235  26.298  -5.472
   11XTA   HL23  860  -6.410  26.304  -5.494
   11XTA   HL24  861  -6.549  25.943  -5.433
   11XTA   HL25  862  -6.593  25.963  -5.597
   11XTA    CO6  863  -6.211  25.938  -5.254
   11XTA    CO7  864  -6.091  26.043  -5.440
   11XTA    OA5  865  -5.951  26.030  -5.399
   11XTA   HL26  866  -6.233  25.855  -5.315
   11XTA   HL27  867  -6.123  25.917  -5.192
   11XTA   HL28  868  -6.091  26.119  -5.508
   11XTA   HL29  869  -6.116  25.946  -5.485
   12XTH     NT  870  -9.664  25.001 -10.269
   12XTH    CN1  871  -9.694  25.031 -10.400
   12XTH     C1  872  -9.616  25.132 -10.472
   12XTH     C2  873  -9.661  25.165 -10.603
   12XTH     C3  874  -9.772  25.100 -10.654
   12XTH     C4  875  -9.852  25.005 -10.584
   12XTH     C5  876  -9.809  24.968 -10.457
   12XTH    CN2  877  -9.540  24.964 -10.229
   12XTH     C6  878  -9.470  25.039 -10.138
   12XTH     C7  879  -9.348  24.999 -10.086
   12XTH     C8  880  -9.286  24.880 -10.131
   12XTH     C9  881  -9.361  24.799 -10.222
   12XTH    C10  882  -9.488  24.839 -10.270
   12XTH    CN3  883  -9.753  25.037 -10.171
   12XTH    C11  884  -9.798  24.945 -10.075
   12XTH    C12  885  -9.888  24.987  -9.969
   12XTH    C13  886  -9.921  25.120  -9.955
   12XTH    C14  887  -9.869  25.215 -10.051
   12XTH    C15  888  -9.791  25.173 -10.158
   12XTH     H1  889  -9.529  25.185 -10.429
   12XTH     H2  890  -9.613  25.224 -10.679
   12XTH     H3  891  -9.925  24.941 -10.629
   12XTH     H4  892  -9.852  24.884 -10.397
   12XTH     H5  893  -9.504  25.137 -10.107
   12XTH     H6  894  -9.294  25.052 -10.011
   12XTH     H7  895  -9.333  24.699 -10.254
   12XTH     H8  896  -9.540  24.771 -10.332
   12XTH     H9  897  -9.781  24.833 -10.094
   12XTH    H10  898  -9.937  24.923  -9.896
   12XTH    H11  899  -9.888  25.320 -10.050
   12XTH    H12  900  -9.759  25.248 -10.224
   12XTH    OA1  901  -9.794  25.133 -10.783
   12XTH    CO1  902  -9.876  25.039 -10.862
   12XTH    OA2  903  -9.164  24.846 -10.085
   12XTH    CO2  904  -9.058  24.938 -10.105
   12XTH    CL1  905  -8.926  24.898 -10.042
   12XTH    CL2  906  -8.913  24.904  -9.890
   12XTH    CL3  907  -8.903  25.049  -9.829
   12XTH    CL4  908  -8.897  25.046  -9.678
   12XTH    CO3  909  -8.857  25.185  -9.620
   12XTH    OA3  910  -8.721  25.193  -9.598
   12XTH    CO4  911  -8.680  25.288  -9.500
   12XTH    CT1  912  -8.655  25.234  -9.355
   12XTH    CL5  913  -8.610  25.354  -9.268
   12XTH    CL6  914  -8.472  25.414  -9.293
   12XTH    OA4  915  -9.993  25.167  -9.851
   12XTH    CO5  916  -9.973  25.307  -9.821
   12XTH    HL1  917  -9.874  25.326  -9.777
   12XTH    HL2  918  -9.887  25.093 -10.954
   12XTH    HL3  919  -9.828  24.946 -10.869
   12XTH    HL4  920  -9.976  25.021 -10.835
   12XTH    HL5  921  -9.052  24.955 -10.212
   12XTH    HL6  922  -9.089  25.021 -10.050
   12XTH    HL7  923  -8.844  24.943 -10.090
   12XTH    HL8  924  -8.903  24.792 -10.070
   12XTH    HL9  925  -8.812  24.869  -9.862
   12XTH   HL10  926  -8.975  24.834  -9.839
   12XTH   HL11  927  -8.825  25.096  -9.888
   12XTH   HL12  928  -8.992  25.108  -9.856
   12XTH   HL13  929  -8.826  24.973  -9.642
   12XTH   HL14  930  -8.989  25.022  -9.630
   12XTH   HL15  931  -8.881  25.271  -9.685
   12XTH   HL16  932  -8.908  25.183  -9.524
   12XTH   HL17  933  -8.584  25.326  -9.536
   12XTH   HL18  934  -8.745  25.367  -9.506
   12XTH   HL19  935  -8.611  25.305  -9.168
   12XTH   HL20  936  -8.674  25.437  -9.277
   12XTH   HL21  937  -8.387  25.342  -9.284
   12XTH   HL22  938  -8.460  25.497  -9.229
   12XTH   HL23  939  -8.478  25.471  -9.388
   12XTH   HL24  940 -10.039  25.340  -9.741
   12XTH   HL25  941  -9.995  25.368  -9.908
   12XTH    CO6  942  -8.543  25.127  -9.355
   12XTH    CO7  943  -8.776  25.171  -9.287
   12XTH    OA5  944  -8.514  25.093  -9.250
   12XTH   HL26  945  -8.459  25.173  -9.405
   12XTH   HL27  946  -8.570  25.047  -9.416
   12XTH   HL28  947  -8.740  25.143  -9.146
   12XTH   HL29  948  -8.776  25.071  -9.337
   13XTA     NT  949  -4.407  27.601  -4.323
   13XTA    CN1  950  -4.324  27.616  -4.218
   13XTA     C1  951  -4.238  27.724  -4.214
   13XTA     C2  952  -4.151  27.736  -4.100
   13XTA     C3  953  -4.142  27.638  -4.002
   13XTA     C4  954  -4.219  27.518  -4.017
   13XTA     C5  955  -4.304  27.510  -4.128
   13XTA    CN2  956  -4.375  27.509  -4.422
   13XTA     C6  957  -4.241  27.480  -4.457
   13XTA     C7  958  -4.210  27.367  -4.535
   13XTA     C8  959  -4.309  27.289  -4.587
   13XTA     C9  960  -4.441  27.320  -4.554
   13XTA    C10  961  -4.481  27.431  -4.480
   13XTA    CN3  962  -4.488  27.710  -4.349
   13XTA    C11  963  -4.490  27.773  -4.476
   13XTA    C12  964  -4.587  27.868  -4.510
   13XTA    C13  965  -4.681  27.902  -4.416
   13XTA    C14  966  -4.677  27.845  -4.287
   13XTA    C15  967  -4.583  27.749  -4.253
   13XTA     H1  968  -4.233  27.804  -4.290
   13XTA     H2  969  -4.089  27.823  -4.078
   13XTA     H3  970  -4.223  27.439  -3.945
   13XTA     H4  971  -4.362  27.426  -4.143
   13XTA     H5  972  -4.164  27.541  -4.414
   13XTA     H6  973  -4.106  27.342  -4.546
   13XTA     H7  974  -4.520  27.256  -4.595
   13XTA     H8  975  -4.585  27.447  -4.455
   13XTA     H9  976  -4.419  27.730  -4.555
   13XTA    H10  977  -4.589  27.897  -4.611
   13XTA    H11  978  -4.748  27.875  -4.211
   13XTA    H12  979  -4.583  27.700  -4.156
   13XTA    OA1  980  -4.042  27.667  -3.907
   13XTA    CO1  981  -4.059  27.588  -3.789
   13XTA    OA2  982  -4.275  27.184  -4.660
   13XTA    CO2  983  -4.336  27.061  -4.617
   13XTA    CL1  984  -4.241  26.941  -4.633
   13XTA    CL2  985  -4.097  26.961  -4.574
   13XTA    CL3  986  -4.027  26.826  -4.550
   13XTA    CL4  987  -3.885  26.849  -4.519
   13XTA    CO3  988  -3.802  26.883  -4.642
   13XTA    OA3  989  -3.832  27.009  -4.694
   13XTA    CO4  990  -3.763  27.051  -4.808
   13XTA    CT1  991  -3.837  27.170  -4.860
   13XTA    CL5  992  -3.982  27.136  -4.910
   13XTA    CL6  993  -3.994  26.999  -4.976
   13XTA    OA4  994  -4.780  27.989  -4.439
   13XTA    CO5  995  -4.804  28.020  -4.572
   13XTA    HL1  996  -4.812  27.933  -4.642
   13XTA    HL2  997  -3.996  27.627  -3.706
   13XTA    HL3  998  -4.154  27.612  -3.747
   13XTA    HL4  999  -4.052  27.485  -3.795
   13XTA    HL5 1000  -4.353  27.061  -4.511
   13XTA    HL6 1001  -4.427  27.034  -4.671
   13XTA    HL7 1002  -4.228  26.926  -4.741
   13XTA    HL8 1003  -4.292  26.851  -4.599
   13XTA    HL9 1004  -4.106  27.014  -4.480
   13XTA   HL10 1005  -4.048  27.027  -4.647
   13XTA   HL11 1006  -4.067  26.769  -4.467
   13XTA   HL12 1007  -4.043  26.766  -4.635
   13XTA   HL13 1008  -3.830  26.760  -4.486
   13XTA   HL14 1009  -3.867  26.909  -4.428
   13XTA   HL15 1010  -3.697  26.887  -4.620
   13XTA   HL16 1011  -3.817  26.808  -4.720
   13XTA   HL17 1012  -3.661  27.074  -4.774
   13XTA   HL18 1013  -3.756  26.960  -4.872
   13XTA   HL19 1014  -4.012  27.218  -4.973
   13XTA   HL20 1015  -4.048  27.132  -4.824
   13XTA   HL21 1016  -3.916  26.980  -5.052
   13XTA   HL22 1017  -4.095  26.987  -5.018
   13XTA   HL23 1018  -3.991  26.919  -4.900
   13XTA   HL24 1019  -4.724  28.089  -4.602
   13XTA   HL25 1020  -4.897  28.071  -4.567
   13XTA    CO6 1021  -3.768  27.231  -4.973
   13XTA    CO7 1022  -3.855  27.286  -4.756
   13XTA    OA5 1023  -3.742  27.150  -5.087
   13XTA   HL26 1024  -3.669  27.258  -4.938
   13XTA   HL27 1025  -3.809  27.328  -4.993
   13XTA   HL28 1026  -3.907  27.258  -4.667
   13XTA   HL29 1027  -3.757  27.327  -4.729
   14XTA     NT 1028  -2.767  29.089  -9.616
   14XTA    CN1 1029  -2.807  28.997  -9.517
   14XTA     C1 1030  -2.851  29.049  -9.394
   14XTA     C2 1031  -2.915  28.963  -9.300
   14XTA     C3 1032  -2.913  28.821  -9.322
   14XTA     C4 1033  -2.871  28.773  -9.448
   14XTA     C5 1034  -2.820  28.857  -9.547
   14XTA    CN2 1035  -2.840  29.202  -9.632
   14XTA     C6 1036  -2.780  29.330  -9.629
   14XTA     C7 1037  -2.865  29.448  -9.620
   14XTA     C8 1038  -2.998  29.435  -9.649
   14XTA     C9 1039  -3.058  29.308  -9.647
   14XTA    C10 1040  -2.979  29.192  -9.632
   14XTA    CN3 1041  -2.711  29.060  -9.733
   14XTA    C11 1042  -2.584  29.110  -9.770
   14XTA    C12 1043  -2.532  29.103  -9.896
   14XTA    C13 1044  -2.601  29.038 -10.000
   14XTA    C14 1045  -2.731  28.985  -9.967
   14XTA    C15 1046  -2.787  29.000  -9.839
   14XTA     H1 1047  -2.851  29.158  -9.373
   14XTA     H2 1048  -2.952  29.008  -9.209
   14XTA     H3 1049  -2.865  28.673  -9.480
   14XTA     H4 1050  -2.802  28.815  -9.644
   14XTA     H5 1051  -2.672  29.342  -9.632
   14XTA     H6 1052  -2.826  29.548  -9.618
   14XTA     H7 1053  -3.169  29.295  -9.654
   14XTA     H8 1054  -3.031  29.104  -9.613
   14XTA     H9 1055  -2.522  29.175  -9.711
   14XTA    H10 1056  -2.444  29.158  -9.921
   14XTA    H11 1057  -2.794  28.943 -10.040
   14XTA    H12 1058  -2.894  28.972  -9.809
   14XTA    OA1 1059  -2.961  28.739  -9.228
   14XTA    CO1 1060  -2.931  28.602  -9.249
   14XTA    OA2 1061  -3.079  29.545  -9.670
   14XTA    CO2 1062  -3.177  29.552  -9.563
   14XTA    CL1 1063  -3.274  29.656  -9.607
   14XTA    CL2 1064  -3.382  29.681  -9.493
   14XTA    CL3 1065  -3.457  29.815  -9.521
   14XTA    CL4 1066  -3.543  29.814  -9.648
   14XTA    CO3 1067  -3.657  29.720  -9.639
   14XTA    OA3 1068  -3.756  29.748  -9.734
   14XTA    CO4 1069  -3.870  29.662  -9.716
   14XTA    CT1 1070  -3.945  29.634  -9.846
   14XTA    CL5 1071  -4.067  29.548  -9.814
   14XTA    CL6 1072  -4.035  29.410  -9.764
   14XTA    OA4 1073  -2.553  29.013 -10.128
   14XTA    CO5 1074  -2.420  29.056 -10.147
   14XTA    HL1 1075  -2.359  28.991 -10.080
   14XTA    HL2 1076  -2.970  28.556  -9.158
   14XTA    HL3 1077  -2.993  28.565  -9.337
   14XTA    HL4 1078  -2.822  28.584  -9.262
   14XTA    HL5 1079  -3.234  29.459  -9.545
   14XTA    HL6 1080  -3.132  29.583  -9.473
   14XTA    HL7 1081  -3.329  29.629  -9.704
   14XTA    HL8 1082  -3.233  29.753  -9.628
   14XTA    HL9 1083  -3.330  29.671  -9.396
   14XTA   HL10 1084  -3.447  29.599  -9.497
   14XTA   HL11 1085  -3.531  29.843  -9.438
   14XTA   HL12 1086  -3.388  29.897  -9.537
   14XTA   HL13 1087  -3.488  29.782  -9.737
   14XTA   HL14 1088  -3.581  29.917  -9.669
   14XTA   HL15 1089  -3.633  29.611  -9.649
   14XTA   HL16 1090  -3.690  29.725  -9.532
   14XTA   HL17 1091  -3.835  29.564  -9.683
   14XTA   HL18 1092  -3.927  29.713  -9.640
   14XTA   HL19 1093  -4.119  29.535  -9.910
   14XTA   HL20 1094  -4.147  29.593  -9.759
   14XTA   HL21 1095  -3.979  29.362  -9.844
   14XTA   HL22 1096  -4.122  29.355  -9.742
   14XTA   HL23 1097  -3.982  29.413  -9.669
   14XTA   HL24 1098  -2.400  29.165 -10.128
   14XTA   HL25 1099  -2.390  29.041 -10.252
   14XTA    CO6 1100  -3.858  29.571  -9.950
   14XTA    CO7 1101  -4.002  29.770  -9.903
   14XTA    OA5 1102  -3.804  29.489  -9.901
   14XTA   HL26 1103  -3.784  29.646  -9.994
   14XTA   HL27 1104  -3.930  29.530 -10.022
   14XTA   HL28 1105  -3.917  29.875  -9.921
   14XTA   HL29 1106  -4.084  29.805  -9.835
   15XTA     NT 1107  -2.917  23.766  -3.799
   15XTA    CN1 1108  -2.854  23.687  -3.713
   15XTA     C1 1109  -2.773  23.586  -3.768
   15XTA     C2 1110  -2.709  23.498  -3.676
   15XTA     C3 1111  -2.717  23.514  -3.539
   15XTA     C4 1112  -2.806  23.610  -3.486
   15XTA     C5 1113  -2.870  23.698  -3.576
   15XTA    CN2 1114  -3.052  23.781  -3.801
   15XTA     C6 1115  -3.129  23.675  -3.857
   15XTA     C7 1116  -3.271  23.681  -3.858
   15XTA     C8 1117  -3.339  23.793  -3.811
   15XTA     C9 1118  -3.256  23.901  -3.769
   15XTA    C10 1119  -3.116  23.892  -3.758
   15XTA    CN3 1120  -2.854  23.864  -3.872
   15XTA    C11 1121  -2.770  23.959  -3.810
   15XTA    C12 1122  -2.709  24.061  -3.885
   15XTA    C13 1123  -2.712  24.064  -4.023
   15XTA    C14 1124  -2.793  23.972  -4.088
   15XTA    C15 1125  -2.861  23.871  -4.015
   15XTA     H1 1126  -2.764  23.563  -3.874
   15XTA     H2 1127  -2.644  23.412  -3.714
   15XTA     H3 1128  -2.813  23.626  -3.378
   15XTA     H4 1129  -2.938  23.761  -3.528
   15XTA     H5 1130  -3.082  23.587  -3.890
   15XTA     H6 1131  -3.327  23.602  -3.911
   15XTA     H7 1132  -3.304  23.997  -3.742
   15XTA     H8 1133  -3.060  23.977  -3.722
   15XTA     H9 1134  -2.767  23.966  -3.703
   15XTA    H10 1135  -2.668  24.138  -3.826
   15XTA    H11 1136  -2.804  23.972  -4.195
   15XTA    H12 1137  -2.929  23.795  -4.060
   15XTA    OA1 1138  -2.642  23.437  -3.449
   15XTA    CO1 1139  -2.506  23.407  -3.471
   15XTA    OA2 1140  -3.477  23.804  -3.812
   15XTA    CO2 1141  -3.556  23.693  -3.849
   15XTA    CL1 1142  -3.700  23.733  -3.821
   15XTA    CL2 1143  -3.746  23.852  -3.907
   15XTA    CL3 1144  -3.770  23.838  -4.057
   15XTA    CL4 1145  -3.801  23.976  -4.120
   15XTA    CO3 1146  -3.714  24.010  -4.241
   15XTA    OA3 1147  -3.712  23.893  -4.314
   15XTA    CO4 1148  -3.634  23.890  -4.425
   15XTA    CT1 1149  -3.593  23.742  -4.451
   15XTA    CL5 1150  -3.556  23.666  -4.321
   15XTA    CL6 1151  -3.445  23.732  -4.232
   15XTA    OA4 1152  -2.649  24.160  -4.099
   15XTA    CO5 1153  -2.537  24.226  -4.041
   15XTA    HL1 1154  -2.513  24.312  -4.097
   15XTA    HL2 1155  -2.482  23.354  -3.554
   15XTA    HL3 1156  -2.459  23.503  -3.468
   15XTA    HL4 1157  -2.461  23.349  -3.393
   15XTA    HL5 1158  -3.539  23.667  -3.958
   15XTA    HL6 1159  -3.532  23.606  -3.784
   15XTA    HL7 1160  -3.716  23.767  -3.718
   15XTA    HL8 1161  -3.762  23.647  -3.841
   15XTA    HL9 1162  -3.678  23.941  -3.890
   15XTA   HL10 1163  -3.839  23.892  -3.870
   15XTA   HL11 1164  -3.687  23.786  -4.110
   15XTA   HL12 1165  -3.864  23.781  -4.077
   15XTA   HL13 1166  -3.795  24.052  -4.040
   15XTA   HL14 1167  -3.900  23.981  -4.150
   15XTA   HL15 1168  -3.757  24.098  -4.290
   15XTA   HL16 1169  -3.604  24.031  -4.212
   15XTA   HL17 1170  -3.688  23.934  -4.506
   15XTA   HL18 1171  -3.547  23.952  -4.401
   15XTA   HL19 1172  -3.525  23.570  -4.362
   15XTA   HL20 1173  -3.646  23.643  -4.263
   15XTA   HL21 1174  -3.341  23.720  -4.268
   15XTA   HL22 1175  -3.447  23.689  -4.132
   15XTA   HL23 1176  -3.472  23.833  -4.205
   15XTA   HL24 1177  -2.456  24.164  -4.035
   15XTA   HL25 1178  -2.560  24.265  -3.939
   15XTA    CO6 1179  -3.474  23.754  -4.547
   15XTA    CO7 1180  -3.713  23.671  -4.514
   15XTA    OA5 1181  -3.800  23.672  -4.448
   15XTA   HL26 1182  -3.509  23.818  -4.630
   15XTA   HL27 1183  -3.367  23.828  -4.504
   15XTA   HL28 1184  -3.677  23.572  -4.539
   15XTA   HL29 1185  -3.730  23.726  -4.608
   16XTA     NT 1186  -7.704  28.604  -4.807
   16XTA    CN1 1187  -7.767  28.692  -4.886
   16XTA     C1 1188  -7.770  28.832  -4.861
   16XTA     C2 1189  -7.819  28.928  -4.949
   16XTA     C3 1190  -7.864  28.883  -5.069
   16XTA     C4 1191  -7.875  28.746  -5.088
   16XTA     C5 1192  -7.828  28.650  -5.003
   16XTA    CN2 1193  -7.573  28.629  -4.787
   16XTA     C6 1194  -7.520  28.629  -4.654
   16XTA     C7 1195  -7.386  28.654  -4.623
   16XTA     C8 1196  -7.297  28.667  -4.733
   16XTA     C9 1197  -7.342  28.669  -4.868
   16XTA    C10 1198  -7.484  28.648  -4.896
   16XTA    CN3 1199  -7.768  28.487  -4.766
   16XTA    C11 1200  -7.903  28.486  -4.716
   16XTA    C12 1201  -7.961  28.374  -4.659
   16XTA    C13 1202  -7.895  28.252  -4.657
   16XTA    C14 1203  -7.767  28.243  -4.723
   16XTA    C15 1204  -7.709  28.363  -4.779
   16XTA     H1 1205  -7.713  28.866  -4.773
   16XTA     H2 1206  -7.818  29.039  -4.919
   16XTA     H3 1207  -7.923  28.711  -5.175
   16XTA     H4 1208  -7.835  28.552  -5.032
   16XTA     H5 1209  -7.583  28.621  -4.574
   16XTA     H6 1210  -7.353  28.664  -4.521
   16XTA     H7 1211  -7.266  28.692  -4.948
   16XTA     H8 1212  -7.517  28.655  -4.997
   16XTA     H9 1213  -7.958  28.580  -4.710
   16XTA    H10 1214  -8.065  28.378  -4.621
   16XTA    H11 1215  -7.706  28.158  -4.732
   16XTA    H12 1216  -7.610  28.351  -4.824
   16XTA    OA1 1217  -7.912  28.970  -5.158
   16XTA    CO1 1218  -7.859  29.102  -5.149
   16XTA    OA2 1219  -7.160  28.681  -4.698
   16XTA    CO2 1220  -7.075  28.601  -4.768
   16XTA    CL1 1221  -7.113  28.460  -4.747
   16XTA    CL2 1222  -7.016  28.347  -4.774
   16XTA    CL3 1223  -7.046  28.225  -4.682
   16XTA    CL4 1224  -6.997  28.096  -4.748
   16XTA    CO3 1225  -7.021  27.967  -4.667
   16XTA    OA3 1226  -6.971  27.852  -4.737
   16XTA    CO4 1227  -6.830  27.833  -4.719
   16XTA    CT1 1228  -6.760  27.741  -4.827
   16XTA    CL5 1229  -6.777  27.810  -4.964
   16XTA    CL6 1230  -6.694  27.752  -5.078
   16XTA    OA4 1231  -7.957  28.135  -4.618
   16XTA    CO5 1232  -7.905  28.021  -4.688
   16XTA    HL1 1233  -7.804  27.986  -4.655
   16XTA    HL2 1234  -7.918  29.147  -5.066
   16XTA    HL3 1235  -7.747  29.103  -5.125
   16XTA    HL4 1236  -7.878  29.161  -5.243
   16XTA    HL5 1237  -7.076  28.630  -4.875
   16XTA    HL6 1238  -6.973  28.620  -4.734
   16XTA    HL7 1239  -7.212  28.432  -4.790
   16XTA    HL8 1240  -7.145  28.448  -4.635
   16XTA    HL9 1241  -6.920  28.372  -4.740
   16XTA   HL10 1242  -7.011  28.324  -4.883
   16XTA   HL11 1243  -7.002  28.238  -4.586
   16XTA   HL12 1244  -7.153  28.212  -4.674
   16XTA   HL13 1245  -6.891  28.093  -4.764
   16XTA   HL14 1246  -7.048  28.089  -4.846
   16XTA   HL15 1247  -6.976  27.982  -4.567
   16XTA   HL16 1248  -7.120  27.948  -4.645
   16XTA   HL17 1249  -6.767  27.919  -4.735
   16XTA   HL18 1250  -6.800  27.802  -4.617
   16XTA   HL19 1251  -6.748  27.912  -4.964
   16XTA   HL20 1252  -6.880  27.798  -4.990
   16XTA   HL21 1253  -6.710  27.805  -5.168
   16XTA   HL22 1254  -6.696  27.639  -5.084
   16XTA   HL23 1255  -6.591  27.766  -5.053
   16XTA   HL24 1256  -7.913  28.032  -4.795
   16XTA   HL25 1257  -7.969  27.938  -4.657
   16XTA    CO6 1258  -6.836  27.604  -4.818
   16XTA    CO7 1259  -6.609  27.717  -4.794
   16XTA    OA5 1260  -6.750  27.506  -4.879
   16XTA   HL26 1261  -6.934  27.607  -4.852
   16XTA   HL27 1262  -6.844  27.575  -4.712
   16XTA   HL28 1263  -6.596  27.645  -4.712
   16XTA   HL29 1264  -6.562  27.663  -4.872
   17XTA     NT 1265  -3.823  24.982  -3.871
   17XTA    CN1 1266  -3.943  24.969  -3.808
   17XTA     C1 1267  -3.947  24.945  -3.669
   17XTA     C2 1268  -4.074  24.940  -3.603
   17XTA     C3 1269  -4.192  24.963  -3.681
   17XTA     C4 1270  -4.191  24.963  -3.822
   17XTA     C5 1271  -4.063  24.970  -3.882
   17XTA    CN2 1272  -3.736  24.883  -3.862
   17XTA     C6 1273  -3.602  24.915  -3.842
   17XTA     C7 1274  -3.515  24.808  -3.832
   17XTA     C8 1275  -3.548  24.676  -3.858
   17XTA     C9 1276  -3.682  24.649  -3.887
   17XTA    C10 1277  -3.774  24.752  -3.881
   17XTA    CN3 1278  -3.795  25.106  -3.927
   17XTA    C11 1279  -3.793  25.112  -4.060
   17XTA    C12 1280  -3.768  25.233  -4.126
   17XTA    C13 1281  -3.730  25.346  -4.054
   17XTA    C14 1282  -3.723  25.340  -3.908
   17XTA    C15 1283  -3.757  25.221  -3.848
   17XTA     H1 1284  -3.856  24.949  -3.613
   17XTA     H2 1285  -4.078  24.913  -3.502
   17XTA     H3 1286  -4.282  24.978  -3.880
   17XTA     H4 1287  -4.048  24.981  -3.992
   17XTA     H5 1288  -3.570  25.016  -3.826
   17XTA     H6 1289  -3.417  24.836  -3.798
   17XTA     H7 1290  -3.712  24.547  -3.909
   17XTA     H8 1291  -3.885  24.740  -3.889
   17XTA     H9 1292  -3.806  25.026  -4.123
   17XTA    H10 1293  -3.772  25.232  -4.235
   17XTA    H11 1294  -3.704  25.428  -3.852
   17XTA    H12 1295  -3.756  25.205  -3.742
   17XTA    OA1 1296  -4.312  24.964  -3.610
   17XTA    CO1 1297  -4.415  25.054  -3.662
   17XTA    OA2 1298  -3.465  24.573  -3.851
   17XTA    CO2 1299  -3.326  24.595  -3.885
   17XTA    CL1 1300  -3.247  24.643  -3.763
   17XTA    CL2 1301  -3.135  24.731  -3.798
   17XTA    CL3 1302  -3.014  24.658  -3.858
   17XTA    CL4 1303  -2.885  24.717  -3.811
   17XTA    CO3 1304  -2.833  24.820  -3.909
   17XTA    OA3 1305  -2.934  24.913  -3.928
   17XTA    CO4 1306  -2.905  25.001  -4.030
   17XTA    CT1 1307  -2.999  25.120  -4.018
   17XTA    CL5 1308  -3.136  25.097  -3.957
   17XTA    CL6 1309  -3.221  24.995  -4.043
   17XTA    OA4 1310  -3.728  25.469  -4.114
   17XTA    CO5 1311  -3.839  25.492  -4.199
   17XTA    HL1 1312  -3.856  25.412  -4.269
   17XTA    HL2 1313  -4.370  25.148  -3.697
   17XTA    HL3 1314  -4.464  24.993  -3.743
   17XTA    HL4 1315  -4.488  25.076  -3.585
   17XTA    HL5 1316  -3.284  24.498  -3.914
   17XTA    HL6 1317  -3.305  24.654  -3.975
   17XTA    HL7 1318  -3.211  24.559  -3.703
   17XTA    HL8 1319  -3.308  24.694  -3.691
   17XTA    HL9 1320  -3.096  24.766  -3.698
   17XTA   HL10 1321  -3.162  24.822  -3.848
   17XTA   HL11 1322  -3.019  24.562  -3.818
   17XTA   HL12 1323  -3.028  24.659  -3.963
   17XTA   HL13 1324  -2.808  24.636  -3.805
   17XTA   HL14 1325  -2.888  24.750  -3.705
   17XTA   HL15 1326  -2.734  24.865  -3.890
   17XTA   HL16 1327  -2.823  24.770  -4.009
   17XTA   HL17 1328  -2.804  25.033  -4.031
   17XTA   HL18 1329  -2.913  24.944  -4.126
   17XTA   HL19 1330  -3.177  25.197  -3.946
   17XTA   HL20 1331  -3.121  25.056  -3.860
   17XTA   HL21 1332  -3.262  25.034  -4.131
   17XTA   HL22 1333  -3.299  24.948  -3.979
   17XTA   HL23 1334  -3.162  24.914  -4.083
   17XTA   HL24 1335  -3.840  25.591  -4.244
   17XTA   HL25 1336  -3.930  25.502  -4.130
   17XTA    CO6 1337  -3.002  25.184  -4.151
   17XTA    CO7 1338  -2.924  25.230  -3.935
   17XTA    OA5 1339  -3.034  25.103  -4.258
   17XTA   HL26 1340  -2.910  25.232  -4.175
   17XTA   HL27 1341  -3.077  25.270  -4.141
   17XTA   HL28 1342  -2.990  25.322  -3.937
   17XTA   HL29 1343  -2.914  25.195  -3.833
   18XTH     NT 1344  -6.543  27.774  -9.123
   18XTH    CN1 1345  -6.572  27.782  -8.988
   18XTH     C1 1346  -6.621  27.668  -8.927
   18XTH     C2 1347  -6.660  27.668  -8.796
   18XTH     C3 1348  -6.653  27.786  -8.714
   18XTH     C4 1349  -6.610  27.903  -8.780
   18XTH     C5 1350  -6.562  27.899  -8.914
   18XTH    CN2 1351  -6.600  27.866  -9.207
   18XTH     C6 1352  -6.531  27.949  -9.298
   18XTH     C7 1353  -6.603  28.040  -9.374
   18XTH     C8 1354  -6.742  28.046  -9.372
   18XTH     C9 1355  -6.810  27.964  -9.281
   18XTH    C10 1356  -6.744  27.879  -9.197
   18XTH    CN3 1357  -6.466  27.674  -9.174
   18XTH    C11 1358  -6.509  27.602  -9.285
   18XTH    C12 1359  -6.445  27.487  -9.328
   18XTH    C13 1360  -6.329  27.445  -9.263
   18XTH    C14 1361  -6.273  27.524  -9.161
   18XTH    C15 1362  -6.349  27.632  -9.113
   18XTH     H1 1363  -6.644  27.575  -8.975
   18XTH     H2 1364  -6.716  27.586  -8.765
   18XTH     H3 1365  -6.619  27.997  -8.734
   18XTH     H4 1366  -6.504  27.977  -8.962
   18XTH     H5 1367  -6.429  27.932  -9.322
   18XTH     H6 1368  -6.540  28.097  -9.444
   18XTH     H7 1369  -6.917  27.967  -9.280
   18XTH     H8 1370  -6.807  27.825  -9.126
   18XTH     H9 1371  -6.603  27.636  -9.325
   18XTH    H10 1372  -6.493  27.436  -9.403
   18XTH    H11 1373  -6.187  27.486  -9.120
   18XTH    H12 1374  -6.305  27.677  -9.033
   18XTH    OA1 1375  -6.687  27.777  -8.581
   18XTH    CO1 1376  -6.742  27.893  -8.520
   18XTH    OA2 1377  -6.808  28.122  -9.460
   18XTH    CO2 1378  -6.852  28.240  -9.396
   18XTH    CL1 1379  -6.971  28.280  -9.482
   18XTH    CL2 1380  -7.083  28.195  -9.452
   18XTH    CL3 1381  -7.198  28.204  -9.561
   18XTH    CL4 1382  -7.177  28.154  -9.706
   18XTH    CO3 1383  -7.135  28.005  -9.700
   18XTH    OA3 1384  -7.252  27.932  -9.679
   18XTH    CO4 1385  -7.318  27.878  -9.788
   18XTH    CT1 1386  -7.465  27.880  -9.753
   18XTH    CL5 1387  -7.510  27.756  -9.673
   18XTH    CL6 1388  -7.484  27.625  -9.739
   18XTH    OA4 1389  -6.260  27.327  -9.300
   18XTH    CO5 1390  -6.318  27.250  -9.406
   18XTH    HL1 1391  -6.271  27.148  -9.400
   18XTH    HL2 1392  -6.672  27.970  -8.504
   18XTH    HL3 1393  -6.819  27.929  -8.587
   18XTH    HL4 1394  -6.794  27.857  -8.436
   18XTH    HL5 1395  -6.880  28.222  -9.288
   18XTH    HL6 1396  -6.777  28.321  -9.394
   18XTH    HL7 1397  -6.951  28.277  -9.583
   18XTH    HL8 1398  -7.012  28.378  -9.461
   18XTH    HL9 1399  -7.127  28.213  -9.358
   18XTH   HL10 1400  -7.053  28.088  -9.438
   18XTH   HL11 1401  -7.276  28.145  -9.504
   18XTH   HL12 1402  -7.244  28.302  -9.574
   18XTH   HL13 1403  -7.092  28.198  -9.746
   18XTH   HL14 1404  -7.261  28.165  -9.778
   18XTH   HL15 1405  -7.084  27.976  -9.794
   18XTH   HL16 1406  -7.050  27.976  -9.637
   18XTH   HL17 1407  -7.292  27.939  -9.875
   18XTH   HL18 1408  -7.291  27.774  -9.816
   18XTH   HL19 1409  -7.619  27.761  -9.664
   18XTH   HL20 1410  -7.458  27.752  -9.581
   18XTH   HL21 1411  -7.379  27.613  -9.765
   18XTH   HL22 1412  -7.538  27.602  -9.830
   18XTH   HL23 1413  -7.511  27.541  -9.675
   18XTH   HL24 1414  -6.292  27.293  -9.501
   18XTH   HL25 1415  -6.429  27.235  -9.394
   18XTH    CO6 1416  -7.543  27.895  -9.888
   18XTH    CO7 1417  -7.488  28.005  -9.665
   18XTH    OA5 1418  -7.597  28.016  -9.646
   18XTH   HL26 1419  -7.528  27.805  -9.952
   18XTH   HL27 1420  -7.683  27.897  -9.882
   18XTH   HL28 1421  -7.453  28.102  -9.707
   18XTH   HL29 1422  -7.445  27.989  -9.569
   19XTA     NT 1423  -6.079  29.413  -9.955
   19XTA    CN1 1424  -5.970  29.480  -9.915
   19XTA     C1 1425  -5.983  29.608  -9.873
   19XTA     C2 1426  -5.869  29.688  -9.834
   19XTA     C3 1427  -5.741  29.635  -9.855
   19XTA     C4 1428  -5.731  29.506  -9.906
   19XTA     C5 1429  -5.844  29.430  -9.942
   19XTA    CN2 1430  -6.156  29.465 -10.058
   19XTA     C6 1431  -6.295  29.482 -10.047
   19XTA     C7 1432  -6.374  29.529 -10.156
   19XTA     C8 1433  -6.319  29.543 -10.280
   19XTA     C9 1434  -6.178  29.526 -10.301
   19XTA    C10 1435  -6.098  29.487 -10.189
   19XTA    CN3 1436  -6.103  29.293  -9.896
   19XTA    C11 1437  -6.150  29.284  -9.763
   19XTA    C12 1438  -6.176  29.161  -9.706
   19XTA    C13 1439  -6.147  29.036  -9.776
   19XTA    C14 1440  -6.097  29.042  -9.903
   19XTA    C15 1441  -6.072  29.170  -9.967
   19XTA     H1 1442  -6.085  29.655  -9.880
   19XTA     H2 1443  -5.878  29.798  -9.811
   19XTA     H3 1444  -5.630  29.470  -9.911
   19XTA     H4 1445  -5.837  29.331  -9.985
   19XTA     H5 1446  -6.339  29.473  -9.952
   19XTA     H6 1447  -6.476  29.547 -10.125
   19XTA     H7 1448  -6.138  29.532 -10.405
   19XTA     H8 1449  -5.993  29.472 -10.201
   19XTA     H9 1450  -6.177  29.371  -9.700
   19XTA    H10 1451  -6.214  29.154  -9.601
   19XTA    H11 1452  -6.080  28.951  -9.966
   19XTA    H12 1453  -6.040  29.172 -10.075
   19XTA    OA1 1454  -5.639  29.723  -9.830
   19XTA    CO1 1455  -5.507  29.683  -9.870
   19XTA    OA2 1456  -6.397  29.568 -10.397
   19XTA    CO2 1457  -6.532  29.580 -10.388
   19XTA    CL1 1458  -6.610  29.579 -10.523
   19XTA    CL2 1459  -6.663  29.436 -10.559
   19XTA    CL3 1460  -6.561  29.324 -10.564
   19XTA    CL4 1461  -6.621  29.189 -10.599
   19XTA    CO3 1462  -6.745  29.162 -10.511
   19XTA    OA3 1463  -6.764  29.030 -10.481
   19XTA    CO4 1464  -6.877  29.004 -10.403
   19XTA    CT1 1465  -6.929  28.852 -10.444
   19XTA    CL5 1466  -7.024  28.798 -10.330
   19XTA    CL6 1467  -6.970  28.797 -10.185
   19XTA    OA4 1468  -6.157  28.912  -9.716
   19XTA    CO5 1469  -6.152  28.919  -9.573
   19XTA    HL1 1470  -6.121  28.821  -9.540
   19XTA    HL2 1471  -5.504  29.671  -9.975
   19XTA    HL3 1472  -5.436  29.755  -9.831
   19XTA    HL4 1473  -5.477  29.595  -9.824
   19XTA    HL5 1474  -6.571  29.494 -10.338
   19XTA    HL6 1475  -6.572  29.667 -10.332
   19XTA    HL7 1476  -6.553  29.629 -10.596
   19XTA    HL8 1477  -6.695  29.649 -10.511
   19XTA    HL9 1478  -6.711  29.435 -10.653
   19XTA   HL10 1479  -6.737  29.408 -10.488
   19XTA   HL11 1480  -6.483  29.346 -10.636
   19XTA   HL12 1481  -6.499  29.311 -10.474
   19XTA   HL13 1482  -6.537  29.120 -10.595
   19XTA   HL14 1483  -6.645  29.183 -10.712
   19XTA   HL15 1484  -6.738  29.199 -10.412
   19XTA   HL16 1485  -6.828  29.206 -10.554
   19XTA   HL17 1486  -6.859  29.016 -10.298
   19XTA   HL18 1487  -6.962  29.069 -10.428
   19XTA   HL19 1488  -7.055  28.694 -10.355
   19XTA   HL20 1489  -7.123  28.844 -10.323
   19XTA   HL21 1490  -7.029  28.732 -10.117
   19XTA   HL22 1491  -6.976  28.901 -10.152
   19XTA   HL23 1492  -6.863  28.771 -10.177
   19XTA   HL24 1493  -6.251  28.936  -9.534
   19XTA   HL25 1494  -6.085  28.992  -9.536
   19XTA    CO6 1495  -6.813  28.756 -10.475
   19XTA    CO7 1496  -7.005  28.860 -10.575
   19XTA    OA5 1497  -7.058  28.737 -10.618
   19XTA   HL26 1498  -6.743  28.764 -10.394
   19XTA   HL27 1499  -6.758  28.789 -10.565
   19XTA   HL28 1500  -6.952  28.922 -10.643
   19XTA   HL29 1501  -7.089  28.921 -10.557
   20XTA     NT 1502  -0.841  28.558  -9.398
   20XTA    CN1 1503  -0.710  28.571  -9.430
   20XTA     C1 1504  -0.668  28.563  -9.562
   20XTA     C2 1505  -0.530  28.586  -9.589
   20XTA     C3 1506  -0.435  28.584  -9.483
   20XTA     C4 1507  -0.478  28.575  -9.351
   20XTA     C5 1508  -0.616  28.567  -9.329
   20XTA    CN2 1509  -0.915  28.465  -9.459
   20XTA     C6 1510  -0.921  28.329  -9.417
   20XTA     C7 1511  -0.968  28.224  -9.496
   20XTA     C8 1512  -1.016  28.260  -9.628
   20XTA     C9 1513  -1.038  28.395  -9.664
   20XTA    C10 1514  -0.983  28.497  -9.576
   20XTA    CN3 1515  -0.920  28.654  -9.337
   20XTA    C11 1516  -0.939  28.779  -9.401
   20XTA    C12 1517  -1.023  28.877  -9.338
   20XTA    C13 1518  -1.090  28.852  -9.221
   20XTA    C14 1519  -1.083  28.718  -9.164
   20XTA    C15 1520  -0.995  28.618  -9.214
   20XTA     H1 1521  -0.739  28.546  -9.642
   20XTA     H2 1522  -0.494  28.621  -9.686
   20XTA     H3 1523  -0.414  28.585  -9.261
   20XTA     H4 1524  -0.650  28.578  -9.231
   20XTA     H5 1525  -0.872  28.308  -9.321
   20XTA     H6 1526  -0.970  28.126  -9.462
   20XTA     H7 1527  -1.078  28.420  -9.759
   20XTA     H8 1528  -0.990  28.595  -9.611
   20XTA     H9 1529  -0.887  28.800  -9.497
   20XTA    H10 1530  -1.027  28.978  -9.378
   20XTA    H11 1531  -1.138  28.707  -9.071
   20XTA    H12 1532  -0.982  28.527  -9.163
   20XTA    OA1 1533  -0.296  28.577  -9.489
   20XTA    CO1 1534  -0.235  28.605  -9.620
   20XTA    OA2 1535  -1.057  28.166  -9.718
   20XTA    CO2 1536  -0.971  28.056  -9.756
   20XTA    CL1 1537  -0.984  28.012  -9.900
   20XTA    CL2 1538  -0.981  28.123 -10.005
   20XTA    CL3 1539  -0.979  28.056 -10.141
   20XTA    CL4 1540  -0.935  28.153 -10.246
   20XTA    CO3 1541  -0.938  28.095 -10.390
   20XTA    OA3 1542  -1.074  28.060 -10.409
   20XTA    CO4 1543  -1.097  27.998 -10.534
   20XTA    CT1 1544  -1.239  28.017 -10.591
   20XTA    CL5 1545  -1.251  28.163 -10.649
   20XTA    CL6 1546  -1.160  28.201 -10.769
   20XTA    OA4 1547  -1.150  28.948  -9.151
   20XTA    CO5 1548  -1.271  28.925  -9.078
   20XTA    HL1 1549  -1.308  29.020  -9.065
   20XTA    HL2 1550  -0.257  28.523  -9.675
   20XTA    HL3 1551  -0.263  28.703  -9.672
   20XTA    HL4 1552  -0.132  28.601  -9.597
   20XTA    HL5 1553  -0.869  28.073  -9.736
   20XTA    HL6 1554  -0.979  27.974  -9.683
   20XTA    HL7 1555  -1.082  27.971  -9.909
   20XTA    HL8 1556  -0.905  27.937  -9.916
   20XTA    HL9 1557  -0.891  28.179  -9.991
   20XTA   HL10 1558  -1.071  28.187  -9.993
   20XTA   HL11 1559  -0.905  27.980 -10.140
   20XTA   HL12 1560  -1.075  28.016 -10.159
   20XTA   HL13 1561  -0.835  28.192 -10.222
   20XTA   HL14 1562  -0.999  28.244 -10.241
   20XTA   HL15 1563  -0.896  28.160 -10.461
   20XTA   HL16 1564  -0.864  28.010 -10.383
   20XTA   HL17 1565  -1.016  28.022 -10.608
   20XTA   HL18 1566  -1.080  27.891 -10.505
   20XTA   HL19 1567  -1.210  28.232 -10.573
   20XTA   HL20 1568  -1.360  28.185 -10.666
   20XTA   HL21 1569  -1.064  28.177 -10.758
   20XTA   HL22 1570  -1.178  28.304 -10.796
   20XTA   HL23 1571  -1.198  28.146 -10.861
   20XTA   HL24 1572  -1.246  28.870  -8.987
   20XTA   HL25 1573  -1.339  28.874  -9.145
   20XTA    CO6 1574  -1.354  27.977 -10.498
   20XTA    CO7 1575  -1.257  27.916 -10.706
   20XTA    OA5 1576  -1.337  28.030 -10.359
   20XTA   HL26 1577  -1.356  27.870 -10.488
   20XTA   HL27 1578  -1.449  28.003 -10.536
   20XTA   HL28 1579  -1.234  27.819 -10.656
   20XTA   HL29 1580  -1.174  27.934 -10.783
   21XTA     NT 1581  -9.621  24.645  -4.464
   21XTA    CN1 1582  -9.556  24.537  -4.512
   21XTA     C1 1583  -9.486  24.452  -4.427
   21XTA     C2 1584  -9.413  24.340  -4.466
   21XTA     C3 1585  -9.429  24.297  -4.601
   21XTA     C4 1586  -9.491  24.382  -4.694
   21XTA     C5 1587  -9.555  24.501  -4.649
   21XTA    CN2 1588  -9.577  24.770  -4.499
   21XTA     C6 1589  -9.436  24.793  -4.489
   21XTA     C7 1590  -9.393  24.928  -4.491
   21XTA     C8 1591  -9.482  25.039  -4.507
   21XTA     C9 1592  -9.616  25.005  -4.530
   21XTA    C10 1593  -9.666  24.876  -4.520
   21XTA    CN3 1594  -9.725  24.624  -4.383
   21XTA    C11 1595  -9.838  24.553  -4.436
   21XTA    C12 1596  -9.948  24.544  -4.352
   21XTA    C13 1597  -9.942  24.577  -4.215
   21XTA    C14 1598  -9.826  24.646  -4.168
   21XTA    C15 1599  -9.720  24.673  -4.253
   21XTA     H1 1600  -9.483  24.482  -4.327
   21XTA     H2 1601  -9.352  24.293  -4.388
   21XTA     H3 1602  -9.518  24.341  -4.788
   21XTA     H4 1603  -9.615  24.566  -4.721
   21XTA     H5 1604  -9.369  24.710  -4.477
   21XTA     H6 1605  -9.285  24.944  -4.482
   21XTA     H7 1606  -9.682  25.085  -4.542
   21XTA     H8 1607  -9.772  24.847  -4.518
   21XTA     H9 1608  -9.831  24.519  -4.537
   21XTA    H10 1609 -10.033  24.487  -4.379
   21XTA    H11 1610  -9.819  24.681  -4.069
   21XTA    H12 1611  -9.635  24.727  -4.216
   21XTA    OA1 1612  -9.391  24.175  -4.648
   21XTA    CO1 1613  -9.351  24.085  -4.545
   21XTA    OA2 1614  -9.416  25.155  -4.510
   21XTA    CO2 1615  -9.496  25.271  -4.507
   21XTA    CL1 1616  -9.421  25.395  -4.448
   21XTA    CL2 1617  -9.307  25.445  -4.541
   21XTA    CL3 1618  -9.241  25.569  -4.481
   21XTA    CL4 1619  -9.325  25.697  -4.490
   21XTA    CO3 1620  -9.303  25.791  -4.371
   21XTA    OA3 1621  -9.349  25.732  -4.252
   21XTA    CO4 1622  -9.323  25.816  -4.147
   21XTA    CT1 1623  -9.380  25.763  -4.014
   21XTA    CL5 1624  -9.340  25.847  -3.896
   21XTA    CL6 1625  -9.397  25.988  -3.900
   21XTA    OA4 1626 -10.045  24.551  -4.135
   21XTA    CO5 1627 -10.029  24.568  -3.987
   21XTA    HL1 1628  -9.942  24.508  -3.954
   21XTA    HL2 1629  -9.278  24.128  -4.484
   21XTA    HL3 1630  -9.439  24.050  -4.493
   21XTA    HL4 1631  -9.308  23.994  -4.583
   21XTA    HL5 1632  -9.544  25.288  -4.607
   21XTA    HL6 1633  -9.585  25.258  -4.445
   21XTA    HL7 1634  -9.384  25.361  -4.354
   21XTA    HL8 1635  -9.488  25.474  -4.406
   21XTA    HL9 1636  -9.342  25.477  -4.641
   21XTA   HL10 1637  -9.236  25.363  -4.546
   21XTA   HL11 1638  -9.224  25.542  -4.380
   21XTA   HL12 1639  -9.141  25.583  -4.524
   21XTA   HL13 1640  -9.429  25.670  -4.504
   21XTA   HL14 1641  -9.293  25.748  -4.586
   21XTA   HL15 1642  -9.194  25.818  -4.361
   21XTA   HL16 1643  -9.352  25.885  -4.390
   21XTA   HL17 1644  -9.223  25.845  -4.149
   21XTA   HL18 1645  -9.380  25.907  -4.166
   21XTA   HL19 1646  -9.227  25.848  -3.890
   21XTA   HL20 1647  -9.380  25.808  -3.795
   21XTA   HL21 1648  -9.369  26.037  -3.808
   21XTA   HL22 1649  -9.499  25.989  -3.891
   21XTA   HL23 1650  -9.365  26.057  -3.976
   21XTA   HL24 1651 -10.117  24.518  -3.950
   21XTA   HL25 1652 -10.024  24.667  -3.940
   21XTA    CO6 1653  -9.315  25.626  -3.984
   21XTA    CO7 1654  -9.539  25.748  -4.024
   21XTA    OA5 1655  -9.565  25.688  -3.929
   21XTA   HL26 1656  -9.354  25.589  -3.886
   21XTA   HL27 1657  -9.352  25.521  -4.077
   21XTA   HL28 1658  -9.564  25.685  -4.107
   21XTA   HL29 1659  -9.592  25.843  -4.037
   22XTA     NT 1660  -7.854  26.458  -6.612
   22XTA    CN1 1661  -7.869  26.564  -6.696
   22XTA     C1 1662  -7.836  26.691  -6.650
   22XTA     C2 1663  -7.818  26.798  -6.735
   22XTA     C3 1664  -7.832  26.775  -6.873
   22XTA     C4 1665  -7.878  26.652  -6.919
   22XTA     C5 1666  -7.898  26.544  -6.834
   22XTA    CN2 1667  -7.729  26.432  -6.570
   22XTA     C6 1668  -7.698  26.448  -6.430
   22XTA     C7 1669  -7.562  26.442  -6.394
   22XTA     C8 1670  -7.460  26.433  -6.493
   22XTA     C9 1671  -7.496  26.406  -6.627
   22XTA    C10 1672  -7.628  26.412  -6.668
   22XTA    CN3 1673  -7.961  26.383  -6.594
   22XTA    C11 1674  -8.082  26.443  -6.547
   22XTA    C12 1675  -8.191  26.362  -6.519
   22XTA    C13 1676  -8.190  26.223  -6.519
   22XTA    C14 1677  -8.078  26.165  -6.580
   22XTA    C15 1678  -7.966  26.245  -6.619
   22XTA     H1 1679  -7.815  26.704  -6.544
   22XTA     H2 1680  -7.794  26.901  -6.695
   22XTA     H3 1681  -7.894  26.640  -7.023
   22XTA     H4 1682  -7.925  26.448  -6.877
   22XTA     H5 1683  -7.779  26.470  -6.361
   22XTA     H6 1684  -7.524  26.450  -6.293
   22XTA     H7 1685  -7.411  26.377  -6.689
   22XTA     H8 1686  -7.657  26.417  -6.770
   22XTA     H9 1687  -8.079  26.547  -6.533
   22XTA    H10 1688  -8.281  26.410  -6.489
   22XTA    H11 1689  -8.055  26.055  -6.595
   22XTA    H12 1690  -7.877  26.198  -6.671
   22XTA    OA1 1691  -7.806  26.888  -6.953
   22XTA    CO1 1692  -7.846  26.892  -7.089
   22XTA    OA2 1693  -7.327  26.426  -6.456
   22XTA    CO2 1694  -7.274  26.542  -6.389
   22XTA    CL1 1695  -7.221  26.505  -6.252
   22XTA    CL2 1696  -7.185  26.624  -6.164
   22XTA    CL3 1697  -7.122  26.577  -6.029
   22XTA    CL4 1698  -6.978  26.529  -6.035
   22XTA    CO3 1699  -6.929  26.482  -5.895
   22XTA    OA3 1700  -7.004  26.362  -5.880
   22XTA    CO4 1701  -6.949  26.278  -5.784
   22XTA    CT1 1702  -7.038  26.159  -5.767
   22XTA    CL5 1703  -7.182  26.186  -5.717
   22XTA    CL6 1704  -7.187  26.269  -5.588
   22XTA    OA4 1705  -8.297  26.152  -6.464
   22XTA    CO5 1706  -8.289  26.005  -6.477
   22XTA    HL1 1707  -8.205  25.961  -6.417
   22XTA    HL2 1708  -7.956  26.907  -7.084
   22XTA    HL3 1709  -7.801  26.977  -7.141
   22XTA    HL4 1710  -7.825  26.798  -7.142
   22XTA    HL5 1711  -7.195  26.581  -6.459
   22XTA    HL6 1712  -7.351  26.621  -6.381
   22XTA    HL7 1713  -7.132  26.434  -6.261
   22XTA    HL8 1714  -7.296  26.447  -6.205
   22XTA    HL9 1715  -7.274  26.682  -6.148
   22XTA   HL10 1716  -7.121  26.690  -6.228
   22XTA   HL11 1717  -7.135  26.655  -5.951
   22XTA   HL12 1718  -7.184  26.494  -5.991
   22XTA   HL13 1719  -6.918  26.607  -6.075
   22XTA   HL14 1720  -6.968  26.446  -6.099
   22XTA   HL15 1721  -6.825  26.449  -5.885
   22XTA   HL16 1722  -6.954  26.553  -5.810
   22XTA   HL17 1723  -6.846  26.244  -5.812
   22XTA   HL18 1724  -6.934  26.319  -5.678
   22XTA   HL19 1725  -7.241  26.096  -5.695
   22XTA   HL20 1726  -7.242  26.217  -5.804
   22XTA   HL21 1727  -7.291  26.301  -5.550
   22XTA   HL22 1728  -7.125  26.358  -5.608
   22XTA   HL23 1729  -7.135  26.211  -5.508
   22XTA   HL24 1730  -8.284  25.978  -6.582
   22XTA   HL25 1731  -8.380  25.964  -6.433
   22XTA    CO6 1732  -6.974  26.047  -5.713
   22XTA    CO7 1733  -7.043  26.079  -5.894
   22XTA    OA5 1734  -6.990  25.970  -5.795
   22XTA   HL26 1735  -7.005  26.025  -5.603
   22XTA   HL27 1736  -6.864  26.056  -5.712
   22XTA   HL28 1737  -6.961  26.115  -6.001
   22XTA   HL29 1738  -7.144  26.062  -5.926
   23XTA     NT 1739  -2.400  23.623  -5.710
   23XTA    CN1 1740  -2.427  23.642  -5.841
   23XTA     C1 1741  -2.429  23.531  -5.924
   23XTA     C2 1742  -2.476  23.551  -6.058
   23XTA     C3 1743  -2.515  23.673  -6.110
   23XTA     C4 1744  -2.506  23.786  -6.027
   23XTA     C5 1745  -2.462  23.770  -5.896
   23XTA    CN2 1746  -2.479  23.682  -5.616
   23XTA     C6 1747  -2.612  23.648  -5.611
   23XTA     C7 1748  -2.699  23.711  -5.517
   23XTA     C8 1749  -2.648  23.818  -5.430
   23XTA     C9 1750  -2.515  23.850  -5.431
   23XTA    C10 1751  -2.432  23.790  -5.528
   23XTA    CN3 1752  -2.277  23.589  -5.677
   23XTA    C11 1753  -2.249  23.494  -5.575
   23XTA    C12 1754  -2.120  23.467  -5.534
   23XTA    C13 1755  -2.010  23.531  -5.594
   23XTA    C14 1756  -2.041  23.633  -5.685
   23XTA    C15 1757  -2.168  23.664  -5.730
   23XTA     H1 1758  -2.401  23.431  -5.889
   23XTA     H2 1759  -2.475  23.460  -6.121
   23XTA     H3 1760  -2.532  23.892  -6.057
   23XTA     H4 1761  -2.464  23.852  -5.831
   23XTA     H5 1762  -2.652  23.573  -5.677
   23XTA     H6 1763  -2.803  23.683  -5.511
   23XTA     H7 1764  -2.488  23.932  -5.374
   23XTA     H8 1765  -2.331  23.813  -5.551
   23XTA     H9 1766  -2.331  23.446  -5.528
   23XTA    H10 1767  -2.091  23.428  -5.437
   23XTA    H11 1768  -1.969  23.701  -5.718
   23XTA    H12 1769  -2.183  23.756  -5.786
   23XTA    OA1 1770  -2.570  23.671  -6.238
   23XTA    CO1 1771  -2.594  23.793  -6.310
   23XTA    OA2 1772  -2.730  23.887  -5.344
   23XTA    CO2 1773  -2.852  23.832  -5.320
   23XTA    CL1 1774  -2.855  23.710  -5.229
   23XTA    CL2 1775  -2.780  23.740  -5.104
   23XTA    CL3 1776  -2.805  23.630  -4.999
   23XTA    CL4 1777  -2.945  23.631  -4.944
   23XTA    CO3 1778  -2.966  23.526  -4.826
   23XTA    OA3 1779  -3.096  23.556  -4.786
   23XTA    CO4 1780  -3.128  23.468  -4.678
   23XTA    CT1 1781  -3.279  23.469  -4.643
   23XTA    CL5 1782  -3.368  23.434  -4.765
   23XTA    CL6 1783  -3.340  23.300  -4.827
   23XTA    OA4 1784  -1.880  23.531  -5.545
   23XTA    CO5 1785  -1.780  23.575  -5.642
   23XTA    HL1 1786  -1.681  23.530  -5.625
   23XTA    HL2 1787  -2.645  23.869  -6.254
   23XTA    HL3 1788  -2.499  23.844  -6.334
   23XTA    HL4 1789  -2.646  23.784  -6.404
   23XTA    HL5 1790  -2.922  23.905  -5.272
   23XTA    HL6 1791  -2.898  23.806  -5.418
   23XTA    HL7 1792  -2.800  23.629  -5.274
   23XTA    HL8 1793  -2.952  23.682  -5.211
   23XTA    HL9 1794  -2.800  23.832  -5.055
   23XTA   HL10 1795  -2.669  23.738  -5.110
   23XTA   HL11 1796  -2.779  23.530  -5.025
   23XTA   HL12 1797  -2.735  23.646  -4.919
   23XTA   HL13 1798  -3.013  23.596  -5.022
   23XTA   HL14 1799  -2.962  23.726  -4.910
   23XTA   HL15 1800  -2.969  23.425  -4.871
   23XTA   HL16 1801  -2.900  23.520  -4.738
   23XTA   HL17 1802  -3.100  23.363  -4.697
   23XTA   HL18 1803  -3.073  23.503  -4.592
   23XTA   HL19 1804  -3.344  23.508  -4.836
   23XTA   HL20 1805  -3.470  23.442  -4.735
   23XTA   HL21 1806  -3.391  23.226  -4.762
   23XTA   HL22 1807  -3.234  23.276  -4.816
   23XTA   HL23 1808  -3.388  23.291  -4.923
   23XTA   HL24 1809  -1.766  23.686  -5.628
   23XTA   HL25 1810  -1.808  23.550  -5.743
   23XTA    CO6 1811  -3.330  23.614  -4.599
   23XTA    CO7 1812  -3.309  23.382  -4.524
   23XTA    OA5 1813  -3.445  23.624  -4.575
   23XTA   HL26 1814  -3.290  23.680  -4.681
   23XTA   HL27 1815  -3.267  23.640  -4.506
   23XTA   HL28 1816  -3.445  23.400  -4.481
   23XTA   HL29 1817  -3.308  23.275  -4.554
   24XTA     NT 1818  -2.155  26.893  -7.361
   24XTA    CN1 1819  -2.289  26.891  -7.380
   24XTA     C1 1820  -2.346  26.995  -7.452
   24XTA     C2 1821  -2.486  27.010  -7.458
   24XTA     C3 1822  -2.564  26.909  -7.398
   24XTA     C4 1823  -2.502  26.796  -7.332
   24XTA     C5 1824  -2.363  26.785  -7.326
   24XTA    CN2 1825  -2.091  26.999  -7.309
   24XTA     C6 1826  -1.967  27.039  -7.363
   24XTA     C7 1827  -1.907  27.151  -7.307
   24XTA     C8 1828  -1.965  27.225  -7.202
   24XTA     C9 1829  -2.088  27.181  -7.145
   24XTA    C10 1830  -2.154  27.070  -7.202
   24XTA    CN3 1831  -2.086  26.785  -7.398
   24XTA    C11 1832  -2.029  26.700  -7.303
   24XTA    C12 1833  -1.958  26.587  -7.343
   24XTA    C13 1834  -1.944  26.556  -7.482
   24XTA    C14 1835  -1.989  26.652  -7.574
   24XTA    C15 1836  -2.058  26.762  -7.535
   24XTA     H1 1837  -2.285  27.071  -7.499
   24XTA     H2 1838  -2.529  27.095  -7.515
   24XTA     H3 1839  -2.564  26.730  -7.277
   24XTA     H4 1840  -2.308  26.707  -7.274
   24XTA     H5 1841  -1.929  26.993  -7.450
   24XTA     H6 1842  -1.814  27.189  -7.340
   24XTA     H7 1843  -2.140  27.229  -7.059
   24XTA     H8 1844  -2.255  27.045  -7.163
   24XTA     H9 1845  -2.041  26.731  -7.195
   24XTA    H10 1846  -1.923  26.514  -7.270
   24XTA    H11 1847  -1.969  26.624  -7.678
   24XTA    H12 1848  -2.093  26.827  -7.612
   24XTA    OA1 1849  -2.701  26.925  -7.394
   24XTA    CO1 1850  -2.765  26.932  -7.268
   24XTA    OA2 1851  -1.901  27.326  -7.141
   24XTA    CO2 1852  -1.805  27.411  -7.212
   24XTA    CL1 1853  -1.779  27.537  -7.126
   24XTA    CL2 1854  -1.896  27.635  -7.142
   24XTA    CL3 1855  -2.011  27.596  -7.049
   24XTA    CL4 1856  -2.128  27.694  -7.039
   24XTA    CO3 1857  -2.243  27.634  -6.957
   24XTA    OA3 1858  -2.344  27.732  -6.926
   24XTA    CO4 1859  -2.462  27.741  -7.011
   24XTA    CT1 1860  -2.554  27.858  -6.962
   24XTA    CL5 1861  -2.684  27.855  -7.042
   24XTA    CL6 1862  -2.783  27.951  -6.990
   24XTA    OA4 1863  -1.892  26.440  -7.532
   24XTA    CO5 1864  -1.815  26.360  -7.441
   24XTA    HL1 1865  -1.885  26.304  -7.384
   24XTA    HL2 1866  -2.694  26.982  -7.198
   24XTA    HL3 1867  -2.846  27.002  -7.285
   24XTA    HL4 1868  -2.798  26.838  -7.224
   24XTA    HL5 1869  -1.714  27.353  -7.231
   24XTA    HL6 1870  -1.845  27.434  -7.315
   24XTA    HL7 1871  -1.687  27.586  -7.152
   24XTA    HL8 1872  -1.778  27.515  -7.019
   24XTA    HL9 1873  -1.926  27.642  -7.241
   24XTA   HL10 1874  -1.854  27.731  -7.107
   24XTA   HL11 1875  -2.065  27.501  -7.082
   24XTA   HL12 1876  -1.975  27.571  -6.953
   24XTA   HL13 1877  -2.169  27.733  -7.131
   24XTA   HL14 1878  -2.092  27.779  -6.986
   24XTA   HL15 1879  -2.271  27.534  -6.994
   24XTA   HL16 1880  -2.209  27.609  -6.852
   24XTA   HL17 1881  -2.437  27.747  -7.119
   24XTA   HL18 1882  -2.520  27.642  -6.989
   24XTA   HL19 1883  -2.729  27.755  -7.056
   24XTA   HL20 1884  -2.653  27.890  -7.144
   24XTA   HL21 1885  -2.867  27.957  -7.054
   24XTA   HL22 1886  -2.740  28.052  -6.983
   24XTA   HL23 1887  -2.826  27.920  -6.894
   24XTA   HL24 1888  -1.766  26.433  -7.372
   24XTA   HL25 1889  -1.752  26.290  -7.497
   24XTA    CO6 1890  -2.485  27.998  -6.962
   24XTA    CO7 1891  -2.572  27.830  -6.811
   24XTA    OA5 1892  -2.435  28.027  -7.093
   24XTA   HL26 1893  -2.401  28.012  -6.885
   24XTA   HL27 1894  -2.548  28.086  -6.949
   24XTA   HL28 1895  -2.622  27.909  -6.751
   24XTA   HL29 1896  -2.472  27.819  -6.759
   25XTA     NT 1897  -2.334  29.834  -6.251
   25XTA    CN1 1898  -2.317  29.745  -6.351
   25XTA     C1 1899  -2.424  29.685  -6.415
   25XTA     C2 1900  -2.406  29.620  -6.538
   25XTA     C3 1901  -2.278  29.591  -6.587
   25XTA     C4 1902  -2.165  29.649  -6.518
   25XTA     C5 1903  -2.188  29.728  -6.402
   25XTA    CN2 1904  -2.284  29.962  -6.268
   25XTA     C6 1905  -2.334  30.053  -6.358
   25XTA     C7 1906  -2.284  30.181  -6.371
   25XTA     C8 1907  -2.174  30.227  -6.292
   25XTA     C9 1908  -2.123  30.141  -6.191
   25XTA    C10 1909  -2.175  30.009  -6.188
   25XTA    CN3 1910  -2.381  29.787  -6.133
   25XTA    C11 1911  -2.500  29.836  -6.077
   25XTA    C12 1912  -2.542  29.778  -5.958
   25XTA    C13 1913  -2.477  29.674  -5.893
   25XTA    C14 1914  -2.356  29.634  -5.945
   25XTA    C15 1915  -2.300  29.692  -6.060
   25XTA     H1 1916  -2.527  29.699  -6.393
   25XTA     H2 1917  -2.493  29.579  -6.591
   25XTA     H3 1918  -2.063  29.642  -6.547
   25XTA     H4 1919  -2.105  29.774  -6.343
   25XTA     H5 1920  -2.412  30.022  -6.428
   25XTA     H6 1921  -2.330  30.241  -6.449
   25XTA     H7 1922  -2.042  30.175  -6.133
   25XTA     H8 1923  -2.122  29.947  -6.123
   25XTA     H9 1924  -2.564  29.909  -6.120
   25XTA    H10 1925  -2.639  29.805  -5.922
   25XTA    H11 1926  -2.306  29.547  -5.907
   25XTA    H12 1927  -2.209  29.666  -6.109
   25XTA    OA1 1928  -2.258  29.505  -6.691
   25XTA    CO1 1929  -2.122  29.480  -6.725
   25XTA    OA2 1930  -2.145  30.365  -6.308
   25XTA    CO2 1931  -2.040  30.416  -6.234
   25XTA    CL1 1932  -2.076  30.452  -6.084
   25XTA    CL2 1933  -2.181  30.569  -6.063
   25XTA    CL3 1934  -2.320  30.549  -6.120
   25XTA    CL4 1935  -2.418  30.660  -6.085
   25XTA    CO3 1936  -2.563  30.609  -6.035
   25XTA    OA3 1937  -2.657  30.707  -6.066
   25XTA    CO4 1938  -2.732  30.678  -6.184
   25XTA    CT1 1939  -2.874  30.744  -6.189
   25XTA    CL5 1940  -2.853  30.898  -6.162
   25XTA    CL6 1941  -2.968  30.992  -6.153
   25XTA    OA4 1942  -2.511  29.607  -5.781
   25XTA    CO5 1943  -2.633  29.645  -5.732
   25XTA    HL1 1944  -2.713  29.619  -5.800
   25XTA    HL2 1945  -2.068  29.567  -6.752
   25XTA    HL3 1946  -2.064  29.431  -6.648
   25XTA    HL4 1947  -2.115  29.411  -6.808
   25XTA    HL5 1948  -1.950  30.352  -6.217
   25XTA    HL6 1949  -2.008  30.512  -6.277
   25XTA    HL7 1950  -1.982  30.473  -6.029
   25XTA    HL8 1951  -2.106  30.358  -6.033
   25XTA    HL9 1952  -2.126  30.665  -6.084
   25XTA   HL10 1953  -2.193  30.567  -5.953
   25XTA   HL11 1954  -2.313  30.544  -6.228
   25XTA   HL12 1955  -2.340  30.448  -6.090
   25XTA   HL13 1956  -2.433  30.721  -6.176
   25XTA   HL14 1957  -2.376  30.724  -6.005
   25XTA   HL15 1958  -2.589  30.499  -6.064
   25XTA   HL16 1959  -2.551  30.592  -5.929
   25XTA   HL17 1960  -2.674  30.706  -6.265
   25XTA   HL18 1961  -2.740  30.575  -6.185
   25XTA   HL19 1962  -2.789  30.940  -6.244
   25XTA   HL20 1963  -2.788  30.901  -6.075
   25XTA   HL21 1964  -2.942  31.101  -6.145
   25XTA   HL22 1965  -3.041  30.968  -6.084
   25XTA   HL23 1966  -3.022  30.989  -6.241
   25XTA   HL24 1967  -2.642  29.756  -5.720
   25XTA   HL25 1968  -2.650  29.603  -5.633
   25XTA    CO6 1969  -2.971  30.693  -6.080
   25XTA    CO7 1970  -2.938  30.721  -6.330
   25XTA    OA5 1971  -2.979  30.579  -6.080
   25XTA   HL26 1972  -3.068  30.742  -6.088
   25XTA   HL27 1973  -2.931  30.730  -5.989
   25XTA   HL28 1974  -2.939  30.579  -6.374
   25XTA   HL29 1975  -3.031  30.774  -6.338
   26XTA     NT 1976  -4.806  31.123  -8.976
   26XTA    CN1 1977  -4.904  31.205  -8.940
   26XTA     C1 1978  -5.036  31.193  -8.996
   26XTA     C2 1979  -5.144  31.277  -8.963
   26XTA     C3 1980  -5.120  31.393  -8.881
   26XTA     C4 1981  -4.990  31.411  -8.833
   26XTA     C5 1982  -4.885  31.315  -8.859
   26XTA    CN2 1983  -4.724  31.156  -9.075
   26XTA     C6 1984  -4.646  31.280  -9.072
   26XTA     C7 1985  -4.553  31.302  -9.173
   26XTA     C8 1986  -4.537  31.212  -9.288
   26XTA     C9 1987  -4.620  31.102  -9.286
   26XTA    C10 1988  -4.712  31.070  -9.183
   26XTA    CN3 1989  -4.758  31.020  -8.896
   26XTA    C11 1990  -4.811  30.892  -8.907
   26XTA    C12 1991  -4.780  30.791  -8.820
   26XTA    C13 1992  -4.691  30.816  -8.714
   26XTA    C14 1993  -4.641  30.948  -8.697
   26XTA    C15 1994  -4.669  31.049  -8.789
   26XTA     H1 1995  -5.065  31.117  -9.064
   26XTA     H2 1996  -5.240  31.254  -9.015
   26XTA     H3 1997  -4.969  31.494  -8.761
   26XTA     H4 1998  -4.784  31.323  -8.824
   26XTA     H5 1999  -4.656  31.342  -8.988
   26XTA     H6 2000  -4.496  31.395  -9.164
   26XTA     H7 2001  -4.592  31.039  -9.369
   26XTA     H8 2002  -4.784  30.988  -9.191
   26XTA     H9 2003  -4.885  30.872  -8.983
   26XTA    H10 2004  -4.826  30.699  -8.832
   26XTA    H11 2005  -4.571  30.965  -8.619
   26XTA    H12 2006  -4.634  31.151  -8.785
   26XTA    OA1 2007  -5.222  31.482  -8.852
   26XTA    CO1 2008  -5.353  31.424  -8.835
   26XTA    OA2 2009  -4.427  31.220  -9.371
   26XTA    CO2 2010  -4.306  31.200  -9.300
   26XTA    CL1 2011  -4.204  31.162  -9.397
   26XTA    CL2 2012  -4.083  31.090  -9.335
   26XTA    CL3 2013  -4.108  30.938  -9.315
   26XTA    CL4 2014  -4.012  30.876  -9.216
   26XTA    CO3 2015  -4.027  30.723  -9.210
   26XTA    OA3 2016  -4.014  30.659  -9.335
   26XTA    CO4 2017  -4.043  30.525  -9.343
   26XTA    CT1 2018  -4.012  30.452  -9.478
   26XTA    CL5 2019  -4.118  30.339  -9.506
   26XTA    CL6 2020  -4.262  30.382  -9.537
   26XTA    OA4 2021  -4.658  30.712  -8.636
   26XTA    CO5 2022  -4.666  30.749  -8.502
   26XTA    HL1 2023  -4.567  30.791  -8.493
   26XTA    HL2 2024  -5.361  31.355  -8.752
   26XTA    HL3 2025  -5.435  31.493  -8.806
   26XTA    HL4 2026  -5.385  31.371  -8.925
   26XTA    HL5 2027  -4.267  31.290  -9.251
   26XTA    HL6 2028  -4.332  31.112  -9.229
   26XTA    HL7 2029  -4.162  31.253  -9.451
   26XTA    HL8 2030  -4.256  31.095  -9.464
   26XTA    HL9 2031  -4.042  31.142  -9.248
   26XTA   HL10 2032  -4.000  31.111  -9.408
   26XTA   HL11 2033  -4.210  30.918  -9.285
   26XTA   HL12 2034  -4.092  30.892  -9.414
   26XTA   HL13 2035  -4.021  30.919  -9.117
   26XTA   HL14 2036  -3.920  30.904  -9.257
   26XTA   HL15 2037  -3.964  30.675  -9.141
   26XTA   HL16 2038  -4.124  30.698  -9.176
   26XTA   HL17 2039  -4.003  30.475  -9.263
   26XTA   HL18 2040  -4.149  30.514  -9.327
   26XTA   HL19 2041  -4.114  30.270  -9.422
   26XTA   HL20 2042  -4.076  30.302  -9.596
   26XTA   HL21 2043  -4.335  30.311  -9.498
   26XTA   HL22 2044  -4.274  30.378  -9.647
   26XTA   HL23 2045  -4.290  30.480  -9.502
   26XTA   HL24 2046  -4.680  30.665  -8.436
   26XTA   HL25 2047  -4.746  30.825  -8.482
   26XTA    CO6 2048  -3.861  30.391  -9.469
   26XTA    CO7 2049  -4.009  30.550  -9.601
   26XTA    OA5 2050  -3.983  30.483  -9.723
   26XTA   HL26 2051  -3.859  30.320  -9.384
   26XTA   HL27 2052  -3.830  30.339  -9.554
   26XTA   HL28 2053  -3.931  30.626  -9.586
   26XTA   HL29 2054  -4.107  30.603  -9.602
   27XTA     NT 2055  -6.219  28.240  -9.718
   27XTA    CN1 2056  -6.178  28.178  -9.828
   27XTA     C1 2057  -6.224  28.045  -9.841
   27XTA     C2 2058  -6.183  27.971  -9.953
   27XTA     C3 2059  -6.114  28.038 -10.059
   27XTA     C4 2060  -6.085  28.176 -10.052
   27XTA     C5 2061  -6.111  28.244  -9.929
   27XTA    CN2 2062  -6.304  28.345  -9.728
   27XTA     C6 2063  -6.277  28.480  -9.692
   27XTA     C7 2064  -6.382  28.569  -9.683
   27XTA     C8 2065  -6.514  28.533  -9.710
   27XTA     C9 2066  -6.538  28.398  -9.729
   27XTA    C10 2067  -6.440  28.310  -9.747
   27XTA    CN3 2068  -6.178  28.201  -9.595
   27XTA    C11 2069  -6.275  28.187  -9.488
   27XTA    C12 2070  -6.230  28.165  -9.355
   27XTA    C13 2071  -6.091  28.154  -9.331
   27XTA    C14 2072  -6.001  28.156  -9.438
   27XTA    C15 2073  -6.042  28.173  -9.575
   27XTA     H1 2074  -6.289  27.995  -9.767
   27XTA     H2 2075  -6.221  27.867  -9.963
   27XTA     H3 2076  -6.040  28.228 -10.137
   27XTA     H4 2077  -6.089  28.352  -9.913
   27XTA     H5 2078  -6.187  28.521  -9.654
   27XTA     H6 2079  -6.366  28.669  -9.642
   27XTA     H7 2080  -6.637  28.357  -9.743
   27XTA     H8 2081  -6.471  28.207  -9.771
   27XTA     H9 2082  -6.377  28.199  -9.515
   27XTA    H10 2083  -6.300  28.159  -9.274
   27XTA    H11 2084  -5.896  28.154  -9.414
   27XTA    H12 2085  -5.978  28.200  -9.652
   27XTA    OA1 2086  -6.070  27.956 -10.165
   27XTA    CO1 2087  -5.955  27.994 -10.228
   27XTA    OA2 2088  -6.618  28.627  -9.718
   27XTA    CO2 2089  -6.756  28.583  -9.706
   27XTA    CL1 2090  -6.802  28.554  -9.852
   27XTA    CL2 2091  -6.953  28.495  -9.852
   27XTA    CL3 2092  -6.997  28.463  -9.994
   27XTA    CL4 2093  -7.138  28.403  -9.992
   27XTA    CO3 2094  -7.166  28.345 -10.128
   27XTA    OA3 2095  -7.303  28.312 -10.156
   27XTA    CO4 2096  -7.344  28.183 -10.142
   27XTA    CT1 2097  -7.500  28.182 -10.119
   27XTA    CL5 2098  -7.556  28.234 -10.250
   27XTA    CL6 2099  -7.706  28.246 -10.251
   27XTA    OA4 2100  -6.045  28.139  -9.203
   27XTA    CO5 2101  -6.129  28.167  -9.092
   27XTA    HL1 2102  -6.161  28.266  -9.104
   27XTA    HL2 2103  -5.914  27.913 -10.293
   27XTA    HL3 2104  -5.959  28.080 -10.284
   27XTA    HL4 2105  -5.879  28.013 -10.158
   27XTA    HL5 2106  -6.769  28.496  -9.639
   27XTA    HL6 2107  -6.810  28.670  -9.666
   27XTA    HL7 2108  -6.739  28.479  -9.900
   27XTA    HL8 2109  -6.785  28.642  -9.905
   27XTA    HL9 2110  -7.028  28.567  -9.823
   27XTA   HL10 2111  -6.966  28.411  -9.781
   27XTA   HL11 2112  -6.991  28.549 -10.054
   27XTA   HL12 2113  -6.930  28.390 -10.023
   27XTA   HL13 2114  -7.216  28.480  -9.981
   27XTA   HL14 2115  -7.141  28.333  -9.903
   27XTA   HL15 2116  -7.142  28.420 -10.207
   27XTA   HL16 2117  -7.100  28.259 -10.149
   27XTA   HL17 2118  -7.310  28.138 -10.235
   27XTA   HL18 2119  -7.288  28.135 -10.057
   27XTA   HL19 2120  -7.521  28.169 -10.329
   27XTA   HL20 2121  -7.515  28.329 -10.278
   27XTA   HL21 2122  -7.749  28.280 -10.345
   27XTA   HL22 2123  -7.742  28.307 -10.174
   27XTA   HL23 2124  -7.746  28.141 -10.239
   27XTA   HL24 2125  -6.068  28.170  -8.999
   27XTA   HL25 2126  -6.215  28.101  -9.089
   27XTA    CO6 2127  -7.518  28.279  -9.992
   27XTA    CO7 2128  -7.552  28.045 -10.074
   27XTA    OA5 2129  -7.498  28.013  -9.956
   27XTA   HL26 2130  -7.601  28.240  -9.937
   27XTA   HL27 2131  -7.435  28.289  -9.934
   27XTA   HL28 2132  -7.547  27.958 -10.148
   27XTA   HL29 2133  -7.663  28.049 -10.059
   28XTA     NT 2134  -5.320  29.582 -11.170
   28XTA    CN1 2135  -5.337  29.697 -11.104
   28XTA     C1 2136  -5.433  29.712 -11.004
   28XTA     C2 2137  -5.475  29.837 -10.958
   28XTA     C3 2138  -5.417  29.956 -11.006
   28XTA     C4 2139  -5.319  29.943 -11.105
   28XTA     C5 2140  -5.281  29.817 -11.156
   28XTA    CN2 2141  -5.327  29.471 -11.097
   28XTA     C6 2142  -5.432  29.377 -11.131
   28XTA     C7 2143  -5.431  29.253 -11.069
   28XTA     C8 2144  -5.332  29.221 -10.970
   28XTA     C9 2145  -5.229  29.311 -10.945
   28XTA    C10 2146  -5.225  29.432 -11.011
   28XTA    CN3 2147  -5.293  29.576 -11.300
   28XTA    C11 2148  -5.183  29.511 -11.355
   28XTA    C12 2149  -5.174  29.486 -11.493
   28XTA    C13 2150  -5.288  29.510 -11.577
   28XTA    C14 2151  -5.405  29.576 -11.524
   28XTA    C15 2152  -5.399  29.608 -11.385
   28XTA     H1 2153  -5.497  29.631 -10.971
   28XTA     H2 2154  -5.556  29.836 -10.888
   28XTA     H3 2155  -5.270  30.023 -11.152
   28XTA     H4 2156  -5.218  29.805 -11.246
   28XTA     H5 2157  -5.503  29.409 -11.207
   28XTA     H6 2158  -5.502  29.180 -11.082
   28XTA     H7 2159  -5.146  29.283 -10.886
   28XTA     H8 2160  -5.143  29.495 -11.000
   28XTA     H9 2161  -5.101  29.479 -11.286
   28XTA    H10 2162  -5.078  29.444 -11.528
   28XTA    H11 2163  -5.496  29.590 -11.585
   28XTA    H12 2164  -5.488  29.658 -11.335
   28XTA    OA1 2165  -5.463  30.069 -10.946
   28XTA    CO1 2166  -5.397  30.185 -10.996
   28XTA    OA2 2167  -5.354  29.099 -10.904
   28XTA    CO2 2168  -5.330  29.092 -10.770
   28XTA    CL1 2169  -5.352  28.950 -10.721
   28XTA    CL2 2170  -5.493  28.903 -10.755
   28XTA    CL3 2171  -5.603  28.967 -10.674
   28XTA    CL4 2172  -5.746  28.921 -10.703
   28XTA    CO3 2173  -5.864  29.022 -10.671
   28XTA    OA3 2174  -5.990  28.960 -10.703
   28XTA    CO4 2175  -6.068  28.879 -10.616
   28XTA    CT1 2176  -6.207  28.862 -10.683
   28XTA    CL5 2177  -6.263  28.999 -10.728
   28XTA    CL6 2178  -6.402  28.997 -10.785
   28XTA    OA4 2179  -5.281  29.483 -11.713
   28XTA    CO5 2180  -5.193  29.374 -11.750
   28XTA    HL1 2181  -5.232  29.355 -11.853
   28XTA    HL2 2182  -5.283  30.190 -10.978
   28XTA    HL3 2183  -5.412  30.188 -11.104
   28XTA    HL4 2184  -5.431  30.283 -10.954
   28XTA    HL5 2185  -5.229  29.130 -10.745
   28XTA    HL6 2186  -5.406  29.148 -10.719
   28XTA    HL7 2187  -5.343  28.938 -10.611
   28XTA    HL8 2188  -5.262  28.893 -10.759
   28XTA    HL9 2189  -5.494  28.798 -10.719
   28XTA   HL10 2190  -5.504  28.906 -10.864
   28XTA   HL11 2191  -5.576  28.951 -10.574
   28XTA   HL12 2192  -5.607  29.074 -10.694
   28XTA   HL13 2193  -5.774  28.829 -10.651
   28XTA   HL14 2194  -5.757  28.888 -10.807
   28XTA   HL15 2195  -5.873  29.046 -10.568
   28XTA   HL16 2196  -5.855  29.111 -10.734
   28XTA   HL17 2197  -6.032  28.786 -10.582
   28XTA   HL18 2198  -6.083  28.941 -10.532
   28XTA   HL19 2199  -6.190  29.037 -10.800
   28XTA   HL20 2200  -6.269  29.061 -10.641
   28XTA   HL21 2201  -6.486  28.956 -10.715
   28XTA   HL22 2202  -6.400  28.956 -10.881
   28XTA   HL23 2203  -6.438  29.100 -10.797
   28XTA   HL24 2204  -5.194  29.281 -11.691
   28XTA   HL25 2205  -5.099  29.415 -11.756
   28XTA    CO6 2206  -6.305  28.796 -10.584
   28XTA    CO7 2207  -6.199  28.777 -10.817
   28XTA    OA5 2208  -6.235  28.677 -10.549
   28XTA   HL26 2209  -6.405  28.784 -10.627
   28XTA   HL27 2210  -6.321  28.857 -10.494
   28XTA   HL28 2211  -6.304  28.762 -10.850
   28XTA   HL29 2212  -6.159  28.845 -10.895
   29XTA     NT 2213  -2.059  28.371  -4.780
   29XTA    CN1 2214  -1.941  28.433  -4.771
   29XTA     C1 2215  -1.823  28.357  -4.782
   29XTA     C2 2216  -1.697  28.412  -4.767
   29XTA     C3 2217  -1.685  28.545  -4.737
   29XTA     C4 2218  -1.802  28.624  -4.735
   29XTA     C5 2219  -1.931  28.566  -4.746
   29XTA    CN2 2220  -2.135  28.347  -4.673
   29XTA     C6 2221  -2.261  28.405  -4.680
   29XTA     C7 2222  -2.359  28.375  -4.579
   29XTA     C8 2223  -2.328  28.291  -4.467
   29XTA     C9 2224  -2.198  28.233  -4.469
   29XTA    C10 2225  -2.103  28.255  -4.572
   29XTA    CN3 2226  -2.102  28.313  -4.897
   29XTA    C11 2227  -2.142  28.393  -5.003
   29XTA    C12 2228  -2.176  28.332  -5.127
   29XTA    C13 2229  -2.178  28.190  -5.140
   29XTA    C14 2230  -2.146  28.114  -5.031
   29XTA    C15 2231  -2.106  28.174  -4.912
   29XTA     H1 2232  -1.819  28.256  -4.812
   29XTA     H2 2233  -1.615  28.342  -4.771
   29XTA     H3 2234  -1.804  28.733  -4.726
   29XTA     H4 2235  -2.014  28.636  -4.737
   29XTA     H5 2236  -2.281  28.470  -4.761
   29XTA     H6 2237  -2.462  28.411  -4.585
   29XTA     H7 2238  -2.184  28.155  -4.396
   29XTA     H8 2239  -2.012  28.194  -4.586
   29XTA     H9 2240  -2.147  28.499  -4.993
   29XTA    H10 2241  -2.220  28.389  -5.209
   29XTA    H11 2242  -2.163  28.005  -5.036
   29XTA    H12 2243  -2.084  28.107  -4.832
   29XTA    OA1 2244  -1.556  28.598  -4.734
   29XTA    CO1 2245  -1.553  28.727  -4.779
   29XTA    OA2 2246  -2.425  28.258  -4.376
   29XTA    CO2 2247  -2.522  28.350  -4.326
   29XTA    CL1 2248  -2.575  28.285  -4.199
   29XTA    CL2 2249  -2.468  28.247  -4.100
   29XTA    CL3 2250  -2.532  28.197  -3.971
   29XTA    CL4 2251  -2.440  28.160  -3.853
   29XTA    CO3 2252  -2.520  28.165  -3.723
   29XTA    OA3 2253  -2.575  28.292  -3.698
   29XTA    CO4 2254  -2.621  28.309  -3.567
   29XTA    CT1 2255  -2.609  28.460  -3.540
   29XTA    CL5 2256  -2.705  28.524  -3.636
   29XTA    CL6 2257  -2.848  28.476  -3.639
   29XTA    OA4 2258  -2.218  28.127  -5.254
   29XTA    CO5 2259  -2.273  28.206  -5.358
   29XTA    HL1 2260  -2.310  28.141  -5.439
   29XTA    HL2 2261  -1.602  28.741  -4.875
   29XTA    HL3 2262  -1.602  28.797  -4.713
   29XTA    HL4 2263  -1.445  28.758  -4.791
   29XTA    HL5 2264  -2.500  28.462  -4.319
   29XTA    HL6 2265  -2.604  28.335  -4.399
   29XTA    HL7 2266  -2.638  28.195  -4.221
   29XTA    HL8 2267  -2.643  28.350  -4.143
   29XTA    HL9 2268  -2.414  28.338  -4.094
   29XTA   HL10 2269  -2.392  28.177  -4.139
   29XTA   HL11 2270  -2.592  28.286  -3.940
   29XTA   HL12 2271  -2.599  28.119  -4.004
   29XTA   HL13 2272  -2.363  28.229  -3.863
   29XTA   HL14 2273  -2.402  28.064  -3.874
   29XTA   HL15 2274  -2.607  28.101  -3.727
   29XTA   HL16 2275  -2.452  28.132  -3.648
   29XTA   HL17 2276  -2.724  28.279  -3.558
   29XTA   HL18 2277  -2.550  28.265  -3.491
   29XTA   HL19 2278  -2.661  28.510  -3.738
   29XTA   HL20 2279  -2.703  28.636  -3.618
   29XTA   HL21 2280  -2.925  28.545  -3.679
   29XTA   HL22 2281  -2.893  28.459  -3.539
   29XTA   HL23 2282  -2.843  28.391  -3.709
   29XTA   HL24 2283  -2.200  28.267  -5.410
   29XTA   HL25 2284  -2.349  28.276  -5.323
   29XTA    CO6 2285  -2.460  28.517  -3.563
   29XTA    CO7 2286  -2.648  28.492  -3.393
   29XTA    OA5 2287  -2.453  28.627  -3.568
   29XTA   HL26 2288  -2.422  28.477  -3.663
   29XTA   HL27 2289  -2.397  28.482  -3.479
   29XTA   HL28 2290  -2.645  28.628  -3.343
   29XTA   HL29 2291  -2.753  28.452  -3.378
   30XTA     NT 2292  -3.155  26.175  -5.090
   30XTA    CN1 2293  -3.036  26.198  -5.149
   30XTA     C1 2294  -3.024  26.186  -5.286
   30XTA     C2 2295  -2.900  26.208  -5.340
   30XTA     C3 2296  -2.793  26.251  -5.261
   30XTA     C4 2297  -2.807  26.268  -5.124
   30XTA     C5 2298  -2.931  26.235  -5.065
   30XTA    CN2 2299  -3.190  26.048  -5.072
   30XTA     C6 2300  -3.265  25.985  -5.172
   30XTA     C7 2301  -3.272  25.848  -5.169
   30XTA     C8 2302  -3.210  25.769  -5.067
   30XTA     C9 2303  -3.156  25.834  -4.958
   30XTA    C10 2304  -3.147  25.972  -4.960
   30XTA    CN3 2305  -3.248  26.266  -5.065
   30XTA    C11 2306  -3.229  26.357  -4.962
   30XTA    C12 2307  -3.319  26.458  -4.930
   30XTA    C13 2308  -3.434  26.479  -5.015
   30XTA    C14 2309  -3.459  26.387  -5.115
   30XTA    C15 2310  -3.367  26.283  -5.139
   30XTA     H1 2311  -3.106  26.164  -5.355
   30XTA     H2 2312  -2.888  26.199  -5.448
   30XTA     H3 2313  -2.720  26.299  -5.072
   30XTA     H4 2314  -2.953  26.260  -4.959
   30XTA     H5 2315  -3.294  26.042  -5.261
   30XTA     H6 2316  -3.323  25.798  -5.256
   30XTA     H7 2317  -3.110  25.795  -4.864
   30XTA     H8 2318  -3.099  26.022  -4.875
   30XTA     H9 2319  -3.140  26.348  -4.903
   30XTA    H10 2320  -3.312  26.511  -4.838
   30XTA    H11 2321  -3.542  26.403  -5.184
   30XTA    H12 2322  -3.390  26.223  -5.230
   30XTA    OA1 2323  -2.667  26.269  -5.325
   30XTA    CO1 2324  -2.564  26.326  -5.252
   30XTA    OA2 2325  -3.197  25.633  -5.069
   30XTA    CO2 2326  -3.225  25.577  -5.192
   30XTA    CL1 2327  -3.219  25.430  -5.194
   30XTA    CL2 2328  -3.259  25.352  -5.068
   30XTA    CL3 2329  -3.178  25.220  -5.066
   30XTA    CL4 2330  -3.227  25.116  -4.965
   30XTA    CO3 2331  -3.269  25.178  -4.828
   30XTA    OA3 2332  -3.227  25.088  -4.722
   30XTA    CO4 2333  -3.236  25.143  -4.589
   30XTA    CT1 2334  -3.139  25.076  -4.485
   30XTA    CL5 2335  -2.997  25.039  -4.542
   30XTA    CL6 2336  -2.905  25.160  -4.566
   30XTA    OA4 2337  -3.523  26.580  -4.980
   30XTA    CO5 2338  -3.616  26.616  -5.080
   30XTA    HL1 2339  -3.686  26.531  -5.088
   30XTA    HL2 2340  -2.601  26.408  -5.204
   30XTA    HL3 2341  -2.522  26.257  -5.175
   30XTA    HL4 2342  -2.476  26.350  -5.315
   30XTA    HL5 2343  -3.321  25.611  -5.237
   30XTA    HL6 2344  -3.158  25.604  -5.270
   30XTA    HL7 2345  -3.125  25.389  -5.225
   30XTA    HL8 2346  -3.283  25.385  -5.278
   30XTA    HL9 2347  -3.371  25.340  -5.073
   30XTA   HL10 2348  -3.238  25.409  -4.979
   30XTA   HL11 2349  -3.184  25.170  -5.163
   30XTA   HL12 2350  -3.079  25.255  -5.059
   30XTA   HL13 2351  -3.147  25.050  -4.938
   30XTA   HL14 2352  -3.314  25.058  -4.994
   30XTA   HL15 2353  -3.189  25.258  -4.817
   30XTA   HL16 2354  -3.371  25.208  -4.813
   30XTA   HL17 2355  -3.226  25.250  -4.603
   30XTA   HL18 2356  -3.334  25.126  -4.546
   30XTA   HL19 2357  -3.007  25.000  -4.637
   30XTA   HL20 2358  -2.943  24.961  -4.495
   30XTA   HL21 2359  -2.864  25.202  -4.473
   30XTA   HL22 2360  -2.964  25.237  -4.625
   30XTA   HL23 2361  -2.823  25.137  -4.629
   30XTA   HL24 2362  -3.562  26.616  -5.174
   30XTA   HL25 2363  -3.684  26.701  -5.072
   30XTA    CO6 2364  -3.203  24.953  -4.431
   30XTA    CO7 2365  -3.112  25.165  -4.363
   30XTA    OA5 2366  -3.209  24.846  -4.520
   30XTA   HL26 2367  -3.301  24.982  -4.386
   30XTA   HL27 2368  -3.143  24.928  -4.343
   30XTA   HL28 2369  -3.066  25.263  -4.400
   30XTA   HL29 2370  -3.211  25.188  -4.316
   31XTA     NT 2371  -4.291  29.410  -7.689
   31XTA    CN1 2372  -4.428  29.433  -7.698
   31XTA     C1 2373  -4.471  29.490  -7.820
   31XTA     C2 2374  -4.611  29.522  -7.831
   31XTA     C3 2375  -4.699  29.497  -7.726
   31XTA     C4 2376  -4.645  29.439  -7.611
   31XTA     C5 2377  -4.514  29.399  -7.595
   31XTA    CN2 2378  -4.258  29.279  -7.708
   31XTA     C6 2379  -4.199  29.208  -7.611
   31XTA     C7 2380  -4.173  29.070  -7.628
   31XTA     C8 2381  -4.198  29.009  -7.754
   31XTA     C9 2382  -4.258  29.088  -7.861
   31XTA    C10 2383  -4.282  29.225  -7.836
   31XTA    CN3 2384  -4.214  29.491  -7.614
   31XTA    C11 2385  -4.219  29.490  -7.473
   31XTA    C12 2386  -4.127  29.564  -7.400
   31XTA    C13 2387  -4.025  29.640  -7.467
   31XTA    C14 2388  -4.028  29.639  -7.612
   31XTA    C15 2389  -4.120  29.569  -7.686
   31XTA     H1 2390  -4.402  29.522  -7.892
   31XTA     H2 2391  -4.639  29.579  -7.919
   31XTA     H3 2392  -4.713  29.402  -7.537
   31XTA     H4 2393  -4.473  29.355  -7.505
   31XTA     H5 2394  -4.165  29.245  -7.513
   31XTA     H6 2395  -4.121  29.023  -7.542
   31XTA     H7 2396  -4.295  29.031  -7.948
   31XTA     H8 2397  -4.320  29.289  -7.916
   31XTA     H9 2398  -4.298  29.438  -7.421
   31XTA    H10 2399  -4.137  29.581  -7.294
   31XTA    H11 2400  -3.959  29.698  -7.664
   31XTA    H12 2401  -4.120  29.580  -7.792
   31XTA    OA1 2402  -4.830  29.530  -7.735
   31XTA    CO1 2403  -4.932  29.453  -7.674
   31XTA    OA2 2404  -4.151  28.880  -7.771
   31XTA    CO2 2405  -4.084  28.857  -7.890
   31XTA    CL1 2406  -4.002  28.729  -7.884
   31XTA    CL2 2407  -3.885  28.737  -7.786
   31XTA    CL3 2408  -3.790  28.618  -7.792
   31XTA    CL4 2409  -3.677  28.623  -7.690
   31XTA    CO3 2410  -3.717  28.599  -7.540
   31XTA    OA3 2411  -3.599  28.625  -7.458
   31XTA    CO4 2412  -3.622  28.685  -7.327
   31XTA    CT1 2413  -3.532  28.802  -7.321
   31XTA    CL5 2414  -3.386  28.769  -7.340
   31XTA    CL6 2415  -3.323  28.676  -7.232
   31XTA    OA4 2416  -3.923  29.703  -7.408
   31XTA    CO5 2417  -3.941  29.726  -7.272
   31XTA    HL1 2418  -3.962  29.633  -7.216
   31XTA    HL2 2419  -4.949  29.480  -7.563
   31XTA    HL3 2420  -5.018  29.482  -7.735
   31XTA    HL4 2421  -4.908  29.339  -7.678
   31XTA    HL5 2422  -4.158  28.844  -7.969
   31XTA    HL6 2423  -4.015  28.940  -7.912
   31XTA    HL7 2424  -3.960  28.692  -7.980
   31XTA    HL8 2425  -4.078  28.656  -7.849
   31XTA    HL9 2426  -3.928  28.746  -7.686
   31XTA   HL10 2427  -3.839  28.836  -7.814
   31XTA   HL11 2428  -3.845  28.523  -7.796
   31XTA   HL12 2429  -3.744  28.620  -7.886
   31XTA   HL13 2430  -3.621  28.712  -7.703
   31XTA   HL14 2431  -3.590  28.556  -7.713
   31XTA   HL15 2432  -3.788  28.682  -7.521
   31XTA   HL16 2433  -3.766  28.513  -7.517
   31XTA   HL17 2434  -3.724  28.711  -7.302
   31XTA   HL18 2435  -3.594  28.613  -7.254
   31XTA   HL19 2436  -3.339  28.864  -7.345
   31XTA   HL20 2437  -3.349  28.731  -7.441
   31XTA   HL21 2438  -3.380  28.579  -7.232
   31XTA   HL22 2439  -3.320  28.718  -7.133
   31XTA   HL23 2440  -3.225  28.646  -7.271
   31XTA   HL24 2441  -4.027  29.790  -7.250
   31XTA   HL25 2442  -3.851  29.771  -7.238
   31XTA    CO6 2443  -3.542  28.873  -7.188
   31XTA    CO7 2444  -3.573  28.904  -7.426
   31XTA    OA5 2445  -3.681  28.937  -7.424
   31XTA   HL26 2446  -3.478  28.958  -7.183
   31XTA   HL27 2447  -3.668  28.936  -7.178
   31XTA   HL28 2448  -3.542  28.856  -7.521
   31XTA   HL29 2449  -3.515  28.992  -7.413
   32XTA     NT 2450  -6.692  29.945  -8.443
   32XTA    CN1 2451  -6.668  30.076  -8.465
   32XTA     C1 2452  -6.587  30.145  -8.361
   32XTA     C2 2453  -6.535  30.276  -8.386
   32XTA     C3 2454  -6.579  30.341  -8.503
   32XTA     C4 2455  -6.656  30.275  -8.599
   32XTA     C5 2456  -6.700  30.137  -8.588
   32XTA    CN2 2457  -6.595  29.851  -8.438
   32XTA     C6 2458  -6.524  29.826  -8.318
   32XTA     C7 2459  -6.413  29.744  -8.312
   32XTA     C8 2460  -6.364  29.693  -8.440
   32XTA     C9 2461  -6.433  29.709  -8.562
   32XTA    C10 2462  -6.546  29.793  -8.558
   32XTA    CN3 2463  -6.806  29.907  -8.379
   32XTA    C11 2464  -6.817  29.914  -8.242
   32XTA    C12 2465  -6.936  29.873  -8.179
   32XTA    C13 2466  -7.049  29.826  -8.261
   32XTA    C14 2467  -7.035  29.824  -8.403
   32XTA    C15 2468  -6.915  29.867  -8.459
   32XTA     H1 2469  -6.568  30.109  -8.264
   32XTA     H2 2470  -6.473  30.327  -8.318
   32XTA     H3 2471  -6.668  30.320  -8.696
   32XTA     H4 2472  -6.750  30.084  -8.664
   32XTA     H5 2473  -6.553  29.874  -8.228
   32XTA     H6 2474  -6.351  29.720  -8.227
   32XTA     H7 2475  -6.414  29.650  -8.647
   32XTA     H8 2476  -6.593  29.800  -8.647
   32XTA     H9 2477  -6.738  29.946  -8.176
   32XTA    H10 2478  -6.945  29.870  -8.075
   32XTA    H11 2479  -7.108  29.786  -8.469
   32XTA    H12 2480  -6.903  29.858  -8.569
   32XTA    OA1 2481  -6.537  30.468  -8.510
   32XTA    CO1 2482  -6.590  30.563  -8.593
   32XTA    OA2 2483  -6.263  29.606  -8.428
   32XTA    CO2 2484  -6.219  29.549  -8.550
   32XTA    CL1 2485  -6.110  29.452  -8.518
   32XTA    CL2 2486  -5.978  29.528  -8.500
   32XTA    CL3 2487  -5.911  29.555  -8.633
   32XTA    CL4 2488  -5.759  29.595  -8.608
   32XTA    CO3 2489  -5.694  29.655  -8.732
   32XTA    OA3 2490  -5.555  29.662  -8.706
   32XTA    CO4 2491  -5.476  29.708  -8.813
   32XTA    CT1 2492  -5.321  29.703  -8.780
   32XTA    CL5 2493  -5.233  29.727  -8.903
   32XTA    CL6 2494  -5.080  29.728  -8.872
   32XTA    OA4 2495  -7.167  29.791  -8.203
   32XTA    CO5 2496  -7.164  29.749  -8.063
   32XTA    HL1 2497  -7.099  29.657  -8.060
   32XTA    HL2 2498  -6.570  30.548  -8.702
   32XTA    HL3 2499  -6.705  30.562  -8.595
   32XTA    HL4 2500  -6.568  30.671  -8.571
   32XTA    HL5 2501  -6.305  29.502  -8.591
   32XTA    HL6 2502  -6.195  29.625  -8.621
   32XTA    HL7 2503  -6.090  29.373  -8.593
   32XTA    HL8 2504  -6.133  29.399  -8.421
   32XTA    HL9 2505  -5.917  29.463  -8.434
   32XTA   HL10 2506  -5.995  29.616  -8.437
   32XTA   HL11 2507  -5.909  29.470  -8.703
   32XTA   HL12 2508  -5.965  29.635  -8.688
   32XTA   HL13 2509  -5.714  29.499  -8.579
   32XTA   HL14 2510  -5.746  29.661  -8.531
   32XTA   HL15 2511  -5.717  29.586  -8.813
   32XTA   HL16 2512  -5.740  29.754  -8.753
   32XTA   HL17 2513  -5.493  29.639  -8.902
   32XTA   HL18 2514  -5.519  29.805  -8.843
   32XTA   HL19 2515  -5.263  29.814  -8.953
   32XTA   HL20 2516  -5.248  29.657  -8.985
   32XTA   HL21 2517  -5.012  29.744  -8.962
   32XTA   HL22 2518  -5.058  29.635  -8.823
   32XTA   HL23 2519  -5.045  29.801  -8.801
   32XTA   HL24 2520  -7.262  29.711  -8.044
   32XTA   HL25 2521  -7.127  29.821  -7.992
   32XTA    CO6 2522  -5.281  29.565  -8.721
   32XTA    CO7 2523  -5.290  29.801  -8.670
   32XTA    OA5 2524  -5.298  29.906  -8.708
   32XTA   HL26 2525  -5.352  29.526  -8.649
   32XTA   HL27 2526  -5.157  29.579  -8.650
   32XTA   HL28 2527  -5.194  29.786  -8.624
   32XTA   HL29 2528  -5.367  29.785  -8.593
   33XTA     NT 2529  -5.859  27.595  -6.374
   33XTA    CN1 2530  -5.852  27.729  -6.353
   33XTA     C1 2531  -5.929  27.821  -6.436
   33XTA     C2 2532  -5.933  27.959  -6.410
   33XTA     C3 2533  -5.848  28.006  -6.306
   33XTA     C4 2534  -5.765  27.927  -6.231
   33XTA     C5 2535  -5.761  27.784  -6.255
   33XTA    CN2 2536  -5.744  27.533  -6.402
   33XTA     C6 2537  -5.707  27.408  -6.341
   33XTA     C7 2538  -5.577  27.356  -6.360
   33XTA     C8 2539  -5.483  27.408  -6.451
   33XTA     C9 2540  -5.522  27.531  -6.514
   33XTA    C10 2541  -5.648  27.592  -6.494
   33XTA    CN3 2542  -5.974  27.530  -6.398
   33XTA    C11 2543  -6.069  27.522  -6.294
   33XTA    C12 2544  -6.183  27.448  -6.316
   33XTA    C13 2545  -6.208  27.386  -6.442
   33XTA    C14 2546  -6.118  27.412  -6.547
   33XTA    C15 2547  -6.002  27.485  -6.526
   33XTA     H1 2548  -5.993  27.766  -6.499
   33XTA     H2 2549  -6.002  28.019  -6.460
   33XTA     H3 2550  -5.696  27.972  -6.159
   33XTA     H4 2551  -5.703  27.715  -6.198
   33XTA     H5 2552  -5.775  27.361  -6.275
   33XTA     H6 2553  -5.553  27.259  -6.324
   33XTA     H7 2554  -5.453  27.590  -6.578
   33XTA     H8 2555  -5.679  27.682  -6.546
   33XTA     H9 2556  -6.057  27.582  -6.202
   33XTA    H10 2557  -6.265  27.438  -6.242
   33XTA    H11 2558  -6.138  27.373  -6.643
   33XTA    H12 2559  -5.934  27.502  -6.609
   33XTA    OA1 2560  -5.855  28.137  -6.267
   33XTA    CO1 2561  -5.841  28.236  -6.371
   33XTA    OA2 2562  -5.365  27.349  -6.470
   33XTA    CO2 2563  -5.306  27.346  -6.598
   33XTA    CL1 2564  -5.203  27.230  -6.607
   33XTA    CL2 2565  -5.151  27.199  -6.746
   33XTA    CL3 2566  -5.241  27.101  -6.824
   33XTA    CL4 2567  -5.184  27.055  -6.959
   33XTA    CO3 2568  -5.177  27.168  -7.071
   33XTA    OA3 2569  -5.260  27.140  -7.179
   33XTA    CO4 2570  -5.197  27.064  -7.282
   33XTA    CT1 2571  -5.297  27.043  -7.396
   33XTA    CL5 2572  -5.416  26.948  -7.355
   33XTA    CL6 2573  -5.518  26.923  -7.470
   33XTA    OA4 2574  -6.321  27.304  -6.468
   33XTA    CO5 2575  -6.369  27.233  -6.347
   33XTA    HL1 2576  -6.447  27.291  -6.291
   33XTA    HL2 2577  -5.740  28.246  -6.411
   33XTA    HL3 2578  -5.913  28.228  -6.451
   33XTA    HL4 2579  -5.856  28.327  -6.316
   33XTA    HL5 2580  -5.387  27.319  -6.671
   33XTA    HL6 2581  -5.247  27.435  -6.619
   33XTA    HL7 2582  -5.237  27.149  -6.550
   33XTA    HL8 2583  -5.125  27.251  -6.540
   33XTA    HL9 2584  -5.052  27.155  -6.740
   33XTA   HL10 2585  -5.127  27.286  -6.815
   33XTA   HL11 2586  -5.277  27.014  -6.766
   33XTA   HL12 2587  -5.335  27.152  -6.847
   33XTA   HL13 2588  -5.239  26.974  -7.000
   33XTA   HL14 2589  -5.085  27.008  -6.947
   33XTA   HL15 2590  -5.227  27.252  -7.029
   33XTA   HL16 2591  -5.069  27.180  -7.096
   33XTA   HL17 2592  -5.100  27.115  -7.308
   33XTA   HL18 2593  -5.177  26.964  -7.237
   33XTA   HL19 2594  -5.482  26.985  -7.279
   33XTA   HL20 2595  -5.378  26.847  -7.318
   33XTA   HL21 2596  -5.562  27.011  -7.514
   33XTA   HL22 2597  -5.602  26.873  -7.414
   33XTA   HL23 2598  -5.471  26.859  -7.544
   33XTA   HL24 2599  -6.278  27.203  -6.292
   33XTA   HL25 2600  -6.420  27.143  -6.383
   33XTA    CO6 2601  -5.216  26.985  -7.514
   33XTA    CO7 2602  -5.352  27.179  -7.443
   33XTA    OA5 2603  -5.158  26.892  -7.482
   33XTA   HL26 2604  -5.159  27.058  -7.574
   33XTA   HL27 2605  -5.290  26.949  -7.583
   33XTA   HL28 2606  -5.475  27.213  -7.382
   33XTA   HL29 2607  -5.389  27.171  -7.543
   34XTA     NT 2608  -6.001  26.453  -8.893
   34XTA    CN1 2609  -6.078  26.456  -9.003
   34XTA     C1 2610  -6.053  26.371  -9.112
   34XTA     C2 2611  -6.147  26.363  -9.215
   34XTA     C3 2612  -6.255  26.449  -9.221
   34XTA     C4 2613  -6.271  26.551  -9.123
   34XTA     C5 2614  -6.183  26.548  -9.015
   34XTA    CN2 2615  -5.870  26.479  -8.911
   34XTA     C6 2616  -5.768  26.383  -8.899
   34XTA     C7 2617  -5.640  26.417  -8.917
   34XTA     C8 2618  -5.604  26.551  -8.946
   34XTA     C9 2619  -5.704  26.650  -8.961
   34XTA    C10 2620  -5.839  26.611  -8.949
   34XTA    CN3 2621  -6.056  26.436  -8.770
   34XTA    C11 2622  -6.078  26.305  -8.727
   34XTA    C12 2623  -6.140  26.285  -8.601
   34XTA    C13 2624  -6.166  26.391  -8.518
   34XTA    C14 2625  -6.143  26.521  -8.567
   34XTA    C15 2626  -6.092  26.549  -8.691
   34XTA     H1 2627  -5.973  26.299  -9.102
   34XTA     H2 2628  -6.139  26.292  -9.301
   34XTA     H3 2629  -6.361  26.612  -9.124
   34XTA     H4 2630  -6.196  26.604  -8.930
   34XTA     H5 2631  -5.807  26.288  -8.876
   34XTA     H6 2632  -5.572  26.336  -8.909
   34XTA     H7 2633  -5.675  26.753  -8.989
   34XTA     H8 2634  -5.911  26.688  -8.971
   34XTA     H9 2635  -6.042  26.224  -8.797
   34XTA    H10 2636  -6.172  26.190  -8.565
   34XTA    H11 2637  -6.152  26.600  -8.497
   34XTA    H12 2638  -6.071  26.647  -8.728
   34XTA    OA1 2639  -6.351  26.432  -9.317
   34XTA    CO1 2640  -6.356  26.538  -9.406
   34XTA    OA2 2641  -5.479  26.596  -8.977
   34XTA    CO2 2642  -5.371  26.508  -8.985
   34XTA    CL1 2643  -5.249  26.596  -8.950
   34XTA    CL2 2644  -5.231  26.632  -8.805
   34XTA    CL3 2645  -5.227  26.777  -8.781
   34XTA    CL4 2646  -5.220  26.820  -8.635
   34XTA    CO3 2647  -5.346  26.787  -8.557
   34XTA    OA3 2648  -5.448  26.884  -8.553
   34XTA    CO4 2649  -5.519  26.900  -8.678
   34XTA    CT1 2650  -5.646  26.979  -8.660
   34XTA    CL5 2651  -5.712  27.003  -8.799
   34XTA    CL6 2652  -5.620  27.082  -8.900
   34XTA    OA4 2653  -6.219  26.386  -8.395
   34XTA    CO5 2654  -6.256  26.261  -8.353
   34XTA    HL1 2655  -6.166  26.213  -8.361
   34XTA    HL2 2656  -6.418  26.523  -9.496
   34XTA    HL3 2657  -6.394  26.627  -9.356
   34XTA    HL4 2658  -6.257  26.558  -9.440
   34XTA    HL5 2659  -5.372  26.438  -8.902
   34XTA    HL6 2660  -5.369  26.451  -9.074
   34XTA    HL7 2661  -5.255  26.685  -9.014
   34XTA    HL8 2662  -5.164  26.539  -8.975
   34XTA    HL9 2663  -5.136  26.585  -8.773
   34XTA   HL10 2664  -5.307  26.579  -8.754
   34XTA   HL11 2665  -5.132  26.820  -8.814
   34XTA   HL12 2666  -5.309  26.833  -8.836
   34XTA   HL13 2667  -5.182  26.921  -8.622
   34XTA   HL14 2668  -5.140  26.763  -8.593
   34XTA   HL15 2669  -5.403  26.701  -8.593
   34XTA   HL16 2670  -5.308  26.767  -8.459
   34XTA   HL17 2671  -5.453  26.962  -8.730
   34XTA   HL18 2672  -5.545  26.811  -8.727
   34XTA   HL19 2673  -5.800  27.057  -8.769
   34XTA   HL20 2674  -5.736  26.908  -8.846
   34XTA   HL21 2675  -5.690  27.110  -8.973
   34XTA   HL22 2676  -5.541  27.020  -8.935
   34XTA   HL23 2677  -5.568  27.170  -8.861
   34XTA   HL24 2678  -6.328  26.218  -8.419
   34XTA   HL25 2679  -6.301  26.254  -8.254
   34XTA    CO6 2680  -5.610  27.108  -8.581
   34XTA    CO7 2681  -5.740  26.885  -8.583
   34XTA    OA5 2682  -5.865  26.956  -8.575
   34XTA   HL26 2683  -5.504  27.108  -8.571
   34XTA   HL27 2684  -5.641  27.095  -8.473
   34XTA   HL28 2685  -5.697  26.851  -8.485
   34XTA   HL29 2686  -5.754  26.799  -8.637
   35XTA     NT 2687  -6.208  31.535 -11.221
   35XTA    CN1 2688  -6.203  31.645 -11.298
   35XTA     C1 2689  -6.316  31.686 -11.377
   35XTA     C2 2690  -6.305  31.810 -11.449
   35XTA     C3 2691  -6.193  31.893 -11.439
   35XTA     C4 2692  -6.083  31.852 -11.363
   35XTA     C5 2693  -6.084  31.727 -11.296
   35XTA    CN2 2694  -6.209  31.545 -11.086
   35XTA     C6 2695  -6.341  31.537 -11.028
   35XTA     C7 2696  -6.355  31.543 -10.892
   35XTA     C8 2697  -6.243  31.554 -10.802
   35XTA     C9 2698  -6.117  31.568 -10.860
   35XTA    C10 2699  -6.096  31.560 -10.996
   35XTA    CN3 2700  -6.178  31.416 -11.272
   35XTA    C11 2701  -6.269  31.309 -11.267
   35XTA    C12 2702  -6.221  31.175 -11.300
   35XTA    C13 2703  -6.092  31.151 -11.352
   35XTA    C14 2704  -6.002  31.260 -11.363
   35XTA    C15 2705  -6.049  31.387 -11.319
   35XTA     H1 2706  -6.412  31.637 -11.383
   35XTA     H2 2707  -6.382  31.848 -11.518
   35XTA     H3 2708  -5.994  31.917 -11.354
   35XTA     H4 2709  -5.994  31.698 -11.249
   35XTA     H5 2710  -6.420  31.514 -11.091
   35XTA     H6 2711  -6.453  31.523 -10.849
   35XTA     H7 2712  -6.030  31.579 -10.797
   35XTA     H8 2713  -5.996  31.553 -11.036
   35XTA     H9 2714  -6.367  31.327 -11.214
   35XTA    H10 2715  -6.293  31.099 -11.292
   35XTA    H11 2716  -5.898  31.233 -11.381
   35XTA    H12 2717  -5.979  31.472 -11.321
   35XTA    OA1 2718  -6.204  32.008 -11.514
   35XTA    CO1 2719  -6.112  32.107 -11.495
   35XTA    OA2 2720  -6.259  31.544 -10.661
   35XTA    CO2 2721  -6.364  31.463 -10.624
   35XTA    CL1 2722  -6.347  31.413 -10.485
   35XTA    CL2 2723  -6.206  31.373 -10.458
   35XTA    CL3 2724  -6.170  31.361 -10.309
   35XTA    CL4 2725  -6.026  31.306 -10.289
   35XTA    CO3 2726  -6.019  31.162 -10.338
   35XTA    OA3 2727  -5.993  31.134 -10.473
   35XTA    CO4 2728  -6.056  31.012 -10.525
   35XTA    CT1 2729  -6.012  30.976 -10.668
   35XTA    CL5 2730  -6.064  31.096 -10.757
   35XTA    CL6 2731  -6.024  31.096 -10.904
   35XTA    OA4 2732  -6.056  31.025 -11.382
   35XTA    CO5 2733  -5.963  31.009 -11.490
   35XTA    HL1 2734  -5.867  31.037 -11.463
   35XTA    HL2 2735  -6.131  32.191 -11.559
   35XTA    HL3 2736  -6.096  32.144 -11.392
   35XTA    HL4 2737  -6.020  32.076 -11.539
   35XTA    HL5 2738  -6.464  31.510 -10.628
   35XTA    HL6 2739  -6.357  31.373 -10.692
   35XTA    HL7 2740  -6.415  31.326 -10.467
   35XTA    HL8 2741  -6.375  31.488 -10.417
   35XTA    HL9 2742  -6.141  31.460 -10.490
   35XTA   HL10 2743  -6.179  31.286 -10.514
   35XTA   HL11 2744  -6.177  31.450 -10.254
   35XTA   HL12 2745  -6.234  31.294 -10.258
   35XTA   HL13 2746  -5.997  31.320 -10.185
   35XTA   HL14 2747  -5.952  31.372 -10.342
   35XTA   HL15 2748  -5.944  31.104 -10.285
   35XTA   HL16 2749  -6.115  31.108 -10.310
   35XTA   HL17 2750  -6.026  30.929 -10.458
   35XTA   HL18 2751  -6.163  31.020 -10.523
   35XTA   HL19 2752  -6.023  31.186 -10.718
   35XTA   HL20 2753  -6.176  31.108 -10.743
   35XTA   HL21 2754  -6.075  31.010 -10.949
   35XTA   HL22 2755  -5.921  31.082 -10.917
   35XTA   HL23 2756  -6.066  31.183 -10.951
   35XTA   HL24 2757  -5.981  31.067 -11.583
   35XTA   HL25 2758  -5.953  30.903 -11.511
   35XTA    CO6 2759  -6.090  30.845 -10.707
   35XTA    CO7 2760  -5.860  30.955 -10.678
   35XTA    OA5 2761  -6.080  30.753 -10.637
   35XTA   HL26 2762  -6.078  30.821 -10.813
   35XTA   HL27 2763  -6.194  30.870 -10.702
   35XTA   HL28 2764  -5.824  30.840 -10.616
   35XTA   HL29 2765  -5.836  30.936 -10.784
   36XTA     NT 2766  -7.225  27.212  -7.435
   36XTA    CN1 2767  -7.213  27.345  -7.406
   36XTA     C1 2768  -7.230  27.444  -7.504
   36XTA     C2 2769  -7.212  27.581  -7.477
   36XTA     C3 2770  -7.190  27.623  -7.343
   36XTA     C4 2771  -7.187  27.522  -7.245
   36XTA     C5 2772  -7.198  27.384  -7.272
   36XTA    CN2 2773  -7.352  27.166  -7.424
   36XTA     C6 2774  -7.461  27.207  -7.496
   36XTA     C7 2775  -7.582  27.149  -7.480
   36XTA     C8 2776  -7.606  27.038  -7.389
   36XTA     C9 2777  -7.496  26.992  -7.319
   36XTA    C10 2778  -7.372  27.058  -7.331
   36XTA    CN3 2779  -7.131  27.162  -7.513
   36XTA    C11 2780  -7.158  27.130  -7.647
   36XTA    C12 2781  -7.059  27.099  -7.739
   36XTA    C13 2782  -6.922  27.093  -7.707
   36XTA    C14 2783  -6.893  27.113  -7.566
   36XTA    C15 2784  -6.997  27.146  -7.471
   36XTA     H1 2785  -7.245  27.408  -7.605
   36XTA     H2 2786  -7.220  27.656  -7.554
   36XTA     H3 2787  -7.181  27.549  -7.142
   36XTA     H4 2788  -7.196  27.314  -7.186
   36XTA     H5 2789  -7.452  27.274  -7.576
   36XTA     H6 2790  -7.664  27.190  -7.546
   36XTA     H7 2791  -7.516  26.900  -7.257
   36XTA     H8 2792  -7.287  27.024  -7.280
   36XTA     H9 2793  -7.260  27.138  -7.680
   36XTA    H10 2794  -7.089  27.071  -7.838
   36XTA    H11 2795  -6.793  27.101  -7.527
   36XTA    H12 2796  -6.981  27.155  -7.367
   36XTA    OA1 2797  -7.169  27.756  -7.305
   36XTA    CO1 2798  -7.173  27.854  -7.414
   36XTA    OA2 2799  -7.731  26.991  -7.367
   36XTA    CO2 2800  -7.835  27.046  -7.441
   36XTA    CL1 2801  -7.965  26.980  -7.397
   36XTA    CL2 2802  -8.080  27.057  -7.458
   36XTA    CL3 2803  -8.160  26.977  -7.563
   36XTA    CL4 2804  -8.227  27.063  -7.667
   36XTA    CO3 2805  -8.307  26.978  -7.765
   36XTA    OA3 2806  -8.347  27.058  -7.879
   36XTA    CO4 2807  -8.455  27.149  -7.864
   36XTA    CT1 2808  -8.596  27.104  -7.825
   36XTA    CL5 2809  -8.642  26.973  -7.908
   36XTA    CL6 2810  -8.609  26.832  -7.850
   36XTA    OA4 2811  -6.832  27.057  -7.803
   36XTA    CO5 2812  -6.699  27.092  -7.779
   36XTA    HL1 2813  -6.637  27.072  -7.866
   36XTA    HL2 2814  -7.089  27.830  -7.476
   36XTA    HL3 2815  -7.267  27.861  -7.467
   36XTA    HL4 2816  -7.153  27.947  -7.366
   36XTA    HL5 2817  -7.847  27.152  -7.429
   36XTA    HL6 2818  -7.816  27.022  -7.547
   36XTA    HL7 2819  -7.975  26.998  -7.289
   36XTA    HL8 2820  -7.969  26.877  -7.424
   36XTA    HL9 2821  -8.052  27.151  -7.506
   36XTA   HL10 2822  -8.136  27.094  -7.382
   36XTA   HL11 2823  -8.091  26.915  -7.625
   36XTA   HL12 2824  -8.224  26.912  -7.507
   36XTA   HL13 2825  -8.145  27.120  -7.716
   36XTA   HL14 2826  -8.289  27.128  -7.612
   36XTA   HL15 2827  -8.251  26.892  -7.794
   36XTA   HL16 2828  -8.380  26.921  -7.713
   36XTA   HL17 2829  -8.425  27.223  -7.793
   36XTA   HL18 2830  -8.468  27.187  -7.964
   36XTA   HL19 2831  -8.608  26.986  -8.012
   36XTA   HL20 2832  -8.747  26.974  -7.931
   36XTA   HL21 2833  -8.631  26.828  -7.743
   36XTA   HL22 2834  -8.504  26.808  -7.856
   36XTA   HL23 2835  -8.671  26.768  -7.915
   36XTA   HL24 2836  -6.661  27.020  -7.707
   36XTA   HL25 2837  -6.678  27.195  -7.744
   36XTA    CO6 2838  -8.680  27.218  -7.879
   36XTA    CO7 2839  -8.621  27.089  -7.674
   36XTA    OA5 2840  -8.611  27.214  -7.607
   36XTA   HL26 2841  -8.651  27.313  -7.845
   36XTA   HL27 2842  -8.777  27.195  -7.840
   36XTA   HL28 2843  -8.559  27.004  -7.629
   36XTA   HL29 2844  -8.726  27.063  -7.662
   37XTA     NT 2845  -7.795  28.249 -10.719
   37XTA    CN1 2846  -7.896  28.207 -10.802
   37XTA     C1 2847  -7.915  28.282 -10.920
   37XTA     C2 2848  -8.013  28.240 -11.012
   37XTA     C3 2849  -8.096  28.124 -10.982
   37XTA     C4 2850  -8.063  28.050 -10.868
   37XTA     C5 2851  -7.966  28.095 -10.775
   37XTA    CN2 2852  -7.685  28.169 -10.718
   37XTA     C6 2853  -7.633  28.120 -10.835
   37XTA     C7 2854  -7.526  28.024 -10.822
   37XTA     C8 2855  -7.480  27.977 -10.695
   37XTA     C9 2856  -7.545  28.025 -10.578
   37XTA    C10 2857  -7.642  28.127 -10.591
   37XTA    CN3 2858  -7.813  28.345 -10.625
   37XTA    C11 2859  -7.937  28.350 -10.556
   37XTA    C12 2860  -7.962  28.459 -10.475
   37XTA    C13 2861  -7.869  28.573 -10.477
   37XTA    C14 2862  -7.749  28.572 -10.548
   37XTA    C15 2863  -7.729  28.462 -10.627
   37XTA     H1 2864  -7.853  28.368 -10.944
   37XTA     H2 2865  -8.036  28.289 -11.100
   37XTA     H3 2866  -8.109  27.956 -10.841
   37XTA     H4 2867  -7.943  28.038 -10.683
   37XTA     H5 2868  -7.677  28.149 -10.930
   37XTA     H6 2869  -7.485  27.995 -10.919
   37XTA     H7 2870  -7.520  27.981 -10.485
   37XTA     H8 2871  -7.699  28.152 -10.503
   37XTA     H9 2872  -8.001  28.263 -10.566
   37XTA    H10 2873  -8.060  28.469 -10.420
   37XTA    H11 2874  -7.671  28.652 -10.540
   37XTA    H12 2875  -7.643  28.469 -10.691
   37XTA    OA1 2876  -8.210  28.082 -11.061
   37XTA    CO1 2877  -8.225  28.135 -11.188
   37XTA    OA2 2878  -7.374  27.897 -10.679
   37XTA    CO2 2879  -7.277  27.888 -10.785
   37XTA    CL1 2880  -7.182  28.010 -10.803
   37XTA    CL2 2881  -7.224  28.123 -10.897
   37XTA    CL3 2882  -7.112  28.214 -10.938
   37XTA    CL4 2883  -7.165  28.308 -11.053
   37XTA    CO3 2884  -7.246  28.434 -11.007
   37XTA    OA3 2885  -7.203  28.510 -10.892
   37XTA    CO4 2886  -7.299  28.616 -10.868
   37XTA    CT1 2887  -7.267  28.666 -10.728
   37XTA    CL5 2888  -7.258  28.545 -10.628
   37XTA    CL6 2889  -7.371  28.437 -10.621
   37XTA    OA4 2890  -7.890  28.691 -10.407
   37XTA    CO5 2891  -8.013  28.683 -10.339
   37XTA    HL1 2892  -8.094  28.665 -10.409
   37XTA    HL2 2893  -8.139  28.165 -11.252
   37XTA    HL3 2894  -8.293  28.069 -11.244
   37XTA    HL4 2895  -8.274  28.234 -11.188
   37XTA    HL5 2896  -7.212  27.802 -10.747
   37XTA    HL6 2897  -7.318  27.856 -10.881
   37XTA    HL7 2898  -7.095  27.971 -10.856
   37XTA    HL8 2899  -7.142  28.049 -10.701
   37XTA    HL9 2900  -7.309  28.185 -10.861
   37XTA   HL10 2901  -7.259  28.077 -10.994
   37XTA   HL11 2902  -7.089  28.267 -10.845
   37XTA   HL12 2903  -7.023  28.164 -10.971
   37XTA   HL13 2904  -7.213  28.250 -11.130
   37XTA   HL14 2905  -7.079  28.349 -11.106
   37XTA   HL15 2906  -7.269  28.496 -11.096
   37XTA   HL16 2907  -7.344  28.396 -10.994
   37XTA   HL17 2908  -7.280  28.693 -10.943
   37XTA   HL18 2909  -7.403  28.577 -10.867
   37XTA   HL19 2910  -7.230  28.587 -10.520
   37XTA   HL20 2911  -7.167  28.488 -10.655
   37XTA   HL21 2912  -7.457  28.481 -10.569
   37XTA   HL22 2913  -7.326  28.356 -10.571
   37XTA   HL23 2914  -7.397  28.389 -10.715
   37XTA   HL24 2915  -8.032  28.776 -10.286
   37XTA   HL25 2916  -8.027  28.609 -10.266
   37XTA    CO6 2917  -7.377  28.763 -10.692
   37XTA    CO7 2918  -7.138  28.744 -10.738
   37XTA    OA5 2919  -7.371  28.820 -10.560
   37XTA   HL26 2920  -7.470  28.706 -10.691
   37XTA   HL27 2921  -7.382  28.851 -10.768
   37XTA   HL28 2922  -7.079  28.690 -10.808
   37XTA   HL29 2923  -7.160  28.851 -10.770
   38XTA     NT 2924  -5.305  28.280  -6.748
   38XTA    CN1 2925  -5.335  28.197  -6.647
   38XTA     C1 2926  -5.230  28.124  -6.597
   38XTA     C2 2927  -5.251  28.013  -6.514
   38XTA     C3 2928  -5.385  27.978  -6.480
   38XTA     C4 2929  -5.494  28.048  -6.532
   38XTA     C5 2930  -5.465  28.157  -6.621
   38XTA    CN2 2931  -5.312  28.246  -6.877
   38XTA     C6 2932  -5.231  28.142  -6.924
   38XTA     C7 2933  -5.235  28.125  -7.063
   38XTA     C8 2934  -5.334  28.191  -7.143
   38XTA     C9 2935  -5.426  28.284  -7.088
   38XTA    C10 2936  -5.402  28.320  -6.956
   38XTA    CN3 2937  -5.270  28.406  -6.716
   38XTA    C11 2938  -5.147  28.459  -6.765
   38XTA    C12 2939  -5.107  28.586  -6.728
   38XTA    C13 2940  -5.174  28.657  -6.630
   38XTA    C14 2941  -5.295  28.601  -6.585
   38XTA    C15 2942  -5.346  28.475  -6.620
   38XTA     H1 2943  -5.131  28.130  -6.624
   38XTA     H2 2944  -5.166  27.949  -6.474
   38XTA     H3 2945  -5.597  28.030  -6.492
   38XTA     H4 2946  -5.550  28.212  -6.671
   38XTA     H5 2947  -5.163  28.079  -6.868
   38XTA     H6 2948  -5.176  28.046  -7.109
   38XTA     H7 2949  -5.496  28.338  -7.143
   38XTA     H8 2950  -5.451  28.408  -6.917
   38XTA     H9 2951  -5.098  28.406  -6.835
   38XTA    H10 2952  -5.021  28.642  -6.766
   38XTA    H11 2953  -5.366  28.657  -6.524
   38XTA    H12 2954  -5.445  28.436  -6.582
   38XTA    OA1 2955  -5.416  27.885  -6.388
   38XTA    CO1 2956  -5.344  27.763  -6.406
   38XTA    OA2 2957  -5.333  28.151  -7.279
   38XTA    CO2 2958  -5.402  28.241  -7.371
   38XTA    CL1 2959  -5.546  28.201  -7.379
   38XTA    CL2 2960  -5.620  28.279  -7.485
   38XTA    CL3 2961  -5.660  28.412  -7.433
   38XTA    CL4 2962  -5.707  28.514  -7.540
   38XTA    CO3 2963  -5.720  28.649  -7.468
   38XTA    OA3 2964  -5.771  28.739  -7.562
   38XTA    CO4 2965  -5.765  28.875  -7.516
   38XTA    CT1 2966  -5.844  28.968  -7.603
   38XTA    CL5 2967  -5.794  29.116  -7.577
   38XTA    CL6 2968  -5.799  29.171  -7.436
   38XTA    OA4 2969  -5.119  28.780  -6.603
   38XTA    CO5 2970  -5.205  28.875  -6.549
   38XTA    HL1 2971  -5.150  28.972  -6.550
   38XTA    HL2 2972  -5.339  27.736  -6.505
   38XTA    HL3 2973  -5.239  27.773  -6.370
   38XTA    HL4 2974  -5.393  27.694  -6.344
   38XTA    HL5 2975  -5.387  28.342  -7.343
   38XTA    HL6 2976  -5.358  28.244  -7.476
   38XTA    HL7 2977  -5.603  28.212  -7.288
   38XTA    HL8 2978  -5.529  28.105  -7.412
   38XTA    HL9 2979  -5.709  28.219  -7.511
   38XTA   HL10 2980  -5.557  28.293  -7.576
   38XTA   HL11 2981  -5.742  28.410  -7.364
   38XTA   HL12 2982  -5.574  28.448  -7.381
   38XTA   HL13 2983  -5.793  28.478  -7.597
   38XTA   HL14 2984  -5.629  28.538  -7.620
   38XTA   HL15 2985  -5.775  28.650  -7.369
   38XTA   HL16 2986  -5.620  28.687  -7.446
   38XTA   HL17 2987  -5.794  28.866  -7.415
   38XTA   HL18 2988  -5.658  28.903  -7.518
   38XTA   HL19 2989  -5.843  29.183  -7.650
   38XTA   HL20 2990  -5.694  29.121  -7.623
   38XTA   HL21 2991  -5.745  29.263  -7.426
   38XTA   HL22 2992  -5.768  29.099  -7.355
   38XTA   HL23 2993  -5.910  29.194  -7.416
   38XTA   HL24 2994  -5.239  28.847  -6.448
   38XTA   HL25 2995  -5.299  28.883  -6.609
   38XTA    CO6 2996  -5.997  28.953  -7.594
   38XTA    CO7 2997  -5.824  28.942  -7.751
   38XTA    OA5 2998  -5.872  29.048  -7.829
   38XTA   HL26 2999  -6.027  29.022  -7.515
   38XTA   HL27 3000  -6.041  28.981  -7.687
   38XTA   HL28 3001  -5.876  28.855  -7.783
   38XTA   HL29 3002  -5.724  28.936  -7.785
   39XTA     NT 3003  -8.629  29.801  -6.476
   39XTA    CN1 3004  -8.679  29.880  -6.575
   39XTA     C1 3005  -8.790  29.958  -6.557
   39XTA     C2 3006  -8.836  30.027  -6.667
   39XTA     C3 3007  -8.769  30.031  -6.787
   39XTA     C4 3008  -8.653  29.958  -6.806
   39XTA     C5 3009  -8.610  29.884  -6.696
   39XTA    CN2 3010  -8.634  29.664  -6.493
   39XTA     C6 3011  -8.517  29.589  -6.511
   39XTA     C7 3012  -8.518  29.450  -6.495
   39XTA     C8 3013  -8.637  29.381  -6.471
   39XTA     C9 3014  -8.758  29.451  -6.474
   39XTA    C10 3015  -8.758  29.592  -6.477
   39XTA    CN3 3016  -8.562  29.854  -6.371
   39XTA    C11 3017  -8.445  29.928  -6.400
   39XTA    C12 3018  -8.373  29.986  -6.293
   39XTA    C13 3019  -8.412  29.977  -6.155
   39XTA    C14 3020  -8.530  29.902  -6.134
   39XTA    C15 3021  -8.600  29.837  -6.240
   39XTA     H1 3022  -8.847  29.944  -6.469
   39XTA     H2 3023  -8.930  30.086  -6.657
   39XTA     H3 3024  -8.606  29.965  -6.901
   39XTA     H4 3025  -8.518  29.828  -6.695
   39XTA     H5 3026  -8.422  29.632  -6.517
   39XTA     H6 3027  -8.430  29.391  -6.496
   39XTA     H7 3028  -8.847  29.394  -6.459
   39XTA     H8 3029  -8.852  29.648  -6.460
   39XTA     H9 3030  -8.402  29.947  -6.499
   39XTA    H10 3031  -8.274  30.027  -6.321
   39XTA    H11 3032  -8.570  29.901  -6.035
   39XTA    H12 3033  -8.682  29.774  -6.221
   39XTA    OA1 3034  -8.816  30.097  -6.902
   39XTA    CO1 3035  -8.937  30.171  -6.890
   39XTA    OA2 3036  -8.628  29.246  -6.454
   39XTA    CO2 3037  -8.735  29.179  -6.383
   39XTA    CL1 3038  -8.714  29.225  -6.240
   39XTA    CL2 3039  -8.839  29.276  -6.167
   39XTA    CL3 3040  -8.818  29.329  -6.027
   39XTA    CL4 3041  -8.759  29.469  -6.040
   39XTA    CO3 3042  -8.708  29.532  -5.908
   39XTA    OA3 3043  -8.608  29.438  -5.855
   39XTA    CO4 3044  -8.473  29.490  -5.876
   39XTA    CT1 3045  -8.382  29.364  -5.860
   39XTA    CL5 3046  -8.410  29.285  -5.732
   39XTA    CL6 3047  -8.427  29.371  -5.602
   39XTA    OA4 3048  -8.339  30.026  -6.051
   39XTA    CO5 3049  -8.199  30.037  -6.078
   39XTA    HL1 3050  -8.144  30.042  -5.983
   39XTA    HL2 3051  -8.979  30.190  -6.995
   39XTA    HL3 3052  -9.011  30.101  -6.851
   39XTA    HL4 3053  -8.926  30.259  -6.832
   39XTA    HL5 3054  -8.827  29.209  -6.421
   39XTA    HL6 3055  -8.722  29.071  -6.398
   39XTA    HL7 3056  -8.635  29.301  -6.240
   39XTA    HL8 3057  -8.681  29.145  -6.181
   39XTA    HL9 3058  -8.919  29.199  -6.158
   39XTA   HL10 3059  -8.885  29.354  -6.227
   39XTA   HL11 3060  -8.920  29.344  -5.985
   39XTA   HL12 3061  -8.764  29.256  -5.972
   39XTA   HL13 3062  -8.834  29.532  -6.091
   39XTA   HL14 3063  -8.671  29.468  -6.111
   39XTA   HL15 3064  -8.673  29.637  -5.932
   39XTA   HL16 3065  -8.783  29.544  -5.829
   39XTA   HL17 3066  -8.479  29.525  -5.979
   39XTA   HL18 3067  -8.457  29.570  -5.803
   39XTA   HL19 3068  -8.341  29.210  -5.720
   39XTA   HL20 3069  -8.502  29.222  -5.744
   39XTA   HL21 3070  -8.320  29.424  -5.594
   39XTA   HL22 3071  -8.434  29.310  -5.507
   39XTA   HL23 3072  -8.505  29.446  -5.611
   39XTA   HL24 3073  -8.171  30.123  -6.141
   39XTA   HL25 3074  -8.167  29.943  -6.117
   39XTA    CO6 3075  -8.236  29.412  -5.852
   39XTA    CO7 3076  -8.401  29.278  -5.986
   39XTA    OA5 3077  -8.327  29.196  -5.995
   39XTA   HL26 3078  -8.227  29.480  -5.760
   39XTA   HL27 3079  -8.150  29.295  -5.848
   39XTA   HL28 3080  -8.400  29.345  -6.070
   39XTA   HL29 3081  -8.505  29.236  -5.998
   40XTA     NT 3082  -6.678  26.692  -6.493
   40XTA    CN1 3083  -6.756  26.595  -6.545
   40XTA     C1 3084  -6.704  26.500  -6.643
   40XTA     C2 3085  -6.784  26.387  -6.681
   40XTA     C3 3086  -6.901  26.355  -6.613
   40XTA     C4 3087  -6.954  26.450  -6.522
   40XTA     C5 3088  -6.885  26.570  -6.495
   40XTA    CN2 3089  -6.625  26.680  -6.364
   40XTA     C6 3090  -6.483  26.657  -6.352
   40XTA     C7 3091  -6.423  26.660  -6.227
   40XTA     C8 3092  -6.500  26.680  -6.108
   40XTA     C9 3093  -6.641  26.710  -6.122
   40XTA    C10 3094  -6.696  26.711  -6.250
   40XTA    CN3 3095  -6.683  26.819  -6.546
   40XTA    C11 3096  -6.802  26.892  -6.530
   40XTA    C12 3097  -6.820  27.016  -6.593
   40XTA    C13 3098  -6.724  27.062  -6.687
   40XTA    C14 3099  -6.605  26.989  -6.697
   40XTA    C15 3100  -6.584  26.868  -6.631
   40XTA     H1 3101  -6.602  26.507  -6.680
   40XTA     H2 3102  -6.760  26.312  -6.759
   40XTA     H3 3103  -7.044  26.430  -6.474
   40XTA     H4 3104  -6.933  26.647  -6.429
   40XTA     H5 3105  -6.434  26.650  -6.449
   40XTA     H6 3106  -6.317  26.636  -6.227
   40XTA     H7 3107  -6.699  26.733  -6.032
   40XTA     H8 3108  -6.804  26.729  -6.261
   40XTA     H9 3109  -6.881  26.870  -6.460
   40XTA    H10 3110  -6.907  27.076  -6.584
   40XTA    H11 3111  -6.521  27.025  -6.760
   40XTA    H12 3112  -6.496  26.810  -6.659
   40XTA    OA1 3113  -6.971  26.245  -6.661
   40XTA    CO1 3114  -7.084  26.210  -6.593
   40XTA    OA2 3115  -6.444  26.692  -5.983
   40XTA    CO2 3116  -6.326  26.611  -5.953
   40XTA    CL1 3117  -6.346  26.458  -5.931
   40XTA    CL2 3118  -6.479  26.421  -5.852
   40XTA    CL3 3119  -6.495  26.500  -5.722
   40XTA    CL4 3120  -6.627  26.457  -5.664
   40XTA    CO3 3121  -6.677  26.561  -5.564
   40XTA    OA3 3122  -6.703  26.686  -5.619
   40XTA    CO4 3123  -6.723  26.796  -5.528
   40XTA    CT1 3124  -6.738  26.936  -5.595
   40XTA    CL5 3125  -6.864  26.941  -5.679
   40XTA    CL6 3126  -6.862  26.866  -5.810
   40XTA    OA4 3127  -6.755  27.180  -6.746
   40XTA    CO5 3128  -6.716  27.189  -6.882
   40XTA    HL1 3129  -6.612  27.212  -6.886
   40XTA    HL2 3130  -7.151  26.300  -6.597
   40XTA    HL3 3131  -7.125  26.132  -6.655
   40XTA    HL4 3132  -7.059  26.176  -6.490
   40XTA    HL5 3133  -6.246  26.634  -6.026
   40XTA    HL6 3134  -6.297  26.644  -5.857
   40XTA    HL7 3135  -6.253  26.420  -5.882
   40XTA    HL8 3136  -6.344  26.409  -6.033
   40XTA    HL9 3137  -6.495  26.311  -5.849
   40XTA   HL10 3138  -6.564  26.456  -5.912
   40XTA   HL11 3139  -6.406  26.487  -5.652
   40XTA   HL12 3140  -6.503  26.612  -5.745
   40XTA   HL13 3141  -6.624  26.361  -5.618
   40XTA   HL14 3142  -6.703  26.454  -5.745
   40XTA   HL15 3143  -6.773  26.524  -5.533
   40XTA   HL16 3144  -6.616  26.547  -5.477
   40XTA   HL17 3145  -6.809  26.778  -5.475
   40XTA   HL18 3146  -6.639  26.793  -5.456
   40XTA   HL19 3147  -6.875  27.044  -5.715
   40XTA   HL20 3148  -6.953  26.919  -5.622
   40XTA   HL21 3149  -6.814  26.925  -5.892
   40XTA   HL22 3150  -6.960  26.862  -5.854
   40XTA   HL23 3151  -6.805  26.772  -5.805
   40XTA   HL24 3152  -6.779  27.259  -6.936
   40XTA   HL25 3153  -6.738  27.092  -6.936
   40XTA    CO6 3154  -6.609  26.974  -5.677
   40XTA    CO7 3155  -6.751  27.050  -5.485
   40XTA    OA5 3156  -6.609  27.078  -5.715
   40XTA   HL26 3157  -6.602  26.898  -5.759
   40XTA   HL27 3158  -6.524  26.953  -5.614
   40XTA   HL28 3159  -6.730  27.182  -5.547
   40XTA   HL29 3160  -6.662  27.045  -5.428
   41XTA     NT 3161  -3.394  32.298  -7.807
   41XTA    CN1 3162  -3.270  32.353  -7.808
   41XTA     C1 3163  -3.219  32.395  -7.925
   41XTA     C2 3164  -3.094  32.455  -7.931
   41XTA     C3 3165  -3.013  32.464  -7.817
   41XTA     C4 3166  -3.074  32.424  -7.696
   41XTA     C5 3167  -3.204  32.379  -7.693
   41XTA    CN2 3168  -3.422  32.178  -7.856
   41XTA     C6 3169  -3.463  32.172  -7.992
   41XTA     C7 3170  -3.483  32.040  -8.041
   41XTA     C8 3171  -3.455  31.925  -7.968
   41XTA     C9 3172  -3.399  31.941  -7.841
   41XTA    C10 3173  -3.385  32.064  -7.779
   41XTA    CN3 3174  -3.492  32.366  -7.738
   41XTA    C11 3175  -3.578  32.448  -7.805
   41XTA    C12 3176  -3.673  32.523  -7.735
   41XTA    C13 3177  -3.684  32.513  -7.596
   41XTA    C14 3178  -3.604  32.417  -7.529
   41XTA    C15 3179  -3.513  32.335  -7.603
   41XTA     H1 3180  -3.279  32.396  -8.007
   41XTA     H2 3181  -3.038  32.494  -8.019
   41XTA     H3 3182  -3.015  32.421  -7.608
   41XTA     H4 3183  -3.233  32.355  -7.595
   41XTA     H5 3184  -3.493  32.266  -8.043
   41XTA     H6 3185  -3.519  32.026  -8.141
   41XTA     H7 3186  -3.355  31.851  -7.802
   41XTA     H8 3187  -3.346  32.069  -7.681
   41XTA     H9 3188  -3.568  32.459  -7.912
   41XTA    H10 3189  -3.749  32.576  -7.784
   41XTA    H11 3190  -3.625  32.402  -7.420
   41XTA    H12 3191  -3.456  32.255  -7.552
   41XTA    OA1 3192  -2.888  32.512  -7.814
   41XTA    CO1 3193  -2.806  32.493  -7.929
   41XTA    OA2 3194  -3.466  31.800  -8.030
   41XTA    CO2 3195  -3.442  31.690  -7.949
   41XTA    CL1 3196  -3.504  31.564  -8.004
   41XTA    CL2 3197  -3.501  31.452  -7.895
   41XTA    CL3 3198  -3.357  31.399  -7.857
   41XTA    CL4 3199  -3.335  31.370  -7.708
   41XTA    CO3 3200  -3.222  31.271  -7.692
   41XTA    OA3 3201  -3.261  31.142  -7.739
   41XTA    CO4 3202  -3.139  31.065  -7.742
   41XTA    CT1 3203  -3.176  30.916  -7.752
   41XTA    CL5 3204  -3.278  30.907  -7.871
   41XTA    CL6 3205  -3.331  30.767  -7.920
   41XTA    OA4 3206  -3.791  32.574  -7.527
   41XTA    CO5 3207  -3.886  32.483  -7.480
   41XTA    HL1 3208  -3.976  32.536  -7.456
   41XTA    HL2 3209  -2.807  32.390  -7.963
   41XTA    HL3 3210  -2.837  32.545  -8.027
   41XTA    HL4 3211  -2.703  32.521  -7.912
   41XTA    HL5 3212  -3.328  31.684  -7.941
   41XTA    HL6 3213  -3.491  31.703  -7.855
   41XTA    HL7 3214  -3.446  31.541  -8.089
   41XTA    HL8 3215  -3.607  31.579  -8.038
   41XTA    HL9 3216  -3.575  31.374  -7.916
   41XTA   HL10 3217  -3.548  31.482  -7.802
   41XTA   HL11 3218  -3.325  31.320  -7.931
   41XTA   HL12 3219  -3.292  31.485  -7.879
   41XTA   HL13 3220  -3.428  31.324  -7.668
   41XTA   HL14 3221  -3.313  31.460  -7.654
   41XTA   HL15 3222  -3.142  31.311  -7.750
   41XTA   HL16 3223  -3.199  31.259  -7.587
   41XTA   HL17 3224  -3.083  31.103  -7.835
   41XTA   HL18 3225  -3.087  31.080  -7.649
   41XTA   HL19 3226  -3.231  30.942  -7.959
   41XTA   HL20 3227  -3.367  30.970  -7.854
   41XTA   HL21 3228  -3.424  30.781  -7.982
   41XTA   HL22 3229  -3.364  30.712  -7.838
   41XTA   HL23 3230  -3.261  30.694  -7.960
   41XTA   HL24 3231  -3.845  32.460  -7.380
   41XTA   HL25 3232  -3.893  32.398  -7.548
   41XTA    CO6 3233  -3.232  30.868  -7.616
   41XTA    CO7 3234  -3.050  30.831  -7.787
   41XTA    OA5 3235  -3.079  30.722  -7.807
   41XTA   HL26 3236  -3.326  30.931  -7.607
   41XTA   HL27 3237  -3.268  30.730  -7.622
   41XTA   HL28 3238  -2.979  30.843  -7.716
   41XTA   HL29 3239  -3.001  30.865  -7.878
   42XTA     NT 3240  -7.028  25.099  -9.794
   42XTA    CN1 3241  -6.921  25.063  -9.864
   42XTA     C1 3242  -6.925  25.061 -10.003
   42XTA     C2 3243  -6.807  25.035 -10.075
   42XTA     C3 3244  -6.686  25.016 -10.009
   42XTA     C4 3245  -6.688  25.011  -9.867
   42XTA     C5 3246  -6.805  25.032  -9.795
   42XTA    CN2 3247  -7.006  25.199  -9.705
   42XTA     C6 3248  -7.013  25.176  -9.569
   42XTA     C7 3249  -6.979  25.275  -9.479
   42XTA     C8 3250  -6.931  25.400  -9.519
   42XTA     C9 3251  -6.932  25.430  -9.662
   42XTA    C10 3252  -6.972  25.325  -9.751
   42XTA    CN3 3253  -7.144  25.031  -9.792
   42XTA    C11 3254  -7.270  25.095  -9.816
   42XTA    C12 3255  -7.388  25.021  -9.796
   42XTA    C13 3256  -7.380  24.890  -9.745
   42XTA    C14 3257  -7.254  24.827  -9.724
   42XTA    C15 3258  -7.132  24.893  -9.745
   42XTA     H1 3259  -7.009  25.088 -10.054
   42XTA     H2 3260  -6.804  25.041 -10.182
   42XTA     H3 3261  -6.602  24.979  -9.813
   42XTA     H4 3262  -6.797  25.038  -9.686
   42XTA     H5 3263  -7.029  25.069  -9.539
   42XTA     H6 3264  -6.985  25.256  -9.373
   42XTA     H7 3265  -6.896  25.527  -9.699
   42XTA     H8 3266  -6.955  25.331  -9.858
   42XTA     H9 3267  -7.277  25.199  -9.843
   42XTA    H10 3268  -7.479  25.070  -9.822
   42XTA    H11 3269  -7.254  24.724  -9.694
   42XTA    H12 3270  -7.037  24.837  -9.737
   42XTA    OA1 3271  -6.568  25.008 -10.086
   42XTA    CO1 3272  -6.442  25.027 -10.032
   42XTA    OA2 3273  -6.868  25.486  -9.437
   42XTA    CO2 3274  -6.771  25.419  -9.350
   42XTA    CL1 3275  -6.700  25.513  -9.249
   42XTA    CL2 3276  -6.579  25.440  -9.183
   42XTA    CL3 3277  -6.623  25.374  -9.047
   42XTA    CL4 3278  -6.622  25.481  -8.934
   42XTA    CO3 3279  -6.711  25.457  -8.804
   42XTA    OA3 3280  -6.843  25.445  -8.841
   42XTA    CO4 3281  -6.932  25.467  -8.734
   42XTA    CT1 3282  -7.063  25.402  -8.780
   42XTA    CL5 3283  -7.161  25.403  -8.656
   42XTA    CL6 3284  -7.311  25.381  -8.682
   42XTA    OA4 3285  -7.506  24.827  -9.735
   42XTA    CO5 3286  -7.502  24.695  -9.674
   42XTA    HL1 3287  -7.459  24.626  -9.749
   42XTA    HL2 3288  -6.441  25.119  -9.972
   42XTA    HL3 3289  -6.411  24.949  -9.961
   42XTA    HL4 3290  -6.364  25.048 -10.109
   42XTA    HL5 3291  -6.831  25.345  -9.288
   42XTA    HL6 3292  -6.693  25.377  -9.412
   42XTA    HL7 3293  -6.761  25.563  -9.179
   42XTA    HL8 3294  -6.666  25.598  -9.310
   42XTA    HL9 3295  -6.495  25.509  -9.166
   42XTA   HL10 3296  -6.546  25.367  -9.261
   42XTA   HL11 3297  -6.722  25.325  -9.071
   42XTA   HL12 3298  -6.560  25.293  -9.024
   42XTA   HL13 3299  -6.684  25.563  -8.976
   42XTA   HL14 3300  -6.525  25.519  -8.911
   42XTA   HL15 3301  -6.673  25.373  -8.754
   42XTA   HL16 3302  -6.692  25.540  -8.729
   42XTA   HL17 3303  -6.899  25.416  -8.640
   42XTA   HL18 3304  -6.939  25.567  -8.708
   42XTA   HL19 3305  -7.141  25.491  -8.598
   42XTA   HL20 3306  -7.142  25.317  -8.600
   42XTA   HL21 3307  -7.336  25.306  -8.753
   42XTA   HL22 3308  -7.363  25.473  -8.707
   42XTA   HL23 3309  -7.356  25.332  -8.597
   42XTA   HL24 3310  -7.600  24.652  -9.647
   42XTA   HL25 3311  -7.459  24.688  -9.582
   42XTA    CO6 3312  -7.048  25.251  -8.827
   42XTA    CO7 3313  -7.118  25.485  -8.898
   42XTA    OA5 3314  -7.202  25.430  -8.954
   42XTA   HL26 3315  -7.147  25.212  -8.848
   42XTA   HL27 3316  -6.949  25.245  -8.925
   42XTA   HL28 3317  -7.037  25.494  -8.967
   42XTA   HL29 3318  -7.142  25.588  -8.864
   43XTA     NT 3319  -8.948  29.949  -4.397
   43XTA    CN1 3320  -9.031  29.849  -4.419
   43XTA     C1 3321  -9.113  29.841  -4.535
   43XTA     C2 3322  -9.195  29.733  -4.553
   43XTA     C3 3323  -9.186  29.623  -4.465
   43XTA     C4 3324  -9.107  29.633  -4.355
   43XTA     C5 3325  -9.026  29.742  -4.335
   43XTA    CN2 3326  -8.815  29.936  -4.429
   43XTA     C6 3327  -8.774  29.940  -4.564
   43XTA     C7 3328  -8.636  29.928  -4.595
   43XTA     C8 3329  -8.540  29.920  -4.495
   43XTA     C9 3330  -8.581  29.918  -4.362
   43XTA    C10 3331  -8.721  29.932  -4.327
   43XTA    CN3 3332  -8.996  30.079  -4.383
   43XTA    C11 3333  -9.112  30.104  -4.304
   43XTA    C12 3334  -9.147  30.236  -4.281
   43XTA    C13 3335  -9.082  30.351  -4.334
   43XTA    C14 3336  -8.976  30.325  -4.413
   43XTA    C15 3337  -8.933  30.192  -4.432
   43XTA     H1 3338  -9.130  29.932  -4.596
   43XTA     H2 3339  -9.258  29.717  -4.642
   43XTA     H3 3340  -9.106  29.554  -4.275
   43XTA     H4 3341  -8.969  29.738  -4.244
   43XTA     H5 3342  -8.854  29.935  -4.635
   43XTA     H6 3343  -8.617  29.939  -4.705
   43XTA     H7 3344  -8.500  29.904  -4.286
   43XTA     H8 3345  -8.751  29.956  -4.229
   43XTA     H9 3346  -9.162  30.021  -4.260
   43XTA    H10 3347  -9.229  30.252  -4.219
   43XTA    H11 3348  -8.928  30.416  -4.457
   43XTA    H12 3349  -8.852  30.170  -4.501
   43XTA    OA1 3350  -9.256  29.505  -4.472
   43XTA    CO1 3351  -9.333  29.477  -4.590
   43XTA    OA2 3352  -8.406  29.908  -4.524
   43XTA    CO2 3353  -8.371  29.832  -4.636
   43XTA    CL1 3354  -8.362  29.908  -4.767
   43XTA    CL2 3355  -8.363  29.815  -4.890
   43XTA    CL3 3356  -8.325  29.886  -5.018
   43XTA    CL4 3357  -8.346  29.786  -5.138
   43XTA    CO3 3358  -8.299  29.830  -5.270
   43XTA    OA3 3359  -8.307  29.972  -5.283
   43XTA    CO4 3360  -8.202  30.044  -5.345
   43XTA    CT1 3361  -8.244  30.189  -5.391
   43XTA    CL5 3362  -8.362  30.172  -5.491
   43XTA    CL6 3363  -8.441  30.303  -5.525
   43XTA    OA4 3364  -9.133  30.476  -4.308
   43XTA    CO5 3365  -9.025  30.577  -4.300
   43XTA    HL1 3366  -8.999  30.611  -4.402
   43XTA    HL2 3367  -9.407  29.554  -4.602
   43XTA    HL3 3368  -9.264  29.481  -4.675
   43XTA    HL4 3369  -9.360  29.381  -4.588
   43XTA    HL5 3370  -8.273  29.798  -4.612
   43XTA    HL6 3371  -8.447  29.753  -4.637
   43XTA    HL7 3372  -8.270  29.968  -4.766
   43XTA    HL8 3373  -8.446  29.989  -4.771
   43XTA    HL9 3374  -8.466  29.776  -4.909
   43XTA   HL10 3375  -8.304  29.723  -4.862
   43XTA   HL11 3376  -8.393  29.970  -5.039
   43XTA   HL12 3377  -8.221  29.920  -5.015
   43XTA   HL13 3378  -8.449  29.749  -5.137
   43XTA   HL14 3379  -8.295  29.702  -5.111
   43XTA   HL15 3380  -8.192  29.809  -5.283
   43XTA   HL16 3381  -8.352  29.780  -5.356
   43XTA   HL17 3382  -8.115  30.057  -5.277
   43XTA   HL18 3383  -8.167  29.996  -5.437
   43XTA   HL19 3384  -8.422  30.101  -5.446
   43XTA   HL20 3385  -8.328  30.134  -5.587
   43XTA   HL21 3386  -8.510  30.326  -5.444
   43XTA   HL22 3387  -8.490  30.287  -5.618
   43XTA   HL23 3388  -8.368  30.372  -5.550
   43XTA   HL24 3389  -8.934  30.548  -4.247
   43XTA   HL25 3390  -9.056  30.657  -4.225
   43XTA    CO6 3391  -8.131  30.279  -5.444
   43XTA    CO7 3392  -8.296  30.270  -5.266
   43XTA    OA5 3393  -8.080  30.232  -5.532
   43XTA   HL26 3394  -8.062  30.305  -5.362
   43XTA   HL27 3395  -8.176  30.374  -5.482
   43XTA   HL28 3396  -8.400  30.197  -5.213
   43XTA   HL29 3397  -8.333  30.365  -5.296
   44XTA     NT 3398  -5.131  24.400  -4.540
   44XTA    CN1 3399  -5.097  24.450  -4.418
   44XTA     C1 3400  -5.106  24.366  -4.302
   44XTA     C2 3401  -5.067  24.404  -4.178
   44XTA     C3 3402  -5.014  24.532  -4.162
   44XTA     C4 3403  -5.001  24.618  -4.269
   44XTA     C5 3404  -5.051  24.578  -4.394
   44XTA    CN2 3405  -5.087  24.276  -4.567
   44XTA     C6 3406  -4.957  24.246  -4.616
   44XTA     C7 3407  -4.917  24.117  -4.638
   44XTA     C8 3408  -5.004  24.009  -4.609
   44XTA     C9 3409  -5.131  24.039  -4.556
   44XTA    C10 3410  -5.172  24.170  -4.539
   44XTA    CN3 3411  -5.233  24.449  -4.622
   44XTA    C11 3412  -5.218  24.439  -4.763
   44XTA    C12 3413  -5.326  24.468  -4.839
   44XTA    C13 3414  -5.451  24.510  -4.779
   44XTA    C14 3415  -5.464  24.514  -4.645
   44XTA    C15 3416  -5.353  24.488  -4.565
   44XTA     H1 3417  -5.145  24.260  -4.320
   44XTA     H2 3418  -5.089  24.334  -4.101
   44XTA     H3 3419  -4.973  24.719  -4.259
   44XTA     H4 3420  -5.051  24.647  -4.471
   44XTA     H5 3421  -4.882  24.320  -4.630
   44XTA     H6 3422  -4.817  24.078  -4.672
   44XTA     H7 3423  -5.195  23.954  -4.532
   44XTA     H8 3424  -5.274  24.189  -4.501
   44XTA     H9 3425  -5.125  24.403  -4.810
   44XTA    H10 3426  -5.319  24.455  -4.945
   44XTA    H11 3427  -5.558  24.550  -4.607
   44XTA    H12 3428  -5.358  24.499  -4.456
   44XTA    OA1 3429  -4.968  24.582  -4.039
   44XTA    CO1 3430  -4.920  24.481  -3.948
   44XTA    OA2 3431  -4.953  23.884  -4.634
   44XTA    CO2 3432  -5.028  23.818  -4.742
   44XTA    CL1 3433  -4.984  23.676  -4.774
   44XTA    CL2 3434  -5.009  23.640  -4.927
   44XTA    CL3 3435  -4.908  23.705  -5.028
   44XTA    CL4 3436  -4.769  23.651  -5.008
   44XTA    CO3 3437  -4.654  23.713  -5.097
   44XTA    OA3 3438  -4.528  23.700  -5.034
   44XTA    CO4 3439  -4.427  23.751  -5.122
   44XTA    CT1 3440  -4.287  23.709  -5.058
   44XTA    CL5 3441  -4.286  23.783  -4.919
   44XTA    CL6 3442  -4.153  23.772  -4.844
   44XTA    OA4 3443  -5.562  24.522  -4.854
   44XTA    CO5 3444  -5.559  24.570  -4.993
   44XTA    HL1 3445  -5.618  24.653  -5.009
   44XTA    HL2 3446  -4.887  24.534  -3.852
   44XTA    HL3 3447  -5.004  24.420  -3.930
   44XTA    HL4 3448  -4.832  24.427  -3.988
   44XTA    HL5 3449  -5.135  23.832  -4.715
   44XTA    HL6 3450  -5.018  23.880  -4.832
   44XTA    HL7 3451  -5.033  23.602  -4.713
   44XTA    HL8 3452  -4.876  23.674  -4.746
   44XTA    HL9 3453  -5.114  23.655  -4.961
   44XTA   HL10 3454  -4.993  23.533  -4.934
   44XTA   HL11 3455  -4.931  23.695  -5.136
   44XTA   HL12 3456  -4.910  23.812  -5.007
   44XTA   HL13 3457  -4.777  23.547  -5.037
   44XTA   HL14 3458  -4.738  23.659  -4.899
   44XTA   HL15 3459  -4.655  23.662  -5.197
   44XTA   HL16 3460  -4.675  23.816  -5.128
   44XTA   HL17 3461  -4.443  23.723  -5.222
   44XTA   HL18 3462  -4.438  23.856  -5.120
   44XTA   HL19 3463  -4.356  23.734  -4.857
   44XTA   HL20 3464  -4.319  23.884  -4.915
   44XTA   HL21 3465  -4.128  23.682  -4.808
   44XTA   HL22 3466  -4.155  23.847  -4.758
   44XTA   HL23 3467  -4.064  23.809  -4.892
   44XTA   HL24 3468  -5.602  24.485  -5.050
   44XTA   HL25 3469  -5.459  24.598  -5.023
   44XTA    CO6 3470  -4.173  23.755  -5.156
   44XTA    CO7 3471  -4.264  23.561  -5.043
   44XTA    OA5 3472  -4.147  23.861  -5.167
   44XTA   HL26 3473  -4.187  23.714  -5.260
   44XTA   HL27 3474  -4.083  23.709  -5.122
   44XTA   HL28 3475  -4.133  23.516  -5.019
   44XTA   HL29 3476  -4.280  23.505  -5.129
   45XTA     NT 3477  -3.668  27.616  -7.603
   45XTA    CN1 3478  -3.785  27.564  -7.556
   45XTA     C1 3479  -3.907  27.553  -7.633
   45XTA     C2 3480  -4.025  27.489  -7.584
   45XTA     C3 3481  -4.028  27.447  -7.449
   45XTA     C4 3482  -3.910  27.460  -7.372
   45XTA     C5 3483  -3.791  27.509  -7.426
   45XTA    CN2 3484  -3.548  27.561  -7.585
   45XTA     C6 3485  -3.461  27.606  -7.480
   45XTA     C7 3486  -3.345  27.531  -7.456
   45XTA     C8 3487  -3.316  27.415  -7.536
   45XTA     C9 3488  -3.395  27.372  -7.642
   45XTA    C10 3489  -3.514  27.449  -7.665
   45XTA    CN3 3490  -3.684  27.740  -7.660
   45XTA    C11 3491  -3.760  27.844  -7.602
   45XTA    C12 3492  -3.771  27.967  -7.658
   45XTA    C13 3493  -3.701  27.995  -7.775
   45XTA    C14 3494  -3.625  27.897  -7.839
   45XTA    C15 3495  -3.616  27.769  -7.779
   45XTA     H1 3496  -3.909  27.598  -7.728
   45XTA     H2 3497  -4.112  27.473  -7.642
   45XTA     H3 3498  -3.902  27.424  -7.271
   45XTA     H4 3499  -3.706  27.507  -7.360
   45XTA     H5 3500  -3.490  27.681  -7.408
   45XTA     H6 3501  -3.283  27.560  -7.369
   45XTA     H7 3502  -3.376  27.283  -7.688
   45XTA     H8 3503  -3.587  27.409  -7.741
   45XTA     H9 3504  -3.804  27.824  -7.506
   45XTA    H10 3505  -3.834  28.039  -7.603
   45XTA    H11 3506  -3.591  27.923  -7.936
   45XTA    H12 3507  -3.565  27.689  -7.840
   45XTA    OA1 3508  -4.148  27.393  -7.401
   45XTA    CO1 3509  -4.165  27.369  -7.257
   45XTA    OA2 3510  -3.214  27.333  -7.504
   45XTA    CO2 3511  -3.094  27.392  -7.458
   45XTA    CL1 3512  -2.997  27.275  -7.432
   45XTA    CL2 3513  -2.870  27.316  -7.356
   45XTA    CL3 3514  -2.913  27.312  -7.209
   45XTA    CL4 3515  -2.808  27.375  -7.113
   45XTA    CO3 3516  -2.863  27.391  -6.971
   45XTA    OA3 3517  -2.768  27.476  -6.906
   45XTA    CO4 3518  -2.800  27.475  -6.766
   45XTA    CT1 3519  -2.680  27.501  -6.675
   45XTA    CL5 3520  -2.713  27.436  -6.533
   45XTA    CL6 3521  -2.608  27.445  -6.419
   45XTA    OA4 3522  -3.715  28.118  -7.839
   45XTA    CO5 3523  -3.804  28.223  -7.794
   45XTA    HL1 3524  -3.908  28.186  -7.804
   45XTA    HL2 3525  -4.242  27.297  -7.246
   45XTA    HL3 3526  -4.076  27.327  -7.220
   45XTA    HL4 3527  -4.200  27.453  -7.196
   45XTA    HL5 3528  -3.055  27.463  -7.536
   45XTA    HL6 3529  -3.101  27.452  -7.366
   45XTA    HL7 3530  -2.971  27.242  -7.528
   45XTA    HL8 3531  -3.044  27.195  -7.374
   45XTA    HL9 3532  -2.830  27.414  -7.390
   45XTA   HL10 3533  -2.781  27.251  -7.364
   45XTA   HL11 3534  -3.004  27.369  -7.204
   45XTA   HL12 3535  -2.933  27.213  -7.180
   45XTA   HL13 3536  -2.782  27.475  -7.152
   45XTA   HL14 3537  -2.720  27.318  -7.119
   45XTA   HL15 3538  -2.965  27.438  -6.976
   45XTA   HL16 3539  -2.886  27.290  -6.924
   45XTA   HL17 3540  -2.874  27.546  -6.739
   45XTA   HL18 3541  -2.833  27.371  -6.734
   45XTA   HL19 3542  -2.728  27.327  -6.543
   45XTA   HL20 3543  -2.803  27.473  -6.494
   45XTA   HL21 3544  -2.661  27.405  -6.333
   45XTA   HL22 3545  -2.586  27.550  -6.408
   45XTA   HL23 3546  -2.513  27.388  -6.439
   45XTA   HL24 3547  -3.806  28.304  -7.860
   45XTA   HL25 3548  -3.782  28.264  -7.695
   45XTA    CO6 3549  -2.654  27.654  -6.669
   45XTA    CO7 3550  -2.560  27.433  -6.737
   45XTA    OA5 3551  -2.648  27.710  -6.802
   45XTA   HL26 3552  -2.564  27.680  -6.614
   45XTA   HL27 3553  -2.733  27.710  -6.615
   45XTA   HL28 3554  -2.549  27.481  -6.834
   45XTA   HL29 3555  -2.469  27.452  -6.677
   46XTA     NT 3556  -7.959  27.623  -5.622
   46XTA    CN1 3557  -7.922  27.580  -5.495
   46XTA     C1 3558  -8.015  27.507  -5.421
   46XTA     C2 3559  -7.977  27.447  -5.304
   46XTA     C3 3560  -7.844  27.456  -5.255
   46XTA     C4 3561  -7.759  27.549  -5.318
   46XTA     C5 3562  -7.798  27.606  -5.439
   46XTA    CN2 3563  -7.957  27.761  -5.639
   46XTA     C6 3564  -8.067  27.832  -5.605
   46XTA     C7 3565  -8.080  27.969  -5.642
   46XTA     C8 3566  -7.983  28.039  -5.717
   46XTA     C9 3567  -7.863  27.965  -5.745
   46XTA    C10 3568  -7.855  27.827  -5.708
   46XTA    CN3 3569  -7.931  27.559  -5.738
   46XTA    C11 3570  -7.807  27.504  -5.765
   46XTA    C12 3571  -7.775  27.447  -5.891
   46XTA    C13 3572  -7.868  27.450  -5.997
   46XTA    C14 3573  -7.997  27.506  -5.978
   46XTA    C15 3574  -8.026  27.558  -5.850
   46XTA     H1 3575  -8.118  27.498  -5.469
   46XTA     H2 3576  -8.047  27.384  -5.249
   46XTA     H3 3577  -7.661  27.557  -5.273
   46XTA     H4 3578  -7.726  27.656  -5.495
   46XTA     H5 3579  -8.160  27.795  -5.561
   46XTA     H6 3580  -8.173  28.013  -5.609
   46XTA     H7 3581  -7.780  28.018  -5.795
   46XTA     H8 3582  -7.772  27.780  -5.754
   46XTA     H9 3583  -7.727  27.506  -5.689
   46XTA    H10 3584  -7.671  27.416  -5.911
   46XTA    H11 3585  -8.070  27.514  -6.054
   46XTA    H12 3586  -8.127  27.590  -5.831
   46XTA    OA1 3587  -7.797  27.397  -5.138
   46XTA    CO1 3588  -7.868  27.283  -5.103
   46XTA    OA2 3589  -8.009  28.169  -5.746
   46XTA    CO2 3590  -7.916  28.233  -5.820
   46XTA    CL1 3591  -7.960  28.380  -5.810
   46XTA    CL2 3592  -8.077  28.418  -5.895
   46XTA    CL3 3593  -8.124  28.565  -5.873
   46XTA    CL4 3594  -8.010  28.672  -5.879
   46XTA    CO3 3595  -8.049  28.815  -5.856
   46XTA    OA3 3596  -8.146  28.840  -5.962
   46XTA    CO4 3597  -8.176  28.972  -5.976
   46XTA    CT1 3598  -8.280  28.991  -6.096
   46XTA    CL5 3599  -8.408  28.900  -6.080
   46XTA    CL6 3600  -8.511  28.943  -5.968
   46XTA    OA4 3601  -7.821  27.431  -6.124
   46XTA    CO5 3602  -7.907  27.384  -6.227
   46XTA    HL1 3603  -7.964  27.294  -6.196
   46XTA    HL2 3604  -7.969  27.294  -5.078
   46XTA    HL3 3605  -7.851  27.205  -5.178
   46XTA    HL4 3606  -7.822  27.233  -5.022
   46XTA    HL5 3607  -7.817  28.217  -5.772
   46XTA    HL6 3608  -7.915  28.192  -5.914
   46XTA    HL7 3609  -7.882  28.439  -5.855
   46XTA    HL8 3610  -7.954  28.400  -5.702
   46XTA    HL9 3611  -8.161  28.347  -5.877
   46XTA   HL10 3612  -8.047  28.387  -5.998
   46XTA   HL11 3613  -8.195  28.586  -5.957
   46XTA   HL12 3614  -8.181  28.570  -5.780
   46XTA   HL13 3615  -7.946  28.667  -5.967
   46XTA   HL14 3616  -7.934  28.649  -5.799
   46XTA   HL15 3617  -8.088  28.834  -5.752
   46XTA   HL16 3618  -7.960  28.884  -5.871
   46XTA   HL17 3619  -8.221  29.000  -5.881
   46XTA   HL18 3620  -8.083  29.028  -5.982
   46XTA   HL19 3621  -8.375  28.801  -6.065
   46XTA   HL20 3622  -8.459  28.873  -6.174
   46XTA   HL21 3623  -8.599  28.976  -6.009
   46XTA   HL22 3624  -8.471  29.013  -5.898
   46XTA   HL23 3625  -8.530  28.857  -5.905
   46XTA   HL24 3626  -7.851  27.358  -6.309
   46XTA   HL25 3627  -7.988  27.459  -6.242
   46XTA    CO6 3628  -8.212  28.933  -6.221
   46XTA    CO7 3629  -8.321  29.137  -6.119
   46XTA    OA5 3630  -8.120  28.986  -6.244
   46XTA   HL26 3631  -8.274  28.943  -6.310
   46XTA   HL27 3632  -8.200  28.829  -6.202
   46XTA   HL28 3633  -8.444  29.161  -6.192
   46XTA   HL29 3634  -8.235  29.179  -6.170
   47XTA     NT 3635  -2.971  24.219  -7.787
   47XTA    CN1 3636  -3.013  24.159  -7.905
   47XTA     C1 3637  -3.017  24.019  -7.921
   47XTA     C2 3638  -3.065  23.958  -8.038
   47XTA     C3 3639  -3.106  24.042  -8.148
   47XTA     C4 3640  -3.108  24.186  -8.131
   47XTA     C5 3641  -3.043  24.241  -8.019
   47XTA    CN2 3642  -3.061  24.274  -7.700
   47XTA     C6 3643  -3.132  24.202  -7.601
   47XTA     C7 3644  -3.215  24.274  -7.511
   47XTA     C8 3645  -3.217  24.413  -7.513
   47XTA     C9 3646  -3.150  24.483  -7.614
   47XTA    C10 3647  -3.068  24.415  -7.706
   47XTA    CN3 3648  -2.841  24.222  -7.759
   47XTA    C11 3649  -2.755  24.280  -7.847
   47XTA    C12 3650  -2.617  24.290  -7.810
   47XTA    C13 3651  -2.567  24.227  -7.689
   47XTA    C14 3652  -2.656  24.153  -7.612
   47XTA    C15 3653  -2.786  24.141  -7.653
   47XTA     H1 3654  -2.986  23.964  -7.833
   47XTA     H2 3655  -3.064  23.849  -8.054
   47XTA     H3 3656  -3.145  24.245  -8.211
   47XTA     H4 3657  -3.026  24.346  -8.025
   47XTA     H5 3658  -3.125  24.093  -7.601
   47XTA     H6 3659  -3.256  24.223  -7.428
   47XTA     H7 3660  -3.143  24.593  -7.619
   47XTA     H8 3661  -3.012  24.468  -7.784
   47XTA     H9 3662  -2.788  24.325  -7.936
   47XTA    H10 3663  -2.544  24.343  -7.856
   47XTA    H11 3664  -2.632  24.100  -7.524
   47XTA    H12 3665  -2.857  24.092  -7.592
   47XTA    OA1 3666  -3.157  23.984  -8.265
   47XTA    CO1 3667  -3.073  24.000  -8.377
   47XTA    OA2 3668  -3.293  24.468  -7.410
   47XTA    CO2 3669  -3.282  24.608  -7.379
   47XTA    CL1 3670  -3.150  24.628  -7.310
   47XTA    CL2 3671  -3.066  24.751  -7.357
   47XTA    CL3 3672  -2.939  24.772  -7.272
   47XTA    CL4 3673  -2.843  24.877  -7.321
   47XTA    CO3 3674  -2.917  25.017  -7.316
   47XTA    OA3 3675  -2.830  25.131  -7.342
   47XTA    CO4 3676  -2.903  25.232  -7.424
   47XTA    CT1 3677  -2.818  25.358  -7.438
   47XTA    CL5 3678  -2.696  25.338  -7.534
   47XTA    CL6 3679  -2.571  25.272  -7.469
   47XTA    OA4 3680  -2.430  24.228  -7.661
   47XTA    CO5 3681  -2.386  24.142  -7.561
   47XTA    HL1 3682  -2.434  24.042  -7.557
   47XTA    HL2 3683  -2.962  23.968  -8.353
   47XTA    HL3 3684  -3.111  23.937  -8.459
   47XTA    HL4 3685  -3.063  24.110  -8.405
   47XTA    HL5 3686  -3.282  24.660  -7.474
   47XTA    HL6 3687  -3.363  24.643  -7.320
   47XTA    HL7 3688  -3.094  24.546  -7.329
   47XTA    HL8 3689  -3.156  24.625  -7.199
   47XTA    HL9 3690  -3.128  24.845  -7.353
   47XTA   HL10 3691  -3.044  24.746  -7.464
   47XTA   HL11 3692  -2.967  24.791  -7.169
   47XTA   HL12 3693  -2.898  24.672  -7.278
   47XTA   HL13 3694  -2.832  24.859  -7.429
   47XTA   HL14 3695  -2.741  24.874  -7.280
   47XTA   HL15 3696  -3.003  25.013  -7.385
   47XTA   HL16 3697  -2.956  25.039  -7.217
   47XTA   HL17 3698  -2.921  25.189  -7.522
   47XTA   HL18 3699  -3.001  25.262  -7.390
   47XTA   HL19 3700  -2.671  25.446  -7.551
   47XTA   HL20 3701  -2.711  25.283  -7.630
   47XTA   HL21 3702  -2.524  25.341  -7.407
   47XTA   HL22 3703  -2.491  25.240  -7.544
   47XTA   HL23 3704  -2.597  25.174  -7.417
   47XTA   HL24 3705  -2.408  24.192  -7.464
   47XTA   HL25 3706  -2.276  24.134  -7.571
   47XTA    CO6 3707  -2.766  25.399  -7.300
   47XTA    CO7 3708  -2.901  25.474  -7.483
   47XTA    OA5 3709  -2.846  25.391  -7.227
   47XTA   HL26 3710  -2.734  25.501  -7.305
   47XTA   HL27 3711  -2.688  25.335  -7.266
   47XTA   HL28 3712  -2.977  25.534  -7.376
   47XTA   HL29 3713  -2.844  25.560  -7.514
   48XTA     NT 3714  -3.161  27.575  -5.245
   48XTA    CN1 3715  -3.223  27.481  -5.171
   48XTA     C1 3716  -3.350  27.508  -5.110
   48XTA     C2 3717  -3.415  27.417  -5.030
   48XTA     C3 3718  -3.354  27.293  -4.997
   48XTA     C4 3719  -3.234  27.257  -5.062
   48XTA     C5 3720  -3.176  27.349  -5.152
   48XTA    CN2 3721  -3.058  27.643  -5.180
   48XTA     C6 3722  -2.952  27.573  -5.130
   48XTA     C7 3723  -2.848  27.635  -5.059
   48XTA     C8 3724  -2.847  27.778  -5.043
   48XTA     C9 3725  -2.961  27.852  -5.091
   48XTA    C10 3726  -3.060  27.783  -5.154
   48XTA    CN3 3727  -3.173  27.579  -5.379
   48XTA    C11 3728  -3.244  27.689  -5.434
   48XTA    C12 3729  -3.247  27.697  -5.573
   48XTA    C13 3730  -3.179  27.606  -5.654
   48XTA    C14 3731  -3.111  27.499  -5.596
   48XTA    C15 3732  -3.095  27.494  -5.462
   48XTA     H1 3733  -3.396  27.602  -5.132
   48XTA     H2 3734  -3.494  27.454  -4.975
   48XTA     H3 3735  -3.190  27.163  -5.050
   48XTA     H4 3736  -3.090  27.321  -5.202
   48XTA     H5 3737  -2.951  27.467  -5.136
   48XTA     H6 3738  -2.770  27.568  -5.026
   48XTA     H7 3739  -2.962  27.964  -5.077
   48XTA     H8 3740  -3.129  27.848  -5.195
   48XTA     H9 3741  -3.285  27.763  -5.367
   48XTA    H10 3742  -3.297  27.785  -5.614
   48XTA    H11 3743  -3.065  27.430  -5.662
   48XTA    H12 3744  -3.029  27.417  -5.410
   48XTA    OA1 3745  -3.419  27.221  -4.901
   48XTA    CO1 3746  -3.354  27.113  -4.844
   48XTA    OA2 3747  -2.742  27.837  -4.983
   48XTA    CO2 3748  -2.748  27.975  -4.946
   48XTA    CL1 3749  -2.613  28.013  -4.884
   48XTA    CL2 3750  -2.577  27.964  -4.744
   48XTA    CL3 3751  -2.437  27.994  -4.684
   48XTA    CL4 3752  -2.324  27.903  -4.745
   48XTA    CO3 3753  -2.187  27.918  -4.666
   48XTA    OA3 3754  -2.103  27.828  -4.738
   48XTA    CO4 3755  -2.045  27.727  -4.665
   48XTA    CT1 3756  -2.027  27.616  -4.772
   48XTA    CL5 3757  -1.933  27.672  -4.886
   48XTA    CL6 3758  -1.788  27.694  -4.848
   48XTA    OA4 3759  -3.183  27.620  -5.796
   48XTA    CO5 3760  -3.300  27.681  -5.843
   48XTA    HL1 3761  -3.314  27.788  -5.819
   48XTA    HL2 3762  -3.273  27.162  -4.785
   48XTA    HL3 3763  -3.418  27.050  -4.781
   48XTA    HL4 3764  -3.318  27.038  -4.916
   48XTA    HL5 3765  -2.767  28.026  -5.041
   48XTA    HL6 3766  -2.826  27.997  -4.874
   48XTA    HL7 3767  -2.618  28.123  -4.866
   48XTA    HL8 3768  -2.524  28.009  -4.955
   48XTA    HL9 3769  -2.596  27.858  -4.732
   48XTA   HL10 3770  -2.657  28.019  -4.679
   48XTA   HL11 3771  -2.410  28.096  -4.708
   48XTA   HL12 3772  -2.454  27.988  -4.573
   48XTA   HL13 3773  -2.319  27.916  -4.854
   48XTA   HL14 3774  -2.352  27.794  -4.735
   48XTA   HL15 3775  -2.145  28.017  -4.675
   48XTA   HL16 3776  -2.194  27.899  -4.561
   48XTA   HL17 3777  -1.951  27.755  -4.615
   48XTA   HL18 3778  -2.125  27.699  -4.598
   48XTA   HL19 3779  -1.982  27.753  -4.943
   48XTA   HL20 3780  -1.925  27.590  -4.967
   48XTA   HL21 3781  -1.750  27.617  -4.782
   48XTA   HL22 3782  -1.750  27.786  -4.802
   48XTA   HL23 3783  -1.723  27.686  -4.937
   48XTA   HL24 3784  -3.391  27.625  -5.817
   48XTA   HL25 3785  -3.302  27.667  -5.953
   48XTA    CO6 3786  -2.170  27.583  -4.840
   48XTA    CO7 3787  -1.991  27.484  -4.706
   48XTA    OA5 3788  -2.165  27.483  -4.937
   48XTA   HL26 3789  -2.214  27.670  -4.876
   48XTA   HL27 3790  -2.241  27.538  -4.771
   48XTA   HL28 3791  -1.889  27.489  -4.685
   48XTA   HL29 3792  -1.998  27.389  -4.770
   49XTA     NT 3793  -9.309  31.067  -8.225
   49XTA    CN1 3794  -9.414  31.048  -8.143
   49XTA     C1 3795  -9.387  30.988  -8.024
   49XTA     C2 3796  -9.493  30.957  -7.930
   49XTA     C3 3797  -9.625  30.980  -7.964
   49XTA     C4 3798  -9.653  31.040  -8.090
   49XTA     C5 3799  -9.546  31.074  -8.184
   49XTA    CN2 3800  -9.293  31.197  -8.272
   49XTA     C6 3801  -9.278  31.218  -8.413
   49XTA     C7 3802  -9.275  31.350  -8.467
   49XTA     C8 3803  -9.290  31.461  -8.393
   49XTA     C9 3804  -9.292  31.440  -8.253
   49XTA    C10 3805  -9.305  31.310  -8.193
   49XTA    CN3 3806  -9.240  30.962  -8.273
   49XTA    C11 3807  -9.303  30.848  -8.326
   49XTA    C12 3808  -9.229  30.744  -8.382
   49XTA    C13 3809  -9.093  30.745  -8.366
   49XTA    C14 3810  -9.031  30.859  -8.322
   49XTA    C15 3811  -9.098  30.967  -8.269
   49XTA     H1 3812  -9.285  30.963  -7.986
   49XTA     H2 3813  -9.475  30.914  -7.834
   49XTA     H3 3814  -9.754  31.065  -8.116
   49XTA     H4 3815  -9.575  31.111  -8.282
   49XTA     H5 3816  -9.267  31.129  -8.475
   49XTA     H6 3817  -9.275  31.364  -8.574
   49XTA     H7 3818  -9.309  31.523  -8.188
   49XTA     H8 3819  -9.341  31.305  -8.089
   49XTA     H9 3820  -9.413  30.841  -8.331
   49XTA    H10 3821  -9.285  30.662  -8.425
   49XTA    H11 3822  -8.925  30.859  -8.312
   49XTA    H12 3823  -9.047  31.044  -8.220
   49XTA    OA1 3824  -9.736  30.961  -7.890
   49XTA    CO1 3825  -9.713  30.881  -7.774
   49XTA    OA2 3826  -9.288  31.586  -8.457
   49XTA    CO2 3827  -9.232  31.696  -8.387
   49XTA    CL1 3828  -9.167  31.806  -8.472
   49XTA    CL2 3829  -9.089  31.904  -8.378
   49XTA    CL3 3830  -8.938  31.869  -8.379
   49XTA    CL4 3831  -8.843  31.930  -8.273
   49XTA    CO3 3832  -8.719  31.842  -8.267
   49XTA    OA3 3833  -8.653  31.856  -8.142
   49XTA    CO4 3834  -8.555  31.760  -8.134
   49XTA    CT1 3835  -8.511  31.759  -7.995
   49XTA    CL5 3836  -8.448  31.895  -7.948
   49XTA    CL6 3837  -8.544  32.003  -7.905
   49XTA    OA4 3838  -9.018  30.639  -8.410
   49XTA    CO5 3839  -8.879  30.642  -8.376
   49XTA    HL1 3840  -8.823  30.715  -8.437
   49XTA    HL2 3841  -9.807  30.859  -7.728
   49XTA    HL3 3842  -9.669  30.779  -7.802
   49XTA    HL4 3843  -9.658  30.925  -7.685
   49XTA    HL5 3844  -9.313  31.728  -8.326
   49XTA    HL6 3845  -9.171  31.664  -8.300
   49XTA    HL7 3846  -9.240  31.856  -8.532
   49XTA    HL8 3847  -9.100  31.749  -8.538
   49XTA    HL9 3848  -9.130  31.892  -8.279
   49XTA   HL10 3849  -9.104  32.014  -8.401
   49XTA   HL11 3850  -8.922  31.764  -8.367
   49XTA   HL12 3851  -8.889  31.910  -8.475
   49XTA   HL13 3852  -8.887  31.925  -8.176
   49XTA   HL14 3853  -8.818  32.034  -8.293
   49XTA   HL15 3854  -8.749  31.735  -8.278
   49XTA   HL16 3855  -8.657  31.871  -8.358
   49XTA   HL17 3856  -8.580  31.663  -8.159
   49XTA   HL18 3857  -8.475  31.795  -8.196
   49XTA   HL19 3858  -8.385  31.945  -8.018
   49XTA   HL20 3859  -8.382  31.884  -7.857
   49XTA   HL21 3860  -8.629  32.013  -7.980
   49XTA   HL22 3861  -8.502  32.105  -7.923
   49XTA   HL23 3862  -8.588  31.994  -7.801
   49XTA   HL24 3863  -8.833  30.546  -8.391
   49XTA   HL25 3864  -8.865  30.664  -8.268
   49XTA    CO6 3865  -8.416  31.642  -7.990
   49XTA    CO7 3866  -8.633  31.719  -7.911
   49XTA    OA5 3867  -8.311  31.649  -8.083
   49XTA   HL26 3868  -8.478  31.550  -8.004
   49XTA   HL27 3869  -8.376  31.622  -7.889
   49XTA   HL28 3870  -8.681  31.632  -7.952
   49XTA   HL29 3871  -8.711  31.794  -7.921
   50XTA     NT 3872  -6.589  31.634  -7.358
   50XTA    CN1 3873  -6.652  31.590  -7.466
   50XTA     C1 3874  -6.791  31.586  -7.478
   50XTA     C2 3875  -6.860  31.544  -7.590
   50XTA     C3 3876  -6.789  31.511  -7.703
   50XTA     C4 3877  -6.649  31.523  -7.699
   50XTA     C5 3878  -6.580  31.558  -7.585
   50XTA    CN2 3879  -6.572  31.561  -7.244
   50XTA     C6 3880  -6.644  31.596  -7.131
   50XTA     C7 3881  -6.634  31.515  -7.014
   50XTA     C8 3882  -6.570  31.387  -7.013
   50XTA     C9 3883  -6.478  31.365  -7.116
   50XTA    C10 3884  -6.482  31.449  -7.232
   50XTA    CN3 3885  -6.525  31.748  -7.370
   50XTA    C11 3886  -6.594  31.870  -7.355
   50XTA    C12 3887  -6.529  31.996  -7.357
   50XTA    C13 3888  -6.395  32.001  -7.393
   50XTA    C14 3889  -6.322  31.879  -7.393
   50XTA    C15 3890  -6.384  31.752  -7.375
   50XTA     H1 3891  -6.853  31.607  -7.396
   50XTA     H2 3892  -6.964  31.530  -7.575
   50XTA     H3 3893  -6.585  31.492  -7.784
   50XTA     H4 3894  -6.471  31.569  -7.568
   50XTA     H5 3895  -6.708  31.683  -7.127
   50XTA     H6 3896  -6.693  31.549  -6.924
   50XTA     H7 3897  -6.423  31.274  -7.132
   50XTA     H8 3898  -6.422  31.425  -7.314
   50XTA     H9 3899  -6.701  31.870  -7.352
   50XTA    H10 3900  -6.578  32.090  -7.330
   50XTA    H11 3901  -6.221  31.875  -7.423
   50XTA    H12 3902  -6.323  31.663  -7.374
   50XTA    OA1 3903  -6.837  31.444  -7.817
   50XTA    CO1 3904  -6.978  31.439  -7.831
   50XTA    OA2 3905  -6.577  31.298  -6.910
   50XTA    CO2 3906  -6.709  31.256  -6.892
   50XTA    CL1 3907  -6.717  31.173  -6.761
   50XTA    CL2 3908  -6.857  31.135  -6.712
   50XTA    CL3 3909  -6.842  31.057  -6.582
   50XTA    CL4 3910  -6.802  30.909  -6.613
   50XTA    CO3 3911  -6.796  30.826  -6.484
   50XTA    OA3 3912  -6.759  30.688  -6.505
   50XTA    CO4 3913  -6.624  30.658  -6.452
   50XTA    CT1 3914  -6.532  30.589  -6.547
   50XTA    CL5 3915  -6.589  30.451  -6.602
   50XTA    CL6 3916  -6.718  30.455  -6.684
   50XTA    OA4 3917  -6.325  32.112  -7.423
   50XTA    CO5 3918  -6.252  32.155  -7.308
   50XTA    HL1 3919  -6.191  32.236  -7.346
   50XTA    HL2 3920  -6.995  31.433  -7.935
   50XTA    HL3 3921  -7.022  31.354  -7.777
   50XTA    HL4 3922  -7.029  31.538  -7.814
   50XTA    HL5 3923  -6.774  31.342  -6.890
   50XTA    HL6 3924  -6.749  31.191  -6.972
   50XTA    HL7 3925  -6.678  31.231  -6.680
   50XTA    HL8 3926  -6.650  31.096  -6.769
   50XTA    HL9 3927  -6.915  31.070  -6.777
   50XTA   HL10 3928  -6.909  31.226  -6.688
   50XTA   HL11 3929  -6.765  31.102  -6.519
   50XTA   HL12 3930  -6.931  31.057  -6.525
   50XTA   HL13 3931  -6.702  30.911  -6.660
   50XTA   HL14 3932  -6.872  30.856  -6.675
   50XTA   HL15 3933  -6.735  30.882  -6.415
   50XTA   HL16 3934  -6.898  30.825  -6.445
   50XTA   HL17 3935  -6.575  30.748  -6.420
   50XTA   HL18 3936  -6.643  30.597  -6.363
   50XTA   HL19 3937  -6.613  30.382  -6.515
   50XTA   HL20 3938  -6.524  30.401  -6.674
   50XTA   HL21 3939  -6.723  30.551  -6.723
   50XTA   HL22 3940  -6.803  30.450  -6.619
   50XTA   HL23 3941  -6.729  30.371  -6.750
   50XTA   HL24 3942  -6.184  32.075  -7.274
   50XTA   HL25 3943  -6.319  32.168  -7.219
   50XTA    CO6 3944  -6.402  30.555  -6.478
   50XTA    CO7 3945  -6.495  30.688  -6.658
   50XTA    OA5 3946  -6.433  30.801  -6.612
   50XTA   HL26 3947  -6.366  30.647  -6.424
   50XTA   HL27 3948  -6.322  30.538  -6.552
   50XTA   HL28 3949  -6.582  30.712  -6.716
   50XTA   HL29 3950  -6.422  30.630  -6.719
   51XTA     NT 3951  -6.794  27.966  -7.670
   51XTA    CN1 3952  -6.833  27.847  -7.727
   51XTA     C1 3953  -6.744  27.756  -7.789
   51XTA     C2 3954  -6.780  27.627  -7.839
   51XTA     C3 3955  -6.915  27.595  -7.845
   51XTA     C4 3956  -7.011  27.684  -7.790
   51XTA     C5 3957  -6.969  27.808  -7.735
   51XTA    CN2 3958  -6.847  28.079  -7.720
   51XTA     C6 3959  -6.839  28.104  -7.857
   51XTA     C7 3960  -6.890  28.227  -7.905
   51XTA     C8 3961  -6.948  28.319  -7.814
   51XTA     C9 3962  -6.945  28.299  -7.675
   51XTA    C10 3963  -6.901  28.173  -7.633
   51XTA    CN3 3964  -6.696  27.981  -7.582
   51XTA    C11 3965  -6.564  28.009  -7.625
   51XTA    C12 3966  -6.462  28.003  -7.526
   51XTA    C13 3967  -6.493  27.976  -7.394
   51XTA    C14 3968  -6.619  27.934  -7.360
   51XTA    C15 3969  -6.721  27.934  -7.455
   51XTA     H1 3970  -6.641  27.783  -7.805
   51XTA     H2 3971  -6.697  27.576  -7.887
   51XTA     H3 3972  -7.118  27.656  -7.790
   51XTA     H4 3973  -7.050  27.872  -7.705
   51XTA     H5 3974  -6.789  28.031  -7.922
   51XTA     H6 3975  -6.897  28.252  -8.014
   51XTA     H7 3976  -6.981  28.367  -7.607
   51XTA     H8 3977  -6.922  28.136  -7.536
   51XTA     H9 3978  -6.547  28.031  -7.732
   51XTA    H10 3979  -6.363  27.999  -7.556
   51XTA    H11 3980  -6.654  27.910  -7.259
   51XTA    H12 3981  -6.820  27.901  -7.432
   51XTA    OA1 3982  -6.939  27.474  -7.903
   51XTA    CO1 3983  -7.071  27.434  -7.896
   51XTA    OA2 3984  -6.999  28.431  -7.868
   51XTA    CO2 3985  -7.037  28.539  -7.786
   51XTA    CL1 3986  -7.192  28.569  -7.772
   51XTA    CL2 3987  -7.270  28.448  -7.722
   51XTA    CL3 3988  -7.396  28.481  -7.641
   51XTA    CL4 3989  -7.477  28.338  -7.630
   51XTA    CO3 3990  -7.608  28.355  -7.556
   51XTA    OA3 3991  -7.691  28.238  -7.555
   51XTA    CO4 3992  -7.820  28.248  -7.619
   51XTA    CT1 3993  -7.863  28.105  -7.643
   51XTA    CL5 3994  -7.867  28.013  -7.518
   51XTA    CL6 3995  -7.942  28.083  -7.406
   51XTA    OA4 3996  -6.406  27.977  -7.282
   51XTA    CO5 3997  -6.273  27.979  -7.310
   51XTA    HL1 3998  -6.250  27.897  -7.383
   51XTA    HL2 3999  -7.137  27.507  -7.937
   51XTA    HL3 4000  -7.069  27.337  -7.945
   51XTA    HL4 4001  -7.098  27.417  -7.788
   51XTA    HL5 4002  -6.982  28.546  -7.685
   51XTA    HL6 4003  -6.991  28.621  -7.837
   51XTA    HL7 4004  -7.229  28.589  -7.876
   51XTA    HL8 4005  -7.213  28.660  -7.716
   51XTA    HL9 4006  -7.193  28.410  -7.655
   51XTA   HL10 4007  -7.281  28.378  -7.803
   51XTA   HL11 4008  -7.370  28.522  -7.551
   51XTA   HL12 4009  -7.460  28.551  -7.694
   51XTA   HL13 4010  -7.406  28.258  -7.596
   51XTA   HL14 4011  -7.500  28.302  -7.732
   51XTA   HL15 4012  -7.588  28.389  -7.459
   51XTA   HL16 4013  -7.671  28.434  -7.588
   51XTA   HL17 4014  -7.893  28.303  -7.565
   51XTA   HL18 4015  -7.811  28.293  -7.719
   51XTA   HL19 4016  -7.766  27.984  -7.482
   51XTA   HL20 4017  -7.905  27.914  -7.553
   51XTA   HL21 4018  -7.891  28.167  -7.364
   51XTA   HL22 4019  -7.948  28.015  -7.316
   51XTA   HL23 4020  -8.047  28.099  -7.431
   51XTA   HL24 4021  -6.210  27.957  -7.225
   51XTA   HL25 4022  -6.230  28.076  -7.348
   51XTA    CO6 4023  -7.765  28.039  -7.746
   51XTA    CO7 4024  -8.001  28.108  -7.711
   51XTA    OA5 4025  -7.764  28.097  -7.872
   51XTA   HL26 4026  -7.787  27.934  -7.756
   51XTA   HL27 4027  -7.664  28.027  -7.714
   51XTA   HL28 4028  -8.072  28.128  -7.633
   51XTA   HL29 4029  -8.008  28.185  -7.783
   52XTA     NT 4030  -8.110  29.851  -7.304
   52XTA    CN1 4031  -8.240  29.820  -7.283
   52XTA     C1 4032  -8.359  29.883  -7.348
   52XTA     C2 4033  -8.490  29.861  -7.303
   52XTA     C3 4034  -8.513  29.756  -7.208
   52XTA     C4 4035  -8.403  29.672  -7.165
   52XTA     C5 4036  -8.270  29.709  -7.201
   52XTA    CN2 4037  -8.054  29.944  -7.222
   52XTA     C6 4038  -8.042  29.931  -7.085
   52XTA     C7 4039  -7.989  30.035  -7.006
   52XTA     C8 4040  -7.961  30.158  -7.062
   52XTA     C9 4041  -7.984  30.180  -7.202
   52XTA    C10 4042  -8.024  30.070  -7.282
   52XTA    CN3 4043  -8.047  29.784  -7.396
   52XTA    C11 4044  -7.961  29.681  -7.356
   52XTA    C12 4045  -7.877  29.612  -7.454
   52XTA    C13 4046  -7.878  29.661  -7.583
   52XTA    C14 4047  -7.944  29.781  -7.615
   52XTA    C15 4048  -8.040  29.839  -7.523
   52XTA     H1 4049  -8.356  29.966  -7.423
   52XTA     H2 4050  -8.564  29.923  -7.347
   52XTA     H3 4051  -8.427  29.591  -7.096
   52XTA     H4 4052  -8.189  29.648  -7.155
   52XTA     H5 4053  -8.081  29.836  -7.038
   52XTA     H6 4054  -7.977  30.018  -6.900
   52XTA     H7 4055  -7.999  30.284  -7.234
   52XTA     H8 4056  -8.037  30.096  -7.387
   52XTA     H9 4057  -7.969  29.651  -7.252
   52XTA    H10 4058  -7.809  29.537  -7.430
   52XTA    H11 4059  -7.939  29.822  -7.715
   52XTA    H12 4060  -8.101  29.923  -7.549
   52XTA    OA1 4061  -8.639  29.714  -7.169
   52XTA    CO1 4062  -8.743  29.793  -7.209
   52XTA    OA2 4063  -7.908  30.259  -6.988
   52XTA    CO2 4064  -8.005  30.313  -6.904
   52XTA    CL1 4065  -8.110  30.402  -6.970
   52XTA    CL2 4066  -8.053  30.512  -7.059
   52XTA    CL3 4067  -8.159  30.574  -7.151
   52XTA    CL4 4068  -8.176  30.488  -7.280
   52XTA    CO3 4069  -8.100  30.533  -7.397
   52XTA    OA3 4070  -7.969  30.566  -7.359
   52XTA    CO4 4071  -7.888  30.600  -7.472
   52XTA    CT1 4072  -7.739  30.613  -7.431
   52XTA    CL5 4073  -7.688  30.477  -7.382
   52XTA    CL6 4074  -7.653  30.374  -7.487
   52XTA    OA4 4075  -7.790  29.602  -7.670
   52XTA    CO5 4076  -7.783  29.655  -7.801
   52XTA    HL1 4077  -7.722  29.590  -7.857
   52XTA    HL2 4078  -8.753  29.893  -7.165
   52XTA    HL3 4079  -8.764  29.813  -7.316
   52XTA    HL4 4080  -8.833  29.744  -7.184
   52XTA    HL5 4081  -8.058  30.237  -6.848
   52XTA    HL6 4082  -7.968  30.383  -6.834
   52XTA    HL7 4083  -8.170  30.438  -6.893
   52XTA    HL8 4084  -8.168  30.340  -7.030
   52XTA    HL9 4085  -7.968  30.487  -7.115
   52XTA   HL10 4086  -8.011  30.593  -7.001
   52XTA   HL11 4087  -8.259  30.580  -7.095
   52XTA   HL12 4088  -8.121  30.676  -7.175
   52XTA   HL13 4089  -8.282  30.489  -7.295
   52XTA   HL14 4090  -8.155  30.384  -7.246
   52XTA   HL15 4091  -8.112  30.453  -7.469
   52XTA   HL16 4092  -8.159  30.618  -7.436
   52XTA   HL17 4093  -7.904  30.536  -7.558
   52XTA   HL18 4094  -7.916  30.700  -7.504
   52XTA   HL19 4095  -7.764  30.437  -7.310
   52XTA   HL20 4096  -7.605  30.487  -7.311
   52XTA   HL21 4097  -7.726  30.361  -7.562
   52XTA   HL22 4098  -7.633  30.278  -7.432
   52XTA   HL23 4099  -7.556  30.402  -7.522
   52XTA   HL24 4100  -7.728  29.746  -7.807
   52XTA   HL25 4101  -7.877  29.675  -7.855
   52XTA    CO6 4102  -7.724  30.718  -7.317
   52XTA    CO7 4103  -7.668  30.670  -7.548
   52XTA    OA5 4104  -7.594  30.740  -7.281
   52XTA   HL26 4105  -7.773  30.690  -7.226
   52XTA   HL27 4106  -7.772  30.805  -7.352
   52XTA   HL28 4107  -7.691  30.779  -7.562
   52XTA   HL29 4108  -7.732  30.626  -7.624
   53XTA     NT 4109  -7.625  31.644  -9.037
   53XTA    CN1 4110  -7.583  31.698  -9.158
   53XTA     C1 4111  -7.557  31.621  -9.276
   53XTA     C2 4112  -7.513  31.681  -9.395
   53XTA     C3 4113  -7.512  31.820  -9.405
   53XTA     C4 4114  -7.548  31.896  -9.293
   53XTA     C5 4115  -7.579  31.836  -9.172
   53XTA    CN2 4116  -7.542  31.560  -8.967
   53XTA     C6 4117  -7.522  31.433  -9.016
   53XTA     C7 4118  -7.441  31.339  -8.949
   53XTA     C8 4119  -7.387  31.377  -8.822
   53XTA     C9 4120  -7.412  31.504  -8.775
   53XTA    C10 4121  -7.483  31.594  -8.848
   53XTA    CN3 4122  -7.755  31.649  -9.006
   53XTA    C11 4123  -7.854  31.606  -9.098
   53XTA    C12 4124  -7.987  31.607  -9.058
   53XTA    C13 4125  -8.034  31.641  -8.935
   53XTA    C14 4126  -7.934  31.693  -8.845
   53XTA    C15 4127  -7.800  31.704  -8.885
   53XTA     H1 4128  -7.561  31.515  -9.286
   53XTA     H2 4129  -7.490  31.618  -9.473
   53XTA     H3 4130  -7.536  32.004  -9.292
   53XTA     H4 4131  -7.603  31.900  -9.093
   53XTA     H5 4132  -7.577  31.398  -9.110
   53XTA     H6 4133  -7.423  31.242  -8.985
   53XTA     H7 4134  -7.371  31.527  -8.672
   53XTA     H8 4135  -7.509  31.690  -8.817
   53XTA     H9 4136  -7.823  31.556  -9.192
   53XTA    H10 4137  -8.055  31.566  -9.122
   53XTA    H11 4138  -7.965  31.720  -8.745
   53XTA    H12 4139  -7.732  31.755  -8.818
   53XTA    OA1 4140  -7.465  31.881  -9.509
   53XTA    CO1 4141  -7.408  31.805  -9.614
   53XTA    OA2 4142  -7.309  31.291  -8.747
   53XTA    CO2 4143  -7.305  31.151  -8.773
   53XTA    CL1 4144  -7.218  31.109  -8.887
   53XTA    CL2 4145  -7.276  30.983  -8.956
   53XTA    CL3 4146  -7.238  30.982  -9.110
   53XTA    CL4 4147  -7.337  31.057  -9.188
   53XTA    CO3 4148  -7.298  31.060  -9.340
   53XTA    OA3 4149  -7.169  31.121  -9.341
   53XTA    CO4 4150  -7.097  31.118  -9.462
   53XTA    CT1 4151  -6.965  31.035  -9.451
   53XTA    CL5 4152  -6.863  31.082  -9.350
   53XTA    CL6 4153  -6.762  31.180  -9.411
   53XTA    OA4 4154  -8.166  31.637  -8.908
   53XTA    CO5 4155  -8.206  31.703  -8.792
   53XTA    HL1 4156  -8.319  31.701  -8.782
   53XTA    HL2 4157  -7.333  31.734  -9.568
   53XTA    HL3 4158  -7.479  31.748  -9.675
   53XTA    HL4 4159  -7.355  31.857  -9.693
   53XTA    HL5 4160  -7.266  31.104  -8.680
   53XTA    HL6 4161  -7.408  31.105  -8.785
   53XTA    HL7 4162  -7.112  31.097  -8.853
   53XTA    HL8 4163  -7.222  31.195  -8.952
   53XTA    HL9 4164  -7.384  30.973  -8.939
   53XTA   HL10 4165  -7.226  30.901  -8.911
   53XTA   HL11 4166  -7.137  31.022  -9.126
   53XTA   HL12 4167  -7.230  30.882  -9.147
   53XTA   HL13 4168  -7.342  31.167  -9.160
   53XTA   HL14 4169  -7.436  31.016  -9.189
   53XTA   HL15 4170  -7.304  30.962  -9.383
   53XTA   HL16 4171  -7.359  31.128  -9.397
   53XTA   HL17 4172  -7.160  31.069  -9.537
   53XTA   HL18 4173  -7.085  31.216  -9.519
   53XTA   HL19 4174  -6.808  31.000  -9.301
   53XTA   HL20 4175  -6.912  31.136  -9.271
   53XTA   HL21 4176  -6.809  31.250  -9.480
   53XTA   HL22 4177  -6.677  31.132  -9.452
   53XTA   HL23 4178  -6.724  31.245  -9.328
   53XTA   HL24 4179  -8.177  31.808  -8.789
   53XTA   HL25 4180  -8.184  31.651  -8.699
   53XTA    CO6 4181  -6.915  31.010  -9.593
   53XTA    CO7 4182  -7.003  30.899  -9.393
   53XTA    OA5 4183  -6.932  30.816  -9.416
   53XTA   HL26 4184  -6.891  31.111  -9.617
   53XTA   HL27 4185  -6.787  30.950  -9.595
   53XTA   HL28 4186  -7.107  30.881  -9.422
   53XTA   HL29 4187  -7.012  30.904  -9.280
   54XTA     NT 4188  -6.406  28.332  -4.333
   54XTA    CN1 4189  -6.456  28.440  -4.260
   54XTA     C1 4190  -6.502  28.438  -4.127
   54XTA     C2 4191  -6.557  28.556  -4.077
   54XTA     C3 4192  -6.564  28.680  -4.146
   54XTA     C4 4193  -6.515  28.685  -4.274
   54XTA     C5 4194  -6.471  28.565  -4.333
   54XTA    CN2 4195  -6.483  28.226  -4.350
   54XTA     C6 4196  -6.560  28.216  -4.464
   54XTA     C7 4197  -6.655  28.109  -4.480
   54XTA     C8 4198  -6.677  28.021  -4.370
   54XTA     C9 4199  -6.605  28.041  -4.250
   54XTA    C10 4200  -6.507  28.140  -4.248
   54XTA    CN3 4201  -6.274  28.320  -4.350
   54XTA    C11 4202  -6.224  28.350  -4.472
   54XTA    C12 4203  -6.089  28.333  -4.498
   54XTA    C13 4204  -6.002  28.291  -4.394
   54XTA    C14 4205  -6.057  28.254  -4.266
   54XTA    C15 4206  -6.196  28.261  -4.245
   54XTA     H1 4207  -6.501  28.349  -4.074
   54XTA     H2 4208  -6.592  28.561  -3.978
   54XTA     H3 4209  -6.531  28.776  -4.330
   54XTA     H4 4210  -6.435  28.558  -4.441
   54XTA     H5 4211  -6.543  28.282  -4.549
   54XTA     H6 4212  -6.712  28.103  -4.571
   54XTA     H7 4213  -6.622  27.969  -4.175
   54XTA     H8 4214  -6.449  28.151  -4.162
   54XTA     H9 4215  -6.292  28.383  -4.555
   54XTA    H10 4216  -6.047  28.351  -4.595
   54XTA    H11 4217  -5.997  28.211  -4.186
   54XTA    H12 4218  -6.243  28.227  -4.152
   54XTA    OA1 4219  -6.612  28.798  -4.090
   54XTA    CO1 4220  -6.722  28.858  -4.157
   54XTA    OA2 4221  -6.750  27.910  -4.389
   54XTA    CO2 4222  -6.849  27.902  -4.294
   54XTA    CL1 4223  -6.843  27.774  -4.218
   54XTA    CL2 4224  -6.895  27.657  -4.294
   54XTA    CL3 4225  -6.913  27.535  -4.203
   54XTA    CL4 4226  -7.038  27.528  -4.114
   54XTA    CO3 4227  -7.051  27.396  -4.041
   54XTA    OA3 4228  -7.165  27.410  -3.952
   54XTA    CO4 4229  -7.137  27.473  -3.833
   54XTA    CT1 4230  -7.248  27.465  -3.727
   54XTA    CL5 4231  -7.220  27.564  -3.604
   54XTA    CL6 4232  -7.119  27.524  -3.503
   54XTA    OA4 4233  -5.867  28.272  -4.418
   54XTA    CO5 4234  -5.804  28.339  -4.526
   54XTA    HL1 4235  -5.823  28.443  -4.520
   54XTA    HL2 4236  -6.759  28.939  -4.093
   54XTA    HL3 4237  -6.682  28.906  -4.247
   54XTA    HL4 4238  -6.814  28.802  -4.190
   54XTA    HL5 4239  -6.843  27.980  -4.224
   54XTA    HL6 4240  -6.939  27.915  -4.350
   54XTA    HL7 4241  -6.898  27.792  -4.117
   54XTA    HL8 4242  -6.746  27.754  -4.180
   54XTA    HL9 4243  -6.821  27.639  -4.367
   54XTA   HL10 4244  -6.985  27.673  -4.347
   54XTA   HL11 4245  -6.919  27.445  -4.259
   54XTA   HL12 4246  -6.824  27.530  -4.144
   54XTA   HL13 4247  -7.124  27.539  -4.170
   54XTA   HL14 4248  -7.039  27.607  -4.038
   54XTA   HL15 4249  -7.061  27.315  -4.109
   54XTA   HL16 4250  -6.958  27.377  -3.982
   54XTA   HL17 4251  -7.046  27.428  -3.781
   54XTA   HL18 4252  -7.115  27.576  -3.855
   54XTA   HL19 4253  -7.323  27.579  -3.565
   54XTA   HL20 4254  -7.180  27.657  -3.654
   54XTA   HL21 4255  -7.077  27.616  -3.455
   54XTA   HL22 4256  -7.037  27.469  -3.546
   54XTA   HL23 4257  -7.175  27.469  -3.428
   54XTA   HL24 4258  -5.832  28.296  -4.623
   54XTA   HL25 4259  -5.691  28.327  -4.515
   54XTA    CO6 4260  -7.265  27.316  -3.679
   54XTA    CO7 4261  -7.379  27.514  -3.796
   54XTA    OA5 4262  -7.344  27.307  -3.600
   54XTA   HL26 4263  -7.163  27.274  -3.645
   54XTA   HL27 4264  -7.295  27.259  -3.774
   54XTA   HL28 4265  -7.489  27.473  -3.715
   54XTA   HL29 4266  -7.385  27.447  -3.880
   55XTA     NT 4267  -9.207  31.933  -9.877
   55XTA    CN1 4268  -9.285  32.044  -9.875
   55XTA     C1 4269  -9.229  32.168  -9.828
   55XTA     C2 4270  -9.308  32.282  -9.806
   55XTA     C3 4271  -9.444  32.282  -9.834
   55XTA     C4 4272  -9.502  32.158  -9.871
   55XTA     C5 4273  -9.425  32.041  -9.897
   55XTA    CN2 4274  -9.219  31.849  -9.776
   55XTA     C6 4275  -9.124  31.846  -9.674
   55XTA     C7 4276  -9.128  31.748  -9.568
   55XTA     C8 4277  -9.245  31.670  -9.565
   55XTA     C9 4278  -9.346  31.680  -9.663
   55XTA    C10 4279  -9.326  31.766  -9.774
   55XTA    CN3 4280  -9.127  31.891  -9.981
   55XTA    C11 4281  -9.156  31.791 -10.078
   55XTA    C12 4282  -9.074  31.773 -10.197
   55XTA    C13 4283  -8.958  31.846 -10.217
   55XTA    C14 4284  -8.925  31.947 -10.119
   55XTA    C15 4285  -9.008  31.969 -10.004
   55XTA     H1 4286  -9.124  32.166  -9.795
   55XTA     H2 4287  -9.260  32.367  -9.768
   55XTA     H3 4288  -9.609  32.163  -9.898
   55XTA     H4 4289  -9.480  31.954  -9.940
   55XTA     H5 4290  -9.046  31.916  -9.670
   55XTA     H6 4291  -9.051  31.752  -9.496
   55XTA     H7 4292  -9.445  31.632  -9.658
   55XTA     H8 4293  -9.399  31.777  -9.851
   55XTA     H9 4294  -9.250  31.735 -10.070
   55XTA    H10 4295  -9.115  31.703 -10.264
   55XTA    H11 4296  -8.840  32.005 -10.137
   55XTA    H12 4297  -8.991  32.038  -9.930
   55XTA    OA1 4298  -9.531  32.389  -9.822
   55XTA    CO1 4299  -9.501  32.495  -9.732
   55XTA    OA2 4300  -9.275  31.594  -9.457
   55XTA    CO2 4301  -9.163  31.536  -9.392
   55XTA    CL1 4302  -9.063  31.463  -9.490
   55XTA    CL2 4303  -9.132  31.356  -9.569
   55XTA    CL3 4304  -9.030  31.280  -9.663
   55XTA    CL4 4305  -9.031  31.339  -9.814
   55XTA    CO3 4306  -8.972  31.482  -9.817
   55XTA    OA3 4307  -8.843  31.460  -9.770
   55XTA    CO4 4308  -8.776  31.592  -9.765
   55XTA    CT1 4309  -8.642  31.585  -9.841
   55XTA    CL5 4310  -8.551  31.472  -9.781
   55XTA    CL6 4311  -8.428  31.450  -9.879
   55XTA    OA4 4312  -8.871  31.839 -10.320
   55XTA    CO5 4313  -8.904  31.768 -10.436
   55XTA    HL1 4314  -8.918  31.658 -10.413
   55XTA    HL2 4315  -9.403  32.533  -9.745
   55XTA    HL3 4316  -9.576  32.579  -9.739
   55XTA    HL4 4317  -9.507  32.467  -9.634
   55XTA    HL5 4318  -9.106  31.614  -9.344
   55XTA    HL6 4319  -9.194  31.471  -9.313
   55XTA    HL7 4320  -8.991  31.414  -9.421
   55XTA    HL8 4321  -9.014  31.536  -9.552
   55XTA    HL9 4322  -9.219  31.398  -9.625
   55XTA   HL10 4323  -9.176  31.291  -9.496
   55XTA   HL11 4324  -8.933  31.312  -9.634
   55XTA   HL12 4325  -9.024  31.164  -9.652
   55XTA   HL13 4326  -9.129  31.346  -9.856
   55XTA   HL14 4327  -8.969  31.275  -9.873
   55XTA   HL15 4328  -8.973  31.507  -9.925
   55XTA   HL16 4329  -9.030  31.557  -9.760
   55XTA   HL17 4330  -8.838  31.676  -9.800
   55XTA   HL18 4331  -8.762  31.622  -9.658
   55XTA   HL19 4332  -8.600  31.376  -9.775
   55XTA   HL20 4333  -8.513  31.489  -9.674
   55XTA   HL21 4334  -8.377  31.542  -9.917
   55XTA   HL22 4335  -8.467  31.392  -9.969
   55XTA   HL23 4336  -8.353  31.396  -9.819
   55XTA   HL24 4337  -8.828  31.779 -10.516
   55XTA   HL25 4338  -9.001  31.805 -10.472
   55XTA    CO6 4339  -8.575  31.725  -9.825
   55XTA    CO7 4340  -8.665  31.567  -9.993
   55XTA    OA5 4341  -8.578  31.641 -10.078
   55XTA   HL26 4342  -8.489  31.719  -9.885
   55XTA   HL27 4343  -8.635  31.814  -9.859
   55XTA   HL28 4344  -8.766  31.602 -10.017
   55XTA   HL29 4345  -8.659  31.459 -10.017
   56XTA     NT 4346  -5.742  26.969 -11.396
   56XTA    CN1 4347  -5.749  26.842 -11.432
   56XTA     C1 4348  -5.772  26.806 -11.565
   56XTA     C2 4349  -5.795  26.670 -11.598
   56XTA     C3 4350  -5.813  26.569 -11.501
   56XTA     C4 4351  -5.811  26.608 -11.362
   56XTA     C5 4352  -5.763  26.738 -11.334
   56XTA    CN2 4353  -5.853  27.017 -11.330
   56XTA     C6 4354  -5.838  27.069 -11.203
   56XTA     C7 4355  -5.949  27.104 -11.121
   56XTA     C8 4356  -6.078  27.085 -11.176
   56XTA     C9 4357  -6.097  27.048 -11.311
   56XTA    C10 4358  -5.986  27.007 -11.387
   56XTA    CN3 4359  -5.629  27.045 -11.410
   56XTA    C11 4360  -5.639  27.176 -11.462
   56XTA    C12 4361  -5.517  27.252 -11.464
   56XTA    C13 4362  -5.393  27.197 -11.425
   56XTA    C14 4363  -5.386  27.065 -11.375
   56XTA    C15 4364  -5.507  26.992 -11.368
   56XTA     H1 4365  -5.759  26.871 -11.649
   56XTA     H2 4366  -5.802  26.630 -11.694
   56XTA     H3 4367  -5.825  26.535 -11.282
   56XTA     H4 4368  -5.743  26.758 -11.229
   56XTA     H5 4369  -5.740  27.077 -11.155
   56XTA     H6 4370  -5.937  27.143 -11.022
   56XTA     H7 4371  -6.196  27.046 -11.348
   56XTA     H8 4372  -6.012  26.952 -11.482
   56XTA     H9 4373  -5.737  27.223 -11.489
   56XTA    H10 4374  -5.524  27.360 -11.480
   56XTA    H11 4375  -5.292  27.029 -11.341
   56XTA    H12 4376  -5.495  26.886 -11.331
   56XTA    OA1 4377  -5.849  26.442 -11.529
   56XTA    CO1 4378  -5.929  26.422 -11.642
   56XTA    OA2 4379  -6.181  27.126 -11.088
   56XTA    CO2 4380  -6.316  27.097 -11.124
   56XTA    CL1 4381  -6.357  26.955 -11.076
   56XTA    CL2 4382  -6.381  26.944 -10.928
   56XTA    CL3 4383  -6.417  26.798 -10.894
   56XTA    CL4 4384  -6.415  26.755 -10.745
   56XTA    CO3 4385  -6.481  26.622 -10.720
   56XTA    OA3 4386  -6.618  26.641 -10.724
   56XTA    CO4 4387  -6.692  26.520 -10.761
   56XTA    CT1 4388  -6.842  26.552 -10.783
   56XTA    CL5 4389  -6.855  26.667 -10.881
   56XTA    CL6 4390  -7.003  26.717 -10.910
   56XTA    OA4 4391  -5.283  27.280 -11.446
   56XTA    CO5 4392  -5.159  27.239 -11.396
   56XTA    HL1 4393  -5.081  27.305 -11.442
   56XTA    HL2 4394  -5.874  26.458 -11.733
   56XTA    HL3 4395  -5.952  26.319 -11.647
   56XTA    HL4 4396  -6.018  26.475 -11.640
   56XTA    HL5 4397  -6.383  27.164 -11.072
   56XTA    HL6 4398  -6.339  27.117 -11.231
   56XTA    HL7 4399  -6.300  26.870 -11.115
   56XTA    HL8 4400  -6.460  26.943 -11.120
   56XTA    HL9 4401  -6.470  27.006 -10.913
   56XTA   HL10 4402  -6.305  26.981 -10.869
   56XTA   HL11 4403  -6.521  26.774 -10.918
   56XTA   HL12 4404  -6.357  26.724 -10.952
   56XTA   HL13 4405  -6.459  26.837 -10.679
   56XTA   HL14 4406  -6.313  26.761 -10.708
   56XTA   HL15 4407  -6.445  26.537 -10.774
   56XTA   HL16 4408  -6.463  26.599 -10.614
   56XTA   HL17 4409  -6.657  26.488 -10.861
   56XTA   HL18 4410  -6.687  26.432 -10.691
   56XTA   HL19 4411  -6.800  26.641 -10.974
   56XTA   HL20 4412  -6.793  26.750 -10.839
   56XTA   HL21 4413  -7.018  26.759 -11.009
   56XTA   HL22 4414  -7.037  26.789 -10.833
   56XTA   HL23 4415  -7.060  26.625 -10.916
   56XTA   HL24 4416  -5.132  27.136 -11.419
   56XTA   HL25 4417  -5.157  27.254 -11.284
   56XTA    CO6 4418  -6.909  26.586 -10.646
   56XTA    CO7 4419  -6.906  26.422 -10.829
   56XTA    OA5 4420  -6.906  26.410 -10.972
   56XTA   HL26 4421  -6.851  26.672 -10.592
   56XTA   HL27 4422  -6.889  26.508 -10.574
   56XTA   HL28 4423  -7.000  26.404 -10.785
   56XTA   HL29 4424  -6.844  26.343 -10.790
   57XTA     NT 4425  -6.031  24.445 -12.277
   57XTA    CN1 4426  -5.973  24.359 -12.365
   57XTA     C1 4427  -6.061  24.270 -12.432
   57XTA     C2 4428  -5.999  24.173 -12.523
   57XTA     C3 4429  -5.859  24.178 -12.553
   57XTA     C4 4430  -5.783  24.270 -12.479
   57XTA     C5 4431  -5.833  24.359 -12.388
   57XTA    CN2 4432  -6.057  24.570 -12.315
   57XTA     C6 4433  -5.953  24.661 -12.293
   57XTA     C7 4434  -5.969  24.802 -12.321
   57XTA     C8 4435  -6.091  24.845 -12.377
   57XTA     C9 4436  -6.190  24.751 -12.406
   57XTA    C10 4437  -6.180  24.611 -12.372
   57XTA    CN3 4438  -6.036  24.429 -12.144
   57XTA    C11 4439  -5.924  24.459 -12.057
   57XTA    C12 4440  -5.928  24.434 -11.919
   57XTA    C13 4441  -6.037  24.367 -11.865
   57XTA    C14 4442  -6.141  24.319 -11.949
   57XTA    C15 4443  -6.140  24.349 -12.089
   57XTA     H1 4444  -6.164  24.268 -12.400
   57XTA     H2 4445  -6.065  24.091 -12.558
   57XTA     H3 4446  -5.676  24.271 -12.488
   57XTA     H4 4447  -5.775  24.437 -12.346
   57XTA     H5 4448  -5.854  24.629 -12.257
   57XTA     H6 4449  -5.881  24.868 -12.312
   57XTA     H7 4450  -6.278  24.787 -12.461
   57XTA     H8 4451  -6.248  24.537 -12.393
   57XTA     H9 4452  -5.831  24.504 -12.091
   57XTA    H10 4453  -5.844  24.464 -11.861
   57XTA    H11 4454  -6.224  24.267 -11.907
   57XTA    H12 4455  -6.214  24.310 -12.159
   57XTA    OA1 4456  -5.785  24.084 -12.632
   57XTA    CO1 4457  -5.859  24.017 -12.728
   57XTA    OA2 4458  -6.095  24.983 -12.392
   57XTA    CO2 4459  -6.219  25.047 -12.426
   57XTA    CL1 4460  -6.199  25.201 -12.399
   57XTA    CL2 4461  -6.215  25.235 -12.259
   57XTA    CL3 4462  -6.112  25.179 -12.164
   57XTA    CL4 4463  -6.149  25.209 -12.018
   57XTA    CO3 4464  -6.038  25.176 -11.909
   57XTA    OA3 4465  -6.106  25.189 -11.792
   57XTA    CO4 4466  -6.022  25.188 -11.678
   57XTA    CT1 4467  -6.097  25.175 -11.546
   57XTA    CL5 4468  -6.146  25.029 -11.527
   57XTA    CL6 4469  -6.280  24.987 -11.596
   57XTA    OA4 4470  -6.043  24.332 -11.725
   57XTA    CO5 4471  -6.122  24.222 -11.687
   57XTA    HL1 4472  -6.080  24.151 -11.759
   57XTA    HL2 4473  -5.787  23.964 -12.804
   57XTA    HL3 4474  -5.929  23.942 -12.686
   57XTA    HL4 4475  -5.920  24.096 -12.781
   57XTA    HL5 4476  -6.227  25.019 -12.534
   57XTA    HL6 4477  -6.304  25.006 -12.369
   57XTA    HL7 4478  -6.283  25.247 -12.455
   57XTA    HL8 4479  -6.110  25.248 -12.449
   57XTA    HL9 4480  -6.313  25.203 -12.223
   57XTA   HL10 4481  -6.234  25.341 -12.239
   57XTA   HL11 4482  -6.119  25.065 -12.160
   57XTA   HL12 4483  -6.015  25.215 -12.195
   57XTA   HL13 4484  -6.241  25.158 -11.993
   57XTA   HL14 4485  -6.177  25.307 -12.010
   57XTA   HL15 4486  -6.017  25.073 -11.927
   57XTA   HL16 4487  -5.954  25.237 -11.929
   57XTA   HL17 4488  -5.964  25.094 -11.688
   57XTA   HL18 4489  -5.955  25.266 -11.679
   57XTA   HL19 4490  -6.161  25.027 -11.422
   57XTA   HL20 4491  -6.075  24.948 -11.532
   57XTA   HL21 4492  -6.368  25.051 -11.573
   57XTA   HL22 4493  -6.314  24.895 -11.572
   57XTA   HL23 4494  -6.283  24.992 -11.702
   57XTA   HL24 4495  -6.230  24.242 -11.703
   57XTA   HL25 4496  -6.103  24.186 -11.591
   57XTA    CO6 4497  -6.207  25.286 -11.548
   57XTA    CO7 4498  -6.000  25.212 -11.427
   57XTA    OA5 4499  -6.254  25.285 -11.456
   57XTA   HL26 4500  -6.269  25.259 -11.632
   57XTA   HL27 4501  -6.157  25.381 -11.572
   57XTA   HL28 4502  -6.073  25.220 -11.308
   57XTA   HL29 4503  -5.966  25.310 -11.453
   58XTA     NT 4504  -7.965  24.274  -7.190
   58XTA    CN1 4505  -8.033  24.358  -7.275
   58XTA     C1 4506  -7.982  24.484  -7.309
   58XTA     C2 4507  -8.059  24.570  -7.392
   58XTA     C3 4508  -8.180  24.532  -7.446
   58XTA     C4 4509  -8.234  24.402  -7.418
   58XTA     C5 4510  -8.160  24.321  -7.332
   58XTA    CN2 4511  -8.000  24.253  -7.062
   58XTA     C6 4512  -7.969  24.348  -6.963
   58XTA     C7 4513  -8.003  24.325  -6.829
   58XTA     C8 4514  -8.057  24.195  -6.784
   58XTA     C9 4515  -8.094  24.103  -6.887
   58XTA    C10 4516  -8.062  24.129  -7.025
   58XTA    CN3 4517  -7.860  24.197  -7.232
   58XTA    C11 4518  -7.880  24.098  -7.332
   58XTA    C12 4519  -7.769  24.033  -7.385
   58XTA    C13 4520  -7.641  24.058  -7.332
   58XTA    C14 4521  -7.627  24.151  -7.231
   58XTA    C15 4522  -7.732  24.224  -7.179
   58XTA     H1 4523  -7.882  24.526  -7.283
   58XTA     H2 4524  -8.018  24.673  -7.397
   58XTA     H3 4525  -8.329  24.365  -7.456
   58XTA     H4 4526  -8.181  24.221  -7.319
   58XTA     H5 4527  -7.928  24.445  -6.992
   58XTA     H6 4528  -7.968  24.394  -6.757
   58XTA     H7 4529  -8.151  24.017  -6.856
   58XTA     H8 4530  -8.105  24.061  -7.095
   58XTA     H9 4531  -7.981  24.088  -7.374
   58XTA    H10 4532  -7.777  23.963  -7.471
   58XTA    H11 4533  -7.530  24.185  -7.186
   58XTA    H12 4534  -7.708  24.302  -7.107
   58XTA    OA1 4535  -8.245  24.631  -7.520
   58XTA    CO1 4536  -8.302  24.591  -7.642
   58XTA    OA2 4537  -8.101  24.179  -6.653
   58XTA    CO2 4538  -8.090  24.287  -6.561
   58XTA    CL1 4539  -8.175  24.267  -6.437
   58XTA    CL2 4540  -8.174  24.384  -6.340
   58XTA    CL3 4541  -8.253  24.350  -6.215
   58XTA    CL4 4542  -8.404  24.366  -6.240
   58XTA    CO3 4543  -8.489  24.369  -6.115
   58XTA    OA3 4544  -8.619  24.407  -6.139
   58XTA    CO4 4545  -8.699  24.370  -6.031
   58XTA    CT1 4546  -8.853  24.390  -6.080
   58XTA    CL5 4547  -8.956  24.338  -5.982
   58XTA    CL6 4548  -8.932  24.201  -5.921
   58XTA    OA4 4549  -7.536  23.983  -7.386
   58XTA    CO5 4550  -7.437  23.947  -7.291
   58XTA    HL1 4551  -7.372  24.036  -7.274
   58XTA    HL2 4552  -8.237  24.531  -7.707
   58XTA    HL3 4553  -8.372  24.519  -7.614
   58XTA    HL4 4554  -8.356  24.675  -7.693
   58XTA    HL5 4555  -7.991  24.300  -6.531
   58XTA    HL6 4556  -8.119  24.376  -6.608
   58XTA    HL7 4557  -8.138  24.185  -6.376
   58XTA    HL8 4558  -8.273  24.235  -6.470
   58XTA    HL9 4559  -8.231  24.459  -6.397
   58XTA   HL10 4560  -8.075  24.414  -6.305
   58XTA   HL11 4561  -8.243  24.243  -6.192
   58XTA   HL12 4562  -8.222  24.416  -6.133
   58XTA   HL13 4563  -8.446  24.289  -6.303
   58XTA   HL14 4564  -8.416  24.460  -6.292
   58XTA   HL15 4565  -8.490  24.272  -6.066
   58XTA   HL16 4566  -8.450  24.438  -6.042
   58XTA   HL17 4567  -8.672  24.272  -5.991
   58XTA   HL18 4568  -8.687  24.448  -5.955
   58XTA   HL19 4569  -9.047  24.328  -6.039
   58XTA   HL20 4570  -8.973  24.403  -5.894
   58XTA   HL21 4571  -8.911  24.119  -5.991
   58XTA   HL22 4572  -9.027  24.163  -5.869
   58XTA   HL23 4573  -8.856  24.197  -5.847
   58XTA   HL24 4574  -7.363  23.873  -7.329
   58XTA   HL25 4575  -7.474  23.906  -7.195
   58XTA    CO6 4576  -8.874  24.344  -6.229
   58XTA    CO7 4577  -8.887  24.531  -6.125
   58XTA    OA5 4578  -8.900  24.481  -6.260
   58XTA   HL26 4579  -8.961  24.273  -6.242
   58XTA   HL27 4580  -8.777  24.294  -6.267
   58XTA   HL28 4581  -8.809  24.605  -6.114
   58XTA   HL29 4582  -8.982  24.550  -6.068
   59XTA     NT 4583  -6.416  30.995 -11.656
   59XTA    CN1 4584  -6.319  30.900 -11.680
   59XTA     C1 4585  -6.277  30.819 -11.578
   59XTA     C2 4586  -6.191  30.709 -11.605
   59XTA     C3 4587  -6.147  30.676 -11.733
   59XTA     C4 4588  -6.188  30.761 -11.836
   59XTA     C5 4589  -6.279  30.866 -11.807
   59XTA    CN2 4590  -6.388  31.127 -11.692
   59XTA     C6 4591  -6.284  31.207 -11.640
   59XTA     C7 4592  -6.285  31.346 -11.674
   59XTA     C8 4593  -6.388  31.405 -11.751
   59XTA     C9 4594  -6.479  31.315 -11.805
   59XTA    C10 4595  -6.478  31.179 -11.781
   59XTA    CN3 4596  -6.537  30.963 -11.599
   59XTA    C11 4597  -6.622  30.886 -11.678
   59XTA    C12 4598  -6.740  30.845 -11.619
   59XTA    C13 4599  -6.772  30.879 -11.488
   59XTA    C14 4600  -6.682  30.952 -11.416
   59XTA    C15 4601  -6.560  31.001 -11.466
   59XTA     H1 4602  -6.306  30.847 -11.475
   59XTA     H2 4603  -6.156  30.651 -11.527
   59XTA     H3 4604  -6.162  30.743 -11.939
   59XTA     H4 4605  -6.303  30.926 -11.887
   59XTA     H5 4606  -6.213  31.170 -11.569
   59XTA     H6 4607  -6.215  31.416 -11.628
   59XTA     H7 4608  -6.562  31.354 -11.864
   59XTA     H8 4609  -6.557  31.120 -11.826
   59XTA     H9 4610  -6.590  30.863 -11.775
   59XTA    H10 4611  -6.807  30.781 -11.675
   59XTA    H11 4612  -6.695  30.956 -11.311
   59XTA    H12 4613  -6.490  31.048 -11.397
   59XTA    OA1 4614  -6.068  30.570 -11.769
   59XTA    CO1 4615  -6.048  30.469 -11.669
   59XTA    OA2 4616  -6.390  31.539 -11.772
   59XTA    CO2 4617  -6.509  31.608 -11.761
   59XTA    CL1 4618  -6.484  31.756 -11.792
   59XTA    CL2 4619  -6.617  31.830 -11.795
   59XTA    CL3 4620  -6.677  31.848 -11.660
   59XTA    CL4 4621  -6.797  31.943 -11.682
   59XTA    CO3 4622  -6.866  31.995 -11.560
   59XTA    OA3 4623  -6.955  31.902 -11.506
   59XTA    CO4 4624  -7.044  31.959 -11.415
   59XTA    CT1 4625  -7.130  31.845 -11.360
   59XTA    CL5 4626  -7.202  31.761 -11.472
   59XTA    CL6 4627  -7.297  31.839 -11.573
   59XTA    OA4 4628  -6.890  30.837 -11.422
   59XTA    CO5 4629  -6.995  30.794 -11.506
   59XTA    HL1 4630  -6.970  30.689 -11.545
   59XTA    HL2 4631  -6.146  30.428 -11.647
   59XTA    HL3 4632  -5.980  30.397 -11.700
   59XTA    HL4 4633  -6.005  30.516 -11.577
   59XTA    HL5 4634  -6.589  31.581 -11.834
   59XTA    HL6 4635  -6.544  31.579 -11.658
   59XTA    HL7 4636  -6.431  31.761 -11.891
   59XTA    HL8 4637  -6.419  31.809 -11.724
   59XTA    HL9 4638  -6.677  31.785 -11.867
   59XTA   HL10 4639  -6.599  31.932 -11.839
   59XTA   HL11 4640  -6.719  31.758 -11.621
   59XTA   HL12 4641  -6.600  31.880 -11.588
   59XTA   HL13 4642  -6.866  31.900 -11.757
   59XTA   HL14 4643  -6.766  32.030 -11.733
   59XTA   HL15 4644  -6.787  32.031 -11.489
   59XTA   HL16 4645  -6.920  32.080 -11.597
   59XTA   HL17 4646  -6.979  31.987 -11.334
   59XTA   HL18 4647  -7.110  32.041 -11.447
   59XTA   HL19 4648  -7.253  31.673 -11.429
   59XTA   HL20 4649  -7.122  31.723 -11.542
   59XTA   HL21 4650  -7.389  31.870 -11.526
   59XTA   HL22 4651  -7.326  31.767 -11.653
   59XTA   HL23 4652  -7.251  31.932 -11.613
   59XTA   HL24 4653  -7.017  30.852 -11.594
   59XTA   HL25 4654  -7.082  30.779 -11.446
   59XTA    CO6 4655  -7.237  31.915 -11.268
   59XTA    CO7 4656  -7.043  31.752 -11.267
   59XTA    OA5 4657  -7.098  31.662 -11.242
   59XTA   HL26 4658  -7.209  31.901 -11.163
   59XTA   HL27 4659  -7.363  31.853 -11.274
   59XTA   HL28 4660  -7.019  31.811 -11.179
   59XTA   HL29 4661  -6.943  31.740 -11.312
   60XTA     NT 4662  -3.475  30.369  -7.125
   60XTA    CN1 4663  -3.569  30.316  -7.204
   60XTA     C1 4664  -3.659  30.401  -7.267
   60XTA     C2 4665  -3.763  30.346  -7.345
   60XTA     C3 4666  -3.765  30.206  -7.368
   60XTA     C4 4667  -3.666  30.118  -7.309
   60XTA     C5 4668  -3.570  30.173  -7.225
   60XTA    CN2 4669  -3.499  30.423  -7.006
   60XTA     C6 4670  -3.510  30.338  -6.891
   60XTA     C7 4671  -3.536  30.397  -6.764
   60XTA     C8 4672  -3.560  30.533  -6.758
   60XTA     C9 4673  -3.552  30.613  -6.871
   60XTA    C10 4674  -3.518  30.559  -6.993
   60XTA    CN3 4675  -3.346  30.357  -7.157
   60XTA    C11 4676  -3.269  30.274  -7.081
   60XTA    C12 4677  -3.136  30.249  -7.118
   60XTA    C13 4678  -3.076  30.328  -7.223
   60XTA    C14 4679  -3.154  30.421  -7.286
   60XTA    C15 4680  -3.296  30.432  -7.266
   60XTA     H1 4681  -3.649  30.511  -7.254
   60XTA     H2 4682  -3.836  30.406  -7.402
   60XTA     H3 4683  -3.666  30.007  -7.332
   60XTA     H4 4684  -3.507  30.113  -7.176
   60XTA     H5 4685  -3.505  30.228  -6.893
   60XTA     H6 4686  -3.525  30.332  -6.684
   60XTA     H7 4687  -3.563  30.717  -6.859
   60XTA     H8 4688  -3.514  30.623  -7.081
   60XTA     H9 4689  -3.322  30.230  -6.997
   60XTA    H10 4690  -3.066  30.197  -7.056
   60XTA    H11 4691  -3.105  30.490  -7.355
   60XTA    H12 4692  -3.360  30.492  -7.338
   60XTA    OA1 4693  -3.870  30.161  -7.443
   60XTA    CO1 4694  -3.902  30.019  -7.439
   60XTA    OA2 4695  -3.571  30.584  -6.630
   60XTA    CO2 4696  -3.580  30.717  -6.606
   60XTA    CL1 4697  -3.541  30.734  -6.458
   60XTA    CL2 4698  -3.405  30.659  -6.422
   60XTA    CL3 4699  -3.358  30.680  -6.279
   60XTA    CL4 4700  -3.459  30.641  -6.164
   60XTA    CO3 4701  -3.442  30.710  -6.028
   60XTA    OA3 4702  -3.552  30.680  -5.940
   60XTA    CO4 4703  -3.557  30.766  -5.824
   60XTA    CT1 4704  -3.638  30.708  -5.702
   60XTA    CL5 4705  -3.529  30.623  -5.618
   60XTA    CL6 4706  -3.484  30.501  -5.688
   60XTA    OA4 4707  -2.941  30.337  -7.246
   60XTA    CO5 4708  -2.870  30.220  -7.205
   60XTA    HL1 4709  -2.910  30.137  -7.264
   60XTA    HL2 4710  -4.001  30.000  -7.485
   60XTA    HL3 4711  -3.820  29.969  -7.492
   60XTA    HL4 4712  -3.904  29.979  -7.339
   60XTA    HL5 4713  -3.506  30.786  -6.659
   60XTA    HL6 4714  -3.675  30.764  -6.626
   60XTA    HL7 4715  -3.618  30.689  -6.405
   60XTA    HL8 4716  -3.547  30.841  -6.442
   60XTA    HL9 4717  -3.332  30.699  -6.493
   60XTA   HL10 4718  -3.409  30.552  -6.439
   60XTA   HL11 4719  -3.257  30.626  -6.259
   60XTA   HL12 4720  -3.335  30.788  -6.269
   60XTA   HL13 4721  -3.468  30.527  -6.150
   60XTA   HL14 4722  -3.558  30.657  -6.199
   60XTA   HL15 4723  -3.350  30.692  -5.972
   60XTA   HL16 4724  -3.443  30.819  -6.057
   60XTA   HL17 4725  -3.460  30.793  -5.799
   60XTA   HL18 4726  -3.596  30.863  -5.849
   60XTA   HL19 4727  -3.572  30.594  -5.528
   60XTA   HL20 4728  -3.437  30.677  -5.605
   60XTA   HL21 4729  -3.413  30.446  -5.624
   60XTA   HL22 4730  -3.430  30.520  -5.782
   60XTA   HL23 4731  -3.569  30.441  -5.714
   60XTA   HL24 4732  -2.877  30.207  -7.094
   60XTA   HL25 4733  -2.763  30.236  -7.225
   60XTA    CO6 4734  -3.758  30.610  -5.741
   60XTA    CO7 4735  -3.688  30.817  -5.611
   60XTA    OA5 4736  -3.738  30.554  -5.838
   60XTA   HL26 4737  -3.841  30.680  -5.756
   60XTA   HL27 4738  -3.776  30.548  -5.653
   60XTA   HL28 4739  -3.712  30.922  -5.702
   60XTA   HL29 4740  -3.787  30.783  -5.571
   61XTA     NT 4741  -5.189  24.644 -12.728
   61XTA    CN1 4742  -5.247  24.517 -12.747
   61XTA     C1 4743  -5.216  24.407 -12.660
   61XTA     C2 4744  -5.271  24.287 -12.692
   61XTA     C3 4745  -5.371  24.269 -12.792
   61XTA     C4 4746  -5.407  24.379 -12.867
   61XTA     C5 4747  -5.349  24.502 -12.846
   61XTA    CN2 4748  -5.220  24.722 -12.619
   61XTA     C6 4749  -5.308  24.828 -12.627
   61XTA     C7 4750  -5.358  24.886 -12.503
   61XTA     C8 4751  -5.304  24.848 -12.381
   61XTA     C9 4752  -5.199  24.755 -12.382
   61XTA    C10 4753  -5.163  24.689 -12.497
   61XTA    CN3 4754  -5.112  24.704 -12.824
   61XTA    C11 4755  -4.975  24.696 -12.806
   61XTA    C12 4756  -4.889  24.758 -12.902
   61XTA    C13 4757  -4.944  24.827 -13.013
   61XTA    C14 4758  -5.086  24.835 -13.028
   61XTA    C15 4759  -5.165  24.777 -12.932
   61XTA     H1 4760  -5.152  24.427 -12.568
   61XTA     H2 4761  -5.243  24.210 -12.621
   61XTA     H3 4762  -5.486  24.365 -12.941
   61XTA     H4 4763  -5.393  24.590 -12.895
   61XTA     H5 4764  -5.352  24.852 -12.720
   61XTA     H6 4765  -5.435  24.958 -12.507
   61XTA     H7 4766  -5.154  24.726 -12.283
   61XTA     H8 4767  -5.105  24.603 -12.501
   61XTA     H9 4768  -4.928  24.644 -12.725
   61XTA    H10 4769  -4.784  24.735 -12.882
   61XTA    H11 4770  -5.141  24.880 -13.114
   61XTA    H12 4771  -5.268  24.783 -12.951
   61XTA    OA1 4772  -5.425  24.139 -12.808
   61XTA    CO1 4773  -5.561  24.145 -12.797
   61XTA    OA2 4774  -5.353  24.895 -12.259
   61XTA    CO2 4775  -5.493  24.903 -12.252
   61XTA    CL1 4776  -5.537  24.868 -12.109
   61XTA    CL2 4777  -5.685  24.888 -12.085
   61XTA    CL3 4778  -5.744  24.831 -11.953
   61XTA    CL4 4779  -5.712  24.928 -11.837
   61XTA    CO3 4780  -5.753  24.859 -11.702
   61XTA    OA3 4781  -5.729  24.941 -11.583
   61XTA    CO4 4782  -5.731  24.879 -11.457
   61XTA    CT1 4783  -5.738  24.979 -11.339
   61XTA    CL5 4784  -5.745  24.878 -11.224
   61XTA    CL6 4785  -5.754  24.933 -11.086
   61XTA    OA4 4786  -4.854  24.869 -13.110
   61XTA    CO5 4787  -4.910  24.877 -13.250
   61XTA    HL1 4788  -4.828  24.905 -13.314
   61XTA    HL2 4789  -5.598  24.184 -12.702
   61XTA    HL3 4790  -5.603  24.212 -12.864
   61XTA    HL4 4791  -5.600  24.045 -12.805
   61XTA    HL5 4792  -5.535  25.004 -12.278
   61XTA    HL6 4793  -5.550  24.861 -12.332
   61XTA    HL7 4794  -5.479  24.926 -12.042
   61XTA    HL8 4795  -5.508  24.769 -12.083
   61XTA    HL9 4796  -5.730  24.825 -12.165
   61XTA   HL10 4797  -5.704  24.993 -12.102
   61XTA   HL11 4798  -5.855  24.818 -11.962
   61XTA   HL12 4799  -5.697  24.738 -11.953
   61XTA   HL13 4800  -5.769  25.015 -11.859
   61XTA   HL14 4801  -5.602  24.954 -11.835
   61XTA   HL15 4802  -5.853  24.807 -11.698
   61XTA   HL16 4803  -5.692  24.777 -11.693
   61XTA   HL17 4804  -5.806  24.807 -11.457
   61XTA   HL18 4805  -5.652  24.806 -11.443
   61XTA   HL19 4806  -5.653  24.820 -11.227
   61XTA   HL20 4807  -5.832  24.813 -11.234
   61XTA   HL21 4808  -5.660  24.993 -11.076
   61XTA   HL22 4809  -5.742  24.859 -11.012
   61XTA   HL23 4810  -5.834  24.996 -11.061
   61XTA   HL24 4811  -4.983  24.955 -13.272
   61XTA   HL25 4812  -4.944  24.782 -13.274
   61XTA    CO6 4813  -5.875  25.066 -11.343
   61XTA    CO7 4814  -5.614  25.071 -11.329
   61XTA    OA5 4815  -5.871  25.152 -11.414
   61XTA   HL26 4816  -5.889  25.110 -11.237
   61XTA   HL27 4817  -5.955  24.994 -11.354
   61XTA   HL28 4818  -5.598  25.143 -11.450
   61XTA   HL29 4819  -5.648  25.139 -11.247
   62XTH     NT 4820  -8.140  31.082  -9.847
   62XTH    CN1 4821  -8.188  31.157  -9.747
   62XTH     C1 4822  -8.328  31.156  -9.717
   62XTH     C2 4823  -8.374  31.240  -9.614
   62XTH     C3 4824  -8.293  31.322  -9.535
   62XTH     C4 4825  -8.154  31.313  -9.556
   62XTH     C5 4826  -8.104  31.238  -9.674
   62XTH    CN2 4827  -8.089  30.958  -9.814
   62XTH     C6 4828  -8.183  30.862  -9.767
   62XTH     C7 4829  -8.131  30.741  -9.706
   62XTH     C8 4830  -7.990  30.720  -9.713
   62XTH     C9 4831  -7.905  30.812  -9.778
   62XTH    C10 4832  -7.950  30.934  -9.823
   62XTH    CN3 4833  -8.171  31.125  -9.972
   62XTH    C11 4834  -8.129  31.254 -10.013
   62XTH    C12 4835  -8.142  31.289 -10.152
   62XTH    C13 4836  -8.196  31.195 -10.247
   62XTH    C14 4837  -8.251  31.077 -10.198
   62XTH    C15 4838  -8.240  31.043 -10.060
   62XTH     H1 4839  -8.386  31.087  -9.778
   62XTH     H2 4840  -8.483  31.244  -9.612
   62XTH     H3 4841  -8.081  31.372  -9.497
   62XTH     H4 4842  -7.998  31.234  -9.702
   62XTH     H5 4843  -8.289  30.887  -9.768
   62XTH     H6 4844  -8.209  30.669  -9.671
   62XTH     H7 4845  -7.798  30.793  -9.759
   62XTH     H8 4846  -7.877  31.005  -9.852
   62XTH     H9 4847  -8.074  31.322  -9.949
   62XTH    H10 4848  -8.091  31.377 -10.182
   62XTH    H11 4849  -8.306  31.011 -10.253
   62XTH    H12 4850  -8.285  30.949 -10.025
   62XTH    OA1 4851  -8.341  31.395  -9.429
   62XTH    CO1 4852  -8.254  31.450  -9.340
   62XTH    OA2 4853  -7.940  30.608  -9.662
   62XTH    CO2 4854  -7.873  30.624  -9.535
   62XTH    CL1 4855  -7.725  30.586  -9.561
   62XTH    CL2 4856  -7.627  30.705  -9.559
   62XTH    CL3 4857  -7.492  30.667  -9.628
   62XTH    CL4 4858  -7.387  30.766  -9.580
   62XTH    CO3 4859  -7.259  30.751  -9.659
   62XTH    OA3 4860  -7.282  30.790  -9.793
   62XTH    CO4 4861  -7.160  30.787  -9.870
   62XTH    CT1 4862  -7.102  30.924  -9.908
   62XTH    CL5 4863  -6.971  30.905  -9.978
   62XTH    CL6 4864  -6.976  30.839 -10.114
   62XTH    OA4 4865  -8.201  31.227 -10.380
   62XTH    CO5 4866  -8.135  31.136 -10.466
   62XTH    HL1 4867  -8.028  31.140 -10.453
   62XTH    HL2 4868  -8.176  31.381  -9.301
   62XTH    HL3 4869  -8.206  31.536  -9.383
   62XTH    HL4 4870  -8.308  31.477  -9.248
   62XTH    HL5 4871  -7.884  30.720  -9.479
   62XTH    HL6 4872  -7.914  30.546  -9.473
   62XTH    HL7 4873  -7.714  30.523  -9.646
   62XTH    HL8 4874  -7.701  30.528  -9.478
   62XTH    HL9 4875  -7.612  30.737  -9.453
   62XTH   HL10 4876  -7.674  30.796  -9.590
   62XTH   HL11 4877  -7.471  30.568  -9.604
   62XTH   HL12 4878  -7.500  30.674  -9.734
   62XTH   HL13 4879  -7.372  30.739  -9.474
   62XTH   HL14 4880  -7.417  30.869  -9.585
   62XTH   HL15 4881  -7.177  30.802  -9.613
   62XTH   HL16 4882  -7.238  30.646  -9.658
   62XTH   HL17 4883  -7.084  30.742  -9.808
   62XTH   HL18 4884  -7.170  30.730  -9.959
   62XTH   HL19 4885  -6.903  30.849  -9.913
   62XTH   HL20 4886  -6.914  30.999  -9.994
   62XTH   HL21 4887  -7.024  30.906 -10.188
   62XTH   HL22 4888  -7.031  30.747 -10.121
   62XTH   HL23 4889  -6.881  30.802 -10.150
   62XTH   HL24 4890  -8.161  31.155 -10.568
   62XTH   HL25 4891  -8.174  31.031 -10.447
   62XTH    CO6 4892  -7.083  31.005  -9.785
   62XTH    CO7 4893  -7.194  30.996 -10.005
   62XTH    OA5 4894  -6.972  30.961  -9.707
   62XTH   HL26 4895  -7.178  31.008  -9.727
   62XTH   HL27 4896  -7.058  31.109  -9.808
   62XTH   HL28 4897  -7.256  30.922 -10.054
   62XTH   HL29 4898  -7.270  31.029  -9.935
   63XTA     NT 4899  -3.813  29.924  -4.751
   63XTA    CN1 4900  -3.732  29.811  -4.750
   63XTA     C1 4901  -3.637  29.776  -4.851
   63XTA     C2 4902  -3.563  29.658  -4.840
   63XTA     C3 4903  -3.587  29.561  -4.740
   63XTA     C4 4904  -3.681  29.596  -4.638
   63XTA     C5 4905  -3.749  29.716  -4.648
   63XTA    CN2 4906  -3.941  29.915  -4.796
   63XTA     C6 4907  -4.056  29.913  -4.710
   63XTA     C7 4908  -4.185  29.902  -4.767
   63XTA     C8 4909  -4.205  29.883  -4.905
   63XTA     C9 4910  -4.092  29.894  -4.991
   63XTA    C10 4911  -3.961  29.917  -4.937
   63XTA    CN3 4912  -3.752  30.047  -4.752
   63XTA    C11 4913  -3.641  30.072  -4.665
   63XTA    C12 4914  -3.590  30.207  -4.656
   63XTA    C13 4915  -3.651  30.311  -4.730
   63XTA    C14 4916  -3.748  30.275  -4.829
   63XTA    C15 4917  -3.792  30.146  -4.840
   63XTA     H1 4918  -3.620  29.854  -4.926
   63XTA     H2 4919  -3.483  29.626  -4.913
   63XTA     H3 4920  -3.699  29.529  -4.553
   63XTA     H4 4921  -3.825  29.727  -4.564
   63XTA     H5 4922  -4.048  29.923  -4.605
   63XTA     H6 4923  -4.281  29.896  -4.708
   63XTA     H7 4924  -4.111  29.875  -5.096
   63XTA     H8 4925  -3.887  29.933  -5.009
   63XTA     H9 4926  -3.602  29.997  -4.599
   63XTA    H10 4927  -3.518  30.231  -4.578
   63XTA    H11 4928  -3.781  30.357  -4.893
   63XTA    H12 4929  -3.869  30.126  -4.917
   63XTA    OA1 4930  -3.522  29.437  -4.734
   63XTA    CO1 4931  -3.521  29.359  -4.850
   63XTA    OA2 4932  -4.330  29.872  -4.960
   63XTA    CO2 4933  -4.426  29.784  -4.895
   63XTA    CL1 4934  -4.534  29.737  -4.989
   63XTA    CL2 4935  -4.611  29.843  -5.067
   63XTA    CL3 4936  -4.529  29.924  -5.168
   63XTA    CL4 4937  -4.429  29.842  -5.248
   63XTA    CO3 4938  -4.373  29.926  -5.356
   63XTA    OA3 4939  -4.463  29.936  -5.471
   63XTA    CO4 4940  -4.407  30.021  -5.578
   63XTA    CT1 4941  -4.501  30.020  -5.702
   63XTA    CL5 4942  -4.498  29.876  -5.767
   63XTA    CL6 4943  -4.612  29.856  -5.869
   63XTA    OA4 4944  -3.607  30.435  -4.700
   63XTA    CO5 4945  -3.671  30.544  -4.766
   63XTA    HL1 4946  -3.783  30.560  -4.746
   63XTA    HL2 4947  -3.470  29.261  -4.839
   63XTA    HL3 4948  -3.629  29.350  -4.872
   63XTA    HL4 4949  -3.469  29.417  -4.926
   63XTA    HL5 4950  -4.384  29.691  -4.850
   63XTA    HL6 4951  -4.486  29.828  -4.811
   63XTA    HL7 4952  -4.607  29.685  -4.924
   63XTA    HL8 4953  -4.493  29.658  -5.055
   63XTA    HL9 4954  -4.657  29.909  -4.989
   63XTA   HL10 4955  -4.698  29.787  -5.107
   63XTA   HL11 4956  -4.604  29.975  -5.230
   63XTA   HL12 4957  -4.467  30.007  -5.125
   63XTA   HL13 4958  -4.487  29.757  -5.288
   63XTA   HL14 4959  -4.345  29.805  -5.184
   63XTA   HL15 4960  -4.351  30.032  -5.320
   63XTA   HL16 4961  -4.279  29.887  -5.393
   63XTA   HL17 4962  -4.381  30.120  -5.546
   63XTA   HL18 4963  -4.312  29.974  -5.610
   63XTA   HL19 4964  -4.490  29.804  -5.691
   63XTA   HL20 4965  -4.404  29.858  -5.821
   63XTA   HL21 4966  -4.621  29.935  -5.941
   63XTA   HL22 4967  -4.719  29.851  -5.830
   63XTA   HL23 4968  -4.598  29.763  -5.930
   63XTA   HL24 4969  -3.666  30.525  -4.876
   63XTA   HL25 4970  -3.625  30.640  -4.736
   63XTA    CO6 4971  -4.449  30.127  -5.804
   63XTA    CO7 4972  -4.641  30.064  -5.652
   63XTA    OA5 4973  -4.721  30.084  -5.726
   63XTA   HL26 4974  -4.435  30.223  -5.752
   63XTA   HL27 4975  -4.534  30.135  -5.920
   63XTA   HL28 4976  -4.628  30.155  -5.596
   63XTA   HL29 4977  -4.670  29.991  -5.581
   64XTA     NT 4978  -7.348  27.340  -6.324
   64XTA    CN1 4979  -7.465  27.371  -6.391
   64XTA     C1 4980  -7.484  27.327  -6.522
   64XTA     C2 4981  -7.582  27.378  -6.610
   64XTA     C3 4982  -7.674  27.476  -6.564
   64XTA     C4 4983  -7.642  27.531  -6.437
   64XTA     C5 4984  -7.534  27.489  -6.354
   64XTA    CN2 4985  -7.236  27.384  -6.380
   64XTA     C6 4986  -7.183  27.504  -6.329
   64XTA     C7 4987  -7.056  27.549  -6.369
   64XTA     C8 4988  -6.980  27.477  -6.462
   64XTA     C9 4989  -7.031  27.356  -6.504
   64XTA    C10 4990  -7.158  27.310  -6.465
   64XTA    CN3 4991  -7.339  27.245  -6.227
   64XTA    C11 4992  -7.259  27.264  -6.116
   64XTA    C12 4993  -7.241  27.164  -6.017
   64XTA    C13 4994  -7.305  27.041  -6.034
   64XTA    C14 4995  -7.386  27.021  -6.146
   64XTA    C15 4996  -7.403  27.122  -6.243
   64XTA     H1 4997  -7.415  27.249  -6.545
   64XTA     H2 4998  -7.594  27.314  -6.701
   64XTA     H3 4999  -7.708  27.621  -6.409
   64XTA     H4 5000  -7.510  27.538  -6.258
   64XTA     H5 5001  -7.251  27.567  -6.268
   64XTA     H6 5002  -7.021  27.646  -6.339
   64XTA     H7 5003  -6.980  27.290  -6.571
   64XTA     H8 5004  -7.193  27.212  -6.507
   64XTA     H9 5005  -7.221  27.363  -6.107
   64XTA    H10 5006  -7.188  27.181  -5.926
   64XTA    H11 5007  -7.423  26.920  -6.151
   64XTA    H12 5008  -7.462  27.111  -6.331
   64XTA    OA1 5009  -7.776  27.532  -6.630
   64XTA    CO1 5010  -7.775  27.520  -6.774
   64XTA    OA2 5011  -6.863  27.536  -6.505
   64XTA    CO2 5012  -6.772  27.455  -6.572
   64XTA    CL1 5013  -6.634  27.514  -6.573
   64XTA    CL2 5014  -6.600  27.554  -6.428
   64XTA    CL3 5015  -6.469  27.640  -6.414
   64XTA    CL4 5016  -6.424  27.676  -6.272
   64XTA    CO3 5017  -6.308  27.771  -6.283
   64XTA    OA3 5018  -6.229  27.766  -6.162
   64XTA    CO4 5019  -6.137  27.872  -6.148
   64XTA    CT1 5020  -6.115  27.911  -6.003
   64XTA    CL5 5021  -6.038  28.042  -5.998
   64XTA    CL6 5022  -5.997  28.086  -5.856
   64XTA    OA4 5023  -7.283  26.929  -5.955
   64XTA    CO5 5024  -7.208  26.943  -5.830
   64XTA    HL1 5025  -7.189  26.848  -5.785
   64XTA    HL2 5026  -7.780  27.417  -6.808
   64XTA    HL3 5027  -7.866  27.564  -6.823
   64XTA    HL4 5028  -7.677  27.551  -6.811
   64XTA    HL5 5029  -6.768  27.361  -6.517
   64XTA    HL6 5030  -6.800  27.428  -6.673
   64XTA    HL7 5031  -6.620  27.605  -6.630
   64XTA    HL8 5032  -6.562  27.450  -6.615
   64XTA    HL9 5033  -6.596  27.459  -6.370
   64XTA   HL10 5034  -6.676  27.619  -6.389
   64XTA   HL11 5035  -6.379  27.589  -6.455
   64XTA   HL12 5036  -6.491  27.733  -6.457
   64XTA   HL13 5037  -6.398  27.588  -6.210
   64XTA   HL14 5038  -6.512  27.729  -6.241
   64XTA   HL15 5039  -6.239  27.739  -6.359
   64XTA   HL16 5040  -6.350  27.866  -6.308
   64XTA   HL17 5041  -6.038  27.839  -6.179
   64XTA   HL18 5042  -6.161  27.952  -6.219
   64XTA   HL19 5043  -6.100  28.122  -6.038
   64XTA   HL20 5044  -5.948  28.032  -6.060
   64XTA   HL21 5045  -5.932  28.012  -5.818
   64XTA   HL22 5046  -6.084  28.088  -5.799
   64XTA   HL23 5047  -5.962  28.188  -5.857
   64XTA   HL24 5048  -7.262  27.010  -5.764
   64XTA   HL25 5049  -7.116  26.995  -5.860
   64XTA    CO6 5050  -6.033  27.802  -5.933
   64XTA    CO7 5051  -6.245  27.920  -5.931
   64XTA    OA5 5052  -6.316  28.040  -5.969
   64XTA   HL26 5053  -6.014  27.825  -5.833
   64XTA   HL27 5054  -5.932  27.790  -5.980
   64XTA   HL28 5055  -6.240  27.925  -5.823
   64XTA   HL29 5056  -6.314  27.841  -5.955
   65XTA     NT 5057  -5.663  28.872 -10.219
   65XTA    CN1 5058  -5.616  28.989 -10.181
   65XTA     C1 5059  -5.596  29.087 -10.280
   65XTA     C2 5060  -5.557  29.221 -10.242
   65XTA     C3 5061  -5.537  29.248 -10.107
   65XTA     C4 5062  -5.572  29.159 -10.007
   65XTA     C5 5063  -5.618  29.032 -10.044
   65XTA    CN2 5064  -5.589  28.781 -10.280
   65XTA     C6 5065  -5.477  28.721 -10.215
   65XTA     C7 5066  -5.393  28.641 -10.294
   65XTA     C8 5067  -5.430  28.599 -10.426
   65XTA     C9 5068  -5.545  28.659 -10.487
   65XTA    C10 5069  -5.620  28.751 -10.413
   65XTA    CN3 5070  -5.788  28.828 -10.188
   65XTA    C11 5071  -5.801  28.753 -10.073
   65XTA    C12 5072  -5.936  28.716 -10.038
   65XTA    C13 5073  -6.049  28.748 -10.124
   65XTA    C14 5074  -6.023  28.824 -10.242
   65XTA    C15 5075  -5.893  28.857 -10.275
   65XTA     H1 5076  -5.602  29.066 -10.392
   65XTA     H2 5077  -5.539  29.296 -10.317
   65XTA     H3 5078  -5.558  29.201  -9.910
   65XTA     H4 5079  -5.649  28.958  -9.972
   65XTA     H5 5080  -5.450  28.745 -10.116
   65XTA     H6 5081  -5.302  28.603 -10.246
   65XTA     H7 5082  -5.571  28.636 -10.595
   65XTA     H8 5083  -5.705  28.798 -10.466
   65XTA     H9 5084  -5.708  28.741 -10.010
   65XTA    H10 5085  -5.943  28.668  -9.939
   65XTA    H11 5086  -6.114  28.852 -10.299
   65XTA    H12 5087  -5.872  28.914 -10.366
   65XTA    OA1 5088  -5.483  29.369 -10.067
   65XTA    CO1 5089  -5.409  29.443 -10.156
   65XTA    OA2 5090  -5.354  28.495 -10.480
   65XTA    CO2 5091  -5.367  28.456 -10.612
   65XTA    CL1 5092  -5.297  28.327 -10.634
   65XTA    CL2 5093  -5.286  28.288 -10.786
   65XTA    CL3 5094  -5.208  28.160 -10.813
   65XTA    CL4 5095  -5.145  28.161 -10.953
   65XTA    CO3 5096  -5.013  28.238 -10.967
   65XTA    OA3 5097  -4.939  28.177 -11.076
   65XTA    CO4 5098  -4.807  28.225 -11.079
   65XTA    CT1 5099  -4.720  28.137 -11.173
   65XTA    CL5 5100  -4.794  28.121 -11.308
   65XTA    CL6 5101  -4.728  28.044 -11.413
   65XTA    OA4 5102  -6.178  28.706 -10.092
   65XTA    CO5 5103  -6.197  28.660  -9.964
   65XTA    HL1 5104  -6.161  28.734  -9.890
   65XTA    HL2 5105  -5.463  29.458 -10.242
   65XTA    HL3 5106  -5.385  29.541 -10.112
   65XTA    HL4 5107  -5.313  29.391 -10.179
   65XTA    HL5 5108  -5.473  28.455 -10.654
   65XTA    HL6 5109  -5.322  28.540 -10.667
   65XTA    HL7 5110  -5.349  28.264 -10.567
   65XTA    HL8 5111  -5.194  28.325 -10.591
   65XTA    HL9 5112  -5.232  28.368 -10.832
   65XTA   HL10 5113  -5.383  28.282 -10.823
   65XTA   HL11 5114  -5.136  28.150 -10.728
   65XTA   HL12 5115  -5.284  28.083 -10.797
   65XTA   HL13 5116  -5.212  28.205 -11.031
   65XTA   HL14 5117  -5.131  28.062 -10.985
   65XTA   HL15 5118  -5.026  28.346 -10.987
   65XTA   HL16 5119  -4.948  28.232 -10.877
   65XTA   HL17 5120  -4.812  28.319 -11.127
   65XTA   HL18 5121  -4.752  28.224 -10.989
   65XTA   HL19 5122  -4.822  28.218 -11.343
   65XTA   HL20 5123  -4.886  28.072 -11.282
   65XTA   HL21 5124  -4.624  28.086 -11.432
   65XTA   HL22 5125  -4.788  28.051 -11.503
   65XTA   HL23 5126  -4.709  27.937 -11.384
   65XTA   HL24 5127  -6.153  28.561  -9.954
   65XTA   HL25 5128  -6.301  28.637  -9.952
   65XTA    CO6 5129  -4.700  28.004 -11.105
   65XTA    CO7 5130  -4.581  28.199 -11.189
   65XTA    OA5 5131  -4.579  28.300 -11.296
   65XTA   HL26 5132  -4.798  27.956 -11.105
   65XTA   HL27 5133  -4.642  27.939 -11.170
   65XTA   HL28 5134  -4.505  28.128 -11.228
   65XTA   HL29 5135  -4.538  28.229 -11.091
   66XTA     NT 5136  -9.050  28.144  -7.620
   66XTA    CN1 5137  -9.185  28.131  -7.644
   66XTA     C1 5138  -9.237  28.209  -7.744
   66XTA     C2 5139  -9.370  28.209  -7.782
   66XTA     C3 5140  -9.458  28.120  -7.713
   66XTA     C4 5141  -9.407  28.032  -7.616
   66XTA     C5 5142  -9.273  28.042  -7.581
   66XTA    CN2 5143  -8.999  28.263  -7.568
   66XTA     C6 5144  -9.008  28.285  -7.431
   66XTA     C7 5145  -8.952  28.405  -7.380
   66XTA     C8 5146  -8.896  28.499  -7.468
   66XTA     C9 5147  -8.892  28.476  -7.605
   66XTA    C10 5148  -8.940  28.359  -7.654
   66XTA    CN3 5149  -8.977  28.032  -7.632
   66XTA    C11 5150  -8.962  27.939  -7.520
   66XTA    C12 5151  -8.891  27.819  -7.540
   66XTA    C13 5152  -8.840  27.786  -7.670
   66XTA    C14 5153  -8.860  27.873  -7.781
   66XTA    C15 5154  -8.928  27.990  -7.763
   66XTA     H1 5155  -9.177  28.286  -7.796
   66XTA     H2 5156  -9.402  28.286  -7.856
   66XTA     H3 5157  -9.472  27.951  -7.572
   66XTA     H4 5158  -9.246  27.971  -7.505
   66XTA     H5 5159  -9.059  28.225  -7.364
   66XTA     H6 5160  -8.944  28.405  -7.271
   66XTA     H7 5161  -8.863  28.558  -7.663
   66XTA     H8 5162  -8.946  28.342  -7.760
   66XTA     H9 5163  -9.006  27.962  -7.420
   66XTA    H10 5164  -8.880  27.752  -7.455
   66XTA    H11 5165  -8.808  27.859  -7.877
   66XTA    H12 5166  -8.930  28.057  -7.854
   66XTA    OA1 5167  -9.588  28.110  -7.739
   66XTA    CO1 5168  -9.644  28.208  -7.824
   66XTA    OA2 5169  -8.857  28.622  -7.421
   66XTA    CO2 5170  -8.955  28.706  -7.351
   66XTA    CL1 5171  -9.052  28.751  -7.453
   66XTA    CL2 5172  -9.171  28.647  -7.469
   66XTA    CL3 5173  -9.264  28.616  -7.346
   66XTA    CL4 5174  -9.330  28.739  -7.277
   66XTA    CO3 5175  -9.435  28.811  -7.353
   66XTA    OA3 5176  -9.445  28.948  -7.317
   66XTA    CO4 5177  -9.532  29.017  -7.396
   66XTA    CT1 5178  -9.472  29.156  -7.443
   66XTA    CL5 5179  -9.583  29.249  -7.505
   66XTA    CL6 5180  -9.651  29.171  -7.619
   66XTA    OA4 5181  -8.766  27.671  -7.675
   66XTA    CO5 5182  -8.729  27.624  -7.808
   66XTA    HL1 5183  -8.811  27.590  -7.864
   66XTA    HL2 5184  -9.601  28.194  -7.928
   66XTA    HL3 5185  -9.751  28.220  -7.828
   66XTA    HL4 5186  -9.598  28.298  -7.797
   66XTA    HL5 5187  -8.990  28.665  -7.256
   66XTA    HL6 5188  -8.905  28.800  -7.335
   66XTA    HL7 5189  -9.008  28.777  -7.546
   66XTA    HL8 5190  -9.073  28.851  -7.414
   66XTA    HL9 5191  -9.135  28.556  -7.520
   66XTA   HL10 5192  -9.240  28.687  -7.543
   66XTA   HL11 5193  -9.349  28.542  -7.362
   66XTA   HL12 5194  -9.199  28.574  -7.266
   66XTA   HL13 5195  -9.241  28.803  -7.263
   66XTA   HL14 5196  -9.361  28.708  -7.177
   66XTA   HL15 5197  -9.406  28.809  -7.459
   66XTA   HL16 5198  -9.532  28.759  -7.353
   66XTA   HL17 5199  -9.561  28.964  -7.486
   66XTA   HL18 5200  -9.622  29.027  -7.341
   66XTA   HL19 5201  -9.534  29.337  -7.544
   66XTA   HL20 5202  -9.655  29.281  -7.430
   66XTA   HL21 5203  -9.715  29.098  -7.569
   66XTA   HL22 5204  -9.584  29.119  -7.688
   66XTA   HL23 5205  -9.706  29.238  -7.681
   66XTA   HL24 5206  -8.669  27.535  -7.802
   66XTA   HL25 5207  -8.674  27.703  -7.866
   66XTA    CO6 5208  -9.352  29.140  -7.547
   66XTA    CO7 5209  -9.405  29.234  -7.327
   66XTA    OA5 5210  -9.384  29.039  -7.645
   66XTA   HL26 5211  -9.262  29.105  -7.491
   66XTA   HL27 5212  -9.326  29.235  -7.600
   66XTA   HL28 5213  -9.313  29.188  -7.290
   66XTA   HL29 5214  -9.476  29.229  -7.248
   67XTA     NT 5215  -7.679  23.445  -6.550
   67XTA    CN1 5216  -7.798  23.425  -6.477
   67XTA     C1 5217  -7.791  23.354  -6.355
   67XTA     C2 5218  -7.905  23.333  -6.279
   67XTA     C3 5219  -8.026  23.380  -6.327
   67XTA     C4 5220  -8.028  23.455  -6.442
   67XTA     C5 5221  -7.919  23.475  -6.522
   67XTA    CN2 5222  -7.613  23.551  -6.518
   67XTA     C6 5223  -7.665  23.678  -6.522
   67XTA     C7 5224  -7.584  23.790  -6.499
   67XTA     C8 5225  -7.450  23.778  -6.460
   67XTA     C9 5226  -7.401  23.647  -6.438
   67XTA    C10 5227  -7.485  23.536  -6.464
   67XTA    CN3 5228  -7.651  23.349  -6.641
   67XTA    C11 5229  -7.574  23.241  -6.604
   67XTA    C12 5230  -7.552  23.136  -6.691
   67XTA    C13 5231  -7.605  23.135  -6.824
   67XTA    C14 5232  -7.702  23.241  -6.847
   67XTA    C15 5233  -7.719  23.350  -6.758
   67XTA     H1 5234  -7.696  23.308  -6.327
   67XTA     H2 5235  -7.901  23.270  -6.195
   67XTA     H3 5236  -8.126  23.500  -6.468
   67XTA     H4 5237  -7.923  23.535  -6.610
   67XTA     H5 5238  -7.764  23.698  -6.557
   67XTA     H6 5239  -7.633  23.883  -6.520
   67XTA     H7 5240  -7.305  23.622  -6.405
   67XTA     H8 5241  -7.442  23.440  -6.439
   67XTA     H9 5242  -7.535  23.224  -6.501
   67XTA    H10 5243  -7.491  23.053  -6.658
   67XTA    H11 5244  -7.763  23.220  -6.936
   67XTA    H12 5245  -7.795  23.427  -6.768
   67XTA    OA1 5246  -8.130  23.355  -6.246
   67XTA    CO1 5247  -8.249  23.309  -6.318
   67XTA    OA2 5248  -7.372  23.891  -6.442
   67XTA    CO2 5249  -7.230  23.864  -6.439
   67XTA    CL1 5250  -7.152  23.984  -6.485
   67XTA    CL2 5251  -7.006  23.951  -6.455
   67XTA    CL3 5252  -6.915  24.044  -6.526
   67XTA    CL4 5253  -6.772  24.020  -6.490
   67XTA    CO3 5254  -6.683  24.088  -6.594
   67XTA    OA3 5255  -6.549  24.058  -6.552
   67XTA    CO4 5256  -6.443  24.102  -6.639
   67XTA    CT1 5257  -6.317  24.028  -6.607
   67XTA    CL5 5258  -6.291  24.015  -6.454
   67XTA    CL6 5259  -6.167  23.935  -6.419
   67XTA    OA4 5260  -7.583  23.030  -6.903
   67XTA    CO5 5261  -7.664  23.013  -7.023
   67XTA    HL1 5262  -7.622  22.925  -7.065
   67XTA    HL2 5263  -8.235  23.213  -6.365
   67XTA    HL3 5264  -8.335  23.295  -6.251
   67XTA    HL4 5265  -8.269  23.367  -6.411
   67XTA    HL5 5266  -7.200  23.836  -6.340
   67XTA    HL6 5267  -7.206  23.793  -6.519
   67XTA    HL7 5268  -7.187  24.079  -6.438
   67XTA    HL8 5269  -7.162  23.999  -6.593
   67XTA    HL9 5270  -6.986  23.855  -6.479
   67XTA   HL10 5271  -6.995  23.955  -6.348
   67XTA   HL11 5272  -6.927  24.036  -6.631
   67XTA   HL12 5273  -6.951  24.144  -6.495
   67XTA   HL13 5274  -6.737  23.914  -6.502
   67XTA   HL14 5275  -6.746  24.070  -6.395
   67XTA   HL15 5276  -6.711  24.039  -6.685
   67XTA   HL16 5277  -6.696  24.199  -6.589
   67XTA   HL17 5278  -6.475  24.078  -6.744
   67XTA   HL18 5279  -6.427  24.210  -6.626
   67XTA   HL19 5280  -6.374  23.969  -6.413
   67XTA   HL20 5281  -6.288  24.115  -6.415
   67XTA   HL21 5282  -6.136  23.954  -6.313
   67XTA   HL22 5283  -6.070  23.955  -6.465
   67XTA   HL23 5284  -6.185  23.828  -6.427
   67XTA   HL24 5285  -7.665  23.088  -7.101
   67XTA   HL25 5286  -7.770  22.992  -7.002
   67XTA    CO6 5287  -6.196  24.089  -6.685
   67XTA    CO7 5288  -6.340  23.883  -6.674
   67XTA    OA5 5289  -6.188  24.233  -6.684
   67XTA   HL26 5290  -6.206  24.064  -6.800
   67XTA   HL27 5291  -6.102  24.040  -6.656
   67XTA   HL28 5292  -6.384  23.898  -6.771
   67XTA   HL29 5293  -6.416  23.826  -6.620
   68XTA     NT 5294  -7.900  27.362  -8.725
   68XTA    CN1 5295  -7.987  27.266  -8.768
   68XTA     C1 5296  -8.124  27.271  -8.734
   68XTA     C2 5297  -8.205  27.172  -8.786
   68XTA     C3 5298  -8.161  27.070  -8.861
   68XTA     C4 5299  -8.019  27.056  -8.889
   68XTA     C5 5300  -7.934  27.161  -8.851
   68XTA    CN2 5301  -7.831  27.437  -8.818
   68XTA     C6 5302  -7.894  27.530  -8.905
   68XTA     C7 5303  -7.818  27.613  -8.991
   68XTA     C8 5304  -7.679  27.587  -9.001
   68XTA     C9 5305  -7.616  27.493  -8.914
   68XTA    C10 5306  -7.689  27.419  -8.821
   68XTA    CN3 5307  -7.914  27.411  -8.606
   68XTA    C11 5308  -7.859  27.340  -8.493
   68XTA    C12 5309  -7.871  27.393  -8.369
   68XTA    C13 5310  -7.943  27.510  -8.346
   68XTA    C14 5311  -8.003  27.576  -8.457
   68XTA    C15 5312  -7.980  27.531  -8.588
   68XTA     H1 5313  -8.161  27.341  -8.657
   68XTA     H2 5314  -8.309  27.160  -8.764
   68XTA     H3 5315  -7.965  26.971  -8.929
   68XTA     H4 5316  -7.823  27.159  -8.875
   68XTA     H5 5317  -8.000  27.557  -8.909
   68XTA     H6 5318  -7.866  27.689  -9.046
   68XTA     H7 5319  -7.509  27.478  -8.908
   68XTA     H8 5320  -7.641  27.356  -8.740
   68XTA     H9 5321  -7.809  27.245  -8.512
   68XTA    H10 5322  -7.823  27.342  -8.280
   68XTA    H11 5323  -8.067  27.664  -8.433
   68XTA    H12 5324  -8.015  27.591  -8.668
   68XTA    OA1 5325  -8.256  26.979  -8.899
   68XTA    CO1 5326  -8.203  26.866  -8.973
   68XTA    OA2 5327  -7.605  27.655  -9.097
   68XTA    CO2 5328  -7.511  27.580  -9.182
   68XTA    CL1 5329  -7.443  27.684  -9.260
   68XTA    CL2 5330  -7.313  27.726  -9.195
   68XTA    CL3 5331  -7.228  27.821  -9.276
   68XTA    CL4 5332  -7.301  27.948  -9.320
   68XTA    CO3 5333  -7.336  28.044  -9.206
   68XTA    OA3 5334  -7.393  28.163  -9.254
   68XTA    CO4 5335  -7.417  28.251  -9.149
   68XTA    CT1 5336  -7.509  28.368  -9.191
   68XTA    CL5 5337  -7.458  28.436  -9.316
   68XTA    CL6 5338  -7.305  28.473  -9.321
   68XTA    OA4 5339  -7.983  27.547  -8.216
   68XTA    CO5 5340  -7.908  27.494  -8.108
   68XTA    HL1 5341  -7.808  27.526  -8.120
   68XTA    HL2 5342  -8.170  26.887  -9.076
   68XTA    HL3 5343  -8.115  26.818  -8.917
   68XTA    HL4 5344  -8.274  26.785  -8.962
   68XTA    HL5 5345  -7.438  27.530  -9.130
   68XTA    HL6 5346  -7.571  27.508  -9.251
   68XTA    HL7 5347  -7.509  27.772  -9.263
   68XTA    HL8 5348  -7.424  27.644  -9.357
   68XTA    HL9 5349  -7.255  27.633  -9.172
   68XTA   HL10 5350  -7.338  27.771  -9.093
   68XTA   HL11 5351  -7.137  27.846  -9.223
   68XTA   HL12 5352  -7.204  27.770  -9.370
   68XTA   HL13 5353  -7.385  27.926  -9.386
   68XTA   HL14 5354  -7.229  27.990  -9.392
   68XTA   HL15 5355  -7.405  27.996  -9.133
   68XTA   HL16 5356  -7.238  28.064  -9.158
   68XTA   HL17 5357  -7.474  28.200  -9.064
   68XTA   HL18 5358  -7.313  28.283  -9.121
   68XTA   HL19 5359  -7.513  28.534  -9.325
   68XTA   HL20 5360  -7.467  28.384  -9.407
   68XTA   HL21 5361  -7.253  28.382  -9.288
   68XTA   HL22 5362  -7.275  28.541  -9.246
   68XTA   HL23 5363  -7.259  28.508  -9.417
   68XTA   HL24 5364  -7.904  27.390  -8.110
   68XTA   HL25 5365  -7.940  27.524  -8.008
   68XTA    CO6 5366  -7.507  28.465  -9.073
   68XTA    CO7 5367  -7.656  28.321  -9.211
   68XTA    OA5 5368  -7.636  28.477  -9.017
   68XTA   HL26 5369  -7.489  28.570  -9.112
   68XTA   HL27 5370  -7.429  28.452  -8.998
   68XTA   HL28 5371  -7.716  28.411  -9.222
   68XTA   HL29 5372  -7.703  28.267  -9.126
   69XTA     NT 5373  -8.484  28.253  -5.391
   69XTA    CN1 5374  -8.376  28.329  -5.378
   69XTA     C1 5375  -8.373  28.419  -5.273
   69XTA     C2 5376  -8.262  28.499  -5.262
   69XTA     C3 5377  -8.167  28.505  -5.364
   69XTA     C4 5378  -8.181  28.420  -5.477
   69XTA     C5 5379  -8.281  28.323  -5.479
   69XTA    CN2 5380  -8.478  28.120  -5.365
   69XTA     C6 5381  -8.575  28.062  -5.277
   69XTA     C7 5382  -8.570  27.929  -5.236
   69XTA     C8 5383  -8.467  27.849  -5.286
   69XTA     C9 5384  -8.370  27.903  -5.360
   69XTA    C10 5385  -8.369  28.038  -5.401
   69XTA    CN3 5386  -8.585  28.292  -5.469
   69XTA    C11 5387  -8.566  28.299  -5.610
   69XTA    C12 5388  -8.676  28.337  -5.687
   69XTA    C13 5389  -8.802  28.376  -5.634
   69XTA    C14 5390  -8.814  28.370  -5.490
   69XTA    C15 5391  -8.706  28.338  -5.411
   69XTA     H1 5392  -8.450  28.414  -5.199
   69XTA     H2 5393  -8.269  28.571  -5.178
   69XTA     H3 5394  -8.106  28.415  -5.555
   69XTA     H4 5395  -8.289  28.255  -5.561
   69XTA     H5 5396  -8.642  28.135  -5.236
   69XTA     H6 5397  -8.653  27.883  -5.192
   69XTA     H7 5398  -8.291  27.841  -5.384
   69XTA     H8 5399  -8.285  28.060  -5.466
   69XTA     H9 5400  -8.478  28.265  -5.665
   69XTA    H10 5401  -8.664  28.343  -5.796
   69XTA    H11 5402  -8.904  28.385  -5.431
   69XTA    H12 5403  -8.720  28.332  -5.307
   69XTA    OA1 5404  -8.059  28.596  -5.348
   69XTA    CO1 5405  -8.035  28.669  -5.474
   69XTA    OA2 5406  -8.456  27.719  -5.234
   69XTA    CO2 5407  -8.388  27.620  -5.304
   69XTA    CL1 5408  -8.409  27.488  -5.228
   69XTA    CL2 5409  -8.368  27.357  -5.301
   69XTA    CL3 5410  -8.425  27.240  -5.214
   69XTA    CL4 5411  -8.431  27.105  -5.277
   69XTA    CO3 5412  -8.512  26.997  -5.192
   69XTA    OA3 5413  -8.646  27.038  -5.164
   69XTA    CO4 5414  -8.708  26.932  -5.100
   69XTA    CT1 5415  -8.854  26.959  -5.070
   69XTA    CL5 5416  -8.874  27.056  -4.953
   69XTA    CL6 5417  -8.833  27.017  -4.815
   69XTA    OA4 5418  -8.903  28.419  -5.714
   69XTA    CO5 5419  -9.027  28.453  -5.644
   69XTA    HL1 5420  -9.099  28.459  -5.723
   69XTA    HL2 5421  -8.134  28.706  -5.507
   69XTA    HL3 5422  -7.965  28.754  -5.458
   69XTA    HL4 5423  -8.022  28.611  -5.568
   69XTA    HL5 5424  -8.405  27.630  -5.410
   69XTA    HL6 5425  -8.281  27.640  -5.293
   69XTA    HL7 5426  -8.521  27.482  -5.216
   69XTA    HL8 5427  -8.355  27.491  -5.132
   69XTA    HL9 5428  -8.262  27.363  -5.307
   69XTA   HL10 5429  -8.403  27.354  -5.403
   69XTA   HL11 5430  -8.380  27.228  -5.116
   69XTA   HL12 5431  -8.524  27.275  -5.191
   69XTA   HL13 5432  -8.329  27.064  -5.300
   69XTA   HL14 5433  -8.483  27.113  -5.376
   69XTA   HL15 5434  -8.507  26.911  -5.258
   69XTA   HL16 5435  -8.450  26.974  -5.105
   69XTA   HL17 5436  -8.696  26.854  -5.175
   69XTA   HL18 5437  -8.652  26.904  -5.013
   69XTA   HL19 5438  -8.973  27.094  -4.961
   69XTA   HL20 5439  -8.814  27.146  -4.980
   69XTA   HL21 5440  -8.736  26.962  -4.808
   69XTA   HL22 5441  -8.919  26.964  -4.775
   69XTA   HL23 5442  -8.821  27.103  -4.743
   69XTA   HL24 5443  -9.019  28.538  -5.570
   69XTA   HL25 5444  -9.053  28.366  -5.586
   69XTA    CO6 5445  -8.933  26.829  -5.036
   69XTA    CO7 5446  -8.921  27.019  -5.197
   69XTA    OA5 5447  -9.062  26.854  -4.994
   69XTA   HL26 5448  -8.880  26.781  -4.951
   69XTA   HL27 5449  -8.920  26.756  -5.112
   69XTA   HL28 5450  -8.913  26.942  -5.281
   69XTA   HL29 5451  -9.027  27.027  -5.177
   70XTA     NT 5452  -8.315  28.758  -4.784
   70XTA    CN1 5453  -8.386  28.642  -4.788
   70XTA     C1 5454  -8.342  28.519  -4.847
   70XTA     C2 5455  -8.438  28.413  -4.850
   70XTA     C3 5456  -8.568  28.425  -4.797
   70XTA     C4 5457  -8.607  28.542  -4.730
   70XTA     C5 5458  -8.515  28.646  -4.731
   70XTA    CN2 5459  -8.310  28.825  -4.900
   70XTA     C6 5460  -8.409  28.914  -4.939
   70XTA     C7 5461  -8.414  28.972  -5.066
   70XTA     C8 5462  -8.310  28.938  -5.153
   70XTA     C9 5463  -8.209  28.848  -5.122
   70XTA    C10 5464  -8.210  28.789  -4.990
   70XTA    CN3 5465  -8.226  28.770  -4.681
   70XTA    C11 5466  -8.103  28.839  -4.691
   70XTA    C12 5467  -8.011  28.847  -4.588
   70XTA    C13 5468  -8.033  28.778  -4.471
   70XTA    C14 5469  -8.155  28.701  -4.464
   70XTA    C15 5470  -8.251  28.703  -4.565
   70XTA     H1 5471  -8.239  28.513  -4.882
   70XTA     H2 5472  -8.404  28.324  -4.893
   70XTA     H3 5473  -8.711  28.562  -4.697
   70XTA     H4 5474  -8.551  28.738  -4.684
   70XTA     H5 5475  -8.484  28.933  -4.874
   70XTA     H6 5476  -8.495  29.033  -5.107
   70XTA     H7 5477  -8.128  28.817  -5.185
   70XTA     H8 5478  -8.149  28.706  -4.965
   70XTA     H9 5479  -8.096  28.903  -4.774
   70XTA    H10 5480  -7.925  28.908  -4.612
   70XTA    H11 5481  -8.185  28.656  -4.369
   70XTA    H12 5482  -8.343  28.646  -4.545
   70XTA    OA1 5483  -8.665  28.324  -4.816
   70XTA    CO1 5484  -8.676  28.257  -4.938
   70XTA    OA2 5485  -8.324  28.986  -5.280
   70XTA    CO2 5486  -8.202  28.999  -5.345
   70XTA    CL1 5487  -8.220  29.069  -5.476
   70XTA    CL2 5488  -8.086  29.127  -5.517
   70XTA    CL3 5489  -7.978  29.014  -5.531
   70XTA    CL4 5490  -7.844  29.049  -5.589
   70XTA    CO3 5491  -7.761  28.923  -5.628
   70XTA    OA3 5492  -7.628  28.963  -5.681
   70XTA    CO4 5493  -7.559  28.865  -5.756
   70XTA    CT1 5494  -7.550  28.905  -5.911
   70XTA    CL5 5495  -7.476  29.036  -5.932
   70XTA    CL6 5496  -7.330  29.040  -5.877
   70XTA    OA4 5497  -7.940  28.771  -4.370
   70XTA    CO5 5498  -7.821  28.841  -4.386
   70XTA    HL1 5499  -7.842  28.948  -4.409
   70XTA    HL2 5500  -8.677  28.331  -5.020
   70XTA    HL3 5501  -8.583  28.195  -4.938
   70XTA    HL4 5502  -8.752  28.185  -4.947
   70XTA    HL5 5503  -8.142  29.068  -5.289
   70XTA    HL6 5504  -8.147  28.905  -5.355
   70XTA    HL7 5505  -8.285  29.159  -5.454
   70XTA    HL8 5506  -8.263  29.009  -5.560
   70XTA    HL9 5507  -8.049  29.197  -5.442
   70XTA   HL10 5508  -8.105  29.187  -5.611
   70XTA   HL11 5509  -7.951  28.984  -5.429
   70XTA   HL12 5510  -8.017  28.933  -5.594
   70XTA   HL13 5511  -7.801  29.115  -5.515
   70XTA   HL14 5512  -7.856  29.108  -5.674
   70XTA   HL15 5513  -7.762  28.853  -5.544
   70XTA   HL16 5514  -7.820  28.879  -5.708
   70XTA   HL17 5515  -7.460  28.851  -5.710
   70XTA   HL18 5516  -7.613  28.768  -5.745
   70XTA   HL19 5517  -7.538  29.109  -5.888
   70XTA   HL20 5518  -7.478  29.058  -6.039
   70XTA   HL21 5519  -7.268  28.981  -5.937
   70XTA   HL22 5520  -7.315  29.012  -5.777
   70XTA   HL23 5521  -7.284  29.139  -5.900
   70XTA   HL24 5522  -7.755  28.784  -4.465
   70XTA   HL25 5523  -7.777  28.840  -4.287
   70XTA    CO6 5524  -7.689  28.910  -5.967
   70XTA    CO7 5525  -7.490  28.795  -5.988
   70XTA    OA5 5526  -7.371  28.746  -5.914
   70XTA   HL26 5527  -7.740  28.815  -5.944
   70XTA   HL27 5528  -7.736  28.982  -5.907
   70XTA   HL28 5529  -7.435  28.830  -6.078
   70XTA   HL29 5530  -7.560  28.715  -6.023
   71XTA     NT 5531  -7.235  24.437  -5.964
   71XTA    CN1 5532  -7.181  24.555  -5.951
   71XTA     C1 5533  -7.103  24.565  -5.838
   71XTA     C2 5534  -7.023  24.680  -5.822
   71XTA     C3 5535  -7.038  24.790  -5.903
   71XTA     C4 5536  -7.126  24.782  -6.015
   71XTA     C5 5537  -7.182  24.657  -6.048
   71XTA    CN2 5538  -7.155  24.328  -5.993
   71XTA     C6 5539  -7.116  24.306  -6.124
   71XTA     C7 5540  -7.048  24.187  -6.151
   71XTA     C8 5541  -7.025  24.091  -6.055
   71XTA     C9 5542  -7.062  24.116  -5.926
   71XTA    C10 5543  -7.135  24.230  -5.894
   71XTA    CN3 5544  -7.367  24.417  -5.964
   71XTA    C11 5545  -7.436  24.427  -5.841
   71XTA    C12 5546  -7.576  24.420  -5.844
   71XTA    C13 5547  -7.647  24.389  -5.963
   71XTA    C14 5548  -7.579  24.388  -6.088
   71XTA    C15 5549  -7.442  24.399  -6.085
   71XTA     H1 5550  -7.094  24.479  -5.772
   71XTA     H2 5551  -6.949  24.679  -5.736
   71XTA     H3 5552  -7.150  24.866  -6.085
   71XTA     H4 5553  -7.244  24.655  -6.138
   71XTA     H5 5554  -7.129  24.381  -6.203
   71XTA     H6 5555  -7.008  24.165  -6.248
   71XTA     H7 5556  -7.037  24.040  -5.853
   71XTA     H8 5557  -7.169  24.248  -5.792
   71XTA     H9 5558  -7.390  24.443  -5.740
   71XTA    H10 5559  -7.634  24.421  -5.754
   71XTA    H11 5560  -7.624  24.393  -6.184
   71XTA    H12 5561  -7.392  24.386  -6.182
   71XTA    OA1 5562  -6.968  24.906  -5.867
   71XTA    CO1 5563  -6.998  25.030  -5.936
   71XTA    OA2 5564  -6.950  23.977  -6.081
   71XTA    CO2 5565  -6.814  24.011  -6.082
   71XTA    CL1 5566  -6.729  23.883  -6.080
   71XTA    CL2 5567  -6.749  23.789  -6.205
   71XTA    CL3 5568  -6.642  23.682  -6.224
   71XTA    CL4 5569  -6.504  23.736  -6.263
   71XTA    CO3 5570  -6.400  23.620  -6.268
   71XTA    OA3 5571  -6.413  23.541  -6.385
   71XTA    CO4 5572  -6.405  23.612  -6.505
   71XTA    CT1 5573  -6.324  23.556  -6.626
   71XTA    CL5 5574  -6.192  23.496  -6.589
   71XTA    CL6 5575  -6.105  23.591  -6.502
   71XTA    OA4 5576  -7.783  24.400  -5.954
   71XTA    CO5 5577  -7.862  24.354  -6.069
   71XTA    HL1 5578  -7.834  24.402  -6.164
   71XTA    HL2 5579  -6.987  25.030  -6.052
   71XTA    HL3 5580  -7.107  25.040  -5.926
   71XTA    HL4 5581  -6.961  25.120  -5.896
   71XTA    HL5 5582  -6.789  24.065  -6.174
   71XTA    HL6 5583  -6.788  24.066  -5.987
   71XTA    HL7 5584  -6.737  23.840  -5.978
   71XTA    HL8 5585  -6.631  23.930  -6.079
   71XTA    HL9 5586  -6.757  23.862  -6.285
   71XTA   HL10 5587  -6.850  23.749  -6.191
   71XTA   HL11 5588  -6.625  23.626  -6.137
   71XTA   HL12 5589  -6.678  23.618  -6.297
   71XTA   HL13 5590  -6.467  23.814  -6.189
   71XTA   HL14 5591  -6.512  23.791  -6.355
   71XTA   HL15 5592  -6.301  23.659  -6.270
   71XTA   HL16 5593  -6.404  23.561  -6.183
   71XTA   HL17 5594  -6.502  23.648  -6.537
   71XTA   HL18 5595  -6.350  23.704  -6.483
   71XTA   HL19 5596  -6.127  23.474  -6.677
   71XTA   HL20 5597  -6.204  23.401  -6.540
   71XTA   HL21 5598  -6.136  23.611  -6.397
   71XTA   HL22 5599  -6.083  23.686  -6.543
   71XTA   HL23 5600  -6.005  23.539  -6.491
   71XTA   HL24 5601  -7.966  24.368  -6.063
   71XTA   HL25 5602  -7.838  24.245  -6.081
   71XTA    CO6 5603  -6.288  23.666  -6.731
   71XTA    CO7 5604  -6.403  23.452  -6.705
   71XTA    OA5 5605  -6.233  23.790  -6.689
   71XTA   HL26 5606  -6.377  23.679  -6.786
   71XTA   HL27 5607  -6.214  23.631  -6.804
   71XTA   HL28 5608  -6.493  23.497  -6.740
   71XTA   HL29 5609  -6.342  23.409  -6.785
   72XTA     NT 5610  -4.042  30.111  -7.011
   72XTA    CN1 5611  -4.076  30.243  -7.026
   72XTA     C1 5612  -4.122  30.312  -6.910
   72XTA     C2 5613  -4.136  30.450  -6.909
   72XTA     C3 5614  -4.110  30.523  -7.022
   72XTA     C4 5615  -4.053  30.457  -7.131
   72XTA     C5 5616  -4.042  30.319  -7.135
   72XTA    CN2 5617  -4.116  30.019  -7.084
   72XTA     C6 5618  -4.161  29.904  -7.015
   72XTA     C7 5619  -4.253  29.817  -7.080
   72XTA     C8 5620  -4.293  29.840  -7.212
   72XTA     C9 5621  -4.239  29.951  -7.279
   72XTA    C10 5622  -4.153  30.039  -7.219
   72XTA    CN3 5623  -3.935  30.066  -6.941
   72XTA    C11 5624  -3.815  30.035  -7.010
   72XTA    C12 5625  -3.700  29.999  -6.938
   72XTA    C13 5626  -3.708  29.971  -6.800
   72XTA    C14 5627  -3.826  30.001  -6.730
   72XTA    C15 5628  -3.937  30.054  -6.800
   72XTA     H1 5629  -4.141  30.250  -6.828
   72XTA     H2 5630  -4.190  30.487  -6.820
   72XTA     H3 5631  -4.033  30.519  -7.214
   72XTA     H4 5632  -3.994  30.271  -7.216
   72XTA     H5 5633  -4.132  29.892  -6.913
   72XTA     H6 5634  -4.280  29.725  -7.026
   72XTA     H7 5635  -4.271  29.974  -7.377
   72XTA     H8 5636  -4.126  30.131  -7.273
   72XTA     H9 5637  -3.810  30.037  -7.118
   72XTA    H10 5638  -3.605  29.990  -6.990
   72XTA    H11 5639  -3.840  29.983  -6.624
   72XTA    H12 5640  -4.021  30.079  -6.746
   72XTA    OA1 5641  -4.131  30.660  -7.036
   72XTA    CO1 5642  -4.155  30.719  -6.913
   72XTA    OA2 5643  -4.376  29.754  -7.285
   72XTA    CO2 5644  -4.465  29.671  -7.213
   72XTA    CL1 5645  -4.567  29.600  -7.308
   72XTA    CL2 5646  -4.661  29.694  -7.386
   72XTA    CL3 5647  -4.727  29.798  -7.294
   72XTA    CL4 5648  -4.643  29.924  -7.274
   72XTA    CO3 5649  -4.604  29.985  -7.417
   72XTA    OA3 5650  -4.523  30.104  -7.419
   72XTA    CO4 5651  -4.462  30.113  -7.547
   72XTA    CT1 5652  -4.389  30.248  -7.572
   72XTA    CL5 5653  -4.264  30.239  -7.480
   72XTA    CL6 5654  -4.185  30.367  -7.478
   72XTA    OA4 5655  -3.594  29.919  -6.738
   72XTA    CO5 5656  -3.602  29.896  -6.599
   72XTA    HL1 5657  -3.686  29.842  -6.566
   72XTA    HL2 5658  -4.139  30.822  -6.931
   72XTA    HL3 5659  -4.254  30.691  -6.880
   72XTA    HL4 5660  -4.084  30.689  -6.837
   72XTA    HL5 5661  -4.420  29.610  -7.136
   72XTA    HL6 5662  -4.520  29.734  -7.138
   72XTA    HL7 5663  -4.631  29.536  -7.238
   72XTA    HL8 5664  -4.510  29.537  -7.375
   72XTA    HL9 5665  -4.742  29.636  -7.429
   72XTA   HL10 5666  -4.620  29.734  -7.478
   72XTA   HL11 5667  -4.816  29.832  -7.343
   72XTA   HL12 5668  -4.746  29.767  -7.189
   72XTA   HL13 5669  -4.549  29.911  -7.220
   72XTA   HL14 5670  -4.706  30.002  -7.229
   72XTA   HL15 5671  -4.541  29.914  -7.469
   72XTA   HL16 5672  -4.700  30.003  -7.472
   72XTA   HL17 5673  -4.397  30.026  -7.569
   72XTA   HL18 5674  -4.554  30.109  -7.618
   72XTA   HL19 5675  -4.189  30.168  -7.518
   72XTA   HL20 5676  -4.296  30.216  -7.377
   72XTA   HL21 5677  -4.102  30.358  -7.410
   72XTA   HL22 5678  -4.237  30.465  -7.460
   72XTA   HL23 5679  -4.142  30.387  -7.576
   72XTA   HL24 5680  -3.590  29.993  -6.553
   72XTA   HL25 5681  -3.512  29.849  -6.558
   72XTA    CO6 5682  -4.483  30.368  -7.545
   72XTA    CO7 5683  -4.340  30.261  -7.724
   72XTA    OA5 5684  -4.566  30.387  -7.615
   72XTA   HL26 5685  -4.429  30.465  -7.528
   72XTA   HL27 5686  -4.521  30.343  -7.444
   72XTA   HL28 5687  -4.449  30.261  -7.813
   72XTA   HL29 5688  -4.291  30.360  -7.738
   73XTA     NT 5689  -4.945  29.180 -10.436
   73XTA    CN1 5690  -4.885  29.232 -10.332
   73XTA     C1 5691  -4.835  29.361 -10.331
   73XTA     C2 5692  -4.777  29.422 -10.218
   73XTA     C3 5693  -4.769  29.347 -10.099
   73XTA     C4 5694  -4.817  29.215 -10.093
   73XTA     C5 5695  -4.878  29.159 -10.206
   73XTA    CN2 5696  -4.930  29.058 -10.484
   73XTA     C6 5697  -4.832  29.030 -10.583
   73XTA     C7 5698  -4.817  28.897 -10.630
   73XTA     C8 5699  -4.901  28.796 -10.585
   73XTA     C9 5700  -5.009  28.824 -10.497
   73XTA    C10 5701  -5.025  28.954 -10.454
   73XTA    CN3 5702  -5.055  29.252 -10.481
   73XTA    C11 5703  -5.176  29.249 -10.410
   73XTA    C12 5704  -5.284  29.334 -10.454
   73XTA    C13 5705  -5.261  29.420 -10.556
   73XTA    C14 5706  -5.140  29.421 -10.632
   73XTA    C15 5707  -5.039  29.334 -10.594
   73XTA     H1 5708  -4.849  29.420 -10.419
   73XTA     H2 5709  -4.745  29.524 -10.214
   73XTA     H3 5710  -4.790  29.163 -10.002
   73XTA     H4 5711  -4.904  29.057 -10.205
   73XTA     H5 5712  -4.771  29.105 -10.621
   73XTA     H6 5713  -4.735  28.868 -10.697
   73XTA     H7 5714  -5.076  28.749 -10.455
   73XTA     H8 5715  -5.102  28.970 -10.384
   73XTA     H9 5716  -5.192  29.178 -10.324
   73XTA    H10 5717  -5.380  29.326 -10.400
   73XTA    H11 5718  -5.126  29.472 -10.730
   73XTA    H12 5719  -4.946  29.332 -10.654
   73XTA    OA1 5720  -4.705  29.402  -9.987
   73XTA    CO1 5721  -4.731  29.540  -9.962
   73XTA    OA2 5722  -4.876  28.664 -10.630
   73XTA    CO2 5723  -4.991  28.594 -10.677
   73XTA    CL1 5724  -5.015  28.639 -10.823
   73XTA    CL2 5725  -4.886  28.605 -10.904
   73XTA    CL3 5726  -4.891  28.654 -11.052
   73XTA    CL4 5727  -4.775  28.604 -11.137
   73XTA    CO3 5728  -4.664  28.704 -11.196
   73XTA    OA3 5729  -4.560  28.629 -11.256
   73XTA    CO4 5730  -4.603  28.570 -11.378
   73XTA    CT1 5731  -4.490  28.473 -11.433
   73XTA    CL5 5732  -4.366  28.573 -11.465
   73XTA    CL6 5733  -4.400  28.705 -11.545
   73XTA    OA4 5734  -5.371  29.485 -10.606
   73XTA    CO5 5735  -5.338  29.585 -10.697
   73XTA    HL1 5736  -5.262  29.655 -10.656
   73XTA    HL2 5737  -4.836  29.548  -9.942
   73XTA    HL3 5738  -4.685  29.570  -9.872
   73XTA    HL4 5739  -4.690  29.594 -10.042
   73XTA    HL5 5740  -4.955  28.491 -10.696
   73XTA    HL6 5741  -5.070  28.602 -10.596
   73XTA    HL7 5742  -5.026  28.748 -10.826
   73XTA    HL8 5743  -5.104  28.611 -10.867
   73XTA    HL9 5744  -4.861  28.503 -10.899
   73XTA   HL10 5745  -4.795  28.659 -10.857
   73XTA   HL11 5746  -4.975  28.600 -11.096
   73XTA   HL12 5747  -4.911  28.762 -11.053
   73XTA   HL13 5748  -4.823  28.560 -11.226
   73XTA   HL14 5749  -4.724  28.518 -11.093
   73XTA   HL15 5750  -4.709  28.767 -11.268
   73XTA   HL16 5751  -4.630  28.765 -11.116
   73XTA   HL17 5752  -4.696  28.524 -11.364
   73XTA   HL18 5753  -4.620  28.654 -11.447
   73XTA   HL19 5754  -4.296  28.512 -11.529
   73XTA   HL20 5755  -4.310  28.601 -11.375
   73XTA   HL21 5756  -4.470  28.769 -11.493
   73XTA   HL22 5757  -4.436  28.676 -11.645
   73XTA   HL23 5758  -4.310  28.767 -11.555
   73XTA   HL24 5759  -5.435  29.632 -10.714
   73XTA   HL25 5760  -5.296  29.540 -10.791
   73XTA    CO6 5761  -4.535  28.397 -11.554
   73XTA    CO7 5762  -4.453  28.366 -11.329
   73XTA    OA5 5763  -4.618  28.452 -11.601
   73XTA   HL26 5764  -4.569  28.290 -11.534
   73XTA   HL27 5765  -4.458  28.383 -11.627
   73XTA   HL28 5766  -4.342  28.281 -11.368
   73XTA   HL29 5767  -4.416  28.416 -11.238
   74XTA     NT 5768  -4.359  22.706  -6.507
   74XTA    CN1 5769  -4.227  22.716  -6.499
   74XTA     C1 5770  -4.167  22.833  -6.552
   74XTA     C2 5771  -4.034  22.851  -6.541
   74XTA     C3 5772  -3.956  22.755  -6.475
   74XTA     C4 5773  -4.012  22.641  -6.420
   74XTA     C5 5774  -4.151  22.625  -6.427
   74XTA    CN2 5775  -4.446  22.750  -6.418
   74XTA     C6 5776  -4.407  22.744  -6.283
   74XTA     C7 5777  -4.487  22.795  -6.183
   74XTA     C8 5778  -4.599  22.878  -6.216
   74XTA     C9 5779  -4.639  22.890  -6.351
   74XTA    C10 5780  -4.568  22.817  -6.457
   74XTA    CN3 5781  -4.391  22.614  -6.598
   74XTA    C11 5782  -4.420  22.648  -6.732
   74XTA    C12 5783  -4.445  22.548  -6.826
   74XTA    C13 5784  -4.452  22.411  -6.783
   74XTA    C14 5785  -4.432  22.373  -6.644
   74XTA    C15 5786  -4.403  22.476  -6.554
   74XTA     H1 5787  -4.231  22.899  -6.616
   74XTA     H2 5788  -3.992  22.938  -6.586
   74XTA     H3 5789  -3.960  22.562  -6.366
   74XTA     H4 5790  -4.202  22.546  -6.379
   74XTA     H5 5791  -4.313  22.690  -6.262
   74XTA     H6 5792  -4.462  22.783  -6.080
   74XTA     H7 5793  -4.723  22.946  -6.386
   74XTA     H8 5794  -4.593  22.820  -6.556
   74XTA     H9 5795  -4.413  22.752  -6.762
   74XTA    H10 5796  -4.460  22.568  -6.928
   74XTA    H11 5797  -4.437  22.271  -6.616
   74XTA    H12 5798  -4.392  22.445  -6.449
   74XTA    OA1 5799  -3.819  22.756  -6.463
   74XTA    CO1 5800  -3.751  22.861  -6.515
   74XTA    OA2 5801  -4.650  22.949  -6.107
   74XTA    CO2 5802  -4.736  23.065  -6.125
   74XTA    CL1 5803  -4.717  23.151  -5.997
   74XTA    CL2 5804  -4.568  23.208  -5.982
   74XTA    CL3 5805  -4.523  23.313  -6.083
   74XTA    CL4 5806  -4.562  23.454  -6.045
   74XTA    CO3 5807  -4.589  23.545  -6.159
   74XTA    OA3 5808  -4.724  23.525  -6.197
   74XTA    CO4 5809  -4.770  23.589  -6.313
   74XTA    CT1 5810  -4.915  23.560  -6.326
   74XTA    CL5 5811  -4.991  23.594  -6.197
   74XTA    CL6 5812  -4.982  23.744  -6.165
   74XTA    OA4 5813  -4.479  22.328  -6.892
   74XTA    CO5 5814  -4.534  22.200  -6.859
   74XTA    HL1 5815  -4.583  22.152  -6.946
   74XTA    HL2 5816  -3.773  22.956  -6.453
   74XTA    HL3 5817  -3.640  22.862  -6.495
   74XTA    HL4 5818  -3.761  22.877  -6.619
   74XTA    HL5 5819  -4.712  23.124  -6.211
   74XTA    HL6 5820  -4.839  23.033  -6.121
   74XTA    HL7 5821  -4.758  23.092  -5.915
   74XTA    HL8 5822  -4.784  23.228  -6.009
   74XTA    HL9 5823  -4.509  23.119  -5.972
   74XTA   HL10 5824  -4.550  23.253  -5.881
   74XTA   HL11 5825  -4.416  23.316  -6.092
   74XTA   HL12 5826  -4.532  23.290  -6.184
   74XTA   HL13 5827  -4.485  23.489  -5.975
   74XTA   HL14 5828  -4.661  23.454  -5.998
   74XTA   HL15 5829  -4.592  23.649  -6.134
   74XTA   HL16 5830  -4.511  23.538  -6.235
   74XTA   HL17 5831  -4.742  23.692  -6.317
   74XTA   HL18 5832  -4.711  23.547  -6.398
   74XTA   HL19 5833  -4.947  23.552  -6.106
   74XTA   HL20 5834  -5.090  23.570  -6.195
   74XTA   HL21 5835  -5.047  23.762  -6.078
   74XTA   HL22 5836  -5.012  23.810  -6.247
   74XTA   HL23 5837  -4.887  23.771  -6.129
   74XTA   HL24 5838  -4.613  22.214  -6.788
   74XTA   HL25 5839  -4.459  22.139  -6.809
   74XTA    CO6 5840  -4.938  23.409  -6.343
   74XTA    CO7 5841  -4.985  23.630  -6.444
   74XTA    OA5 5842  -4.898  23.722  -6.517
   74XTA   HL26 5843  -4.889  23.376  -6.253
   74XTA   HL27 5844  -5.044  23.379  -6.335
   74XTA   HL28 5845  -5.071  23.691  -6.414
   74XTA   HL29 5846  -5.031  23.567  -6.517
   75XTA     NT 5847  -5.686  28.221  -8.895
   75XTA    CN1 5848  -5.552  28.232  -8.925
   75XTA     C1 5849  -5.505  28.257  -9.059
   75XTA     C2 5850  -5.363  28.260  -9.083
   75XTA     C3 5851  -5.267  28.260  -8.982
   75XTA     C4 5852  -5.313  28.237  -8.853
   75XTA     C5 5853  -5.452  28.221  -8.824
   75XTA    CN2 5854  -5.735  28.092  -8.903
   75XTA     C6 5855  -5.705  27.992  -8.807
   75XTA     C7 5856  -5.779  27.874  -8.809
   75XTA     C8 5857  -5.862  27.839  -8.920
   75XTA     C9 5858  -5.872  27.931  -9.021
   75XTA    C10 5859  -5.805  28.052  -9.020
   75XTA    CN3 5860  -5.750  28.320  -8.837
   75XTA    C11 5861  -5.810  28.305  -8.708
   75XTA    C12 5862  -5.886  28.401  -8.647
   75XTA    C13 5863  -5.886  28.532  -8.706
   75XTA    C14 5864  -5.838  28.542  -8.837
   75XTA    C15 5865  -5.772  28.438  -8.907
   75XTA     H1 5866  -5.580  28.271  -9.133
   75XTA     H2 5867  -5.325  28.270  -9.192
   75XTA     H3 5868  -5.243  28.223  -8.768
   75XTA     H4 5869  -5.478  28.211  -8.717
   75XTA     H5 5870  -5.643  28.021  -8.721
   75XTA     H6 5871  -5.759  27.812  -8.725
   75XTA     H7 5872  -5.929  27.914  -9.108
   75XTA     H8 5873  -5.814  28.124  -9.095
   75XTA     H9 5874  -5.787  28.223  -8.646
   75XTA    H10 5875  -5.928  28.395  -8.546
   75XTA    H11 5876  -5.853  28.637  -8.890
   75XTA    H12 5877  -5.746  28.448  -9.019
   75XTA    OA1 5878  -5.134  28.277  -9.023
   75XTA    CO1 5879  -5.038  28.268  -8.920
   75XTA    OA2 5880  -5.917  27.713  -8.919
   75XTA    CO2 5881  -6.054  27.709  -8.948
   75XTA    CL1 5882  -6.144  27.790  -8.852
   75XTA    CL2 5883  -6.210  27.713  -8.743
   75XTA    CL3 5884  -6.105  27.672  -8.636
   75XTA    CL4 5885  -6.160  27.587  -8.516
   75XTA    CO3 5886  -6.049  27.566  -8.415
   75XTA    OA3 5887  -5.966  27.488  -8.499
   75XTA    CO4 5888  -5.851  27.436  -8.448
   75XTA    CT1 5889  -5.754  27.399  -8.559
   75XTA    CL5 5890  -5.714  27.526  -8.654
   75XTA    CL6 5891  -5.625  27.508  -8.776
   75XTA    OA4 5892  -5.957  28.624  -8.630
   75XTA    CO5 5893  -5.943  28.760  -8.679
   75XTA    HL1 5894  -5.995  28.832  -8.604
   75XTA    HL2 5895  -4.941  28.267  -8.963
   75XTA    HL3 5896  -5.040  28.355  -8.847
   75XTA    HL4 5897  -5.055  28.183  -8.859
   75XTA    HL5 5898  -6.061  27.748  -9.053
   75XTA    HL6 5899  -6.072  27.598  -8.950
   75XTA    HL7 5900  -6.223  27.832  -8.918
   75XTA    HL8 5901  -6.090  27.878  -8.813
   75XTA    HL9 5902  -6.238  27.619  -8.779
   75XTA   HL10 5903  -6.301  27.764  -8.711
   75XTA   HL11 5904  -6.024  27.607  -8.685
   75XTA   HL12 5905  -6.055  27.758  -8.610
   75XTA   HL13 5906  -6.208  27.497  -8.548
   75XTA   HL14 5907  -6.234  27.642  -8.464
   75XTA   HL15 5908  -5.979  27.650  -8.400
   75XTA   HL16 5909  -6.075  27.512  -8.321
   75XTA   HL17 5910  -5.814  27.500  -8.368
   75XTA   HL18 5911  -5.884  27.344  -8.405
   75XTA   HL19 5912  -5.654  27.591  -8.586
   75XTA   HL20 5913  -5.804  27.571  -8.687
   75XTA   HL21 5914  -5.669  27.435  -8.837
   75XTA   HL22 5915  -5.529  27.464  -8.739
   75XTA   HL23 5916  -5.618  27.603  -8.824
   75XTA   HL24 5917  -5.997  28.770  -8.778
   75XTA   HL25 5918  -5.837  28.792  -8.687
   75XTA    CO6 5919  -5.786  27.275  -8.633
   75XTA    CO7 5920  -5.623  27.339  -8.510
   75XTA    OA5 5921  -5.639  27.242  -8.615
   75XTA   HL26 5922  -5.823  27.284  -8.737
   75XTA   HL27 5923  -5.845  27.195  -8.588
   75XTA   HL28 5924  -5.624  27.299  -8.407
   75XTA   HL29 5925  -5.537  27.399  -8.521
   76XTA     NT 5926  -4.015  24.952  -8.246
   76XTA    CN1 5927  -3.942  24.837  -8.241
   76XTA     C1 5928  -3.806  24.843  -8.288
   76XTA     C2 5929  -3.732  24.722  -8.282
   76XTA     C3 5930  -3.795  24.602  -8.252
   76XTA     C4 5931  -3.931  24.591  -8.207
   76XTA     C5 5932  -4.005  24.710  -8.210
   76XTA    CN2 5933  -4.128  24.960  -8.319
   76XTA     C6 5934  -4.110  24.958  -8.456
   76XTA     C7 5935  -4.223  24.960  -8.540
   76XTA     C8 5936  -4.354  24.958  -8.479
   76XTA     C9 5937  -4.365  24.934  -8.340
   76XTA    C10 5938  -4.255  24.935  -8.259
   76XTA    CN3 5939  -4.013  25.021  -8.127
   76XTA    C11 5940  -4.041  24.957  -8.000
   76XTA    C12 5941  -4.042  25.036  -7.884
   76XTA    C13 5942  -4.038  25.177  -7.892
   76XTA    C14 5943  -4.025  25.240  -8.015
   76XTA    C15 5944  -3.998  25.162  -8.126
   76XTA     H1 5945  -3.748  24.932  -8.312
   76XTA     H2 5946  -3.630  24.722  -8.315
   76XTA     H3 5947  -3.981  24.496  -8.178
   76XTA     H4 5948  -4.103  24.711  -8.178
   76XTA     H5 5949  -4.008  24.953  -8.497
   76XTA     H6 5950  -4.203  24.966  -8.652
   76XTA     H7 5951  -4.457  24.912  -8.296
   76XTA     H8 5952  -4.255  24.910  -8.153
   76XTA     H9 5953  -4.064  24.856  -7.994
   76XTA    H10 5954  -4.062  24.987  -7.783
   76XTA    H11 5955  -4.028  25.342  -8.024
   76XTA    H12 5956  -3.984  25.220  -8.215
   76XTA    OA1 5957  -3.718  24.492  -8.266
   76XTA    CO1 5958  -3.742  24.382  -8.180
   76XTA    OA2 5959  -4.465  24.947  -8.563
   76XTA    CO2 5960  -4.506  24.810  -8.571
   76XTA    CL1 5961  -4.440  24.746  -8.697
   76XTA    CL2 5962  -4.423  24.591  -8.677
   76XTA    CL3 5963  -4.300  24.551  -8.594
   76XTA    CL4 5964  -4.175  24.589  -8.666
   76XTA    CO3 5965  -4.055  24.534  -8.587
   76XTA    OA3 5966  -3.941  24.521  -8.670
   76XTA    CO4 5967  -3.833  24.472  -8.589
   76XTA    CT1 5968  -3.702  24.482  -8.676
   76XTA    CL5 5969  -3.644  24.616  -8.647
   76XTA    CL6 5970  -3.731  24.737  -8.698
   76XTA    OA4 5971  -4.059  25.253  -7.780
   76XTA    CO5 5972  -3.989  25.374  -7.784
   76XTA    HL1 5973  -4.034  25.451  -7.849
   76XTA    HL2 5974  -3.649  24.326  -8.187
   76XTA    HL3 5975  -3.765  24.413  -8.077
   76XTA    HL4 5976  -3.820  24.314  -8.211
   76XTA    HL5 5977  -4.502  24.750  -8.480
   76XTA    HL6 5978  -4.615  24.819  -8.593
   76XTA    HL7 5979  -4.346  24.798  -8.714
   76XTA    HL8 5980  -4.507  24.768  -8.783
   76XTA    HL9 5981  -4.424  24.537  -8.766
   76XTA   HL10 5982  -4.519  24.563  -8.628
   76XTA   HL11 5983  -4.291  24.590  -8.496
   76XTA   HL12 5984  -4.303  24.441  -8.585
   76XTA   HL13 5985  -4.155  24.698  -8.675
   76XTA   HL14 5986  -4.182  24.539  -8.766
   76XTA   HL15 5987  -4.031  24.596  -8.501
   76XTA   HL16 5988  -4.084  24.438  -8.551
   76XTA   HL17 5989  -3.811  24.535  -8.503
   76XTA   HL18 5990  -3.850  24.369  -8.554
   76XTA   HL19 5991  -3.545  24.621  -8.697
   76XTA   HL20 5992  -3.630  24.636  -8.540
   76XTA   HL21 5993  -3.788  24.716  -8.790
   76XTA   HL22 5994  -3.667  24.821  -8.717
   76XTA   HL23 5995  -3.803  24.767  -8.620
   76XTA   HL24 5996  -3.887  25.366  -7.806
   76XTA   HL25 5997  -4.001  25.409  -7.691
   76XTA    CO6 5998  -3.723  24.449  -8.813
   76XTA    CO7 5999  -3.607  24.367  -8.667
   76XTA    OA5 6000  -3.646  24.362  -8.811
   76XTA   HL26 6001  -3.705  24.535  -8.881
   76XTA   HL27 6002  -3.827  24.407  -8.824
   76XTA   HL28 6003  -3.639  24.271  -8.562
   76XTA   HL29 6004  -3.504  24.401  -8.651
   77XTA     NT 6005  -6.698  30.222 -10.743
   77XTA    CN1 6006  -6.750  30.291 -10.848
   77XTA     C1 6007  -6.868  30.246 -10.925
   77XTA     C2 6008  -6.913  30.323 -11.026
   77XTA     C3 6009  -6.860  30.450 -11.059
   77XTA     C4 6010  -6.745  30.496 -10.990
   77XTA     C5 6011  -6.691  30.416 -10.889
   77XTA    CN2 6012  -6.746  30.258 -10.620
   77XTA     C6 6013  -6.847  30.174 -10.563
   77XTA     C7 6014  -6.902  30.209 -10.438
   77XTA     C8 6015  -6.872  30.330 -10.374
   77XTA     C9 6016  -6.780  30.415 -10.431
   77XTA    C10 6017  -6.718  30.379 -10.555
   77XTA    CN3 6018  -6.602  30.120 -10.754
   77XTA    C11 6019  -6.489  30.137 -10.671
   77XTA    C12 6020  -6.398  30.035 -10.658
   77XTA    C13 6021  -6.415  29.922 -10.736
   77XTA    C14 6022  -6.524  29.902 -10.812
   77XTA    C15 6023  -6.623  30.001 -10.821
   77XTA     H1 6024  -6.928  30.157 -10.909
   77XTA     H2 6025  -7.000  30.291 -11.077
   77XTA     H3 6026  -6.689  30.583 -11.020
   77XTA     H4 6027  -6.596  30.440 -10.845
   77XTA     H5 6028  -6.878  30.081 -10.599
   77XTA     H6 6029  -6.967  30.141 -10.387
   77XTA     H7 6030  -6.749  30.507 -10.386
   77XTA     H8 6031  -6.656  30.449 -10.612
   77XTA     H9 6032  -6.481  30.233 -10.619
   77XTA    H10 6033  -6.315  30.055 -10.597
   77XTA    H11 6034  -6.539  29.811 -10.874
   77XTA    H12 6035  -6.718  30.000 -10.879
   77XTA    OA1 6036  -6.913  30.524 -11.168
   77XTA    CO1 6037  -6.895  30.661 -11.158
   77XTA    OA2 6038  -6.920  30.347 -10.245
   77XTA    CO2 6039  -6.871  30.461 -10.169
   77XTA    CL1 6040  -6.784  30.396 -10.058
   77XTA    CL2 6041  -6.656  30.338 -10.116
   77XTA    CL3 6042  -6.557  30.456 -10.154
   77XTA    CL4 6043  -6.455  30.419 -10.261
   77XTA    CO3 6044  -6.363  30.524 -10.303
   77XTA    OA3 6045  -6.271  30.473 -10.397
   77XTA    CO4 6046  -6.223  30.572 -10.480
   77XTA    CT1 6047  -6.131  30.506 -10.592
   77XTA    CL5 6048  -6.195  30.381 -10.660
   77XTA    CL6 6049  -6.123  30.326 -10.783
   77XTA    OA4 6050  -6.323  29.823 -10.742
   77XTA    CO5 6051  -6.233  29.822 -10.629
   77XTA    HL1 6052  -6.164  29.900 -10.618
   77XTA    HL2 6053  -6.793  30.694 -11.153
   77XTA    HL3 6054  -6.938  30.716 -11.246
   77XTA    HL4 6055  -6.942  30.688 -11.075
   77XTA    HL5 6056  -6.830  30.543 -10.230
   77XTA    HL6 6057  -6.951  30.496 -10.105
   77XTA    HL7 6058  -6.835  30.314  -9.999
   77XTA    HL8 6059  -6.767  30.458  -9.973
   77XTA    HL9 6060  -6.692  30.278 -10.203
   77XTA   HL10 6061  -6.610  30.269 -10.050
   77XTA   HL11 6062  -6.618  30.541 -10.179
   77XTA   HL12 6063  -6.504  30.481 -10.066
   77XTA   HL13 6064  -6.506  30.373 -10.346
   77XTA   HL14 6065  -6.382  30.347 -10.229
   77XTA   HL15 6066  -6.421  30.605 -10.342
   77XTA   HL16 6067  -6.314  30.561 -10.215
   77XTA   HL17 6068  -6.303  30.620 -10.528
   77XTA   HL18 6069  -6.166  30.643 -10.416
   77XTA   HL19 6070  -6.290  30.403 -10.676
   77XTA   HL20 6071  -6.198  30.298 -10.585
   77XTA   HL21 6072  -6.173  30.232 -10.814
   77XTA   HL22 6073  -6.015  30.309 -10.762
   77XTA   HL23 6074  -6.128  30.402 -10.865
   77XTA   HL24 6075  -6.181  29.731 -10.628
   77XTA   HL25 6076  -6.295  29.814 -10.538
   77XTA    CO6 6077  -5.982  30.485 -10.535
   77XTA    CO7 6078  -6.132  30.629 -10.688
   77XTA    OA5 6079  -5.885  30.461 -10.637
   77XTA   HL26 6080  -5.976  30.401 -10.465
   77XTA   HL27 6081  -5.953  30.573 -10.485
   77XTA   HL28 6082  -6.227  30.639 -10.727
   77XTA   HL29 6083  -6.072  30.611 -10.772
   78XTA     NT 6084  -7.755  22.922 -11.036
   78XTA    CN1 6085  -7.716  22.801 -11.080
   78XTA     C1 6086  -7.674  22.783 -11.212
   78XTA     C2 6087  -7.631  22.660 -11.261
   78XTA     C3 6088  -7.612  22.555 -11.171
   78XTA     C4 6089  -7.651  22.577 -11.037
   78XTA     C5 6090  -7.707  22.693 -10.990
   78XTA    CN2 6091  -7.859  22.987 -11.102
   78XTA     C6 6092  -7.863  23.131 -11.107
   78XTA     C7 6093  -7.976  23.199 -11.153
   78XTA     C8 6094  -8.086  23.125 -11.203
   78XTA     C9 6095  -8.076  22.984 -11.204
   78XTA    C10 6096  -7.959  22.915 -11.154
   78XTA    CN3 6097  -7.690  22.985 -10.934
   78XTA    C11 6098  -7.738  22.972 -10.801
   78XTA    C12 6099  -7.675  23.035 -10.691
   78XTA    C13 6100  -7.571  23.128 -10.716
   78XTA    C14 6101  -7.523  23.138 -10.847
   78XTA    C15 6102  -7.582  23.074 -10.957
   78XTA     H1 6103  -7.692  22.858 -11.277
   78XTA     H2 6104  -7.608  22.651 -11.368
   78XTA     H3 6105  -7.635  22.500 -10.965
   78XTA     H4 6106  -7.721  22.706 -10.886
   78XTA     H5 6107  -7.790  23.189 -11.058
   78XTA     H6 6108  -7.978  23.299 -11.151
   78XTA     H7 6109  -8.155  22.919 -11.241
   78XTA     H8 6110  -7.956  22.807 -11.143
   78XTA     H9 6111  -7.838  22.917 -10.788
   78XTA    H10 6112  -7.721  23.012 -10.592
   78XTA    H11 6113  -7.441  23.199 -10.860
   78XTA    H12 6114  -7.542  23.100 -11.046
   78XTA    OA1 6115  -7.577  22.427 -11.204
   78XTA    CO1 6116  -7.542  22.412 -11.343
   78XTA    OA2 6117  -8.190  23.197 -11.248
   78XTA    CO2 6118  -8.314  23.131 -11.258
   78XTA    CL1 6119  -8.403  23.231 -11.334
   78XTA    CL2 6120  -8.543  23.172 -11.348
   78XTA    CL3 6121  -8.637  23.255 -11.432
   78XTA    CL4 6122  -8.707  23.373 -11.357
   78XTA    CO3 6123  -8.809  23.445 -11.455
   78XTA    OA3 6124  -8.867  23.557 -11.398
   78XTA    CO4 6125  -8.944  23.533 -11.282
   78XTA    CT1 6126  -9.050  23.643 -11.260
   78XTA    CL5 6127  -9.105  23.642 -11.115
   78XTA    CL6 6128  -9.227  23.732 -11.093
   78XTA    OA4 6129  -7.508  23.212 -10.621
   78XTA    CO5 6130  -7.589  23.249 -10.514
   78XTA    HL1 6131  -7.640  23.341 -10.545
   78XTA    HL2 6132  -7.438  22.432 -11.371
   78XTA    HL3 6133  -7.570  22.309 -11.368
   78XTA    HL4 6134  -7.596  22.471 -11.416
   78XTA    HL5 6135  -8.312  23.041 -11.303
   78XTA    HL6 6136  -8.341  23.108 -11.156
   78XTA    HL7 6137  -8.346  23.243 -11.432
   78XTA    HL8 6138  -8.403  23.332 -11.287
   78XTA    HL9 6139  -8.582  23.156 -11.244
   78XTA   HL10 6140  -8.537  23.083 -11.395
   78XTA   HL11 6141  -8.596  23.275 -11.526
   78XTA   HL12 6142  -8.713  23.182 -11.454
   78XTA   HL13 6143  -8.630  23.439 -11.326
   78XTA   HL14 6144  -8.756  23.336 -11.266
   78XTA   HL15 6145  -8.763  23.484 -11.542
   78XTA   HL16 6146  -8.882  23.375 -11.494
   78XTA   HL17 6147  -9.004  23.436 -11.290
   78XTA   HL18 6148  -8.884  23.518 -11.192
   78XTA   HL19 6149  -9.026  23.679 -11.053
   78XTA   HL20 6150  -9.125  23.542 -11.091
   78XTA   HL21 6151  -9.212  23.839 -11.103
   78XTA   HL22 6152  -9.253  23.725 -10.989
   78XTA   HL23 6153  -9.320  23.701 -11.142
   78XTA   HL24 6154  -7.523  23.281 -10.433
   78XTA   HL25 6155  -7.657  23.171 -10.473
   78XTA    CO6 6156  -9.169  23.635 -11.372
   78XTA    CO7 6157  -8.991  23.781 -11.281
   78XTA    OA5 6158  -9.205  23.533 -11.368
   78XTA   HL26 6159  -9.123  23.662 -11.470
   78XTA   HL27 6160  -9.242  23.712 -11.350
   78XTA   HL28 6161  -9.105  23.867 -11.292
   78XTA   HL29 6162  -8.945  23.774 -11.381
   79XTA     NT 6163  -3.523  29.589  -5.656
   79XTA    CN1 6164  -3.471  29.658  -5.553
   79XTA     C1 6165  -3.551  29.683  -5.441
   79XTA     C2 6166  -3.505  29.765  -5.337
   79XTA     C3 6167  -3.381  29.833  -5.344
   79XTA     C4 6168  -3.298  29.801  -5.460
   79XTA     C5 6169  -3.345  29.713  -5.563
   79XTA    CN2 6170  -3.558  29.651  -5.763
   79XTA     C6 6171  -3.464  29.701  -5.855
   79XTA     C7 6172  -3.500  29.777  -5.967
   79XTA     C8 6173  -3.636  29.822  -5.984
   79XTA     C9 6174  -3.728  29.775  -5.889
   79XTA    C10 6175  -3.690  29.692  -5.782
   79XTA    CN3 6176  -3.529  29.455  -5.639
   79XTA    C11 6177  -3.645  29.395  -5.591
   79XTA    C12 6178  -3.658  29.256  -5.579
   79XTA    C13 6179  -3.547  29.175  -5.617
   79XTA    C14 6180  -3.436  29.236  -5.669
   79XTA    C15 6181  -3.425  29.374  -5.682
   79XTA     H1 6182  -3.653  29.653  -5.431
   79XTA     H2 6183  -3.571  29.784  -5.255
   79XTA     H3 6184  -3.195  29.838  -5.465
   79XTA     H4 6185  -3.274  29.695  -5.642
   79XTA     H5 6186  -3.364  29.676  -5.833
   79XTA     H6 6187  -3.424  29.817  -6.041
   79XTA     H7 6188  -3.832  29.805  -5.904
   79XTA     H8 6189  -3.767  29.660  -5.711
   79XTA     H9 6190  -3.719  29.463  -5.547
   79XTA    H10 6191  -3.746  29.220  -5.527
   79XTA    H11 6192  -3.357  29.169  -5.703
   79XTA    H12 6193  -3.335  29.421  -5.728
   79XTA    OA1 6194  -3.330  29.907  -5.243
   79XTA    CO1 6195  -3.424  29.922  -5.134
   79XTA    OA2 6196  -3.684  29.893  -6.090
   79XTA    CO2 6197  -3.608  29.885  -6.217
   79XTA    CL1 6198  -3.643  29.758  -6.286
   79XTA    CL2 6199  -3.781  29.754  -6.348
   79XTA    CL3 6200  -3.897  29.728  -6.242
   79XTA    CL4 6201  -4.033  29.743  -6.316
   79XTA    CO3 6202  -4.147  29.743  -6.213
   79XTA    OA3 6203  -4.115  29.846  -6.127
   79XTA    CO4 6204  -4.213  29.913  -6.051
   79XTA    CT1 6205  -4.148  30.020  -5.953
   79XTA    CL5 6206  -4.078  29.934  -5.845
   79XTA    CL6 6207  -4.039  30.016  -5.714
   79XTA    OA4 6208  -3.544  29.039  -5.610
   79XTA    CO5 6209  -3.661  28.976  -5.553
   79XTA    HL1 6210  -3.646  28.868  -5.543
   79XTA    HL2 6211  -3.447  29.823  -5.087
   79XTA    HL3 6212  -3.362  29.984  -5.065
   79XTA    HL4 6213  -3.523  29.959  -5.164
   79XTA    HL5 6214  -3.649  29.968  -6.276
   79XTA    HL6 6215  -3.502  29.901  -6.194
   79XTA    HL7 6216  -3.633  29.669  -6.220
   79XTA    HL8 6217  -3.577  29.745  -6.368
   79XTA    HL9 6218  -3.778  29.683  -6.430
   79XTA   HL10 6219  -3.800  29.852  -6.387
   79XTA   HL11 6220  -3.886  29.633  -6.202
   79XTA   HL12 6221  -3.895  29.798  -6.155
   79XTA   HL13 6222  -4.033  29.656  -6.377
   79XTA   HL14 6223  -4.037  29.831  -6.374
   79XTA   HL15 6224  -4.246  29.748  -6.263
   79XTA   HL16 6225  -4.153  29.649  -6.155
   79XTA   HL17 6226  -4.285  29.961  -6.119
   79XTA   HL18 6227  -4.258  29.828  -5.993
   79XTA   HL19 6228  -3.990  29.903  -5.893
   79XTA   HL20 6229  -4.147  29.859  -5.812
   79XTA   HL21 6230  -3.998  30.114  -5.748
   79XTA   HL22 6231  -3.962  29.971  -5.645
   79XTA   HL23 6232  -4.123  30.027  -5.646
   79XTA   HL24 6233  -3.737  28.997  -5.623
   79XTA   HL25 6234  -3.680  29.009  -5.454
   79XTA    CO6 6235  -4.250  30.117  -5.904
   79XTA    CO7 6236  -4.033  30.105  -6.024
   79XTA    OA5 6237  -4.325  30.063  -5.847
   79XTA   HL26 6238  -4.293  30.175  -5.980
   79XTA   HL27 6239  -4.212  30.197  -5.841
   79XTA   HL28 6240  -3.948  30.014  -6.089
   79XTA   HL29 6241  -4.083  30.144  -6.111
   80XTA     NT 6242  -4.273  24.107  -7.532
   80XTA    CN1 6243  -4.148  24.122  -7.579
   80XTA     C1 6244  -4.105  24.096  -7.710
   80XTA     C2 6245  -3.967  24.118  -7.747
   80XTA     C3 6246  -3.868  24.155  -7.653
   80XTA     C4 6247  -3.916  24.189  -7.519
   80XTA     C5 6248  -4.055  24.182  -7.494
   80XTA    CN2 6249  -4.306  23.990  -7.469
   80XTA     C6 6250  -4.387  23.897  -7.534
   80XTA     C7 6251  -4.423  23.778  -7.466
   80XTA     C8 6252  -4.383  23.755  -7.334
   80XTA     C9 6253  -4.298  23.848  -7.275
   80XTA    C10 6254  -4.270  23.976  -7.335
   80XTA    CN3 6255  -4.361  24.203  -7.551
   80XTA    C11 6256  -4.416  24.223  -7.679
   80XTA    C12 6257  -4.498  24.334  -7.704
   80XTA    C13 6258  -4.532  24.425  -7.602
   80XTA    C14 6259  -4.472  24.409  -7.472
   80XTA    C15 6260  -4.385  24.298  -7.444
   80XTA     H1 6261  -4.165  24.050  -7.785
   80XTA     H2 6262  -3.937  24.086  -7.847
   80XTA     H3 6263  -3.854  24.212  -7.439
   80XTA     H4 6264  -4.082  24.202  -7.393
   80XTA     H5 6265  -4.417  23.913  -7.636
   80XTA     H6 6266  -4.469  23.683  -7.508
   80XTA     H7 6267  -4.258  23.833  -7.177
   80XTA     H8 6268  -4.208  24.049  -7.286
   80XTA     H9 6269  -4.386  24.152  -7.759
   80XTA    H10 6270  -4.545  24.356  -7.800
   80XTA    H11 6271  -4.500  24.481  -7.397
   80XTA    H12 6272  -4.340  24.291  -7.345
   80XTA    OA1 6273  -3.738  24.173  -7.694
   80XTA    CO1 6274  -3.662  24.251  -7.602
   80XTA    OA2 6275  -4.427  23.637  -7.274
   80XTA    CO2 6276  -4.360  23.602  -7.150
   80XTA    CL1 6277  -4.414  23.471  -7.093
   80XTA    CL2 6278  -4.396  23.349  -7.182
   80XTA    CL3 6279  -4.454  23.219  -7.123
   80XTA    CL4 6280  -4.421  23.099  -7.208
   80XTA    CO3 6281  -4.455  22.968  -7.134
   80XTA    OA3 6282  -4.590  22.958  -7.101
   80XTA    CO4 6283  -4.619  22.840  -7.032
   80XTA    CT1 6284  -4.751  22.848  -6.957
   80XTA    CL5 6285  -4.866  22.892  -7.043
   80XTA    CL6 6286  -4.896  22.806  -7.168
   80XTA    OA4 6287  -4.605  24.535  -7.609
   80XTA    CO5 6288  -4.661  24.578  -7.737
   80XTA    HL1 6289  -4.740  24.651  -7.705
   80XTA    HL2 6290  -3.557  24.258  -7.643
   80XTA    HL3 6291  -3.701  24.357  -7.604
   80XTA    HL4 6292  -3.653  24.211  -7.496
   80XTA    HL5 6293  -4.254  23.585  -7.158
   80XTA    HL6 6294  -4.371  23.679  -7.071
   80XTA    HL7 6295  -4.526  23.473  -7.077
   80XTA    HL8 6296  -4.382  23.458  -6.996
   80XTA    HL9 6297  -4.286  23.325  -7.197
   80XTA   HL10 6298  -4.433  23.377  -7.281
   80XTA   HL11 6299  -4.406  23.187  -7.028
   80XTA   HL12 6300  -4.562  23.220  -7.099
   80XTA   HL13 6301  -4.317  23.099  -7.231
   80XTA   HL14 6302  -4.461  23.098  -7.312
   80XTA   HL15 6303  -4.428  22.890  -7.201
   80XTA   HL16 6304  -4.390  22.954  -7.045
   80XTA   HL17 6305  -4.614  22.760  -7.098
   80XTA   HL18 6306  -4.533  22.833  -6.961
   80XTA   HL19 6307  -4.856  23.001  -7.074
   80XTA   HL20 6308  -4.949  22.892  -6.974
   80XTA   HL21 6309  -4.981  22.857  -7.220
   80XTA   HL22 6310  -4.918  22.701  -7.149
   80XTA   HL23 6311  -4.809  22.812  -7.233
   80XTA   HL24 6312  -4.714  24.510  -7.797
   80XTA   HL25 6313  -4.586  24.636  -7.792
   80XTA    CO6 6314  -4.726  22.954  -6.852
   80XTA    CO7 6315  -4.763  22.713  -6.874
   80XTA    OA5 6316  -4.837  22.969  -6.766
   80XTA   HL26 6317  -4.695  23.046  -6.898
   80XTA   HL27 6318  -4.643  22.930  -6.787
   80XTA   HL28 6319  -4.786  22.640  -6.950
   80XTA   HL29 6320  -4.665  22.682  -6.855
   81XTA     NT 6321  -6.769  24.535 -12.277
   81XTA    CN1 6322  -6.675  24.602 -12.211
   81XTA     C1 6323  -6.550  24.544 -12.191
   81XTA     C2 6324  -6.449  24.604 -12.114
   81XTA     C3 6325  -6.463  24.733 -12.064
   81XTA     C4 6326  -6.596  24.783 -12.068
   81XTA     C5 6327  -6.699  24.725 -12.148
   81XTA    CN2 6328  -6.854  24.443 -12.222
   81XTA     C6 6329  -6.894  24.460 -12.088
   81XTA     C7 6330  -6.978  24.370 -12.025
   81XTA     C8 6331  -7.032  24.257 -12.095
   81XTA     C9 6332  -7.005  24.246 -12.235
   81XTA    C10 6333  -6.913  24.336 -12.295
   81XTA    CN3 6334  -6.820  24.590 -12.390
   81XTA    C11 6335  -6.945  24.662 -12.387
   81XTA    C12 6336  -6.995  24.718 -12.506
   81XTA    C13 6337  -6.924  24.697 -12.630
   81XTA    C14 6338  -6.798  24.630 -12.632
   81XTA    C15 6339  -6.746  24.580 -12.511
   81XTA     H1 6340  -6.539  24.442 -12.226
   81XTA     H2 6341  -6.348  24.558 -12.098
   81XTA     H3 6342  -6.616  24.874 -12.022
   81XTA     H4 6343  -6.797  24.777 -12.156
   81XTA     H5 6344  -6.851  24.536 -12.024
   81XTA     H6 6345  -7.003  24.396 -11.920
   81XTA     H7 6346  -7.044  24.161 -12.283
   81XTA     H8 6347  -6.886  24.325 -12.400
   81XTA     H9 6348  -7.005  24.660 -12.292
   81XTA    H10 6349  -7.090  24.770 -12.504
   81XTA    H11 6350  -6.735  24.628 -12.723
   81XTA    H12 6351  -6.653  24.528 -12.520
   81XTA    OA1 6352  -6.369  24.803 -11.992
   81XTA    CO1 6353  -6.231  24.764 -12.009
   81XTA    OA2 6354  -7.095  24.151 -12.027
   81XTA    CO2 6355  -7.129  24.027 -12.105
   81XTA    CL1 6356  -7.221  23.930 -12.027
   81XTA    CL2 6357  -7.339  24.010 -11.984
   81XTA    CL3 6358  -7.431  24.080 -12.091
   81XTA    CL4 6359  -7.483  23.997 -12.200
   81XTA    CO3 6360  -7.444  24.044 -12.341
   81XTA    OA3 6361  -7.520  23.968 -12.435
   81XTA    CO4 6362  -7.459  23.980 -12.566
   81XTA    CT1 6363  -7.521  23.870 -12.659
   81XTA    CL5 6364  -7.553  23.740 -12.581
   81XTA    CL6 6365  -7.426  23.681 -12.504
   81XTA    OA4 6366  -6.975  24.766 -12.743
   81XTA    CO5 6367  -6.894  24.759 -12.861
   81XTA    HL1 6368  -6.805  24.812 -12.838
   81XTA    HL2 6369  -6.175  24.821 -11.941
   81XTA    HL3 6370  -6.216  24.656 -11.994
   81XTA    HL4 6371  -6.181  24.788 -12.104
   81XTA    HL5 6372  -7.192  24.054 -12.194
   81XTA    HL6 6373  -7.053  23.971 -12.149
   81XTA    HL7 6374  -7.164  23.877 -11.950
   81XTA    HL8 6375  -7.248  23.848 -12.101
   81XTA    HL9 6376  -7.305  24.083 -11.912
   81XTA   HL10 6377  -7.398  23.941 -11.923
   81XTA   HL11 6378  -7.517  24.123 -12.050
   81XTA   HL12 6379  -7.382  24.170 -12.128
   81XTA   HL13 6380  -7.593  23.982 -12.203
   81XTA   HL14 6381  -7.454  23.894 -12.189
   81XTA   HL15 6382  -7.453  24.153 -12.338
   81XTA   HL16 6383  -7.338  24.030 -12.365
   81XTA   HL17 6384  -7.480  24.077 -12.602
   81XTA   HL18 6385  -7.351  23.951 -12.553
   81XTA   HL19 6386  -7.595  23.663 -12.643
   81XTA   HL20 6387  -7.622  23.778 -12.506
   81XTA   HL21 6388  -7.391  23.752 -12.428
   81XTA   HL22 6389  -7.352  23.665 -12.576
   81XTA   HL23 6390  -7.449  23.588 -12.453
   81XTA   HL24 6391  -6.933  24.829 -12.940
   81XTA   HL25 6392  -6.874  24.660 -12.904
   81XTA    CO6 6393  -7.432  23.857 -12.781
   81XTA    CO7 6394  -7.656  23.930 -12.700
   81XTA    OA5 6395  -7.748  23.826 -12.726
   81XTA   HL26 6396  -7.456  23.937 -12.843
   81XTA   HL27 6397  -7.467  23.774 -12.844
   81XTA   HL28 6398  -7.651  24.002 -12.784
   81XTA   HL29 6399  -7.696  23.995 -12.619
   82XTA     NT 6400  -6.361  29.376  -8.029
   82XTA    CN1 6401  -6.275  29.476  -8.023
   82XTA     C1 6402  -6.250  29.547  -7.903
   82XTA     C2 6403  -6.142  29.641  -7.900
   82XTA     C3 6404  -6.053  29.662  -8.007
   82XTA     C4 6405  -6.090  29.602  -8.127
   82XTA     C5 6406  -6.194  29.508  -8.137
   82XTA    CN2 6407  -6.315  29.247  -8.025
   82XTA     C6 6408  -6.289  29.176  -8.142
   82XTA     C7 6409  -6.260  29.040  -8.132
   82XTA     C8 6410  -6.277  28.975  -8.002
   82XTA     C9 6411  -6.303  29.050  -7.883
   82XTA    C10 6412  -6.317  29.188  -7.898
   82XTA    CN3 6413  -6.498  29.392  -8.051
   82XTA    C11 6414  -6.549  29.431  -8.178
   82XTA    C12 6415  -6.690  29.450  -8.198
   82XTA    C13 6416  -6.776  29.418  -8.093
   82XTA    C14 6417  -6.723  29.372  -7.971
   82XTA    C15 6418  -6.588  29.352  -7.954
   82XTA     H1 6419  -6.312  29.519  -7.812
   82XTA     H2 6420  -6.116  29.687  -7.810
   82XTA     H3 6421  -6.023  29.612  -8.215
   82XTA     H4 6422  -6.187  29.450  -8.228
   82XTA     H5 6423  -6.282  29.219  -8.238
   82XTA     H6 6424  -6.233  28.981  -8.214
   82XTA     H7 6425  -6.311  29.003  -7.785
   82XTA     H8 6426  -6.344  29.250  -7.814
   82XTA     H9 6427  -6.484  29.455  -8.263
   82XTA    H10 6428  -6.718  29.467  -8.306
   82XTA    H11 6429  -6.793  29.350  -7.887
   82XTA    H12 6430  -6.550  29.303  -7.863
   82XTA    OA1 6431  -5.943  29.742  -7.988
   82XTA    CO1 6432  -5.880  29.802  -8.101
   82XTA    OA2 6433  -6.252  28.836  -7.999
   82XTA    CO2 6434  -6.186  28.783  -7.886
   82XTA    CL1 6435  -6.173  28.639  -7.918
   82XTA    CL2 6436  -6.317  28.566  -7.924
   82XTA    CL3 6437  -6.303  28.422  -7.965
   82XTA    CL4 6438  -6.442  28.363  -7.969
   82XTA    CO3 6439  -6.483  28.306  -7.831
   82XTA    OA3 6440  -6.520  28.415  -7.753
   82XTA    CO4 6441  -6.557  28.386  -7.618
   82XTA    CT1 6442  -6.600  28.519  -7.557
   82XTA    CL5 6443  -6.641  28.495  -7.415
   82XTA    CL6 6444  -6.758  28.398  -7.396
   82XTA    OA4 6445  -6.914  29.412  -8.104
   82XTA    CO5 6446  -6.977  29.431  -8.230
   82XTA    HL1 6447  -6.947  29.531  -8.275
   82XTA    HL2 6448  -5.955  29.840  -8.183
   82XTA    HL3 6449  -5.831  29.884  -8.052
   82XTA    HL4 6450  -5.816  29.727  -8.149
   82XTA    HL5 6451  -6.092  28.829  -7.881
   82XTA    HL6 6452  -6.244  28.798  -7.794
   82XTA    HL7 6453  -6.105  28.593  -7.843
   82XTA    HL8 6454  -6.117  28.629  -8.014
   82XTA    HL9 6455  -6.376  28.620  -7.990
   82XTA   HL10 6456  -6.361  28.577  -7.826
   82XTA   HL11 6457  -6.238  28.413  -8.052
   82XTA   HL12 6458  -6.250  28.370  -7.883
   82XTA   HL13 6459  -6.436  28.279  -8.043
   82XTA   HL14 6460  -6.519  28.435  -8.002
   82XTA   HL15 6461  -6.573  28.244  -7.841
   82XTA   HL16 6462  -6.405  28.256  -7.773
   82XTA   HL17 6463  -6.640  28.325  -7.619
   82XTA   HL18 6464  -6.478  28.334  -7.558
   82XTA   HL19 6465  -6.652  28.585  -7.360
   82XTA   HL20 6466  -6.551  28.462  -7.360
   82XTA   HL21 6467  -6.727  28.302  -7.434
   82XTA   HL22 6468  -6.852  28.425  -7.442
   82XTA   HL23 6469  -6.776  28.390  -7.286
   82XTA   HL24 6470  -7.089  29.424  -8.202
   82XTA   HL25 6471  -6.956  29.343  -8.292
   82XTA    CO6 6472  -6.709  28.588  -7.643
   82XTA    CO7 6473  -6.475  28.611  -7.557
   82XTA    OA5 6474  -6.385  28.574  -7.499
   82XTA   HL26 6475  -6.801  28.568  -7.585
   82XTA   HL27 6476  -6.736  28.508  -7.759
   82XTA   HL28 6477  -6.503  28.709  -7.520
   82XTA   HL29 6478  -6.456  28.632  -7.662
   83XTA     NT 6479  -6.089  28.817  -6.361
   83XTA    CN1 6480  -6.144  28.691  -6.373
   83XTA     C1 6481  -6.222  28.644  -6.482
   83XTA     C2 6482  -6.265  28.514  -6.482
   83XTA     C3 6483  -6.233  28.427  -6.378
   83XTA     C4 6484  -6.149  28.470  -6.275
   83XTA     C5 6485  -6.105  28.603  -6.267
   83XTA    CN2 6486  -5.988  28.842  -6.445
   83XTA     C6 6487  -6.008  28.931  -6.549
   83XTA     C7 6488  -5.896  28.964  -6.630
   83XTA     C8 6489  -5.768  28.915  -6.606
   83XTA     C9 6490  -5.757  28.809  -6.506
   83XTA    C10 6491  -5.863  28.782  -6.420
   83XTA    CN3 6492  -6.104  28.895  -6.249
   83XTA    C11 6493  -6.233  28.917  -6.212
   83XTA    C12 6494  -6.265  28.998  -6.107
   83XTA    C13 6495  -6.162  29.039  -6.024
   83XTA    C14 6496  -6.029  29.020  -6.057
   83XTA    C15 6497  -5.993  28.950  -6.179
   83XTA     H1 6498  -6.244  28.709  -6.564
   83XTA     H2 6499  -6.327  28.478  -6.567
   83XTA     H3 6500  -6.125  28.393  -6.206
   83XTA     H4 6501  -6.040  28.628  -6.196
   83XTA     H5 6502  -6.104  28.963  -6.574
   83XTA     H6 6503  -5.909  29.022  -6.718
   83XTA     H7 6504  -5.659  28.771  -6.488
   83XTA     H8 6505  -5.848  28.733  -6.330
   83XTA     H9 6506  -6.322  28.880  -6.268
   83XTA    H10 6507  -6.368  29.015  -6.091
   83XTA    H11 6508  -5.957  29.058  -5.989
   83XTA    H12 6509  -5.889  28.931  -6.215
   83XTA    OA1 6510  -6.282  28.300  -6.381
   83XTA    CO1 6511  -6.217  28.205  -6.304
   83XTA    OA2 6512  -5.653  28.943  -6.676
   83XTA    CO2 6513  -5.645  29.060  -6.752
   83XTA    CL1 6514  -5.523  29.044  -6.845
   83XTA    CL2 6515  -5.493  29.170  -6.931
   83XTA    CL3 6516  -5.456  29.291  -6.856
   83XTA    CL4 6517  -5.417  29.406  -6.941
   83XTA    CO3 6518  -5.365  29.519  -6.853
   83XTA    OA3 6519  -5.303  29.611  -6.931
   83XTA    CO4 6520  -5.231  29.704  -6.852
   83XTA    CT1 6521  -5.169  29.802  -6.952
   83XTA    CL5 6522  -5.276  29.834  -7.065
   83XTA    CL6 6523  -5.247  29.957  -7.155
   83XTA    OA4 6524  -6.171  29.120  -5.918
   83XTA    CO5 6525  -6.297  29.168  -5.874
   83XTA    HL1 6526  -6.282  29.255  -5.808
   83XTA    HL2 6527  -6.109  28.206  -6.312
   83XTA    HL3 6528  -6.242  28.208  -6.198
   83XTA    HL4 6529  -6.244  28.099  -6.335
   83XTA    HL5 6530  -5.734  29.078  -6.809
   83XTA    HL6 6531  -5.645  29.137  -6.682
   83XTA    HL7 6532  -5.538  28.959  -6.913
   83XTA    HL8 6533  -5.430  29.023  -6.790
   83XTA    HL9 6534  -5.578  29.187  -6.993
   83XTA   HL10 6535  -5.413  29.144  -6.996
   83XTA   HL11 6536  -5.539  29.330  -6.793
   83XTA   HL12 6537  -5.370  29.279  -6.789
   83XTA   HL13 6538  -5.498  29.435  -7.012
   83XTA   HL14 6539  -5.335  29.369  -7.005
   83XTA   HL15 6540  -5.457  29.562  -6.805
   83XTA   HL16 6541  -5.284  29.475  -6.794
   83XTA   HL17 6542  -5.302  29.762  -6.788
   83XTA   HL18 6543  -5.152  29.669  -6.789
   83XTA   HL19 6544  -5.378  29.838  -7.021
   83XTA   HL20 6545  -5.284  29.744  -7.130
   83XTA   HL21 6546  -5.270  30.049  -7.095
   83XTA   HL22 6547  -5.316  29.960  -7.237
   83XTA   HL23 6548  -5.148  29.961  -7.196
   83XTA   HL24 6549  -6.351  29.095  -5.822
   83XTA   HL25 6550  -6.348  29.211  -5.968
   83XTA    CO6 6551  -5.037  29.751  -7.012
   83XTA    CO7 6552  -5.134  29.938  -6.882
   83XTA    OA5 6553  -5.064  29.926  -6.795
   83XTA   HL26 6554  -5.016  29.812  -7.091
   83XTA   HL27 6555  -4.927  29.757  -6.916
   83XTA   HL28 6556  -5.222  29.988  -6.862
   83XTA   HL29 6557  -5.088  30.008  -6.959
   84XTA     NT 6558  -7.955  25.568  -7.675
   84XTA    CN1 6559  -7.879  25.628  -7.577
   84XTA     C1 6560  -7.789  25.563  -7.499
   84XTA     C2 6561  -7.723  25.629  -7.396
   84XTA     C3 6562  -7.730  25.770  -7.382
   84XTA     C4 6563  -7.818  25.843  -7.461
   84XTA     C5 6564  -7.898  25.770  -7.551
   84XTA    CN2 6565  -7.945  25.617  -7.801
   84XTA     C6 6566  -7.819  25.615  -7.863
   84XTA     C7 6567  -7.816  25.660  -7.998
   84XTA     C8 6568  -7.931  25.704  -8.069
   84XTA     C9 6569  -8.058  25.696  -8.004
   84XTA    C10 6570  -8.063  25.659  -7.865
   84XTA    CN3 6571  -8.003  25.445  -7.667
   84XTA    C11 6572  -7.934  25.345  -7.739
   84XTA    C12 6573  -7.977  25.214  -7.732
   84XTA    C13 6574  -8.077  25.173  -7.645
   84XTA    C14 6575  -8.146  25.271  -7.574
   84XTA    C15 6576  -8.112  25.410  -7.585
   84XTA     H1 6577  -7.758  25.457  -7.515
   84XTA     H2 6578  -7.652  25.580  -7.331
   84XTA     H3 6579  -7.827  25.945  -7.440
   84XTA     H4 6580  -7.971  25.820  -7.614
   84XTA     H5 6581  -7.734  25.566  -7.806
   84XTA     H6 6582  -7.719  25.671  -8.039
   84XTA     H7 6583  -8.156  25.719  -8.053
   84XTA     H8 6584  -8.158  25.662  -7.817
   84XTA     H9 6585  -7.855  25.381  -7.801
   84XTA    H10 6586  -7.940  25.129  -7.784
   84XTA    H11 6587  -8.215  25.242  -7.501
   84XTA    H12 6588  -8.150  25.485  -7.519
   84XTA    OA1 6589  -7.672  25.817  -7.268
   84XTA    CO1 6590  -7.611  25.945  -7.288
   84XTA    OA2 6591  -7.930  25.743  -8.202
   84XTA    CO2 6592  -7.810  25.815  -8.242
   84XTA    CL1 6593  -7.815  25.921  -8.351
   84XTA    CL2 6594  -7.689  25.936  -8.425
   84XTA    CL3 6595  -7.570  25.954  -8.331
   84XTA    CL4 6596  -7.583  26.084  -8.243
   84XTA    CO3 6597  -7.469  26.079  -8.134
   84XTA    OA3 6598  -7.437  26.207  -8.090
   84XTA    CO4 6599  -7.505  26.237  -7.969
   84XTA    CT1 6600  -7.473  26.376  -7.913
   84XTA    CL5 6601  -7.535  26.393  -7.770
   84XTA    CL6 6602  -7.690  26.374  -7.754
   84XTA    OA4 6603  -8.099  25.040  -7.619
   84XTA    CO5 6604  -8.200  24.979  -7.694
   84XTA    HL1 6605  -8.294  25.036  -7.689
   84XTA    HL2 6606  -7.536  25.949  -7.364
   84XTA    HL3 6607  -7.687  26.017  -7.317
   84XTA    HL4 6608  -7.587  25.976  -7.195
   84XTA    HL5 6609  -7.770  25.853  -8.151
   84XTA    HL6 6610  -7.743  25.736  -8.269
   84XTA    HL7 6611  -7.848  26.017  -8.318
   84XTA    HL8 6612  -7.886  25.897  -8.423
   84XTA    HL9 6613  -7.691  26.018  -8.497
   84XTA   HL10 6614  -7.678  25.841  -8.480
   84XTA   HL11 6615  -7.558  25.863  -8.272
   84XTA   HL12 6616  -7.480  25.967  -8.395
   84XTA   HL13 6617  -7.678  26.078  -8.190
   84XTA   HL14 6618  -7.590  26.178  -8.299
   84XTA   HL15 6619  -7.504  26.010  -8.060
   84XTA   HL16 6620  -7.379  26.041  -8.173
   84XTA   HL17 6621  -7.611  26.217  -7.988
   84XTA   HL18 6622  -7.464  26.160  -7.899
   84XTA   HL19 6623  -7.523  26.495  -7.746
   84XTA   HL20 6624  -7.476  26.337  -7.696
   84XTA   HL21 6625  -7.708  26.395  -7.647
   84XTA   HL22 6626  -7.734  26.283  -7.771
   84XTA   HL23 6627  -7.745  26.454  -7.804
   84XTA   HL24 6628  -8.216  24.880  -7.659
   84XTA   HL25 6629  -8.175  24.976  -7.800
   84XTA    CO6 6630  -7.519  26.492  -8.010
   84XTA    CO7 6631  -7.321  26.384  -7.901
   84XTA    OA5 6632  -7.625  26.469  -8.040
   84XTA   HL26 6633  -7.464  26.498  -8.102
   84XTA   HL27 6634  -7.508  26.591  -7.965
   84XTA   HL28 6635  -7.266  26.353  -8.024
   84XTA   HL29 6636  -7.291  26.485  -7.863
   85XTA     NT 6637  -3.672  25.550  -4.802
   85XTA    CN1 6638  -3.566  25.589  -4.730
   85XTA     C1 6639  -3.433  25.557  -4.773
   85XTA     C2 6640  -3.321  25.580  -4.686
   85XTA     C3 6641  -3.350  25.649  -4.565
   85XTA     C4 6642  -3.475  25.680  -4.519
   85XTA     C5 6643  -3.585  25.665  -4.610
   85XTA    CN2 6644  -3.750  25.638  -4.873
   85XTA     C6 6645  -3.694  25.700  -4.990
   85XTA     C7 6646  -3.760  25.793  -5.068
   85XTA     C8 6647  -3.891  25.834  -5.031
   85XTA     C9 6648  -3.949  25.772  -4.916
   85XTA    C10 6649  -3.885  25.670  -4.844
   85XTA    CN3 6650  -3.703  25.418  -4.807
   85XTA    C11 6651  -3.810  25.367  -4.730
   85XTA    C12 6652  -3.843  25.232  -4.744
   85XTA    C13 6653  -3.772  25.137  -4.818
   85XTA    C14 6654  -3.659  25.184  -4.888
   85XTA    C15 6655  -3.628  25.323  -4.887
   85XTA     H1 6656  -3.414  25.519  -4.873
   85XTA     H2 6657  -3.222  25.544  -4.713
   85XTA     H3 6658  -3.483  25.720  -4.414
   85XTA     H4 6659  -3.688  25.684  -4.591
   85XTA     H5 6660  -3.597  25.673  -5.025
   85XTA     H6 6661  -3.726  25.827  -5.163
   85XTA     H7 6662  -4.051  25.785  -4.887
   85XTA     H8 6663  -3.937  25.631  -4.757
   85XTA     H9 6664  -3.879  25.438  -4.680
   85XTA    H10 6665  -3.929  25.197  -4.687
   85XTA    H11 6666  -3.590  25.118  -4.941
   85XTA    H12 6667  -3.544  25.351  -4.947
   85XTA    OA1 6668  -3.249  25.678  -4.476
   85XTA    CO1 6669  -3.116  25.691  -4.525
   85XTA    OA2 6670  -3.972  25.927  -5.090
   85XTA    CO2 6671  -3.934  25.991  -5.212
   85XTA    CL1 6672  -4.032  26.103  -5.236
   85XTA    CL2 6673  -3.986  26.209  -5.337
   85XTA    CL3 6674  -3.935  26.153  -5.465
   85XTA    CL4 6675  -3.789  26.121  -5.492
   85XTA    CO3 6676  -3.764  26.069  -5.633
   85XTA    OA3 6677  -3.846  25.956  -5.645
   85XTA    CO4 6678  -3.852  25.899  -5.773
   85XTA    CT1 6679  -3.963  25.800  -5.764
   85XTA    CL5 6680  -4.091  25.872  -5.721
   85XTA    CL6 6681  -4.160  25.830  -5.587
   85XTA    OA4 6682  -3.801  25.002  -4.814
   85XTA    CO5 6683  -3.745  24.910  -4.908
   85XTA    HL1 6684  -3.639  24.903  -4.877
   85XTA    HL2 6685  -3.061  25.750  -4.451
   85XTA    HL3 6686  -3.069  25.595  -4.535
   85XTA    HL4 6687  -3.114  25.741  -4.622
   85XTA    HL5 6688  -3.830  26.017  -5.194
   85XTA    HL6 6689  -3.938  25.922  -5.293
   85XTA    HL7 6690  -4.071  26.148  -5.147
   85XTA    HL8 6691  -4.126  26.059  -5.269
   85XTA    HL9 6692  -3.901  26.264  -5.291
   85XTA   HL10 6693  -4.065  26.282  -5.363
   85XTA   HL11 6694  -3.998  26.066  -5.479
   85XTA   HL12 6695  -3.959  26.224  -5.555
   85XTA   HL13 6696  -3.749  26.033  -5.432
   85XTA   HL14 6697  -3.732  26.213  -5.472
   85XTA   HL15 6698  -3.797  26.155  -5.696
   85XTA   HL16 6699  -3.659  26.052  -5.645
   85XTA   HL17 6700  -3.876  25.982  -5.840
   85XTA   HL18 6701  -3.757  25.855  -5.814
   85XTA   HL19 6702  -4.176  25.871  -5.792
   85XTA   HL20 6703  -4.069  25.978  -5.719
   85XTA   HL21 6704  -4.173  25.719  -5.589
   85XTA   HL22 6705  -4.258  25.876  -5.584
   85XTA   HL23 6706  -4.107  25.855  -5.497
   85XTA   HL24 6707  -3.750  24.950  -5.010
   85XTA   HL25 6708  -3.798  24.811  -4.895
   85XTA    CO6 6709  -3.922  25.684  -5.669
   85XTA    CO7 6710  -3.982  25.741  -5.907
   85XTA    OA5 6711  -4.082  25.641  -5.898
   85XTA   HL26 6712  -3.916  25.733  -5.572
   85XTA   HL27 6713  -3.994  25.605  -5.676
   85XTA   HL28 6714  -3.882  25.711  -5.948
   85XTA   HL29 6715  -4.016  25.825  -5.967
   86XTA     NT 6716  -5.214  23.301  -5.190
   86XTA    CN1 6717  -5.116  23.227  -5.249
   86XTA     C1 6718  -5.138  23.156  -5.365
   86XTA     C2 6719  -5.033  23.096  -5.436
   86XTA     C3 6720  -4.906  23.108  -5.378
   86XTA     C4 6721  -4.885  23.181  -5.269
   86XTA     C5 6722  -4.988  23.234  -5.196
   86XTA    CN2 6723  -5.285  23.259  -5.085
   86XTA     C6 6724  -5.232  23.279  -4.959
   86XTA     C7 6725  -5.294  23.227  -4.841
   86XTA     C8 6726  -5.410  23.149  -4.857
   86XTA     C9 6727  -5.461  23.124  -4.988
   86XTA    C10 6728  -5.399  23.178  -5.099
   86XTA    CN3 6729  -5.250  23.417  -5.245
   86XTA    C11 6730  -5.371  23.418  -5.318
   86XTA    C12 6731  -5.402  23.543  -5.381
   86XTA    C13 6732  -5.321  23.656  -5.370
   86XTA    C14 6733  -5.200  23.650  -5.295
   86XTA    C15 6734  -5.168  23.531  -5.232
   86XTA     H1 6735  -5.233  23.152  -5.413
   86XTA     H2 6736  -5.048  23.044  -5.532
   86XTA     H3 6737  -4.787  23.189  -5.242
   86XTA     H4 6738  -4.963  23.303  -5.112
   86XTA     H5 6739  -5.134  23.321  -4.947
   86XTA     H6 6740  -5.243  23.236  -4.749
   86XTA     H7 6741  -5.553  23.069  -5.006
   86XTA     H8 6742  -5.442  23.153  -5.196
   86XTA     H9 6743  -5.441  23.334  -5.330
   86XTA    H10 6744  -5.491  23.556  -5.444
   86XTA    H11 6745  -5.138  23.741  -5.299
   86XTA    H12 6746  -5.083  23.522  -5.171
   86XTA    OA1 6747  -4.798  23.041  -5.439
   86XTA    CO1 6748  -4.813  23.003  -5.578
   86XTA    OA2 6749  -5.474  23.106  -4.748
   86XTA    CO2 6750  -5.567  23.007  -4.772
   86XTA    CL1 6751  -5.619  22.938  -4.648
   86XTA    CL2 6752  -5.506  22.877  -4.566
   86XTA    CL3 6753  -5.561  22.788  -4.456
   86XTA    CL4 6754  -5.700  22.828  -4.401
   86XTA    CO3 6755  -5.703  22.955  -4.320
   86XTA    OA3 6756  -5.763  22.920  -4.195
   86XTA    CO4 6757  -5.714  22.995  -4.084
   86XTA    CT1 6758  -5.628  22.913  -3.984
   86XTA    CL5 6759  -5.710  22.811  -3.906
   86XTA    CL6 6760  -5.647  22.718  -3.802
   86XTA    OA4 6761  -5.348  23.773  -5.434
   86XTA    CO5 6762  -5.475  23.785  -5.506
   86XTA    HL1 6763  -5.482  23.711  -5.586
   86XTA    HL2 6764  -4.719  22.946  -5.582
   86XTA    HL3 6765  -4.897  22.936  -5.595
   86XTA    HL4 6766  -4.822  23.086  -5.653
   86XTA    HL5 6767  -5.648  23.056  -4.829
   86XTA    HL6 6768  -5.528  22.923  -4.831
   86XTA    HL7 6769  -5.684  22.861  -4.683
   86XTA    HL8 6770  -5.678  23.015  -4.603
   86XTA    HL9 6771  -5.456  22.963  -4.519
   86XTA   HL10 6772  -5.439  22.813  -4.627
   86XTA   HL11 6773  -5.574  22.690  -4.500
   86XTA   HL12 6774  -5.502  22.798  -4.365
   86XTA   HL13 6775  -5.738  22.756  -4.329
   86XTA   HL14 6776  -5.773  22.835  -4.482
   86XTA   HL15 6777  -5.605  22.996  -4.310
   86XTA   HL16 6778  -5.769  23.041  -4.360
   86XTA   HL17 6779  -5.646  23.063  -4.138
   86XTA   HL18 6780  -5.785  23.060  -4.041
   86XTA   HL19 6781  -5.754  22.739  -3.980
   86XTA   HL20 6782  -5.797  22.864  -3.857
   86XTA   HL21 6783  -5.560  22.662  -3.831
   86XTA   HL22 6784  -5.721  22.650  -3.773
   86XTA   HL23 6785  -5.610  22.773  -3.712
   86XTA   HL24 6786  -5.481  23.888  -5.536
   86XTA   HL25 6787  -5.557  23.771  -5.439
   86XTA    CO6 6788  -5.558  23.012  -3.881
   86XTA    CO7 6789  -5.518  22.847  -4.071
   86XTA    OA5 6790  -5.405  22.799  -3.990
   86XTA   HL26 6791  -5.501  23.088  -3.937
   86XTA   HL27 6792  -5.472  22.966  -3.833
   86XTA   HL28 6793  -5.482  22.917  -4.142
   86XTA   HL29 6794  -5.566  22.767  -4.131
   87XTA     NT 6795  -4.940  28.682  -8.178
   87XTA    CN1 6796  -4.852  28.638  -8.275
   87XTA     C1 6797  -4.724  28.699  -8.289
   87XTA     C2 6798  -4.632  28.666  -8.387
   87XTA     C3 6799  -4.671  28.569  -8.479
   87XTA     C4 6800  -4.799  28.506  -8.469
   87XTA     C5 6801  -4.890  28.538  -8.365
   87XTA    CN2 6802  -5.052  28.740  -8.221
   87XTA     C6 6803  -5.165  28.663  -8.245
   87XTA     C7 6804  -5.276  28.716  -8.311
   87XTA     C8 6805  -5.286  28.857  -8.337
   87XTA     C9 6806  -5.175  28.939  -8.303
   87XTA    C10 6807  -5.057  28.877  -8.256
   87XTA    CN3 6808  -4.926  28.629  -8.054
   87XTA    C11 6809  -4.951  28.498  -8.019
   87XTA    C12 6810  -4.925  28.455  -7.887
   87XTA    C13 6811  -4.877  28.536  -7.788
   87XTA    C14 6812  -4.847  28.670  -7.824
   87XTA    C15 6813  -4.881  28.716  -7.953
   87XTA     H1 6814  -4.705  28.779  -8.214
   87XTA     H2 6815  -4.538  28.715  -8.386
   87XTA     H3 6816  -4.828  28.437  -8.545
   87XTA     H4 6817  -4.984  28.492  -8.352
   87XTA     H5 6818  -5.149  28.560  -8.217
   87XTA     H6 6819  -5.354  28.646  -8.338
   87XTA     H7 6820  -5.168  29.045  -8.313
   87XTA     H8 6821  -4.968  28.940  -8.234
   87XTA     H9 6822  -4.980  28.431  -8.095
   87XTA    H10 6823  -4.940  28.355  -7.871
   87XTA    H11 6824  -4.802  28.743  -7.761
   87XTA    H12 6825  -4.857  28.810  -7.984
   87XTA    OA1 6826  -4.584  28.528  -8.584
   87XTA    CO1 6827  -4.477  28.612  -8.605
   87XTA    OA2 6828  -5.395  28.904  -8.402
   87XTA    CO2 6829  -5.386  29.038  -8.467
   87XTA    CL1 6830  -5.504  29.060  -8.559
   87XTA    CL2 6831  -5.632  29.118  -8.491
   87XTA    CL3 6832  -5.744  29.117  -8.597
   87XTA    CL4 6833  -5.881  29.170  -8.545
   87XTA    CO3 6834  -5.944  29.093  -8.429
   87XTA    OA3 6835  -5.866  29.105  -8.312
   87XTA    CO4 6836  -5.927  29.050  -8.197
   87XTA    CT1 6837  -5.836  29.077  -8.076
   87XTA    CL5 6838  -5.810  29.221  -8.046
   87XTA    CL6 6839  -5.933  29.300  -8.003
   87XTA    OA4 6840  -4.844  28.485  -7.672
   87XTA    CO5 6841  -4.812  28.569  -7.563
   87XTA    HL1 6842  -4.721  28.627  -7.575
   87XTA    HL2 6843  -4.425  28.594  -8.699
   87XTA    HL3 6844  -4.509  28.718  -8.603
   87XTA    HL4 6845  -4.403  28.592  -8.523
   87XTA    HL5 6846  -5.369  29.113  -8.389
   87XTA    HL6 6847  -5.292  29.042  -8.525
   87XTA    HL7 6848  -5.522  28.966  -8.611
   87XTA    HL8 6849  -5.457  29.126  -8.632
   87XTA    HL9 6850  -5.611  29.219  -8.449
   87XTA   HL10 6851  -5.666  29.067  -8.404
   87XTA   HL11 6852  -5.708  29.169  -8.692
   87XTA   HL12 6853  -5.757  29.011  -8.606
   87XTA   HL13 6854  -5.943  29.164  -8.631
   87XTA   HL14 6855  -5.879  29.277  -8.510
   87XTA   HL15 6856  -6.048  29.126  -8.419
   87XTA   HL16 6857  -5.946  28.981  -8.452
   87XTA   HL17 6858  -6.027  29.094  -8.185
   87XTA   HL18 6859  -5.943  28.939  -8.205
   87XTA   HL19 6860  -5.777  29.274  -8.128
   87XTA   HL20 6861  -5.719  29.229  -7.986
   87XTA   HL21 6862  -6.016  29.281  -8.074
   87XTA   HL22 6863  -5.921  29.407  -8.034
   87XTA   HL23 6864  -5.957  29.313  -7.893
   87XTA   HL24 6865  -4.812  28.510  -7.473
   87XTA   HL25 6866  -4.903  28.634  -7.544
   87XTA    CO6 6867  -5.709  28.992  -8.088
   87XTA    CO7 6868  -5.908  29.012  -7.964
   87XTA    OA5 6869  -5.629  29.015  -8.017
   87XTA   HL26 6870  -5.665  29.024  -8.184
   87XTA   HL27 6871  -5.735  28.880  -8.102
   87XTA   HL28 6872  -5.897  28.871  -7.970
   87XTA   HL29 6873  -6.014  29.024  -7.969
   88XTA     NT 6874  -4.966  31.114  -8.392
   88XTA    CN1 6875  -4.848  31.178  -8.367
   88XTA     C1 6876  -4.755  31.223  -8.465
   88XTA     C2 6877  -4.629  31.277  -8.425
   88XTA     C3 6878  -4.609  31.302  -8.286
   88XTA     C4 6879  -4.703  31.259  -8.189
   88XTA     C5 6880  -4.824  31.202  -8.230
   88XTA    CN2 6881  -5.079  31.182  -8.397
   88XTA     C6 6882  -5.099  31.287  -8.489
   88XTA     C7 6883  -5.221  31.356  -8.501
   88XTA     C8 6884  -5.328  31.318  -8.423
   88XTA     C9 6885  -5.316  31.218  -8.326
   88XTA    C10 6886  -5.191  31.148  -8.307
   88XTA    CN3 6887  -4.979  30.984  -8.415
   88XTA    C11 6888  -5.004  30.931  -8.548
   88XTA    C12 6889  -5.017  30.792  -8.557
   88XTA    C13 6890  -5.020  30.717  -8.447
   88XTA    C14 6891  -4.986  30.767  -8.316
   88XTA    C15 6892  -4.971  30.903  -8.299
   88XTA     H1 6893  -4.791  31.219  -8.565
   88XTA     H2 6894  -4.550  31.300  -8.485
   88XTA     H3 6895  -4.691  31.282  -8.087
   88XTA     H4 6896  -4.904  31.188  -8.153
   88XTA     H5 6897  -5.027  31.308  -8.560
   88XTA     H6 6898  -5.219  31.439  -8.574
   88XTA     H7 6899  -5.393  31.197  -8.250
   88XTA     H8 6900  -5.178  31.075  -8.230
   88XTA     H9 6901  -4.991  31.001  -8.628
   88XTA    H10 6902  -5.031  30.744  -8.653
   88XTA    H11 6903  -4.982  30.697  -8.230
   88XTA    H12 6904  -4.958  30.952  -8.203
   88XTA    OA1 6905  -4.495  31.375  -8.251
   88XTA    CO1 6906  -4.468  31.426  -8.116
   88XTA    OA2 6907  -5.442  31.387  -8.450
   88XTA    CO2 6908  -5.558  31.320  -8.410
   88XTA    CL1 6909  -5.671  31.384  -8.499
   88XTA    CL2 6910  -5.666  31.324  -8.640
   88XTA    CL3 6911  -5.723  31.181  -8.646
   88XTA    CL4 6912  -5.751  31.111  -8.779
   88XTA    CO3 6913  -5.902  31.122  -8.816
   88XTA    OA3 6914  -5.915  31.088  -8.953
   88XTA    CO4 6915  -5.925  30.952  -8.980
   88XTA    CT1 6916  -5.946  30.912  -9.125
   88XTA    CL5 6917  -6.080  30.971  -9.183
   88XTA    CL6 6918  -6.129  30.909  -9.326
   88XTA    OA4 6919  -5.026  30.578  -8.471
   88XTA    CO5 6920  -5.162  30.536  -8.495
   88XTA    HL1 6921  -5.164  30.435  -8.538
   88XTA    HL2 6922  -4.466  31.349  -8.041
   88XTA    HL3 6923  -4.366  31.473  -8.106
   88XTA    HL4 6924  -4.530  31.514  -8.083
   88XTA    HL5 6925  -5.544  31.213  -8.424
   88XTA    HL6 6926  -5.575  31.339  -8.305
   88XTA    HL7 6927  -5.661  31.490  -8.502
   88XTA    HL8 6928  -5.768  31.369  -8.447
   88XTA    HL9 6929  -5.567  31.343  -8.682
   88XTA   HL10 6930  -5.732  31.380  -8.709
   88XTA   HL11 6931  -5.633  31.130  -8.608
   88XTA   HL12 6932  -5.800  31.171  -8.581
   88XTA   HL13 6933  -5.734  31.007  -8.773
   88XTA   HL14 6934  -5.700  31.154  -8.864
   88XTA   HL15 6935  -5.964  31.065  -8.754
   88XTA   HL16 6936  -5.939  31.221  -8.803
   88XTA   HL17 6937  -5.839  30.910  -8.936
   88XTA   HL18 6938  -6.012  30.912  -8.934
   88XTA   HL19 6939  -6.071  31.075  -9.208
   88XTA   HL20 6940  -6.156  30.971  -9.106
   88XTA   HL21 6941  -6.203  30.981  -9.375
   88XTA   HL22 6942  -6.175  30.808  -9.299
   88XTA   HL23 6943  -6.041  30.892  -9.394
   88XTA   HL24 6944  -5.208  30.595  -8.575
   88XTA   HL25 6945  -5.195  30.539  -8.395
   88XTA    CO6 6946  -5.965  30.762  -9.125
   88XTA    CO7 6947  -5.825  30.942  -9.212
   88XTA    OA5 6948  -5.813  31.049  -9.216
   88XTA   HL26 6949  -5.981  30.726  -9.228
   88XTA   HL27 6950  -6.085  30.736  -9.058
   88XTA   HL28 6951  -5.835  30.907  -9.305
   88XTA   HL29 6952  -5.730  30.898  -9.175
   89XTA     NT 6953  -6.103  29.594  -5.175
   89XTA    CN1 6954  -6.184  29.629  -5.070
   89XTA     C1 6955  -6.143  29.694  -4.959
   89XTA     C2 6956  -6.232  29.717  -4.851
   89XTA     C3 6957  -6.368  29.688  -4.849
   89XTA     C4 6958  -6.419  29.633  -4.970
   89XTA     C5 6959  -6.327  29.608  -5.077
   89XTA    CN2 6960  -6.085  29.461  -5.205
   89XTA     C6 6961  -6.149  29.405  -5.319
   89XTA     C7 6962  -6.134  29.270  -5.353
   89XTA     C8 6963  -6.053  29.192  -5.271
   89XTA     C9 6964  -5.979  29.247  -5.165
   89XTA    C10 6965  -6.007  29.377  -5.126
   89XTA    CN3 6966  -6.077  29.680  -5.278
   89XTA    C11 6967  -5.940  29.707  -5.308
   89XTA    C12 6968  -5.899  29.786  -5.422
   89XTA    C13 6969  -6.000  29.833  -5.510
   89XTA    C14 6970  -6.139  29.804  -5.483
   89XTA    C15 6971  -6.169  29.730  -5.365
   89XTA     H1 6972  -6.038  29.719  -4.958
   89XTA     H2 6973  -6.180  29.759  -4.760
   89XTA     H3 6974  -6.526  29.626  -4.977
   89XTA     H4 6975  -6.353  29.565  -5.171
   89XTA     H5 6976  -6.206  29.473  -5.382
   89XTA     H6 6977  -6.185  29.235  -5.436
   89XTA     H7 6978  -5.922  29.186  -5.099
   89XTA     H8 6979  -5.951  29.419  -5.041
   89XTA     H9 6980  -5.871  29.652  -5.244
   89XTA    H10 6981  -5.795  29.809  -5.434
   89XTA    H11 6982  -6.225  29.841  -5.536
   89XTA    H12 6983  -6.274  29.706  -5.338
   89XTA    OA1 6984  -6.445  29.697  -4.738
   89XTA    CO1 6985  -6.561  29.771  -4.753
   89XTA    OA2 6986  -6.054  29.055  -5.304
   89XTA    CO2 6987  -5.977  28.971  -5.219
   89XTA    CL1 6988  -6.005  28.841  -5.281
   89XTA    CL2 6989  -5.937  28.726  -5.201
   89XTA    CL3 6990  -6.022  28.696  -5.080
   89XTA    CL4 6991  -6.129  28.585  -5.091
   89XTA    CO3 6992  -6.218  28.576  -4.968
   89XTA    OA3 6993  -6.342  28.519  -4.988
   89XTA    CO4 6994  -6.418  28.521  -4.871
   89XTA    CT1 6995  -6.550  28.460  -4.898
   89XTA    CL5 6996  -6.622  28.533  -5.016
   89XTA    CL6 6997  -6.767  28.485  -5.042
   89XTA    OA4 6998  -5.963  29.917  -5.613
   89XTA    CO5 6999  -5.831  29.947  -5.631
   89XTA    HL1 7000  -5.824  30.003  -5.725
   89XTA    HL2 7001  -6.585  29.787  -4.863
   89XTA    HL3 7002  -6.640  29.732  -4.700
   89XTA    HL4 7003  -6.544  29.868  -4.709
   89XTA    HL5 7004  -5.875  28.996  -5.217
   89XTA    HL6 7005  -6.020  28.974  -5.114
   89XTA    HL7 7006  -5.958  28.841  -5.378
   89XTA    HL8 7007  -6.115  28.821  -5.295
   89XTA    HL9 7008  -5.836  28.740  -5.168
   89XTA   HL10 7009  -5.926  28.641  -5.274
   89XTA   HL11 7010  -5.957  28.671  -5.000
   89XTA   HL12 7011  -6.058  28.798  -5.041
   89XTA   HL13 7012  -6.097  28.488  -5.126
   89XTA   HL14 7013  -6.192  28.617  -5.175
   89XTA   HL15 7014  -6.180  28.502  -4.900
   89XTA   HL16 7015  -6.226  28.673  -4.913
   89XTA   HL17 7016  -6.363  28.466  -4.805
   89XTA   HL18 7017  -6.417  28.617  -4.825
   89XTA   HL19 7018  -6.553  28.530  -5.104
   89XTA   HL20 7019  -6.642  28.637  -4.996
   89XTA   HL21 7020  -6.823  28.550  -5.113
   89XTA   HL22 7021  -6.832  28.488  -4.954
   89XTA   HL23 7022  -6.776  28.381  -5.068
   89XTA   HL24 7023  -5.776  29.857  -5.627
   89XTA   HL25 7024  -5.797  30.018  -5.554
   89XTA    CO6 7025  -6.634  28.473  -4.764
   89XTA    CO7 7026  -6.516  28.317  -4.926
   89XTA    OA5 7027  -6.472  28.255  -4.804
   89XTA   HL26 7028  -6.702  28.396  -4.772
   89XTA   HL27 7029  -6.578  28.456  -4.671
   89XTA   HL28 7030  -6.447  28.307  -5.014
   89XTA   HL29 7031  -6.608  28.281  -4.967
   90XTH     NT 7032  -4.656  25.764  -8.904
   90XTH    CN1 7033  -4.566  25.829  -8.984
   90XTH     C1 7034  -4.543  25.966  -8.970
   90XTH     C2 7035  -4.448  26.032  -9.048
   90XTH     C3 7036  -4.376  25.964  -9.150
   90XTH     C4 7037  -4.402  25.826  -9.166
   90XTH     C5 7038  -4.502  25.756  -9.091
   90XTH    CN2 7039  -4.782  25.752  -8.953
   90XTH     C6 7040  -4.838  25.619  -8.937
   90XTH     C7 7041  -4.976  25.600  -8.968
   90XTH     C8 7042  -5.046  25.714  -9.004
   90XTH     C9 7043  -4.989  25.842  -9.021
   90XTH    C10 7044  -4.852  25.866  -8.985
   90XTH    CN3 7045  -4.631  25.745  -8.774
   90XTH    C11 7046  -4.524  25.662  -8.733
   90XTH    C12 7047  -4.503  25.635  -8.595
   90XTH    C13 7048  -4.594  25.683  -8.498
   90XTH    C14 7049  -4.706  25.760  -8.543
   90XTH    C15 7050  -4.724  25.786  -8.675
   90XTH     H1 7051  -4.607  26.020  -8.894
   90XTH     H2 7052  -4.427  26.132  -9.025
   90XTH     H3 7053  -4.339  25.776  -9.238
   90XTH     H4 7054  -4.529  25.650  -9.105
   90XTH     H5 7055  -4.781  25.538  -8.887
   90XTH     H6 7056  -5.024  25.501  -8.960
   90XTH     H7 7057  -5.048  25.923  -9.059
   90XTH     H8 7058  -4.814  25.966  -8.990
   90XTH     H9 7059  -4.461  25.619  -8.812
   90XTH    H10 7060  -4.419  25.580  -8.561
   90XTH    H11 7061  -4.791  25.785  -8.478
   90XTH    H12 7062  -4.808  25.840  -8.710
   90XTH    OA1 7063  -4.281  26.022  -9.228
   90XTH    CO1 7064  -4.292  26.157  -9.255
   90XTH    OA2 7065  -5.178  25.701  -9.020
   90XTH    CO2 7066  -5.250  25.705  -8.903
   90XTH    CL1 7067  -5.408  25.692  -8.945
   90XTH    CL2 7068  -5.440  25.585  -9.044
   90XTH    CL3 7069  -5.598  25.587  -9.091
   90XTH    CL4 7070  -5.685  25.572  -8.965
   90XTH    CO3 7071  -5.832  25.580  -8.994
   90XTH    OA3 7072  -5.883  25.711  -8.967
   90XTH    CO4 7073  -5.898  25.734  -8.824
   90XTH    CT1 7074  -5.956  25.875  -8.791
   90XTH    CL5 7075  -6.106  25.862  -8.822
   90XTH    CL6 7076  -6.189  25.979  -8.781
   90XTH    OA4 7077  -4.569  25.636  -8.369
   90XTH    CO5 7078  -4.666  25.659  -8.267
   90XTH    HL1 7079  -4.679  25.762  -8.246
   90XTH    HL2 7080  -4.391  26.205  -9.253
   90XTH    HL3 7081  -4.228  26.203  -9.182
   90XTH    HL4 7082  -4.241  26.164  -9.349
   90XTH    HL5 7083  -5.210  25.629  -8.832
   90XTH    HL6 7084  -5.234  25.798  -8.859
   90XTH    HL7 7085  -5.442  25.784  -8.981
   90XTH    HL8 7086  -5.466  25.664  -8.853
   90XTH    HL9 7087  -5.418  25.495  -8.994
   90XTH   HL10 7088  -5.375  25.582  -9.133
   90XTH   HL11 7089  -5.633  25.677  -9.150
   90XTH   HL12 7090  -5.614  25.512  -9.161
   90XTH   HL13 7091  -5.670  25.650  -8.884
   90XTH   HL14 7092  -5.665  25.485  -8.906
   90XTH   HL15 7093  -5.851  25.556  -9.095
   90XTH   HL16 7094  -5.877  25.507  -8.936
   90XTH   HL17 7095  -5.949  25.656  -8.772
   90XTH   HL18 7096  -5.793  25.738  -8.782
   90XTH   HL19 7097  -6.135  25.779  -8.763
   90XTH   HL20 7098  -6.104  25.832  -8.927
   90XTH   HL21 7099  -6.198  26.001  -8.677
   90XTH   HL22 7100  -6.293  25.960  -8.815
   90XTH   HL23 7101  -6.174  26.073  -8.837
   90XTH   HL24 7102  -4.640  25.612  -8.173
   90XTH   HL25 7103  -4.757  25.623  -8.302
   90XTH    CO6 7104  -5.891  25.991  -8.880
   90XTH    CO7 7105  -5.921  25.912  -8.648
   90XTH    OA5 7106  -5.751  25.996  -8.866
   90XTH   HL26 7107  -5.922  26.083  -8.839
   90XTH   HL27 7108  -5.901  25.972  -8.989
   90XTH   HL28 7109  -5.815  25.879  -8.633
   90XTH   HL29 7110  -5.920  26.018  -8.633
   91XTA     NT 7111  -2.415  30.128  -7.869
   91XTA    CN1 7112  -2.429  30.093  -7.744
   91XTA     C1 7113  -2.546  30.042  -7.688
   91XTA     C2 7114  -2.554  30.004  -7.555
   91XTA     C3 7115  -2.441  30.011  -7.471
   91XTA     C4 7116  -2.318  30.059  -7.531
   91XTA     C5 7117  -2.315  30.095  -7.665
   91XTA    CN2 7118  -2.443  30.256  -7.910
   91XTA     C6 7119  -2.531  30.288  -8.016
   91XTA     C7 7120  -2.557  30.423  -8.057
   91XTA     C8 7121  -2.471  30.526  -8.006
   91XTA     C9 7122  -2.381  30.498  -7.909
   91XTA    C10 7123  -2.364  30.365  -7.863
   91XTA    CN3 7124  -2.371  30.039  -7.957
   91XTA    C11 7125  -2.249  30.049  -8.018
   91XTA    C12 7126  -2.208  29.961  -8.111
   91XTA    C13 7127  -2.281  29.848  -8.143
   91XTA    C14 7128  -2.410  29.836  -8.087
   91XTA    C15 7129  -2.452  29.928  -7.990
   91XTA     H1 7130  -2.623  30.027  -7.756
   91XTA     H2 7131  -2.643  29.971  -7.509
   91XTA     H3 7132  -2.223  30.064  -7.474
   91XTA     H4 7133  -2.224  30.119  -7.727
   91XTA     H5 7134  -2.591  30.210  -8.070
   91XTA     H6 7135  -2.629  30.448  -8.131
   91XTA     H7 7136  -2.310  30.571  -7.879
   91XTA     H8 7137  -2.277  30.359  -7.798
   91XTA     H9 7138  -2.183  30.130  -7.989
   91XTA    H10 7139  -2.112  29.978  -8.158
   91XTA    H11 7140  -2.476  29.759  -8.121
   91XTA    H12 7141  -2.532  29.907  -7.921
   91XTA    OA1 7142  -2.452  29.970  -7.344
   91XTA    CO1 7143  -2.339  29.931  -7.279
   91XTA    OA2 7144  -2.479  30.652  -8.060
   91XTA    CO2 7145  -2.412  30.677  -8.181
   91XTA    CL1 7146  -2.495  30.789  -8.246
   91XTA    CL2 7147  -2.447  30.829  -8.390
   91XTA    CL3 7148  -2.329  30.928  -8.401
   91XTA    CL4 7149  -2.270  30.950  -8.547
   91XTA    CO3 7150  -2.175  31.079  -8.554
   91XTA    OA3 7151  -2.256  31.192  -8.534
   91XTA    CO4 7152  -2.185  31.311  -8.488
   91XTA    CT1 7153  -2.285  31.402  -8.416
   91XTA    CL5 7154  -2.207  31.518  -8.363
   91XTA    CL6 7155  -2.150  31.616  -8.459
   91XTA    OA4 7156  -2.239  29.747  -8.224
   91XTA    CO5 7157  -2.100  29.726  -8.222
   91XTA    HL1 7158  -2.045  29.796  -8.280
   91XTA    HL2 7159  -2.295  29.836  -7.308
   91XTA    HL3 7160  -2.266  30.012  -7.278
   91XTA    HL4 7161  -2.351  29.920  -7.176
   91XTA    HL5 7162  -2.306  30.703  -8.159
   91XTA    HL6 7163  -2.409  30.594  -8.255
   91XTA    HL7 7164  -2.487  30.879  -8.197
   91XTA    HL8 7165  -2.602  30.771  -8.244
   91XTA    HL9 7166  -2.531  30.881  -8.438
   91XTA   HL10 7167  -2.436  30.734  -8.453
   91XTA   HL11 7168  -2.376  31.018  -8.355
   91XTA   HL12 7169  -2.247  30.915  -8.328
   91XTA   HL13 7170  -2.349  30.952  -8.617
   91XTA   HL14 7171  -2.224  30.860  -8.578
   91XTA   HL15 7172  -2.092  31.077  -8.482
   91XTA   HL16 7173  -2.122  31.082  -8.656
   91XTA   HL17 7174  -2.100  31.280  -8.424
   91XTA   HL18 7175  -2.129  31.366  -8.568
   91XTA   HL19 7176  -2.126  31.475  -8.308
   91XTA   HL20 7177  -2.266  31.567  -8.285
   91XTA   HL21 7178  -2.217  31.695  -8.492
   91XTA   HL22 7179  -2.120  31.559  -8.549
   91XTA   HL23 7180  -2.068  31.674  -8.410
   91XTA   HL24 7181  -2.079  29.632  -8.276
   91XTA   HL25 7182  -2.068  29.719  -8.122
   91XTA    CO6 7183  -2.341  31.322  -8.294
   91XTA    CO7 7184  -2.399  31.461  -8.514
   91XTA    OA5 7185  -2.457  31.369  -8.225
   91XTA   HL26 7186  -2.255  31.317  -8.222
   91XTA   HL27 7187  -2.369  31.217  -8.327
   91XTA   HL28 7188  -2.441  31.556  -8.467
   91XTA   HL29 7189  -2.346  31.481  -8.610
   92XTA     NT 7190  -5.494  25.855 -10.992
   92XTA    CN1 7191  -5.494  25.782 -10.877
   92XTA     C1 7192  -5.387  25.800 -10.787
   92XTA     C2 7193  -5.383  25.729 -10.668
   92XTA     C3 7194  -5.497  25.653 -10.634
   92XTA     C4 7195  -5.602  25.632 -10.726
   92XTA     C5 7196  -5.605  25.705 -10.844
   92XTA    CN2 7197  -5.409  25.823 -11.094
   92XTA     C6 7198  -5.429  25.869 -11.224
   92XTA     C7 7199  -5.335  25.849 -11.331
   92XTA     C8 7200  -5.220  25.768 -11.311
   92XTA     C9 7201  -5.196  25.726 -11.177
   92XTA    C10 7202  -5.289  25.746 -11.073
   92XTA    CN3 7203  -5.539  25.980 -10.974
   92XTA    C11 7204  -5.679  26.007 -10.961
   92XTA    C12 7205  -5.725  26.138 -10.937
   92XTA    C13 7206  -5.636  26.254 -10.933
   92XTA    C14 7207  -5.499  26.229 -10.954
   92XTA    C15 7208  -5.455  26.097 -10.972
   92XTA     H1 7209  -5.300  25.861 -10.806
   92XTA     H2 7210  -5.297  25.749 -10.600
   92XTA     H3 7211  -5.680  25.571 -10.694
   92XTA     H4 7212  -5.696  25.702 -10.895
   92XTA     H5 7213  -5.514  25.935 -11.244
   92XTA     H6 7214  -5.346  25.896 -11.435
   92XTA     H7 7215  -5.103  25.671 -11.155
   92XTA     H8 7216  -5.251  25.707 -10.979
   92XTA     H9 7217  -5.748  25.924 -10.968
   92XTA    H10 7218  -5.834  26.150 -10.931
   92XTA    H11 7219  -5.423  26.302 -10.954
   92XTA    H12 7220  -5.348  26.081 -10.975
   92XTA    OA1 7221  -5.507  25.581 -10.516
   92XTA    CO1 7222  -5.431  25.634 -10.407
   92XTA    OA2 7223  -5.132  25.751 -11.409
   92XTA    CO2 7224  -5.089  25.614 -11.427
   92XTA    CL1 7225  -5.161  25.544 -11.540
   92XTA    CL2 7226  -5.314  25.549 -11.524
   92XTA    CL3 7227  -5.370  25.469 -11.406
   92XTA    CL4 7228  -5.528  25.463 -11.422
   92XTA    CO3 7229  -5.608  25.597 -11.395
   92XTA    OA3 7230  -5.745  25.567 -11.368
   92XTA    CO4 7231  -5.820  25.691 -11.363
   92XTA    CT1 7232  -5.968  25.664 -11.368
   92XTA    CL5 7233  -6.043  25.801 -11.358
   92XTA    CL6 7234  -6.195  25.806 -11.365
   92XTA    OA4 7235  -5.678  26.382 -10.917
   92XTA    CO5 7236  -5.788  26.394 -10.836
   92XTA    HL1 7237  -5.886  26.361 -10.878
   92XTA    HL2 7238  -5.455  25.737 -10.402
   92XTA    HL3 7239  -5.466  25.582 -10.315
   92XTA    HL4 7240  -5.325  25.619 -10.426
   92XTA    HL5 7241  -4.981  25.616 -11.451
   92XTA    HL6 7242  -5.103  25.548 -11.345
   92XTA    HL7 7243  -5.136  25.434 -11.541
   92XTA    HL8 7244  -5.137  25.598 -11.633
   92XTA    HL9 7245  -5.362  25.506 -11.613
   92XTA   HL10 7246  -5.347  25.651 -11.529
   92XTA   HL11 7247  -5.341  25.365 -11.408
   92XTA   HL12 7248  -5.334  25.505 -11.312
   92XTA   HL13 7249  -5.564  25.369 -11.383
   92XTA   HL14 7250  -5.542  25.451 -11.528
   92XTA   HL15 7251  -5.563  25.648 -11.314
   92XTA   HL16 7252  -5.603  25.658 -11.487
   92XTA   HL17 7253  -5.796  25.740 -11.276
   92XTA   HL18 7254  -5.780  25.768 -11.439
   92XTA   HL19 7255  -5.985  25.863 -11.430
   92XTA   HL20 7256  -6.024  25.836 -11.253
   92XTA   HL21 7257  -6.226  25.741 -11.442
   92XTA   HL22 7258  -6.224  25.908 -11.382
   92XTA   HL23 7259  -6.252  25.775 -11.277
   92XTA   HL24 7260  -5.790  26.505 -10.821
   92XTA   HL25 7261  -5.763  26.358 -10.733
   92XTA    CO6 7262  -6.021  25.559 -11.259
   92XTA    CO7 7263  -5.991  25.600 -11.502
   92XTA    OA5 7264  -5.936  25.682 -11.608
   92XTA   HL26 7265  -5.963  25.467 -11.265
   92XTA   HL27 7266  -6.015  25.607 -11.162
   92XTA   HL28 7267  -6.096  25.575 -11.519
   92XTA   HL29 7268  -5.940  25.502 -11.495
   93XTA     NT 7269  -5.661  25.024  -7.631
   93XTA    CN1 7270  -5.795  25.000  -7.616
   93XTA     C1 7271  -5.864  24.894  -7.682
   93XTA     C2 7272  -6.005  24.874  -7.663
   93XTA     C3 7273  -6.089  24.971  -7.602
   93XTA     C4 7274  -6.017  25.075  -7.537
   93XTA     C5 7275  -5.872  25.092  -7.543
   93XTA    CN2 7276  -5.570  24.958  -7.557
   93XTA     C6 7277  -5.548  24.994  -7.424
   93XTA     C7 7278  -5.452  24.935  -7.346
   93XTA     C8 7279  -5.363  24.839  -7.402
   93XTA     C9 7280  -5.383  24.801  -7.537
   93XTA    C10 7281  -5.487  24.858  -7.612
   93XTA    CN3 7282  -5.614  25.128  -7.697
   93XTA    C11 7283  -5.653  25.143  -7.832
   93XTA    C12 7284  -5.616  25.258  -7.908
   93XTA    C13 7285  -5.530  25.352  -7.852
   93XTA    C14 7286  -5.488  25.336  -7.718
   93XTA    C15 7287  -5.532  25.225  -7.642
   93XTA     H1 7288  -5.830  24.834  -7.763
   93XTA     H2 7289  -6.067  24.795  -7.713
   93XTA     H3 7290  -6.073  25.153  -7.489
   93XTA     H4 7291  -5.825  25.166  -7.475
   93XTA     H5 7292  -5.615  25.071  -7.380
   93XTA     H6 7293  -5.453  24.961  -7.242
   93XTA     H7 7294  -5.314  24.742  -7.598
   93XTA     H8 7295  -5.503  24.837  -7.716
   93XTA     H9 7296  -5.708  25.072  -7.887
   93XTA    H10 7297  -5.663  25.271  -8.001
   93XTA    H11 7298  -5.426  25.409  -7.671
   93XTA    H12 7299  -5.513  25.221  -7.535
   93XTA    OA1 7300  -6.229  24.970  -7.598
   93XTA    CO1 7301  -6.298  24.883  -7.687
   93XTA    OA2 7302  -5.260  24.772  -7.331
   93XTA    CO2 7303  -5.267  24.775  -7.187
   93XTA    CL1 7304  -5.165  24.671  -7.128
   93XTA    CL2 7305  -5.172  24.666  -6.975
   93XTA    CL3 7306  -5.297  24.581  -6.936
   93XTA    CL4 7307  -5.265  24.433  -6.935
   93XTA    CO3 7308  -5.385  24.346  -6.907
   93XTA    OA3 7309  -5.349  24.211  -6.921
   93XTA    CO4 7310  -5.453  24.129  -6.872
   93XTA    CT1 7311  -5.464  23.997  -6.948
   93XTA    CL5 7312  -5.320  23.959  -6.998
   93XTA    CL6 7313  -5.316  23.841  -7.099
   93XTA    OA4 7314  -5.485  25.460  -7.921
   93XTA    CO5 7315  -5.549  25.507  -8.029
   93XTA    HL1 7316  -5.517  25.608  -8.059
   93XTA    HL2 7317  -6.286  24.772  -7.670
   93XTA    HL3 7318  -6.407  24.898  -7.673
   93XTA    HL4 7319  -6.264  24.909  -7.787
   93XTA    HL5 7320  -5.247  24.877  -7.143
   93XTA    HL6 7321  -5.362  24.740  -7.152
   93XTA    HL7 7322  -5.066  24.702  -7.155
   93XTA    HL8 7323  -5.164  24.579  -7.182
   93XTA    HL9 7324  -5.190  24.764  -6.933
   93XTA   HL10 7325  -5.087  24.626  -6.932
   93XTA   HL11 7326  -5.321  24.608  -6.831
   93XTA   HL12 7327  -5.380  24.595  -7.005
   93XTA   HL13 7328  -5.180  24.415  -6.865
   93XTA   HL14 7329  -5.232  24.423  -7.038
   93XTA   HL15 7330  -5.419  24.350  -6.804
   93XTA   HL16 7331  -5.477  24.346  -6.970
   93XTA   HL17 7332  -5.438  24.105  -6.764
   93XTA   HL18 7333  -5.552  24.179  -6.866
   93XTA   HL19 7334  -5.262  23.927  -6.911
   93XTA   HL20 7335  -5.267  24.040  -7.041
   93XTA   HL21 7336  -5.377  23.762  -7.063
   93XTA   HL22 7337  -5.219  23.811  -7.124
   93XTA   HL23 7338  -5.366  23.865  -7.188
   93XTA   HL24 7339  -5.653  25.500  -8.021
   93XTA   HL25 7340  -5.510  25.442  -8.109
   93XTA    CO6 7341  -5.549  24.033  -7.073
   93XTA    CO7 7342  -5.531  23.885  -6.865
   93XTA    OA5 7343  -5.480  24.090  -7.147
   93XTA   HL26 7344  -5.628  24.094  -7.036
   93XTA   HL27 7345  -5.588  23.940  -7.116
   93XTA   HL28 7346  -5.553  23.767  -6.938
   93XTA   HL29 7347  -5.630  23.921  -6.840
   94XTA     NT 7348  -8.179  26.589  -5.576
   94XTA    CN1 7349  -8.217  26.619  -5.450
   94XTA     C1 7350  -8.180  26.741  -5.392
   94XTA     C2 7351  -8.231  26.767  -5.260
   94XTA     C3 7352  -8.320  26.675  -5.198
   94XTA     C4 7353  -8.337  26.557  -5.257
   94XTA     C5 7354  -8.289  26.526  -5.381
   94XTA    CN2 7355  -8.264  26.535  -5.663
   94XTA     C6 7356  -8.275  26.397  -5.672
   94XTA     C7 7357  -8.364  26.338  -5.757
   94XTA     C8 7358  -8.447  26.416  -5.840
   94XTA     C9 7359  -8.431  26.558  -5.849
   94XTA    C10 7360  -8.339  26.618  -5.761
   94XTA    CN3 7361  -8.047  26.578  -5.601
   94XTA    C11 7362  -7.988  26.663  -5.694
   94XTA    C12 7363  -7.853  26.659  -5.729
   94XTA    C13 7364  -7.764  26.576  -5.660
   94XTA    C14 7365  -7.823  26.485  -5.570
   94XTA    C15 7366  -7.960  26.488  -5.544
   94XTA     H1 7367  -8.118  26.804  -5.447
   94XTA     H2 7368  -8.207  26.861  -5.200
   94XTA     H3 7369  -8.403  26.480  -5.214
   94XTA     H4 7370  -8.310  26.428  -5.416
   94XTA     H5 7371  -8.224  26.333  -5.604
   94XTA     H6 7372  -8.367  26.223  -5.753
   94XTA     H7 7373  -8.496  26.617  -5.910
   94XTA     H8 7374  -8.334  26.726  -5.773
   94XTA     H9 7375  -8.045  26.735  -5.737
   94XTA    H10 7376  -7.815  26.713  -5.812
   94XTA    H11 7377  -7.766  26.424  -5.500
   94XTA    H12 7378  -7.996  26.410  -5.480
   94XTA    OA1 7379  -8.361  26.700  -5.067
   94XTA    CO1 7380  -8.249  26.716  -4.978
   94XTA    OA2 7381  -8.534  26.346  -5.920
   94XTA    CO2 7382  -8.636  26.426  -5.976
   94XTA    CL1 7383  -8.771  26.345  -5.990
   94XTA    CL2 7384  -8.816  26.282  -5.854
   94XTA    CL3 7385  -8.851  26.370  -5.739
   94XTA    CL4 7386  -8.735  26.410  -5.648
   94XTA    CO3 7387  -8.769  26.484  -5.524
   94XTA    OA3 7388  -8.823  26.387  -5.435
   94XTA    CO4 7389  -8.816  26.432  -5.298
   94XTA    CT1 7390  -8.888  26.342  -5.190
   94XTA    CL5 7391  -8.887  26.411  -5.053
   94XTA    CL6 7392  -8.979  26.362  -4.936
   94XTA    OA4 7393  -7.634  26.586  -5.688
   94XTA    CO5 7394  -7.555  26.476  -5.660
   94XTA    HL1 7395  -7.467  26.464  -5.723
   94XTA    HL2 7396  -8.289  26.746  -4.884
   94XTA    HL3 7397  -8.190  26.628  -4.950
   94XTA    HL4 7398  -8.185  26.795  -4.997
   94XTA    HL5 7399  -8.671  26.511  -5.913
   94XTA    HL6 7400  -8.608  26.458  -6.072
   94XTA    HL7 7401  -8.770  26.263  -6.057
   94XTA    HL8 7402  -8.846  26.404  -6.033
   94XTA    HL9 7403  -8.748  26.199  -5.830
   94XTA   HL10 7404  -8.914  26.238  -5.878
   94XTA   HL11 7405  -8.899  26.465  -5.764
   94XTA   HL12 7406  -8.913  26.314  -5.668
   94XTA   HL13 7407  -8.664  26.479  -5.698
   94XTA   HL14 7408  -8.669  26.330  -5.607
   94XTA   HL15 7409  -8.678  26.530  -5.480
   94XTA   HL16 7410  -8.832  26.568  -5.541
   94XTA   HL17 7411  -8.713  26.452  -5.268
   94XTA   HL18 7412  -8.860  26.535  -5.296
   94XTA   HL19 7413  -8.900  26.520  -5.060
   94XTA   HL20 7414  -8.790  26.400  -5.017
   94XTA   HL21 7415  -9.080  26.377  -4.966
   94XTA   HL22 7416  -8.974  26.409  -4.838
   94XTA   HL23 7417  -8.960  26.254  -4.929
   94XTA   HL24 7418  -7.620  26.385  -5.684
   94XTA   HL25 7419  -7.525  26.470  -5.557
   94XTA    CO6 7420  -8.830  26.197  -5.177
   94XTA    CO7 7421  -9.035  26.323  -5.230
   94XTA    OA5 7422  -8.741  26.194  -5.111
   94XTA   HL26 7423  -8.803  26.152  -5.279
   94XTA   HL27 7424  -8.911  26.133  -5.135
   94XTA   HL28 7425  -9.113  26.262  -5.128
   94XTA   HL29 7426  -9.052  26.266  -5.327
   95XTA     NT 7427  -7.989  24.410 -10.010
   95XTA    CN1 7428  -8.109  24.465 -10.018
   95XTA     C1 7429  -8.147  24.590  -9.959
   95XTA     C2 7430  -8.280  24.633  -9.961
   95XTA     C3 7431  -8.374  24.555 -10.027
   95XTA     C4 7432  -8.339  24.429 -10.078
   95XTA     C5 7433  -8.205  24.386 -10.083
   95XTA    CN2 7434  -7.888  24.440 -10.096
   95XTA     C6 7435  -7.822  24.563 -10.093
   95XTA     C7 7436  -7.717  24.586 -10.184
   95XTA     C8 7437  -7.672  24.487 -10.273
   95XTA     C9 7438  -7.750  24.366 -10.285
   95XTA    C10 7439  -7.861  24.344 -10.196
   95XTA    CN3 7440  -7.957  24.332  -9.906
   95XTA    C11 7441  -7.966  24.191  -9.908
   95XTA    C12 7442  -7.964  24.133  -9.781
   95XTA    C13 7443  -7.945  24.201  -9.658
   95XTA    C14 7444  -7.931  24.346  -9.662
   95XTA    C15 7445  -7.944  24.413  -9.787
   95XTA     H1 7446  -8.063  24.652  -9.915
   95XTA     H2 7447  -8.303  24.726  -9.909
   95XTA     H3 7448  -8.419  24.356 -10.106
   95XTA     H4 7449  -8.165  24.291 -10.124
   95XTA     H5 7450  -7.851  24.632 -10.016
   95XTA     H6 7451  -7.668  24.682 -10.176
   95XTA     H7 7452  -7.735  24.304 -10.368
   95XTA     H8 7453  -7.922  24.260 -10.195
   95XTA     H9 7454  -7.985  24.138 -10.000
   95XTA    H10 7455  -7.976  24.023  -9.781
   95XTA    H11 7456  -7.922  24.390  -9.567
   95XTA    H12 7457  -7.944  24.519  -9.790
   95XTA    OA1 7458  -8.510  24.578 -10.023
   95XTA    CO1 7459  -8.551  24.684  -9.941
   95XTA    OA2 7460  -7.565  24.529 -10.353
   95XTA    CO2 7461  -7.489  24.425 -10.409
   95XTA    CL1 7462  -7.355  24.477 -10.456
   95XTA    CL2 7463  -7.271  24.363 -10.521
   95XTA    CL3 7464  -7.346  24.273 -10.627
   95XTA    CL4 7465  -7.243  24.209 -10.728
   95XTA    CO3 7466  -7.313  24.141 -10.851
   95XTA    OA3 7467  -7.218  24.072 -10.926
   95XTA    CO4 7468  -7.260  24.040 -11.049
   95XTA    CT1 7469  -7.146  23.982 -11.135
   95XTA    CL5 7470  -7.205  23.927 -11.261
   95XTA    CL6 7471  -7.299  23.806 -11.268
   95XTA    OA4 7472  -7.946  24.136  -9.539
   95XTA    CO5 7473  -7.835  24.041  -9.527
   95XTA    HL1 7474  -7.748  24.095  -9.511
   95XTA    HL2 7475  -8.495  24.769  -9.974
   95XTA    HL3 7476  -8.660  24.706  -9.954
   95XTA    HL4 7477  -8.525  24.665  -9.840
   95XTA    HL5 7478  -7.478  24.344 -10.338
   95XTA    HL6 7479  -7.545  24.377 -10.491
   95XTA    HL7 7480  -7.302  24.526 -10.377
   95XTA    HL8 7481  -7.387  24.556 -10.525
   95XTA    HL9 7482  -7.241  24.303 -10.433
   95XTA   HL10 7483  -7.176  24.398 -10.563
   95XTA   HL11 7484  -7.388  24.180 -10.584
   95XTA   HL12 7485  -7.424  24.330 -10.681
   95XTA   HL13 7486  -7.179  24.137 -10.673
   95XTA   HL14 7487  -7.181  24.295 -10.758
   95XTA   HL15 7488  -7.393  24.077 -10.817
   95XTA   HL16 7489  -7.360  24.222 -10.901
   95XTA   HL17 7490  -7.335  23.964 -11.035
   95XTA   HL18 7491  -7.304  24.129 -11.100
   95XTA   HL19 7492  -7.115  23.898 -11.323
   95XTA   HL20 7493  -7.252  24.016 -11.317
   95XTA   HL21 7494  -7.388  23.828 -11.216
   95XTA   HL22 7495  -7.257  23.708 -11.243
   95XTA   HL23 7496  -7.330  23.784 -11.371
   95XTA   HL24 7497  -7.827  23.975  -9.617
   95XTA   HL25 7498  -7.839  23.976  -9.439
   95XTA    CO6 7499  -7.067  23.873 -11.065
   95XTA    CO7 7500  -7.042  24.100 -11.173
   95XTA    OA5 7501  -7.142  23.758 -11.013
   95XTA   HL26 7502  -7.018  23.926 -10.977
   95XTA   HL27 7503  -6.989  23.832 -11.131
   95XTA   HL28 7504  -6.946  24.075 -11.218
   95XTA   HL29 7505  -7.028  24.131 -11.068
   96XTA     NT 7506  -1.878  26.980  -6.026
   96XTA    CN1 7507  -1.854  27.024  -6.152
   96XTA     C1 7508  -1.783  26.941  -6.246
   96XTA     C2 7509  -1.750  27.001  -6.378
   96XTA     C3 7510  -1.801  27.131  -6.408
   96XTA     C4 7511  -1.871  27.206  -6.311
   96XTA     C5 7512  -1.898  27.153  -6.183
   96XTA    CN2 7513  -1.998  26.972  -5.976
   96XTA     C6 7514  -2.045  27.069  -5.884
   96XTA     C7 7515  -2.174  27.055  -5.827
   96XTA     C8 7516  -2.254  26.939  -5.859
   96XTA     C9 7517  -2.209  26.834  -5.944
   96XTA    C10 7518  -2.084  26.861  -6.011
   96XTA    CN3 7519  -1.774  26.959  -5.943
   96XTA    C11 7520  -1.773  26.844  -5.857
   96XTA    C12 7521  -1.663  26.825  -5.768
   96XTA    C13 7522  -1.568  26.929  -5.744
   96XTA    C14 7523  -1.572  27.047  -5.824
   96XTA    C15 7524  -1.670  27.059  -5.921
   96XTA     H1 7525  -1.745  26.846  -6.217
   96XTA     H2 7526  -1.684  26.944  -6.447
   96XTA     H3 7527  -1.902  27.310  -6.337
   96XTA     H4 7528  -1.937  27.217  -6.109
   96XTA     H5 7529  -1.990  27.148  -5.840
   96XTA     H6 7530  -2.219  27.129  -5.767
   96XTA     H7 7531  -2.267  26.748  -5.973
   96XTA     H8 7532  -2.064  26.794  -6.090
   96XTA     H9 7533  -1.850  26.765  -5.886
   96XTA    H10 7534  -1.650  26.728  -5.719
   96XTA    H11 7535  -1.506  27.133  -5.811
   96XTA    H12 7536  -1.662  27.154  -5.973
   96XTA    OA1 7537  -1.765  27.190  -6.525
   96XTA    CO1 7538  -1.691  27.112  -6.614
   96XTA    OA2 7539  -2.381  26.944  -5.803
   96XTA    CO2 7540  -2.444  26.820  -5.761
   96XTA    CL1 7541  -2.393  26.796  -5.612
   96XTA    CL2 7542  -2.247  26.733  -5.591
   96XTA    CL3 7543  -2.183  26.751  -5.447
   96XTA    CL4 7544  -2.173  26.898  -5.411
   96XTA    CO3 7545  -2.056  26.962  -5.480
   96XTA    OA3 7546  -2.049  27.102  -5.443
   96XTA    CO4 7547  -1.936  27.172  -5.496
   96XTA    CT1 7548  -1.949  27.322  -5.482
   96XTA    CL5 7549  -2.081  27.355  -5.567
   96XTA    CL6 7550  -2.116  27.502  -5.566
   96XTA    OA4 7551  -1.481  26.922  -5.637
   96XTA    CO5 7552  -1.399  26.807  -5.653
   96XTA    HL1 7553  -1.447  26.711  -5.661
   96XTA    HL2 7554  -1.750  27.022  -6.631
   96XTA    HL3 7555  -1.677  27.170  -6.704
   96XTA    HL4 7556  -1.587  27.086  -6.577
   96XTA    HL5 7557  -2.558  26.833  -5.746
   96XTA    HL6 7558  -2.411  26.739  -5.833
   96XTA    HL7 7559  -2.458  26.733  -5.561
   96XTA    HL8 7560  -2.394  26.891  -5.567
   96XTA    HL9 7561  -2.176  26.787  -5.656
   96XTA   HL10 7562  -2.237  26.626  -5.624
   96XTA   HL11 7563  -2.246  26.707  -5.372
   96XTA   HL12 7564  -2.082  26.706  -5.436
   96XTA   HL13 7565  -2.145  26.898  -5.301
   96XTA   HL14 7566  -2.270  26.946  -5.445
   96XTA   HL15 7567  -1.970  26.902  -5.444
   96XTA   HL16 7568  -2.071  26.956  -5.585
   96XTA   HL17 7569  -1.851  27.126  -5.453
   96XTA   HL18 7570  -1.928  27.143  -5.605
   96XTA   HL19 7571  -2.164  27.306  -5.518
   96XTA   HL20 7572  -2.078  27.319  -5.672
   96XTA   HL21 7573  -2.221  27.517  -5.603
   96XTA   HL22 7574  -2.048  27.556  -5.633
   96XTA   HL23 7575  -2.103  27.548  -5.471
   96XTA   HL24 7576  -1.322  26.808  -5.577
   96XTA   HL25 7577  -1.360  26.806  -5.759
   96XTA    CO6 7578  -1.820  27.390  -5.543
   96XTA    CO7 7579  -1.965  27.376  -5.339
   96XTA    OA5 7580  -1.716  27.375  -5.448
   96XTA   HL26 7581  -1.848  27.491  -5.544
   96XTA   HL27 7582  -1.788  27.355  -5.641
   96XTA   HL28 7583  -1.900  27.326  -5.274
   96XTA   HL29 7584  -1.935  27.475  -5.339
   97XTA     NT 7585  -7.372  27.464  -5.620
   97XTA    CN1 7586  -7.263  27.449  -5.695
   97XTA     C1 7587  -7.241  27.539  -5.809
   97XTA     C2 7588  -7.132  27.505  -5.897
   97XTA     C3 7589  -7.040  27.397  -5.866
   97XTA     C4 7590  -7.070  27.311  -5.757
   97XTA     C5 7591  -7.177  27.345  -5.665
   97XTA    CN2 7592  -7.461  27.365  -5.593
   97XTA     C6 7593  -7.494  27.276  -5.697
   97XTA     C7 7594  -7.598  27.182  -5.679
   97XTA     C8 7595  -7.669  27.184  -5.557
   97XTA     C9 7596  -7.630  27.267  -5.451
   97XTA    C10 7597  -7.522  27.357  -5.468
   97XTA    CN3 7598  -7.398  27.592  -5.583
   97XTA    C11 7599  -7.483  27.671  -5.661
   97XTA    C12 7600  -7.517  27.807  -5.629
   97XTA    C13 7601  -7.452  27.867  -5.515
   97XTA    C14 7602  -7.363  27.786  -5.445
   97XTA    C15 7603  -7.337  27.653  -5.469
   97XTA     H1 7604  -7.306  27.612  -5.827
   97XTA     H2 7605  -7.092  27.583  -5.967
   97XTA     H3 7606  -7.010  27.225  -5.739
   97XTA     H4 7607  -7.199  27.284  -5.574
   97XTA     H5 7608  -7.439  27.290  -5.795
   97XTA     H6 7609  -7.620  27.123  -5.761
   97XTA     H7 7610  -7.681  27.258  -5.357
   97XTA     H8 7611  -7.490  27.426  -5.397
   97XTA     H9 7612  -7.526  27.625  -5.746
   97XTA    H10 7613  -7.582  27.859  -5.696
   97XTA    H11 7614  -7.301  27.813  -5.358
   97XTA    H12 7615  -7.288  27.586  -5.410
   97XTA    OA1 7616  -6.936  27.364  -5.947
   97XTA    CO1 7617  -6.938  27.416  -6.080
   97XTA    OA2 7618  -7.779  27.105  -5.529
   97XTA    CO2 7619  -7.771  26.965  -5.584
   97XTA    CL1 7620  -7.724  26.883  -5.466
   97XTA    CL2 7621  -7.586  26.920  -5.418
   97XTA    CL3 7622  -7.475  26.880  -5.518
   97XTA    CL4 7623  -7.330  26.901  -5.474
   97XTA    CO3 7624  -7.303  27.058  -5.456
   97XTA    OA3 7625  -7.171  27.091  -5.444
   97XTA    CO4 7626  -7.120  27.043  -5.317
   97XTA    CT1 7627  -7.019  27.146  -5.261
   97XTA    CL5 7628  -7.072  27.286  -5.229
   97XTA    CL6 7629  -7.110  27.378  -5.348
   97XTA    OA4 7630  -7.484  27.992  -5.459
   97XTA    CO5 7631  -7.625  28.004  -5.448
   97XTA    HL1 7632  -7.674  28.053  -5.530
   97XTA    HL2 7633  -6.847  27.386  -6.136
   97XTA    HL3 7634  -7.015  27.372  -6.129
   97XTA    HL4 7635  -6.936  27.521  -6.098
   97XTA    HL5 7636  -7.873  26.939  -5.610
   97XTA    HL6 7637  -7.702  26.959  -5.661
   97XTA    HL7 7638  -7.750  26.774  -5.479
   97XTA    HL8 7639  -7.791  26.903  -5.387
   97XTA    HL9 7640  -7.554  26.874  -5.328
   97XTA   HL10 7641  -7.585  27.025  -5.398
   97XTA   HL11 7642  -7.485  26.775  -5.557
   97XTA   HL12 7643  -7.489  26.933  -5.617
   97XTA   HL13 7644  -7.268  26.869  -5.561
   97XTA   HL14 7645  -7.303  26.844  -5.382
   97XTA   HL15 7646  -7.341  27.104  -5.546
   97XTA   HL16 7647  -7.353  27.102  -5.361
   97XTA   HL17 7648  -7.192  27.027  -5.238
   97XTA   HL18 7649  -7.076  26.947  -5.331
   97XTA   HL19 7650  -6.992  27.346  -5.182
   97XTA   HL20 7651  -7.153  27.277  -5.149
   97XTA   HL21 7652  -7.027  27.383  -5.417
   97XTA   HL22 7653  -7.123  27.480  -5.302
   97XTA   HL23 7654  -7.201  27.346  -5.387
   97XTA   HL24 7655  -7.661  28.060  -5.359
   97XTA   HL25 7656  -7.673  27.913  -5.414
   97XTA    CO6 7657  -6.897  27.154  -5.362
   97XTA    CO7 7658  -6.963  27.088  -5.129
   97XTA    OA5 7659  -6.860  27.055  -5.393
   97XTA   HL26 7660  -6.813  27.217  -5.323
   97XTA   HL27 7661  -6.936  27.206  -5.450
   97XTA   HL28 7662  -6.862  26.993  -5.156
   97XTA   HL29 7663  -7.040  27.036  -5.071
   98XTA     NT 7664  -2.137  28.973  -8.812
   98XTA    CN1 7665  -2.206  28.928  -8.705
   98XTA     C1 7666  -2.251  28.802  -8.695
   98XTA     C2 7667  -2.329  28.763  -8.590
   98XTA     C3 7668  -2.370  28.851  -8.489
   98XTA     C4 7669  -2.328  28.979  -8.498
   98XTA     C5 7670  -2.254  29.021  -8.611
   98XTA    CN2 7671  -2.197  29.064  -8.894
   98XTA     C6 7672  -2.285  29.013  -8.993
   98XTA     C7 7673  -2.328  29.088  -9.097
   98XTA     C8 7674  -2.298  29.226  -9.094
   98XTA     C9 7675  -2.216  29.279  -8.991
   98XTA    C10 7676  -2.162  29.198  -8.890
   98XTA    CN3 7677  -2.021  28.903  -8.848
   98XTA    C11 7678  -2.008  28.848  -8.981
   98XTA    C12 7679  -1.897  28.770  -9.013
   98XTA    C13 7680  -1.794  28.747  -8.915
   98XTA    C14 7681  -1.805  28.809  -8.790
   98XTA    C15 7682  -1.921  28.881  -8.754
   98XTA     H1 7683  -2.216  28.730  -8.770
   98XTA     H2 7684  -2.366  28.657  -8.598
   98XTA     H3 7685  -2.355  29.056  -8.419
   98XTA     H4 7686  -2.221  29.120  -8.617
   98XTA     H5 7687  -2.311  28.911  -8.996
   98XTA     H6 7688  -2.378  29.035  -9.179
   98XTA     H7 7689  -2.191  29.386  -9.006
   98XTA     H8 7690  -2.102  29.235  -8.811
   98XTA     H9 7691  -2.098  28.863  -9.045
   98XTA    H10 7692  -1.903  28.732  -9.110
   98XTA    H11 7693  -1.727  28.804  -8.708
   98XTA    H12 7694  -1.923  28.928  -8.656
   98XTA    OA1 7695  -2.455  28.803  -8.389
   98XTA    CO1 7696  -2.475  28.874  -8.275
   98XTA    OA2 7697  -2.334  29.310  -9.196
   98XTA    CO2 7698  -2.448  29.273  -9.273
   98XTA    CL1 7699  -2.473  29.379  -9.379
   98XTA    CL2 7700  -2.446  29.514  -9.325
   98XTA    CL3 7701  -2.458  29.631  -9.425
   98XTA    CL4 7702  -2.320  29.648  -9.490
   98XTA    CO3 7703  -2.314  29.768  -9.587
   98XTA    OA3 7704  -2.183  29.776  -9.639
   98XTA    CO4 7705  -2.156  29.902  -9.688
   98XTA    CT1 7706  -2.010  29.903  -9.738
   98XTA    CL5 7707  -1.973  29.804  -9.851
   98XTA    CL6 7708  -1.823  29.801  -9.896
   98XTA    OA4 7709  -1.682  28.678  -8.949
   98XTA    CO5 7710  -1.657  28.635  -9.081
   98XTA    HL1 7711  -1.736  28.579  -9.117
   98XTA    HL2 7712  -2.388  28.910  -8.224
   98XTA    HL3 7713  -2.520  28.963  -8.313
   98XTA    HL4 7714  -2.540  28.827  -8.213
   98XTA    HL5 7715  -2.430  29.178  -9.320
   98XTA    HL6 7716  -2.534  29.257  -9.205
   98XTA    HL7 7717  -2.579  29.377  -9.410
   98XTA    HL8 7718  -2.418  29.362  -9.473
   98XTA    HL9 7719  -2.347  29.512  -9.282
   98XTA   HL10 7720  -2.515  29.538  -9.243
   98XTA   HL11 7721  -2.537  29.613  -9.498
   98XTA   HL12 7722  -2.471  29.730  -9.384
   98XTA   HL13 7723  -2.285  29.563  -9.535
   98XTA   HL14 7724  -2.261  29.664  -9.400
   98XTA   HL15 7725  -2.368  29.749  -9.675
   98XTA   HL16 7726  -2.346  29.858  -9.538
   98XTA   HL17 7727  -2.208  29.919  -9.777
   98XTA   HL18 7728  -2.176  29.972  -9.610
   98XTA   HL19 7729  -2.033  29.824  -9.945
   98XTA   HL20 7730  -1.993  29.698  -9.818
   98XTA   HL21 7731  -1.807  29.717  -9.968
   98XTA   HL22 7732  -1.756  29.769  -9.813
   98XTA   HL23 7733  -1.785  29.896  -9.931
   98XTA   HL24 7734  -1.563  28.583  -9.085
   98XTA   HL25 7735  -1.653  28.724  -9.150
   98XTA    CO6 7736  -1.920  29.874  -9.608
   98XTA    CO7 7737  -1.983  30.050  -9.781
   98XTA    OA5 7738  -1.949  29.755  -9.534
   98XTA   HL26 7739  -1.931  29.960  -9.536
   98XTA   HL27 7740  -1.821  29.873  -9.642
   98XTA   HL28 7741  -2.024  30.068  -9.882
   98XTA   HL29 7742  -2.032  30.116  -9.714
   99XTA     NT 7743  -5.863  29.506 -10.604
   99XTA    CN1 7744  -5.828  29.511 -10.733
   99XTA     C1 7745  -5.768  29.401 -10.801
   99XTA     C2 7746  -5.740  29.409 -10.939
   99XTA     C3 7747  -5.780  29.521 -11.018
   99XTA     C4 7748  -5.843  29.628 -10.953
   99XTA     C5 7749  -5.859  29.628 -10.808
   99XTA    CN2 7750  -5.948  29.411 -10.568
   99XTA     C6 7751  -6.078  29.405 -10.625
   99XTA     C7 7752  -6.170  29.313 -10.577
   99XTA     C8 7753  -6.135  29.227 -10.470
   99XTA     C9 7754  -6.003  29.224 -10.416
   99XTA    C10 7755  -5.911  29.315 -10.472
   99XTA    CN3 7756  -5.798  29.567 -10.498
   99XTA    C11 7757  -5.657  29.559 -10.480
   99XTA    C12 7758  -5.595  29.642 -10.380
   99XTA    C13 7759  -5.666  29.730 -10.297
   99XTA    C14 7760  -5.808  29.737 -10.313
   99XTA    C15 7761  -5.870  29.653 -10.415
   99XTA     H1 7762  -5.748  29.307 -10.755
   99XTA     H2 7763  -5.696  29.326 -10.987
   99XTA     H3 7764  -5.876  29.718 -11.005
   99XTA     H4 7765  -5.909  29.712 -10.764
   99XTA     H5 7766  -6.102  29.466 -10.705
   99XTA     H6 7767  -6.266  29.313 -10.624
   99XTA     H7 7768  -5.966  29.162 -10.336
   99XTA     H8 7769  -5.811  29.310 -10.435
   99XTA     H9 7770  -5.593  29.488 -10.540
   99XTA    H10 7771  -5.490  29.636 -10.372
   99XTA    H11 7772  -5.867  29.815 -10.257
   99XTA    H12 7773  -5.974  29.666 -10.423
   99XTA    OA1 7774  -5.764  29.520 -11.156
   99XTA    CO1 7775  -5.752  29.642 -11.220
   99XTA    OA2 7776  -6.240  29.151 -10.424
   99XTA    CO2 7777  -6.256  29.132 -10.287
   99XTA    CL1 7778  -6.371  29.039 -10.256
   99XTA    CL2 7779  -6.380  28.993 -10.114
   99XTA    CL3 7780  -6.501  28.905 -10.096
   99XTA    CL4 7781  -6.513  28.774 -10.181
   99XTA    CO3 7782  -6.588  28.662 -10.108
   99XTA    OA3 7783  -6.547  28.549 -10.186
   99XTA    CO4 7784  -6.603  28.434 -10.128
   99XTA    CT1 7785  -6.558  28.305 -10.190
   99XTA    CL5 7786  -6.617  28.187 -10.111
   99XTA    CL6 7787  -6.579  28.049 -10.163
   99XTA    OA4 7788  -5.605  29.823 -10.217
   99XTA    CO5 7789  -5.685  29.929 -10.158
   99XTA    HL1 7790  -5.784  29.901 -10.119
   99XTA    HL2 7791  -5.661  29.689 -11.201
   99XTA    HL3 7792  -5.755  29.629 -11.326
   99XTA    HL4 7793  -5.819  29.713 -11.187
   99XTA    HL5 7794  -6.166  29.090 -10.245
   99XTA    HL6 7795  -6.270  29.231 -10.249
   99XTA    HL7 7796  -6.346  28.939 -10.296
   99XTA    HL8 7797  -6.465  29.074 -10.302
   99XTA    HL9 7798  -6.390  29.071 -10.037
   99XTA   HL10 7799  -6.288  28.939 -10.090
   99XTA   HL11 7800  -6.499  28.871  -9.995
   99XTA   HL12 7801  -6.589  28.960 -10.105
   99XTA   HL13 7802  -6.410  28.744 -10.195
   99XTA   HL14 7803  -6.563  28.797 -10.276
   99XTA   HL15 7804  -6.559  28.651 -10.004
   99XTA   HL16 7805  -6.695  28.677 -10.096
   99XTA   HL17 7806  -6.580  28.438 -10.022
   99XTA   HL18 7807  -6.712  28.449 -10.147
   99XTA   HL19 7808  -6.723  28.212 -10.090
   99XTA   HL20 7809  -6.573  28.198 -10.012
   99XTA   HL21 7810  -6.631  28.025 -10.256
   99XTA   HL22 7811  -6.605  27.977 -10.082
   99XTA   HL23 7812  -6.470  28.048 -10.177
   99XTA   HL24 7813  -5.702  30.022 -10.220
   99XTA   HL25 7814  -5.644  29.964 -10.068
   99XTA    CO6 7815  -6.399  28.301 -10.185
   99XTA    CO7 7816  -6.603  28.292 -10.337
   99XTA    OA5 7817  -6.713  28.285 -10.348
   99XTA   HL26 7818  -6.346  28.201 -10.188
   99XTA   HL27 7819  -6.346  28.365 -10.065
   99XTA   HL28 7820  -6.547  28.213 -10.387
   99XTA   HL29 7821  -6.565  28.389 -10.373
  100XTA     NT 7822  -6.332  26.707  -7.029
  100XTA    CN1 7823  -6.266  26.700  -7.145
  100XTA     C1 7824  -6.154  26.615  -7.158
  100XTA     C2 7825  -6.086  26.599  -7.286
  100XTA     C3 7826  -6.144  26.672  -7.397
  100XTA     C4 7827  -6.253  26.752  -7.384
  100XTA     C5 7828  -6.317  26.768  -7.258
  100XTA    CN2 7829  -6.270  26.752  -6.918
  100XTA     C6 7830  -6.288  26.892  -6.890
  100XTA     C7 7831  -6.242  26.939  -6.769
  100XTA     C8 7832  -6.167  26.858  -6.679
  100XTA     C9 7833  -6.142  26.723  -6.710
  100XTA    C10 7834  -6.191  26.671  -6.835
  100XTA    CN3 7835  -6.456  26.649  -7.014
  100XTA    C11 7836  -6.492  26.532  -7.083
  100XTA    C12 7837  -6.623  26.483  -7.074
  100XTA    C13 7838  -6.715  26.557  -7.004
  100XTA    C14 7839  -6.683  26.672  -6.935
  100XTA    C15 7840  -6.550  26.717  -6.936
  100XTA     H1 7841  -6.112  26.564  -7.072
  100XTA     H2 7842  -5.999  26.536  -7.299
  100XTA     H3 7843  -6.288  26.807  -7.471
  100XTA     H4 7844  -6.410  26.825  -7.254
  100XTA     H5 7845  -6.347  26.949  -6.953
  100XTA     H6 7846  -6.259  27.042  -6.747
  100XTA     H7 7847  -6.085  26.657  -6.640
  100XTA     H8 7848  -6.163  26.568  -6.853
  100XTA     H9 7849  -6.412  26.480  -7.145
  100XTA    H10 7850  -6.644  26.392  -7.129
  100XTA    H11 7851  -6.762  26.737  -6.889
  100XTA    H12 7852  -6.526  26.812  -6.888
  100XTA    OA1 7853  -6.072  26.675  -7.515
  100XTA    CO1 7854  -6.012  26.555  -7.558
  100XTA    OA2 7855  -6.114  26.899  -6.562
  100XTA    CO2 7856  -6.143  27.029  -6.522
  100XTA    CL1 7857  -6.057  27.073  -6.403
  100XTA    CL2 7858  -6.088  26.983  -6.278
  100XTA    CL3 7859  -6.032  27.042  -6.150
  100XTA    CL4 7860  -6.036  26.948  -6.027
  100XTA    CO3 7861  -6.182  26.917  -5.985
  100XTA    OA3 7862  -6.250  27.032  -5.955
  100XTA    CO4 7863  -6.387  27.011  -5.966
  100XTA    CT1 7864  -6.467  27.136  -5.909
  100XTA    CL5 7865  -6.608  27.130  -5.974
  100XTA    CL6 7866  -6.620  27.172  -6.126
  100XTA    OA4 7867  -6.846  26.523  -6.999
  100XTA    CO5 7868  -6.874  26.386  -7.026
  100XTA    HL1 7869  -6.981  26.372  -7.031
  100XTA    HL2 7870  -6.077  26.468  -7.558
  100XTA    HL3 7871  -5.969  26.578  -7.654
  100XTA    HL4 7872  -5.925  26.533  -7.491
  100XTA    HL5 7873  -6.120  27.089  -6.609
  100XTA    HL6 7874  -6.252  27.047  -6.491
  100XTA    HL7 7875  -6.072  27.177  -6.377
  100XTA    HL8 7876  -5.955  27.051  -6.433
  100XTA    HL9 7877  -6.052  26.881  -6.302
  100XTA   HL10 7878  -6.196  26.987  -6.260
  100XTA   HL11 7879  -5.926  27.073  -6.180
  100XTA   HL12 7880  -6.090  27.130  -6.119
  100XTA   HL13 7881  -5.989  26.990  -5.936
  100XTA   HL14 7882  -5.991  26.857  -6.058
  100XTA   HL15 7883  -6.216  26.858  -6.072
  100XTA   HL16 7884  -6.179  26.849  -5.901
  100XTA   HL17 7885  -6.413  26.996  -6.073
  100XTA   HL18 7886  -6.406  26.920  -5.909
  100XTA   HL19 7887  -6.680  27.201  -5.930
  100XTA   HL20 7888  -6.653  27.033  -5.967
  100XTA   HL21 7889  -6.570  27.264  -6.143
  100XTA   HL22 7890  -6.724  27.186  -6.154
  100XTA   HL23 7891  -6.573  27.099  -6.193
  100XTA   HL24 7892  -6.827  26.317  -6.953
  100XTA   HL25 7893  -6.836  26.357  -7.125
  100XTA    CO6 7894  -6.385  27.270  -5.938
  100XTA    CO7 7895  -6.489  27.130  -5.756
  100XTA    OA5 7896  -6.268  27.295  -5.857
  100XTA   HL26 7897  -6.461  27.349  -5.924
  100XTA   HL27 7898  -6.356  27.274  -6.042
  100XTA   HL28 7899  -6.478  27.233  -5.706
  100XTA   HL29 7900  -6.410  27.078  -5.718
  101XTA     NT 7901  -8.683  23.122  -7.010
  101XTA    CN1 7902  -8.799  23.108  -7.074
  101XTA     C1 7903  -8.819  23.155  -7.205
  101XTA     C2 7904  -8.946  23.156  -7.264
  101XTA     C3 7905  -9.055  23.105  -7.195
  101XTA     C4 7906  -9.035  23.054  -7.069
  101XTA     C5 7907  -8.907  23.044  -7.015
  101XTA    CN2 7908  -8.633  23.245  -7.007
  101XTA     C6 7909  -8.541  23.296  -7.101
  101XTA     C7 7910  -8.500  23.430  -7.095
  101XTA     C8 7911  -8.547  23.520  -6.998
  101XTA     C9 7912  -8.639  23.470  -6.907
  101XTA    C10 7913  -8.681  23.338  -6.911
  101XTA    CN3 7914  -8.605  23.018  -6.980
  101XTA    C11 7915  -8.515  22.972  -7.084
  101XTA    C12 7916  -8.434  22.859  -7.061
  101XTA    C13 7917  -8.457  22.778  -6.946
  101XTA    C14 7918  -8.535  22.829  -6.848
  101XTA    C15 7919  -8.615  22.941  -6.861
  101XTA     H1 7920  -8.744  23.202  -7.266
  101XTA     H2 7921  -8.963  23.208  -7.356
  101XTA     H3 7922  -9.127  23.022  -7.020
  101XTA     H4 7923  -8.899  23.007  -6.910
  101XTA     H5 7924  -8.515  23.235  -7.189
  101XTA     H6 7925  -8.431  23.448  -7.174
  101XTA     H7 7926  -8.684  23.538  -6.835
  101XTA     H8 7927  -8.752  23.295  -6.840
  101XTA     H9 7928  -8.509  23.008  -7.186
  101XTA    H10 7929  -8.367  22.832  -7.140
  101XTA    H11 7930  -8.539  22.770  -6.753
  101XTA    H12 7931  -8.678  22.976  -6.786
  101XTA    OA1 7932  -9.176  23.102  -7.247
  101XTA    CO1 7933  -9.201  23.128  -7.384
  101XTA    OA2 7934  -8.509  23.650  -6.985
  101XTA    CO2 7935  -8.427  23.696  -7.092
  101XTA    CL1 7936  -8.424  23.848  -7.074
  101XTA    CL2 7937  -8.558  23.917  -7.076
  101XTA    CL3 7938  -8.537  24.070  -7.054
  101XTA    CL4 7939  -8.464  24.105  -6.920
  101XTA    CO3 7940  -8.418  24.245  -6.906
  101XTA    OA3 7941  -8.518  24.344  -6.942
  101XTA    CO4 7942  -8.614  24.371  -6.835
  101XTA    CT1 7943  -8.757  24.423  -6.883
  101XTA    CL5 7944  -8.737  24.558  -6.962
  101XTA    CL6 7945  -8.857  24.644  -6.985
  101XTA    OA4 7946  -8.396  22.659  -6.921
  101XTA    CO5 7947  -8.343  22.588  -7.036
  101XTA    HL1 7948  -8.425  22.571  -7.101
  101XTA    HL2 7949  -9.175  23.231  -7.407
  101XTA    HL3 7950  -9.146  23.058  -7.446
  101XTA    HL4 7951  -9.304  23.110  -7.409
  101XTA    HL5 7952  -8.317  23.671  -7.093
  101XTA    HL6 7953  -8.463  23.669  -7.190
  101XTA    HL7 7954  -8.363  23.892  -7.154
  101XTA    HL8 7955  -8.367  23.867  -6.985
  101XTA    HL9 7956  -8.619  23.882  -6.996
  101XTA   HL10 7957  -8.613  23.903  -7.169
  101XTA   HL11 7958  -8.488  24.095  -7.142
  101XTA   HL12 7959  -8.637  24.108  -7.051
  101XTA   HL13 7960  -8.377  24.043  -6.924
  101XTA   HL14 7961  -8.533  24.067  -6.845
  101XTA   HL15 7962  -8.373  24.268  -6.813
  101XTA   HL16 7963  -8.346  24.269  -6.980
  101XTA   HL17 7964  -8.632  24.283  -6.770
  101XTA   HL18 7965  -8.580  24.451  -6.765
  101XTA   HL19 7966  -8.683  24.535  -7.059
  101XTA   HL20 7967  -8.671  24.614  -6.895
  101XTA   HL21 7968  -8.896  24.679  -6.892
  101XTA   HL22 7969  -8.931  24.603  -7.051
  101XTA   HL23 7970  -8.823  24.738  -7.041
  101XTA   HL24 7971  -8.299  22.496  -6.996
  101XTA   HL25 7972  -8.262  22.642  -7.090
  101XTA    CO6 7973  -8.850  24.431  -6.754
  101XTA    CO7 7974  -8.825  24.314  -6.971
  101XTA    OA5 7975  -8.914  24.347  -7.014
  101XTA   HL26 7976  -8.954  24.466  -6.783
  101XTA   HL27 7977  -8.871  24.308  -6.703
  101XTA   HL28 7978  -8.839  24.230  -6.897
  101XTA   HL29 7979  -8.764  24.293  -7.056
  102XTA     NT 7980  -5.870  29.507  -4.329
  102XTA    CN1 7981  -5.899  29.614  -4.259
  102XTA     C1 7982  -6.016  29.636  -4.178
  102XTA     C2 7983  -6.053  29.764  -4.134
  102XTA     C3 7984  -5.970  29.874  -4.164
  102XTA     C4 7985  -5.837  29.855  -4.223
  102XTA     C5 7986  -5.813  29.729  -4.281
  102XTA    CN2 7987  -5.961  29.461  -4.422
  102XTA     C6 7988  -6.054  29.365  -4.390
  102XTA     C7 7989  -6.137  29.309  -4.491
  102XTA     C8 7990  -6.141  29.374  -4.618
  102XTA     C9 7991  -6.045  29.479  -4.645
  102XTA    C10 7992  -5.962  29.530  -4.542
  102XTA    CN3 7993  -5.767  29.422  -4.295
  102XTA    C11 7994  -5.784  29.332  -4.186
  102XTA    C12 7995  -5.687  29.242  -4.143
  102XTA    C13 7996  -5.559  29.245  -4.205
  102XTA    C14 7997  -5.540  29.334  -4.313
  102XTA    C15 7998  -5.639  29.428  -4.350
  102XTA     H1 7999  -6.085  29.561  -4.156
  102XTA     H2 8000  -6.141  29.773  -4.072
  102XTA     H3 8001  -5.778  29.944  -4.242
  102XTA     H4 8002  -5.723  29.723  -4.343
  102XTA     H5 8003  -6.050  29.314  -4.296
  102XTA     H6 8004  -6.203  29.220  -4.474
  102XTA     H7 8005  -6.034  29.525  -4.747
  102XTA     H8 8006  -5.898  29.614  -4.559
  102XTA     H9 8007  -5.882  29.337  -4.134
  102XTA    H10 8008  -5.708  29.174  -4.064
  102XTA    H11 8009  -5.448  29.331  -4.375
  102XTA    H12 8010  -5.625  29.499  -4.430
  102XTA    OA1 8011  -6.022  29.994  -4.120
  102XTA    CO1 8012  -5.961  30.116  -4.155
  102XTA    OA2 8013  -6.225  29.321  -4.717
  102XTA    CO2 8014  -6.195  29.348  -4.851
  102XTA    CL1 8015  -6.297  29.288  -4.950
  102XTA    CL2 8016  -6.300  29.136  -4.957
  102XTA    CL3 8017  -6.354  29.102  -5.098
  102XTA    CL4 8018  -6.387  28.955  -5.103
  102XTA    CO3 8019  -6.482  28.910  -5.211
  102XTA    OA3 8020  -6.599  28.986  -5.204
  102XTA    CO4 8021  -6.705  28.924  -5.138
  102XTA    CT1 8022  -6.803  29.028  -5.073
  102XTA    CL5 8023  -6.918  29.035  -5.168
  102XTA    CL6 8024  -7.041  29.101  -5.117
  102XTA    OA4 8025  -5.459  29.163  -4.164
  102XTA    CO5 8026  -5.476  29.095  -4.038
  102XTA    HL1 8027  -5.491  29.169  -3.961
  102XTA    HL2 8028  -5.986  30.137  -4.260
  102XTA    HL3 8029  -6.009  30.188  -4.091
  102XTA    HL4 8030  -5.849  30.120  -4.147
  102XTA    HL5 8031  -6.195  29.452  -4.856
  102XTA    HL6 8032  -6.096  29.322  -4.876
  102XTA    HL7 8033  -6.277  29.329  -5.043
  102XTA    HL8 8034  -6.402  29.318  -4.928
  102XTA    HL9 8035  -6.366  29.099  -4.875
  102XTA   HL10 8036  -6.195  29.093  -4.935
  102XTA   HL11 8037  -6.442  29.163  -5.128
  102XTA   HL12 8038  -6.283  29.120  -5.176
  102XTA   HL13 8039  -6.437  28.941  -5.002
  102XTA   HL14 8040  -6.290  28.896  -5.103
  102XTA   HL15 8041  -6.435  28.925  -5.306
  102XTA   HL16 8042  -6.483  28.800  -5.219
  102XTA   HL17 8043  -6.754  28.839  -5.188
  102XTA   HL18 8044  -6.662  28.875  -5.051
  102XTA   HL19 8045  -6.953  28.929  -5.204
  102XTA   HL20 8046  -6.882  29.082  -5.264
  102XTA   HL21 8047  -7.015  29.199  -5.069
  102XTA   HL22 8048  -7.099  29.053  -5.044
  102XTA   HL23 8049  -7.098  29.121  -5.205
  102XTA   HL24 8050  -5.384  29.040  -4.016
  102XTA   HL25 8051  -5.559  29.028  -4.040
  102XTA    CO6 8052  -6.749  29.176  -5.061
  102XTA    CO7 8053  -6.852  28.970  -4.936
  102XTA    OA5 8054  -6.772  28.943  -4.864
  102XTA   HL26 8055  -6.652  29.160  -5.019
  102XTA   HL27 8056  -6.731  29.225  -5.188
  102XTA   HL28 8057  -6.907  28.884  -4.967
  102XTA   HL29 8058  -6.937  29.028  -4.899
  103XTA     NT 8059  -6.957  29.212  -5.549
  103XTA    CN1 8060  -6.989  29.299  -5.456
  103XTA     C1 8061  -6.894  29.329  -5.361
  103XTA     C2 8062  -6.927  29.430  -5.267
  103XTA     C3 8063  -7.045  29.512  -5.279
  103XTA     C4 8064  -7.138  29.486  -5.382
  103XTA     C5 8065  -7.108  29.384  -5.474
  103XTA    CN2 8066  -6.948  29.085  -5.524
  103XTA     C6 8067  -6.820  29.034  -5.509
  103XTA     C7 8068  -6.803  28.897  -5.475
  103XTA     C8 8069  -6.909  28.807  -5.468
  103XTA     C9 8070  -7.037  28.859  -5.487
  103XTA    C10 8071  -7.056  28.995  -5.504
  103XTA    CN3 8072  -6.921  29.250  -5.677
  103XTA    C11 8073  -7.008  29.238  -5.783
  103XTA    C12 8074  -6.963  29.274  -5.910
  103XTA    C13 8075  -6.833  29.321  -5.935
  103XTA    C14 8076  -6.743  29.332  -5.830
  103XTA    C15 8077  -6.788  29.295  -5.703
  103XTA     H1 8078  -6.800  29.278  -5.355
  103XTA     H2 8079  -6.863  29.454  -5.180
  103XTA     H3 8080  -7.221  29.557  -5.398
  103XTA     H4 8081  -7.172  29.369  -5.557
  103XTA     H5 8082  -6.735  29.089  -5.527
  103XTA     H6 8083  -6.702  28.865  -5.460
  103XTA     H7 8084  -7.121  28.791  -5.473
  103XTA     H8 8085  -7.158  29.023  -5.503
  103XTA     H9 8086  -7.101  29.195  -5.764
  103XTA    H10 8087  -7.025  29.265  -5.992
  103XTA    H11 8088  -6.646  29.357  -5.845
  103XTA    H12 8089  -6.722  29.300  -5.620
  103XTA    OA1 8090  -7.055  29.612  -5.186
  103XTA    CO1 8091  -7.189  29.670  -5.162
  103XTA    OA2 8092  -6.883  28.681  -5.439
  103XTA    CO2 8093  -6.991  28.595  -5.399
  103XTA    CL1 8094  -6.943  28.451  -5.401
  103XTA    CL2 8095  -7.061  28.363  -5.355
  103XTA    CL3 8096  -7.017  28.211  -5.344
  103XTA    CL4 8097  -6.931  28.185  -5.215
  103XTA    CO3 8098  -6.865  28.047  -5.236
  103XTA    OA3 8099  -6.754  28.072  -5.326
  103XTA    CO4 8100  -6.640  28.131  -5.266
  103XTA    CT1 8101  -6.514  28.124  -5.357
  103XTA    CL5 8102  -6.403  28.188  -5.277
  103XTA    CL6 8103  -6.268  28.202  -5.361
  103XTA    OA4 8104  -6.796  29.346  -6.065
  103XTA    CO5 8105  -6.657  29.341  -6.093
  103XTA    HL1 8106  -6.634  29.344  -6.200
  103XTA    HL2 8107  -7.209  29.726  -5.247
  103XTA    HL3 8108  -7.268  29.588  -5.161
  103XTA    HL4 8109  -7.187  29.737  -5.068
  103XTA    HL5 8110  -7.025  28.624  -5.300
  103XTA    HL6 8111  -7.074  28.600  -5.477
  103XTA    HL7 8112  -6.856  28.435  -5.337
  103XTA    HL8 8113  -6.911  28.424  -5.499
  103XTA    HL9 8114  -7.143  28.362  -5.431
  103XTA   HL10 8115  -7.099  28.395  -5.261
  103XTA   HL11 8116  -7.108  28.159  -5.338
  103XTA   HL12 8117  -6.959  28.174  -5.428
  103XTA   HL13 8118  -6.995  28.183  -5.131
  103XTA   HL14 8119  -6.853  28.258  -5.188
  103XTA   HL15 8120  -6.829  27.990  -5.153
  103XTA   HL16 8121  -6.937  27.977  -5.288
  103XTA   HL17 8122  -6.673  28.228  -5.254
  103XTA   HL18 8123  -6.612  28.101  -5.165
  103XTA   HL19 8124  -6.376  28.125  -5.192
  103XTA   HL20 8125  -6.432  28.286  -5.249
  103XTA   HL21 8126  -6.259  28.270  -5.438
  103XTA   HL22 8127  -6.250  28.106  -5.404
  103XTA   HL23 8128  -6.189  28.215  -5.291
  103XTA   HL24 8129  -6.610  29.248  -6.065
  103XTA   HL25 8130  -6.599  29.429  -6.057
  103XTA    CO6 8131  -6.537  28.204  -5.482
  103XTA    CO7 8132  -6.482  27.980  -5.397
  103XTA    OA5 8133  -6.504  27.884  -5.291
  103XTA   HL26 8134  -6.445  28.200  -5.539
  103XTA   HL27 8135  -6.557  28.302  -5.439
  103XTA   HL28 8136  -6.390  27.955  -5.438
  103XTA   HL29 8137  -6.547  27.950  -5.478
  104XTA     NT 8138  -8.103  30.678 -10.252
  104XTA    CN1 8139  -8.083  30.627 -10.375
  104XTA     C1 8140  -8.020  30.703 -10.477
  104XTA     C2 8141  -8.003  30.654 -10.606
  104XTA     C3 8142  -8.055  30.531 -10.643
  104XTA     C4 8143  -8.115  30.452 -10.540
  104XTA     C5 8144  -8.123  30.497 -10.408
  104XTA    CN2 8145  -8.221  30.662 -10.186
  104XTA     C6 8146  -8.334  30.658 -10.260
  104XTA     C7 8147  -8.458  30.645 -10.198
  104XTA     C8 8148  -8.474  30.636 -10.059
  104XTA     C9 8149  -8.355  30.636  -9.981
  104XTA    C10 8150  -8.229  30.650 -10.042
  104XTA    CN3 8151  -7.990  30.707 -10.185
  104XTA    C11 8152  -7.913  30.599 -10.124
  104XTA    C12 8153  -7.784  30.631 -10.066
  104XTA    C13 8154  -7.738  30.766 -10.061
  104XTA    C14 8155  -7.818  30.870 -10.111
  104XTA    C15 8156  -7.943  30.842 -10.174
  104XTA     H1 8157  -7.978  30.800 -10.452
  104XTA     H2 8158  -7.954  30.722 -10.669
  104XTA     H3 8159  -8.153  30.362 -10.574
  104XTA     H4 8160  -8.174  30.428 -10.336
  104XTA     H5 8161  -8.329  30.660 -10.368
  104XTA     H6 8162  -8.547  30.630 -10.257
  104XTA     H7 8163  -8.348  30.631  -9.874
  104XTA     H8 8164  -8.137  30.670  -9.980
  104XTA     H9 8165  -7.959  30.505 -10.138
  104XTA    H10 8166  -7.731  30.550 -10.016
  104XTA    H11 8167  -7.789  30.975 -10.110
  104XTA    H12 8168  -7.996  30.926 -10.218
  104XTA    OA1 8169  -8.032  30.487 -10.770
  104XTA    CO1 8170  -8.148  30.482 -10.850
  104XTA    OA2 8171  -8.599  30.622 -10.001
  104XTA    CO2 8172  -8.657  30.751  -9.979
  104XTA    CL1 8173  -8.574  30.860  -9.920
  104XTA    CL2 8174  -8.641  30.999  -9.927
  104XTA    CL3 8175  -8.670  31.020 -10.073
  104XTA    CL4 8176  -8.669  31.162 -10.120
  104XTA    CO3 8177  -8.531  31.211 -10.165
  104XTA    OA3 8178  -8.566  31.339 -10.203
  104XTA    CO4 8179  -8.452  31.410 -10.240
  104XTA    CT1 8180  -8.485  31.547 -10.303
  104XTA    CL5 8181  -8.354  31.623 -10.311
  104XTA    CL6 8182  -8.257  31.564 -10.415
  104XTA    OA4 8183  -7.621  30.791  -9.994
  104XTA    CO5 8184  -7.582  30.920  -9.951
  104XTA    HL1 8185  -7.649  30.958  -9.880
  104XTA    HL2 8186  -8.196  30.573 -10.849
  104XTA    HL3 8187  -8.131  30.452 -10.957
  104XTA    HL4 8188  -8.235  30.414 -10.820
  104XTA    HL5 8189  -8.699  30.777 -10.076
  104XTA    HL6 8190  -8.750  30.731  -9.926
  104XTA    HL7 8191  -8.481  30.873  -9.979
  104XTA    HL8 8192  -8.531  30.835  -9.818
  104XTA    HL9 8193  -8.576  31.081  -9.887
  104XTA   HL10 8194  -8.747  31.000  -9.881
  104XTA   HL11 8195  -8.611  30.963 -10.138
  104XTA   HL12 8196  -8.777  30.990 -10.091
  104XTA   HL13 8197  -8.710  31.225 -10.046
  104XTA   HL14 8198  -8.737  31.169 -10.200
  104XTA   HL15 8199  -8.461  31.211 -10.076
  104XTA   HL16 8200  -8.483  31.153 -10.243
  104XTA   HL17 8201  -8.383  31.419 -10.156
  104XTA   HL18 8202  -8.411  31.342 -10.316
  104XTA   HL19 8203  -8.315  31.607 -10.209
  104XTA   HL20 8204  -8.373  31.732 -10.325
  104XTA   HL21 8205  -8.243  31.460 -10.381
  104XTA   HL22 8206  -8.162  31.609 -10.395
  104XTA   HL23 8207  -8.290  31.580 -10.520
  104XTA   HL24 8208  -7.562  30.991 -10.033
  104XTA   HL25 8209  -7.487  30.907  -9.889
  104XTA    CO6 8210  -8.596  31.618 -10.219
  104XTA    CO7 8211  -8.552  31.531 -10.445
  104XTA    OA5 8212  -8.477  31.445 -10.534
  104XTA   HL26 8213  -8.606  31.714 -10.260
  104XTA   HL27 8214  -8.686  31.564 -10.224
  104XTA   HL28 8215  -8.568  31.623 -10.505
  104XTA   HL29 8216  -8.657  31.498 -10.431
  105XTH     NT 8217  -3.362  29.348  -6.171
  105XTH    CN1 8218  -3.285  29.241  -6.199
  105XTH     C1 8219  -3.212  29.190  -6.089
  105XTH     C2 8220  -3.133  29.073  -6.113
  105XTH     C3 8221  -3.126  29.009  -6.235
  105XTH     C4 8222  -3.209  29.054  -6.342
  105XTH     C5 8223  -3.290  29.171  -6.320
  105XTH    CN2 8224  -3.317  29.460  -6.226
  105XTH     C6 8225  -3.216  29.542  -6.165
  105XTH     C7 8226  -3.183  29.655  -6.237
  105XTH     C8 8227  -3.231  29.683  -6.365
  105XTH     C9 8228  -3.314  29.600  -6.430
  105XTH    C10 8229  -3.360  29.494  -6.357
  105XTH    CN3 8230  -3.488  29.337  -6.122
  105XTH    C11 8231  -3.527  29.395  -6.002
  105XTH    C12 8232  -3.661  29.410  -5.966
  105XTH    C13 8233  -3.768  29.366  -6.060
  105XTH    C14 8234  -3.728  29.301  -6.176
  105XTH    C15 8235  -3.593  29.290  -6.207
  105XTH     H1 8236  -3.214  29.251  -5.994
  105XTH     H2 8237  -3.073  29.042  -6.028
  105XTH     H3 8238  -3.191  29.029  -6.448
  105XTH     H4 8239  -3.355  29.206  -6.402
  105XTH     H5 8240  -3.188  29.534  -6.061
  105XTH     H6 8241  -3.114  29.725  -6.189
  105XTH     H7 8242  -3.343  29.626  -6.533
  105XTH     H8 8243  -3.429  29.428  -6.416
  105XTH     H9 8244  -3.448  29.434  -5.939
  105XTH    H10 8245  -3.692  29.463  -5.878
  105XTH    H11 8246  -3.796  29.262  -6.249
  105XTH    H12 8247  -3.566  29.234  -6.297
  105XTH    OA1 8248  -3.044  28.899  -6.255
  105XTH    CO1 8249  -2.953  28.868  -6.151
  105XTH    OA2 8250  -3.189  29.806  -6.421
  105XTH    CO2 8251  -3.209  29.919  -6.339
  105XTH    CL1 8252  -3.221  30.054  -6.426
  105XTH    CL2 8253  -3.192  30.184  -6.350
  105XTH    CL3 8254  -3.272  30.192  -6.220
  105XTH    CL4 8255  -3.425  30.212  -6.234
  105XTH    CO3 8256  -3.482  30.234  -6.097
  105XTH    OA3 8257  -3.625  30.252  -6.117
  105XTH    CO4 8258  -3.684  30.306  -5.997
  105XTH    CT1 8259  -3.809  30.394  -6.015
  105XTH    CL5 8260  -3.788  30.502  -6.126
  105XTH    CL6 8261  -3.913  30.567  -6.180
  105XTH    OA4 8262  -3.900  29.372  -6.026
  105XTH    CO5 8263  -3.927  29.463  -5.920
  105XTH    HL1 8264  -3.892  29.563  -5.946
  105XTH    HL2 8265  -3.007  28.827  -6.067
  105XTH    HL3 8266  -2.884  28.787  -6.173
  105XTH    HL4 8267  -2.882  28.953  -6.127
  105XTH    HL5 8268  -3.301  29.912  -6.279
  105XTH    HL6 8269  -3.127  29.929  -6.266
  105XTH    HL7 8270  -3.315  30.059  -6.478
  105XTH    HL8 8271  -3.143  30.055  -6.504
  105XTH    HL9 8272  -3.215  30.265  -6.414
  105XTH   HL10 8273  -3.083  30.174  -6.340
  105XTH   HL11 8274  -3.248  30.110  -6.141
  105XTH   HL12 8275  -3.231  30.283  -6.169
  105XTH   HL13 8276  -3.470  30.127  -6.293
  105XTH   HL14 8277  -3.439  30.307  -6.294
  105XTH   HL15 8278  -3.477  30.133  -6.049
  105XTH   HL16 8279  -3.431  30.318  -6.044
  105XTH   HL17 8280  -3.719  30.226  -5.926
  105XTH   HL18 8281  -3.607  30.366  -5.942
  105XTH   HL19 8282  -3.737  30.450  -6.205
  105XTH   HL20 8283  -3.729  30.583  -6.089
  105XTH   HL21 8284  -3.963  30.504  -6.248
  105XTH   HL22 8285  -3.891  30.658  -6.238
  105XTH   HL23 8286  -3.994  30.592  -6.107
  105XTH   HL24 8287  -3.883  29.428  -5.820
  105XTH   HL25 8288  -4.029  29.466  -5.886
  105XTH    CO6 8289  -3.843  30.467  -5.886
  105XTH    CO7 8290  -3.925  30.308  -6.061
  105XTH    OA5 8291  -3.968  30.215  -5.964
  105XTH   HL26 8292  -3.926  30.529  -5.907
  105XTH   HL27 8293  -3.871  30.389  -5.814
  105XTH   HL28 8294  -3.904  30.255  -6.158
  105XTH   HL29 8295  -4.013  30.368  -6.080
  106XTA     NT 8296  -5.031  30.242  -9.441
  106XTA    CN1 8297  -4.976  30.344  -9.514
  106XTA     C1 8298  -4.975  30.480  -9.483
  106XTA     C2 8299  -4.932  30.575  -9.576
  106XTA     C3 8300  -4.871  30.533  -9.696
  106XTA     C4 8301  -4.865  30.396  -9.726
  106XTA     C5 8302  -4.916  30.302  -9.637
  106XTA    CN2 8303  -5.156  30.223  -9.467
  106XTA     C6 8304  -5.253  30.283  -9.378
  106XTA     C7 8305  -5.390  30.253  -9.393
  106XTA     C8 8306  -5.437  30.177  -9.501
  106XTA     C9 8307  -5.340  30.128  -9.594
  106XTA    C10 8308  -5.204  30.144  -9.577
  106XTA    CN3 8309  -4.953  30.168  -9.363
  106XTA    C11 8310  -4.844  30.093  -9.406
  106XTA    C12 8311  -4.767  30.013  -9.315
  106XTA    C13 8312  -4.801  30.006  -9.181
  106XTA    C14 8313  -4.905  30.091  -9.134
  106XTA    C15 8314  -4.980  30.171  -9.225
  106XTA     H1 8315  -5.021  30.515  -9.395
  106XTA     H2 8316  -4.929  30.680  -9.555
  106XTA     H3 8317  -4.831  30.360  -9.821
  106XTA     H4 8318  -4.920  30.200  -9.662
  106XTA     H5 8319  -5.218  30.360  -9.310
  106XTA     H6 8320  -5.458  30.300  -9.323
  106XTA     H7 8321  -5.374  30.065  -9.677
  106XTA     H8 8322  -5.131  30.109  -9.653
  106XTA     H9 8323  -4.814  30.090  -9.511
  106XTA    H10 8324  -4.682  29.951  -9.348
  106XTA    H11 8325  -4.927  30.094  -9.028
  106XTA    H12 8326  -5.053  30.239  -9.184
  106XTA    OA1 8327  -4.825  30.622  -9.792
  106XTA    CO1 8328  -4.855  30.760  -9.774
  106XTA    OA2 8329  -5.569  30.155  -9.535
  106XTA    CO2 8330  -5.653  30.270  -9.523
  106XTA    CL1 8331  -5.606  30.372  -9.621
  106XTA    CL2 8332  -5.675  30.508  -9.604
  106XTA    CL3 8333  -5.828  30.494  -9.634
  106XTA    CL4 8334  -5.902  30.635  -9.603
  106XTA    CO3 8335  -6.046  30.596  -9.555
  106XTA    OA3 8336  -6.035  30.514  -9.441
  106XTA    CO4 8337  -6.144  30.418  -9.436
  106XTA    CT1 8338  -6.178  30.367  -9.294
  106XTA    CL5 8339  -6.283  30.261  -9.290
  106XTA    CL6 8340  -6.278  30.148  -9.388
  106XTA    OA4 8341  -4.740  29.912  -9.103
  106XTA    CO5 8342  -4.738  29.942  -8.966
  106XTA    HL1 8343  -4.659  29.895  -8.911
  106XTA    HL2 8344  -4.815  30.817  -9.851
  106XTA    HL3 8345  -4.957  30.786  -9.768
  106XTA    HL4 8346  -4.811  30.797  -9.676
  106XTA    HL5 8347  -5.744  30.223  -9.551
  106XTA    HL6 8348  -5.645  30.302  -9.421
  106XTA    HL7 8349  -5.615  30.320  -9.714
  106XTA    HL8 8350  -5.500  30.387  -9.609
  106XTA    HL9 8351  -5.628  30.576  -9.675
  106XTA   HL10 8352  -5.661  30.544  -9.501
  106XTA   HL11 8353  -5.849  30.455  -9.737
  106XTA   HL12 8354  -5.858  30.408  -9.578
  106XTA   HL13 8355  -5.908  30.692  -9.700
  106XTA   HL14 8356  -5.844  30.680  -9.522
  106XTA   HL15 8357  -6.105  30.686  -9.525
  106XTA   HL16 8358  -6.090  30.548  -9.639
  106XTA   HL17 8359  -6.224  30.465  -9.484
  106XTA   HL18 8360  -6.107  30.339  -9.500
  106XTA   HL19 8361  -6.379  30.311  -9.307
  106XTA   HL20 8362  -6.296  30.232  -9.186
  106XTA   HL21 8363  -6.310  30.189  -9.484
  106XTA   HL22 8364  -6.351  30.076  -9.344
  106XTA   HL23 8365  -6.181  30.097  -9.389
  106XTA   HL24 8366  -4.830  29.916  -8.916
  106XTA   HL25 8367  -4.718  30.054  -8.961
  106XTA    CO6 8368  -6.220  30.480  -9.207
  106XTA    CO7 8369  -6.048  30.308  -9.240
  106XTA    OA5 8370  -6.061  30.285  -9.103
  106XTA   HL26 8371  -6.143  30.553  -9.200
  106XTA   HL27 8372  -6.229  30.456  -9.097
  106XTA   HL28 8373  -5.962  30.364  -9.275
  106XTA   HL29 8374  -6.030  30.216  -9.286
  107XTH     NT 8375  -4.344  25.743 -11.884
  107XTH    CN1 8376  -4.411  25.689 -11.996
  107XTH     C1 8377  -4.434  25.550 -11.999
  107XTH     C2 8378  -4.495  25.490 -12.113
  107XTH     C3 8379  -4.519  25.566 -12.224
  107XTH     C4 8380  -4.484  25.701 -12.219
  107XTH     C5 8381  -4.439  25.766 -12.108
  107XTH    CN2 8382  -4.391  25.756 -11.757
  107XTH     C6 8383  -4.521  25.804 -11.735
  107XTH     C7 8384  -4.579  25.818 -11.609
  107XTH     C8 8385  -4.510  25.769 -11.496
  107XTH     C9 8386  -4.382  25.708 -11.518
  107XTH    C10 8387  -4.320  25.705 -11.644
  107XTH    CN3 8388  -4.211  25.771 -11.906
  107XTH    C11 8389  -4.123  25.670 -11.944
  107XTH    C12 8390  -3.989  25.698 -11.970
  107XTH    C13 8391  -3.944  25.829 -11.963
  107XTH    C14 8392  -4.033  25.932 -11.924
  107XTH    C15 8393  -4.163  25.900 -11.889
  107XTH     H1 8394  -4.419  25.477 -11.914
  107XTH     H2 8395  -4.520  25.387 -12.100
  107XTH     H3 8396  -4.476  25.753 -12.310
  107XTH     H4 8397  -4.423  25.874 -12.106
  107XTH     H5 8398  -4.580  25.835 -11.821
  107XTH     H6 8399  -4.670  25.876 -11.587
  107XTH     H7 8400  -4.339  25.666 -11.423
  107XTH     H8 8401  -4.224  25.653 -11.665
  107XTH     H9 8402  -4.164  25.571 -11.953
  107XTH    H10 8403  -3.908  25.634 -12.000
  107XTH    H11 8404  -3.996  26.034 -11.928
  107XTH    H12 8405  -4.229  25.983 -11.850
  107XTH    OA1 8406  -4.554  25.518 -12.341
  107XTH    CO1 8407  -4.626  25.407 -12.340
  107XTH    OA2 8408  -4.558  25.797 -11.369
  107XTH    CO2 8409  -4.489  25.907 -11.315
  107XTH    CL1 8410  -4.494  25.914 -11.163
  107XTH    CL2 8411  -4.420  26.029 -11.099
  107XTH    CL3 8412  -4.428  26.015 -10.943
  107XTH    CL4 8413  -4.378  26.138 -10.861
  107XTH    CO3 8414  -4.226  26.176 -10.883
  107XTH    OA3 8415  -4.144  26.083 -10.816
  107XTH    CO4 8416  -4.004  26.117 -10.812
  107XTH    CT1 8417  -3.926  26.000 -10.772
  107XTH    CL5 8418  -3.778  26.035 -10.778
  107XTH    CL6 8419  -3.721  26.152 -10.706
  107XTH    OA4 8420  -3.814  25.857 -11.985
  107XTH    CO5 8421  -3.781  25.970 -12.071
  107XTH    HL1 8422  -3.829  25.943 -12.168
  107XTH    HL2 8423  -4.626  25.387 -12.448
  107XTH    HL3 8424  -4.571  25.326 -12.290
  107XTH    HL4 8425  -4.727  25.404 -12.316
  107XTH    HL5 8426  -4.385  25.911 -11.348
  107XTH    HL6 8427  -4.534  25.986 -11.366
  107XTH    HL7 8428  -4.455  25.827 -11.110
  107XTH    HL8 8429  -4.600  25.911 -11.129
  107XTH    HL9 8430  -4.466  26.123 -11.137
  107XTH   HL10 8431  -4.315  26.013 -11.129
  107XTH   HL11 8432  -4.531  26.013 -10.913
  107XTH   HL12 8433  -4.389  25.925 -10.911
  107XTH   HL13 8434  -4.383  26.119 -10.754
  107XTH   HL14 8435  -4.440  26.223 -10.882
  107XTH   HL15 8436  -4.191  26.174 -10.986
  107XTH   HL16 8437  -4.207  26.272 -10.838
  107XTH   HL17 8438  -3.969  26.160 -10.910
  107XTH   HL18 8439  -3.992  26.193 -10.732
  107XTH   HL19 8440  -3.748  26.046 -10.882
  107XTH   HL20 8441  -3.714  25.955 -10.748
  107XTH   HL21 8442  -3.611  26.173 -10.731
  107XTH   HL22 8443  -3.728  26.134 -10.602
  107XTH   HL23 8444  -3.779  26.248 -10.722
  107XTH   HL24 8445  -3.672  25.979 -12.078
  107XTH   HL25 8446  -3.811  26.065 -12.043
  107XTH    CO6 8447  -3.933  25.892 -10.879
  107XTH    CO7 8448  -3.969  25.943 -10.635
  107XTH    OA5 8449  -3.855  25.883 -10.572
  107XTH   HL26 8450  -4.030  25.839 -10.876
  107XTH   HL27 8451  -3.924  25.946 -10.974
  107XTH   HL28 8452  -4.048  25.863 -10.642
  107XTH   HL29 8453  -4.005  26.028 -10.580
  108XTA     NT 8454  -4.207  24.261  -9.008
  108XTA    CN1 8455  -4.138  24.157  -8.954
  108XTA     C1 8456  -4.046  24.189  -8.854
  108XTA     C2 8457  -3.968  24.093  -8.791
  108XTA     C3 8458  -3.980  23.959  -8.842
  108XTA     C4 8459  -4.069  23.927  -8.944
  108XTA     C5 8460  -4.153  24.025  -8.998
  108XTA    CN2 8461  -4.162  24.351  -9.094
  108XTA     C6 8462  -4.217  24.482  -9.101
  108XTA     C7 8463  -4.161  24.574  -9.195
  108XTA     C8 8464  -4.070  24.528  -9.296
  108XTA     C9 8465  -4.021  24.401  -9.289
  108XTA    C10 8466  -4.063  24.312  -9.188
  108XTA    CN3 8467  -4.342  24.247  -9.005
  108XTA    C11 8468  -4.408  24.293  -8.886
  108XTA    C12 8469  -4.546  24.272  -8.869
  108XTA    C13 8470  -4.617  24.219  -8.979
  108XTA    C14 8471  -4.556  24.182  -9.102
  108XTA    C15 8472  -4.420  24.208  -9.114
  108XTA     H1 8473  -4.038  24.289  -8.820
  108XTA     H2 8474  -3.918  24.123  -8.702
  108XTA     H3 8475  -4.088  23.822  -8.966
  108XTA     H4 8476  -4.218  23.982  -9.080
  108XTA     H5 8477  -4.296  24.515  -9.041
  108XTA     H6 8478  -4.188  24.676  -9.194
  108XTA     H7 8479  -3.949  24.371  -9.366
  108XTA     H8 8480  -4.021  24.219  -9.177
  108XTA     H9 8481  -4.359  24.347  -8.802
  108XTA    H10 8482  -4.594  24.299  -8.779
  108XTA    H11 8483  -4.604  24.129  -9.182
  108XTA    H12 8484  -4.370  24.196  -9.209
  108XTA    OA1 8485  -3.902  23.855  -8.799
  108XTA    CO1 8486  -3.827  23.883  -8.685
  108XTA    OA2 8487  -4.020  24.605  -9.400
  108XTA    CO2 8488  -4.056  24.741  -9.414
  108XTA    CL1 8489  -4.009  24.780  -9.548
  108XTA    CL2 8490  -4.054  24.932  -9.579
  108XTA    CL3 8491  -4.118  24.971  -9.711
  108XTA    CL4 8492  -4.059  24.912  -9.838
  108XTA    CO3 8493  -4.145  24.949  -9.959
  108XTA    OA3 8494  -4.110  24.874 -10.070
  108XTA    CO4 8495  -4.194  24.892 -10.183
  108XTA    CT1 8496  -4.172  24.779 -10.284
  108XTA    CL5 8497  -4.234  24.831 -10.414
  108XTA    CL6 8498  -4.206  24.968 -10.474
  108XTA    OA4 8499  -4.744  24.187  -8.947
  108XTA    CO5 8500  -4.834  24.136  -9.046
  108XTA    HL1 8501  -4.825  24.178  -9.147
  108XTA    HL2 8502  -3.736  23.930  -8.707
  108XTA    HL3 8503  -3.875  23.924  -8.595
  108XTA    HL4 8504  -3.777  23.798  -8.634
  108XTA    HL5 8505  -4.160  24.749  -9.394
  108XTA    HL6 8506  -4.002  24.800  -9.339
  108XTA    HL7 8507  -4.051  24.719  -9.624
  108XTA    HL8 8508  -3.899  24.788  -9.545
  108XTA    HL9 8509  -3.960  24.987  -9.582
  108XTA   HL10 8510  -4.112  24.976  -9.497
  108XTA   HL11 8511  -4.222  24.944  -9.714
  108XTA   HL12 8512  -4.103  25.083  -9.718
  108XTA   HL13 8513  -4.054  24.804  -9.835
  108XTA   HL14 8514  -3.951  24.937  -9.844
  108XTA   HL15 8515  -4.249  24.934  -9.935
  108XTA   HL16 8516  -4.130  25.056  -9.989
  108XTA   HL17 8517  -4.297  24.886 -10.145
  108XTA   HL18 8518  -4.170  24.988 -10.229
  108XTA   HL19 8519  -4.347  24.843 -10.392
  108XTA   HL20 8520  -4.196  24.760 -10.486
  108XTA   HL21 8521  -4.242  25.050 -10.424
  108XTA   HL22 8522  -4.255  24.974 -10.570
  108XTA   HL23 8523  -4.096  24.996 -10.492
  108XTA   HL24 8524  -4.932  24.159  -9.010
  108XTA   HL25 8525  -4.824  24.028  -9.049
  108XTA    CO6 8526  -4.234  24.652 -10.231
  108XTA    CO7 8527  -4.027  24.758 -10.314
  108XTA    OA5 8528  -4.336  24.662 -10.206
  108XTA   HL26 8529  -4.175  24.631 -10.138
  108XTA   HL27 8530  -4.218  24.575 -10.307
  108XTA   HL28 8531  -3.971  24.859 -10.238
  108XTA   HL29 8532  -3.989  24.660 -10.274
  109XTA     NT 8533  -8.966  27.234  -9.596
  109XTA    CN1 8534  -8.892  27.339  -9.620
  109XTA     C1 8535  -8.751  27.331  -9.616
  109XTA     C2 8536  -8.667  27.440  -9.626
  109XTA     C3 8537  -8.732  27.571  -9.637
  109XTA     C4 8538  -8.872  27.585  -9.650
  109XTA     C5 8539  -8.947  27.470  -9.640
  109XTA    CN2 8540  -9.004  27.211  -9.465
  109XTA     C6 8541  -8.924  27.129  -9.374
  109XTA     C7 8542  -8.958  27.119  -9.237
  109XTA     C8 8543  -9.061  27.201  -9.183
  109XTA     C9 8544  -9.128  27.289  -9.270
  109XTA    C10 8545  -9.107  27.292  -9.405
  109XTA    CN3 8546  -8.993  27.150  -9.699
  109XTA    C11 8547  -9.097  27.184  -9.787
  109XTA    C12 8548  -9.142  27.090  -9.875
  109XTA    C13 8549  -9.070  26.967  -9.890
  109XTA    C14 8550  -8.962  26.941  -9.805
  109XTA    C15 8551  -8.922  27.033  -9.708
  109XTA     H1 8552  -8.710  27.238  -9.601
  109XTA     H2 8553  -8.562  27.430  -9.614
  109XTA     H3 8554  -8.924  27.681  -9.661
  109XTA     H4 8555  -9.059  27.479  -9.648
  109XTA     H5 8556  -8.847  27.066  -9.414
  109XTA     H6 8557  -8.904  27.062  -9.173
  109XTA     H7 8558  -9.211  27.353  -9.235
  109XTA     H8 8559  -9.160  27.362  -9.466
  109XTA     H9 8560  -9.149  27.279  -9.779
  109XTA    H10 8561  -9.223  27.117  -9.937
  109XTA    H11 8562  -8.910  26.852  -9.817
  109XTA    H12 8563  -8.836  27.010  -9.648
  109XTA    OA1 8564  -8.638  27.678  -9.631
  109XTA    CO1 8565  -8.695  27.808  -9.623
  109XTA    OA2 8566  -9.099  27.210  -9.052
  109XTA    CO2 8567  -9.005  27.181  -8.949
  109XTA    CL1 8568  -9.049  27.207  -8.804
  109XTA    CL2 8569  -8.923  27.198  -8.713
  109XTA    CL3 8570  -8.905  27.061  -8.646
  109XTA    CL4 8571  -8.760  27.031  -8.599
  109XTA    CO3 8572  -8.740  26.902  -8.515
  109XTA    OA3 8573  -8.600  26.877  -8.509
  109XTA    CO4 8574  -8.544  26.861  -8.380
  109XTA    CT1 8575  -8.430  26.970  -8.364
  109XTA    CL5 8576  -8.314  26.953  -8.472
  109XTA    CL6 8577  -8.207  27.061  -8.489
  109XTA    OA4 8578  -9.112  26.885  -9.986
  109XTA    CO5 8579  -9.016  26.798 -10.038
  109XTA    HL1 8580  -8.993  26.719  -9.964
  109XTA    HL2 8581  -8.753  27.840  -9.705
  109XTA    HL3 8582  -8.767  27.817  -9.543
  109XTA    HL4 8583  -8.617  27.877  -9.607
  109XTA    HL5 8584  -8.985  27.074  -8.960
  109XTA    HL6 8585  -8.910  27.237  -8.966
  109XTA    HL7 8586  -9.126  27.131  -8.780
  109XTA    HL8 8587  -9.105  27.297  -8.805
  109XTA    HL9 8588  -8.929  27.277  -8.633
  109XTA   HL10 8589  -8.834  27.221  -8.773
  109XTA   HL11 8590  -8.987  27.041  -8.571
  109XTA   HL12 8591  -8.934  26.988  -8.734
  109XTA   HL13 8592  -8.735  27.117  -8.540
  109XTA   HL14 8593  -8.682  27.037  -8.677
  109XTA   HL15 8594  -8.799  26.904  -8.427
  109XTA   HL16 8595  -8.785  26.823  -8.573
  109XTA   HL17 8596  -8.617  26.879  -8.300
  109XTA   HL18 8597  -8.495  26.762  -8.358
  109XTA   HL19 8598  -8.363  26.943  -8.570
  109XTA   HL20 8599  -8.277  26.850  -8.465
  109XTA   HL21 8600  -8.126  27.042  -8.560
  109XTA   HL22 8601  -8.169  27.096  -8.397
  109XTA   HL23 8602  -8.256  27.157  -8.531
  109XTA   HL24 8603  -8.924  26.856 -10.062
  109XTA   HL25 8604  -9.053  26.731 -10.120
  109XTA    CO6 8605  -8.371  26.969  -8.216
  109XTA    CO7 8606  -8.492  27.107  -8.383
  109XTA    OA5 8607  -8.579  27.135  -8.274
  109XTA   HL26 8608  -8.455  26.979  -8.153
  109XTA   HL27 8609  -8.299  27.051  -8.197
  109XTA   HL28 8610  -8.538  27.126  -8.482
  109XTA   HL29 8611  -8.417  27.184  -8.379
  110XTA     NT 8612  -8.639  26.757 -10.875
  110XTA    CN1 8613  -8.702  26.707 -10.768
  110XTA     C1 8614  -8.635  26.694 -10.643
  110XTA     C2 8615  -8.699  26.633 -10.527
  110XTA     C3 8616  -8.824  26.575 -10.540
  110XTA     C4 8617  -8.888  26.592 -10.666
  110XTA     C5 8618  -8.834  26.659 -10.774
  110XTA    CN2 8619  -8.546  26.684 -10.942
  110XTA     C6 8620  -8.567  26.626 -11.068
  110XTA     C7 8621  -8.462  26.559 -11.133
  110XTA     C8 8622  -8.335  26.548 -11.078
  110XTA     C9 8623  -8.319  26.598 -10.946
  110XTA    C10 8624  -8.423  26.667 -10.881
  110XTA    CN3 8625  -8.636  26.893 -10.881
  110XTA    C11 8626  -8.665  26.947 -11.005
  110XTA    C12 8627  -8.682  27.084 -11.021
  110XTA    C13 8628  -8.665  27.169 -10.913
  110XTA    C14 8629  -8.618  27.117 -10.789
  110XTA    C15 8630  -8.610  26.978 -10.769
  110XTA     H1 8631  -8.532  26.722 -10.624
  110XTA     H2 8632  -8.636  26.636 -10.440
  110XTA     H3 8633  -8.977  26.534 -10.669
  110XTA     H4 8634  -8.889  26.670 -10.871
  110XTA     H5 8635  -8.664  26.645 -11.117
  110XTA     H6 8636  -8.470  26.513 -11.230
  110XTA     H7 8637  -8.224  26.569 -10.889
  110XTA     H8 8638  -8.407  26.712 -10.784
  110XTA     H9 8639  -8.677  26.882 -11.085
  110XTA    H10 8640  -8.708  27.119 -11.118
  110XTA    H11 8641  -8.605  27.179 -10.704
  110XTA    H12 8642  -8.592  26.936 -10.671
  110XTA    OA1 8643  -8.868  26.507 -10.428
  110XTA    CO1 8644  -8.983  26.429 -10.443
  110XTA    OA2 8645  -8.238  26.488 -11.154
  110XTA    CO2 8646  -8.104  26.520 -11.121
  110XTA    CL1 8647  -8.027  26.443 -11.227
  110XTA    CL2 8648  -8.040  26.286 -11.221
  110XTA    CL3 8649  -7.965  26.216 -11.109
  110XTA    CL4 8650  -7.985  26.061 -11.094
  110XTA    CO3 8651  -7.926  25.994 -10.969
  110XTA    OA3 8652  -7.820  26.072 -10.925
  110XTA    CO4 8653  -7.776  26.029 -10.801
  110XTA    CT1 8654  -7.702  26.130 -10.722
  110XTA    CL5 8655  -7.793  26.249 -10.686
  110XTA    CL6 8656  -7.913  26.203 -10.600
  110XTA    OA4 8657  -8.704  27.298 -10.939
  110XTA    CO5 8658  -8.628  27.400 -10.874
  110XTA    HL1 8659  -8.525  27.368 -10.880
  110XTA    HL2 8660  -9.007  26.388 -10.539
  110XTA    HL3 8661  -8.973  26.336 -10.375
  110XTA    HL4 8662  -9.070  26.481 -10.408
  110XTA    HL5 8663  -8.103  26.624 -11.123
  110XTA    HL6 8664  -8.072  26.478 -11.021
  110XTA    HL7 8665  -7.920  26.478 -11.217
  110XTA    HL8 8666  -8.047  26.483 -11.331
  110XTA    HL9 8667  -7.978  26.258 -11.312
  110XTA   HL10 8668  -8.141  26.250 -11.232
  110XTA   HL11 8669  -7.861  26.228 -11.111
  110XTA   HL12 8670  -8.004  26.253 -11.020
  110XTA   HL13 8671  -7.946  26.026 -11.181
  110XTA   HL14 8672  -8.085  26.034 -11.103
  110XTA   HL15 8673  -8.011  25.977 -10.900
  110XTA   HL16 8674  -7.875  25.903 -11.008
  110XTA   HL17 8675  -7.858  25.996 -10.743
  110XTA   HL18 8676  -7.709  25.945 -10.818
  110XTA   HL19 8677  -7.833  26.307 -10.772
  110XTA   HL20 8678  -7.738  26.319 -10.627
  110XTA   HL21 8679  -7.878  26.157 -10.512
  110XTA   HL22 8680  -7.994  26.154 -10.652
  110XTA   HL23 8681  -7.965  26.293 -10.572
  110XTA   HL24 8682  -8.647  27.420 -10.774
  110XTA   HL25 8683  -8.647  27.492 -10.926
  110XTA    CO6 8684  -7.590  26.179 -10.821
  110XTA    CO7 8685  -7.634  26.072 -10.593
  110XTA    OA5 8686  -7.598  26.149 -10.523
  110XTA   HL26 8687  -7.643  26.237 -10.898
  110XTA   HL27 8688  -7.506  26.277 -10.764
  110XTA   HL28 8689  -7.563  25.988 -10.611
  110XTA   HL29 8690  -7.716  26.024 -10.531
  111XTA     NT 8691  -7.822  28.460  -6.798
  111XTA    CN1 8692  -7.904  28.413  -6.702
  111XTA     C1 8693  -8.007  28.491  -6.643
  111XTA     C2 8694  -8.088  28.447  -6.532
  111XTA     C3 8695  -8.051  28.318  -6.474
  111XTA     C4 8696  -7.952  28.238  -6.538
  111XTA     C5 8697  -7.887  28.280  -6.653
  111XTA    CN2 8698  -7.713  28.520  -6.756
  111XTA     C6 8699  -7.597  28.443  -6.716
  111XTA     C7 8700  -7.488  28.507  -6.651
  111XTA     C8 8701  -7.487  28.643  -6.637
  111XTA     C9 8702  -7.598  28.721  -6.685
  111XTA    C10 8703  -7.704  28.655  -6.747
  111XTA    CN3 8704  -7.867  28.455  -6.925
  111XTA    C11 8705  -7.966  28.549  -6.968
  111XTA    C12 8706  -8.009  28.556  -7.106
  111XTA    C13 8707  -7.942  28.474  -7.203
  111XTA    C14 8708  -7.841  28.385  -7.162
  111XTA    C15 8709  -7.803  28.378  -7.027
  111XTA     H1 8710  -8.031  28.589  -6.678
  111XTA     H2 8711  -8.166  28.508  -6.483
  111XTA     H3 8712  -7.928  28.137  -6.491
  111XTA     H4 8713  -7.812  28.216  -6.693
  111XTA     H5 8714  -7.597  28.331  -6.715
  111XTA     H6 8715  -7.414  28.439  -6.621
  111XTA     H7 8716  -7.595  28.824  -6.676
  111XTA     H8 8717  -7.789  28.712  -6.788
  111XTA     H9 8718  -8.009  28.618  -6.896
  111XTA    H10 8719  -8.093  28.623  -7.124
  111XTA    H11 8720  -7.786  28.320  -7.228
  111XTA    H12 8721  -7.717  28.317  -7.006
  111XTA    OA1 8722  -8.101  28.269  -6.358
  111XTA    CO1 8723  -8.173  28.355  -6.282
  111XTA    OA2 8724  -7.384  28.708  -6.571
  111XTA    CO2 8725  -7.331  28.641  -6.460
  111XTA    CL1 8726  -7.235  28.743  -6.399
  111XTA    CL2 8727  -7.328  28.854  -6.342
  111XTA    CL3 8728  -7.255  28.953  -6.240
  111XTA    CL4 8729  -7.134  29.026  -6.308
  111XTA    CO3 8730  -7.002  28.952  -6.292
  111XTA    OA3 8731  -6.931  28.965  -6.167
  111XTA    CO4 8732  -6.839  28.851  -6.147
  111XTA    CT1 8733  -6.789  28.855  -6.007
  111XTA    CL5 8734  -6.692  28.975  -6.004
  111XTA    CL6 8735  -6.637  29.004  -5.868
  111XTA    OA4 8736  -7.987  28.468  -7.331
  111XTA    CO5 8737  -8.089  28.554  -7.369
  111XTA    HL1 8738  -8.186  28.524  -7.333
  111XTA    HL2 8739  -8.270  28.380  -6.322
  111XTA    HL3 8740  -8.173  28.313  -6.185
  111XTA    HL4 8741  -8.122  28.458  -6.271
  111XTA    HL5 8742  -7.412  28.618  -6.387
  111XTA    HL6 8743  -7.290  28.544  -6.488
  111XTA    HL7 8744  -7.162  28.770  -6.480
  111XTA    HL8 8745  -7.176  28.695  -6.324
  111XTA    HL9 8746  -7.413  28.810  -6.291
  111XTA   HL10 8747  -7.367  28.917  -6.422
  111XTA   HL11 8748  -7.329  29.030  -6.198
  111XTA   HL12 8749  -7.207  28.890  -6.164
  111XTA   HL13 8750  -7.126  29.123  -6.270
  111XTA   HL14 8751  -7.152  29.036  -6.415
  111XTA   HL15 8752  -7.021  28.846  -6.312
  111XTA   HL16 8753  -6.933  28.998  -6.368
  111XTA   HL17 8754  -6.886  28.750  -6.155
  111XTA   HL18 8755  -6.750  28.861  -6.203
  111XTA   HL19 8756  -6.747  29.072  -6.037
  111XTA   HL20 8757  -6.604  28.949  -6.070
  111XTA   HL21 8758  -6.571  28.917  -5.831
  111XTA   HL22 8759  -6.714  29.021  -5.789
  111XTA   HL23 8760  -6.582  29.098  -5.886
  111XTA   HL24 8761  -8.107  28.557  -7.480
  111XTA   HL25 8762  -8.072  28.661  -7.345
  111XTA    CO6 8763  -6.713  28.720  -5.969
  111XTA    CO7 8764  -6.904  28.868  -5.905
  111XTA    OA5 8765  -6.587  28.723  -6.041
  111XTA   HL26 8766  -6.763  28.629  -6.000
  111XTA   HL27 8767  -6.687  28.716  -5.855
  111XTA   HL28 8768  -6.857  28.889  -5.811
  111XTA   HL29 8769  -6.968  28.958  -5.911
  112XTA     NT 8770  -7.291  27.084  -6.876
  112XTA    CN1 8771  -7.210  27.029  -6.973
  112XTA     C1 8772  -7.218  26.891  -7.011
  112XTA     C2 8773  -7.124  26.828  -7.095
  112XTA     C3 8774  -7.017  26.900  -7.157
  112XTA     C4 8775  -7.011  27.036  -7.122
  112XTA     C5 8776  -7.091  27.099  -7.024
  112XTA    CN2 8777  -7.352  27.201  -6.912
  112XTA     C6 8778  -7.449  27.214  -7.015
  112XTA     C7 8779  -7.488  27.338  -7.060
  112XTA     C8 8780  -7.444  27.451  -6.987
  112XTA     C9 8781  -7.344  27.438  -6.884
  112XTA    C10 8782  -7.298  27.313  -6.848
  112XTA    CN3 8783  -7.326  27.024  -6.758
  112XTA    C11 8784  -7.458  26.983  -6.734
  112XTA    C12 8785  -7.486  26.922  -6.607
  112XTA    C13 8786  -7.388  26.901  -6.509
  112XTA    C14 8787  -7.255  26.945  -6.534
  112XTA    C15 8788  -7.226  27.009  -6.658
  112XTA     H1 8789  -7.298  26.834  -6.963
  112XTA     H2 8790  -7.142  26.720  -7.104
  112XTA     H3 8791  -6.932  27.097  -7.167
  112XTA     H4 8792  -7.071  27.198  -6.990
  112XTA     H5 8793  -7.483  27.126  -7.068
  112XTA     H6 8794  -7.556  27.346  -7.143
  112XTA     H7 8795  -7.306  27.529  -6.846
  112XTA     H8 8796  -7.238  27.314  -6.764
  112XTA     H9 8797  -7.536  26.994  -6.812
  112XTA    H10 8798  -7.582  26.882  -6.592
  112XTA    H11 8799  -7.179  26.919  -6.467
  112XTA    H12 8800  -7.123  27.034  -6.688
  112XTA    OA1 8801  -6.921  26.848  -7.245
  112XTA    CO1 8802  -6.927  26.710  -7.273
  112XTA    OA2 8803  -7.478  27.582  -7.022
  112XTA    CO2 8804  -7.492  27.598  -7.153
  112XTA    CL1 8805  -7.642  27.604  -7.183
  112XTA    CL2 8806  -7.676  27.595  -7.328
  112XTA    CL3 8807  -7.824  27.578  -7.343
  112XTA    CL4 8808  -7.854  27.432  -7.365
  112XTA    CO3 8809  -8.003  27.405  -7.376
  112XTA    OA3 8810  -8.040  27.427  -7.516
  112XTA    CO4 8811  -8.176  27.410  -7.556
  112XTA    CT1 8812  -8.243  27.550  -7.595
  112XTA    CL5 8813  -8.231  27.644  -7.469
  112XTA    CL6 8814  -8.314  27.781  -7.476
  112XTA    OA4 8815  -7.411  26.841  -6.385
  112XTA    CO5 8816  -7.553  26.812  -6.363
  112XTA    HL1 8817  -7.564  26.747  -6.275
  112XTA    HL2 8818  -6.848  26.678  -7.336
  112XTA    HL3 8819  -6.918  26.652  -7.180
  112XTA    HL4 8820  -7.025  26.695  -7.317
  112XTA    HL5 8821  -7.439  27.693  -7.183
  112XTA    HL6 8822  -7.444  27.520  -7.223
  112XTA    HL7 8823  -7.691  27.683  -7.114
  112XTA    HL8 8824  -7.679  27.511  -7.156
  112XTA    HL9 8825  -7.611  27.514  -7.370
  112XTA   HL10 8826  -7.658  27.689  -7.380
  112XTA   HL11 8827  -7.869  27.621  -7.258
  112XTA   HL12 8828  -7.856  27.628  -7.432
  112XTA   HL13 8829  -7.821  27.372  -7.286
  112XTA   HL14 8830  -7.802  27.396  -7.455
  112XTA   HL15 8831  -8.022  27.300  -7.341
  112XTA   HL16 8832  -8.060  27.466  -7.309
  112XTA   HL17 8833  -8.187  27.342  -7.641
  112XTA   HL18 8834  -8.233  27.362  -7.477
  112XTA   HL19 8835  -8.125  27.656  -7.450
  112XTA   HL20 8836  -8.257  27.587  -7.381
  112XTA   HL21 8837  -8.259  27.862  -7.517
  112XTA   HL22 8838  -8.342  27.816  -7.377
  112XTA   HL23 8839  -8.404  27.778  -7.528
  112XTA   HL24 8840  -7.589  26.753  -6.450
  112XTA   HL25 8841  -7.617  26.893  -6.348
  112XTA    CO6 8842  -8.391  27.527  -7.628
  112XTA    CO7 8843  -8.181  27.613  -7.720
  112XTA    OA5 8844  -8.241  27.681  -7.786
  112XTA   HL26 8845  -8.444  27.617  -7.645
  112XTA   HL27 8846  -8.400  27.455  -7.753
  112XTA   HL28 8847  -8.167  27.530  -7.790
  112XTA   HL29 8848  -8.084  27.651  -7.688
  113XTA     NT 8849  -8.329  25.972  -8.264
  113XTA    CN1 8850  -8.271  26.001  -8.148
  113XTA     C1 8851  -8.342  26.079  -8.052
  113XTA     C2 8852  -8.277  26.104  -7.931
  113XTA     C3 8853  -8.142  26.076  -7.913
  113XTA     C4 8854  -8.068  26.013  -8.015
  113XTA     C5 8855  -8.136  25.977  -8.131
  113XTA    CN2 8856  -8.266  26.014  -8.378
  113XTA     C6 8857  -8.269  26.153  -8.411
  113XTA     C7 8858  -8.210  26.191  -8.535
  113XTA     C8 8859  -8.146  26.103  -8.624
  113XTA     C9 8860  -8.147  25.969  -8.584
  113XTA    C10 8861  -8.200  25.924  -8.462
  113XTA    CN3 8862  -8.406  25.867  -8.273
  113XTA    C11 8863  -8.353  25.744  -8.247
  113XTA    C12 8864  -8.430  25.620  -8.246
  113XTA    C13 8865  -8.569  25.630  -8.281
  113XTA    C14 8866  -8.627  25.758  -8.305
  113XTA    C15 8867  -8.545  25.872  -8.303
  113XTA     H1 8868  -8.442  26.113  -8.068
  113XTA     H2 8869  -8.328  26.155  -7.848
  113XTA     H3 8870  -7.967  25.987  -8.004
  113XTA     H4 8871  -8.086  25.918  -8.206
  113XTA     H5 8872  -8.324  26.214  -8.339
  113XTA     H6 8873  -8.217  26.292  -8.566
  113XTA     H7 8874  -8.107  25.902  -8.648
  113XTA     H8 8875  -8.187  25.821  -8.422
  113XTA     H9 8876  -8.248  25.745  -8.236
  113XTA    H10 8877  -8.378  25.527  -8.228
  113XTA    H11 8878  -8.728  25.763  -8.345
  113XTA    H12 8879  -8.582  25.974  -8.323
  113XTA    OA1 8880  -8.083  26.100  -7.789
  113XTA    CO1 8881  -7.941  26.086  -7.775
  113XTA    OA2 8882  -8.105  26.150  -8.743
  113XTA    CO2 8883  -8.071  26.059  -8.841
  113XTA    CL1 8884  -8.021  26.135  -8.969
  113XTA    CL2 8885  -7.877  26.184  -8.959
  113XTA    CL3 8886  -7.847  26.296  -9.051
  113XTA    CL4 8887  -7.696  26.299  -9.097
  113XTA    CO3 8888  -7.670  26.403  -9.209
  113XTA    OA3 8889  -7.542  26.406  -9.256
  113XTA    CO4 8890  -7.515  26.521  -9.347
  113XTA    CT1 8891  -7.380  26.502  -9.418
  113XTA    CL5 8892  -7.267  26.486  -9.318
  113XTA    CL6 8893  -7.247  26.595  -9.215
  113XTA    OA4 8894  -8.651  25.521  -8.304
  113XTA    CO5 8895  -8.586  25.391  -8.292
  113XTA    HL1 8896  -8.504  25.386  -8.365
  113XTA    HL2 8897  -7.891  26.150  -7.854
  113XTA    HL3 8898  -7.920  26.127  -7.675
  113XTA    HL4 8899  -7.915  25.978  -7.778
  113XTA    HL5 8900  -7.993  25.993  -8.807
  113XTA    HL6 8901  -8.159  26.001  -8.872
  113XTA    HL7 8902  -8.081  26.226  -8.983
  113XTA    HL8 8903  -8.026  26.068  -9.059
  113XTA    HL9 8904  -7.808  26.106  -8.980
  113XTA   HL10 8905  -7.851  26.220  -8.860
  113XTA   HL11 8906  -7.908  26.280  -9.143
  113XTA   HL12 8907  -7.881  26.391  -9.022
  113XTA   HL13 8908  -7.671  26.203  -9.141
  113XTA   HL14 8909  -7.630  26.327  -9.010
  113XTA   HL15 8910  -7.733  26.384  -9.296
  113XTA   HL16 8911  -7.694  26.498  -9.173
  113XTA   HL17 8912  -7.588  26.546  -9.419
  113XTA   HL18 8913  -7.506  26.605  -9.282
  113XTA   HL19 8914  -7.179  26.479  -9.372
  113XTA   HL20 8915  -7.271  26.393  -9.261
  113XTA   HL21 8916  -7.151  26.581  -9.160
  113XTA   HL22 8917  -7.334  26.585  -9.154
  113XTA   HL23 8918  -7.249  26.691  -9.267
  113XTA   HL24 8919  -8.645  25.302  -8.313
  113XTA   HL25 8920  -8.558  25.383  -8.182
  113XTA    CO6 8921  -7.351  26.615  -9.518
  113XTA    CO7 8922  -7.375  26.381  -9.521
  113XTA    OA5 8923  -7.434  26.626  -9.593
  113XTA   HL26 8924  -7.266  26.594  -9.581
  113XTA   HL27 8925  -7.334  26.707  -9.468
  113XTA   HL28 8926  -7.277  26.397  -9.610
  113XTA   HL29 8927  -7.467  26.388  -9.576
  114XTA     NT 8928  -6.374  30.249  -4.507
  114XTA    CN1 8929  -6.458  30.248  -4.614
  114XTA     C1 8930  -6.557  30.151  -4.630
  114XTA     C2 8931  -6.643  30.143  -4.744
  114XTA     C3 8932  -6.613  30.233  -4.847
  114XTA     C4 8933  -6.524  30.339  -4.828
  114XTA     C5 8934  -6.450  30.350  -4.708
  114XTA    CN2 8935  -6.400  30.299  -4.386
  114XTA     C6 8936  -6.427  30.208  -4.279
  114XTA     C7 8937  -6.441  30.263  -4.149
  114XTA     C8 8938  -6.437  30.404  -4.131
  114XTA     C9 8939  -6.416  30.493  -4.237
  114XTA    C10 8940  -6.403  30.439  -4.369
  114XTA    CN3 8941  -6.250  30.203  -4.538
  114XTA    C11 8942  -6.151  30.295  -4.582
  114XTA    C12 8943  -6.023  30.249  -4.608
  114XTA    C13 8944  -5.992  30.107  -4.592
  114XTA    C14 8945  -6.087  30.016  -4.537
  114XTA    C15 8946  -6.217  30.067  -4.516
  114XTA     H1 8947  -6.579  30.089  -4.553
  114XTA     H2 8948  -6.726  30.069  -4.763
  114XTA     H3 8949  -6.509  30.418  -4.900
  114XTA     H4 8950  -6.376  30.430  -4.692
  114XTA     H5 8951  -6.449  30.101  -4.296
  114XTA     H6 8952  -6.455  30.202  -4.069
  114XTA     H7 8953  -6.410  30.600  -4.219
  114XTA     H8 8954  -6.371  30.503  -4.454
  114XTA     H9 8955  -6.173  30.401  -4.605
  114XTA    H10 8956  -5.944  30.318  -4.630
  114XTA    H11 8957  -6.076  29.915  -4.506
  114XTA    H12 8958  -6.288  30.001  -4.462
  114XTA    OA1 8959  -6.674  30.213  -4.968
  114XTA    CO1 8960  -6.636  30.292  -5.083
  114XTA    OA2 8961  -6.441  30.443  -4.003
  114XTA    CO2 8962  -6.488  30.571  -3.974
  114XTA    CL1 8963  -6.521  30.564  -3.827
  114XTA    CL2 8964  -6.391  30.543  -3.748
  114XTA    CL3 8965  -6.307  30.675  -3.741
  114XTA    CL4 8966  -6.164  30.655  -3.685
  114XTA    CO3 8967  -6.066  30.775  -3.692
  114XTA    OA3 8968  -5.949  30.753  -3.611
  114XTA    CO4 8969  -5.852  30.705  -3.699
  114XTA    CT1 8970  -5.733  30.647  -3.621
  114XTA    CL5 8971  -5.676  30.751  -3.516
  114XTA    CL6 8972  -5.649  30.886  -3.575
  114XTA    OA4 8973  -5.874  30.057  -4.632
  114XTA    CO5 8974  -5.855  29.915  -4.610
  114XTA    HL1 8975  -5.747  29.886  -4.626
  114XTA    HL2 8976  -6.676  30.260  -5.178
  114XTA    HL3 8977  -6.668  30.396  -5.060
  114XTA    HL4 8978  -6.532  30.295  -5.095
  114XTA    HL5 8979  -6.414  30.653  -3.998
  114XTA    HL6 8980  -6.581  30.590  -4.034
  114XTA    HL7 8981  -6.597  30.490  -3.801
  114XTA    HL8 8982  -6.572  30.658  -3.803
  114XTA    HL9 8983  -6.329  30.471  -3.796
  114XTA   HL10 8984  -6.398  30.497  -3.643
  114XTA   HL11 8985  -6.294  30.727  -3.837
  114XTA   HL12 8986  -6.352  30.755  -3.679
  114XTA   HL13 8987  -6.122  30.576  -3.742
  114XTA   HL14 8988  -6.167  30.616  -3.581
  114XTA   HL15 8989  -6.046  30.804  -3.795
  114XTA   HL16 8990  -6.100  30.871  -3.655
  114XTA   HL17 8991  -5.887  30.612  -3.748
  114XTA   HL18 8992  -5.827  30.790  -3.766
  114XTA   HL19 8993  -5.582  30.705  -3.477
  114XTA   HL20 8994  -5.758  30.771  -3.440
  114XTA   HL21 8995  -5.589  30.880  -3.670
  114XTA   HL22 8996  -5.591  30.954  -3.514
  114XTA   HL23 8997  -5.743  30.939  -3.601
  114XTA   HL24 8998  -5.918  29.863  -4.686
  114XTA   HL25 8999  -5.875  29.898  -4.512
  114XTA    CO6 9000  -5.619  30.603  -3.719
  114XTA    CO7 9001  -5.773  30.517  -3.543
  114XTA    OA5 9002  -5.655  30.521  -3.787
  114XTA   HL26 9003  -5.537  30.568  -3.663
  114XTA   HL27 9004  -5.578  30.690  -3.774
  114XTA   HL28 9005  -5.770  30.399  -3.616
  114XTA   HL29 9006  -5.868  30.535  -3.496
  115XTA     NT 9007  -6.275  30.095  -7.938
  115XTA    CN1 9008  -6.393  30.031  -7.915
  115XTA     C1 9009  -6.394  29.887  -7.898
  115XTA     C2 9010  -6.517  29.819  -7.883
  115XTA     C3 9011  -6.634  29.890  -7.879
  115XTA     C4 9012  -6.629  30.029  -7.874
  115XTA     C5 9013  -6.512  30.104  -7.899
  115XTA    CN2 9014  -6.182  30.094  -7.838
  115XTA     C6 9015  -6.065  30.019  -7.842
  115XTA     C7 9016  -5.974  30.024  -7.738
  115XTA     C8 9017  -5.990  30.102  -7.623
  115XTA     C9 9018  -6.115  30.169  -7.603
  115XTA    C10 9019  -6.200  30.168  -7.717
  115XTA    CN3 9020  -6.236  30.136  -8.059
  115XTA    C11 9021  -6.219  30.036  -8.157
  115XTA    C12 9022  -6.167  30.080  -8.279
  115XTA    C13 9023  -6.131  30.214  -8.301
  115XTA    C14 9024  -6.141  30.310  -8.200
  115XTA    C15 9025  -6.186  30.269  -8.077
  115XTA     H1 9026  -6.306  29.822  -7.922
  115XTA     H2 9027  -6.515  29.713  -7.878
  115XTA     H3 9028  -6.720  30.083  -7.864
  115XTA     H4 9029  -6.519  30.204  -7.910
  115XTA     H5 9030  -6.053  29.948  -7.922
  115XTA     H6 9031  -5.880  29.966  -7.749
  115XTA     H7 9032  -6.134  30.230  -7.515
  115XTA     H8 9033  -6.288  30.227  -7.711
  115XTA     H9 9034  -6.247  29.924  -8.145
  115XTA    H10 9035  -6.143  30.010  -8.352
  115XTA    H11 9036  -6.098  30.406  -8.217
  115XTA    H12 9037  -6.188  30.342  -7.992
  115XTA    OA1 9038  -6.756  29.835  -7.877
  115XTA    CO1 9039  -6.774  29.695  -7.866
  115XTA    OA2 9040  -5.900  30.123  -7.525
  115XTA    CO2 9041  -5.820  30.018  -7.479
  115XTA    CL1 9042  -5.731  30.062  -7.362
  115XTA    CL2 9043  -5.653  29.962  -7.285
  115XTA    CL3 9044  -5.741  29.855  -7.219
  115XTA    CL4 9045  -5.640  29.767  -7.137
  115XTA    CO3 9046  -5.550  29.660  -7.199
  115XTA    OA3 9047  -5.458  29.702  -7.296
  115XTA    CO4 9048  -5.432  29.604  -7.387
  115XTA    CT1 9049  -5.312  29.619  -7.476
  115XTA    CL5 9050  -5.333  29.748  -7.549
  115XTA    CL6 9051  -5.244  29.791  -7.659
  115XTA    OA4 9052  -6.057  30.242  -8.417
  115XTA    CO5 9053  -5.926  30.290  -8.399
  115XTA    HL1 9054  -5.876  30.279  -8.492
  115XTA    HL2 9055  -6.881  29.665  -7.860
  115XTA    HL3 9056  -6.742  29.629  -7.946
  115XTA    HL4 9057  -6.730  29.660  -7.771
  115XTA    HL5 9058  -5.883  29.941  -7.435
  115XTA    HL6 9059  -5.759  29.980  -7.553
  115XTA    HL7 9060  -5.785  30.121  -7.283
  115XTA    HL8 9061  -5.660  30.126  -7.406
  115XTA    HL9 9062  -5.592  30.023  -7.218
  115XTA   HL10 9063  -5.593  29.914  -7.358
  115XTA   HL11 9064  -5.820  29.906  -7.169
  115XTA   HL12 9065  -5.793  29.788  -7.290
  115XTA   HL13 9066  -5.693  29.716  -7.060
  115XTA   HL14 9067  -5.574  29.837  -7.084
  115XTA   HL15 9068  -5.499  29.595  -7.132
  115XTA   HL16 9069  -5.615  29.588  -7.245
  115XTA   HL17 9070  -5.423  29.506  -7.342
  115XTA   HL18 9071  -5.524  29.595  -7.444
  115XTA   HL19 9072  -5.354  29.826  -7.477
  115XTA   HL20 9073  -5.434  29.741  -7.589
  115XTA   HL21 9074  -5.299  29.875  -7.702
  115XTA   HL22 9075  -5.242  29.709  -7.727
  115XTA   HL23 9076  -5.147  29.809  -7.619
  115XTA   HL24 9077  -5.875  30.223  -8.329
  115XTA   HL25 9078  -5.933  30.394  -8.352
  115XTA    CO6 9079  -5.303  29.502  -7.581
  115XTA    CO7 9080  -5.179  29.636  -7.398
  115XTA    OA5 9081  -5.099  29.519  -7.378
  115XTA   HL26 9082  -5.224  29.518  -7.652
  115XTA   HL27 9083  -5.394  29.505  -7.635
  115XTA   HL28 9084  -5.198  29.685  -7.305
  115XTA   HL29 9085  -5.105  29.703  -7.452
  116XTA     NT 9086  -5.823  28.437  -6.918
  116XTA    CN1 9087  -5.721  28.522  -6.946
  116XTA     C1 9088  -5.649  28.575  -6.843
  116XTA     C2 9089  -5.549  28.663  -6.877
  116XTA     C3 9090  -5.521  28.706  -7.006
  116XTA     C4 9091  -5.602  28.650  -7.109
  116XTA     C5 9092  -5.704  28.558  -7.080
  116XTA    CN2 9093  -5.954  28.482  -6.911
  116XTA     C6 9094  -6.065  28.433  -6.986
  116XTA     C7 9095  -6.199  28.484  -6.980
  116XTA     C8 9096  -6.222  28.582  -6.883
  116XTA     C9 9097  -6.115  28.632  -6.810
  116XTA    C10 9098  -5.984  28.582  -6.816
  116XTA    CN3 9099  -5.797  28.308  -6.932
  116XTA    C11 9100  -5.795  28.242  -7.056
  116XTA    C12 9101  -5.756  28.110  -7.068
  116XTA    C13 9102  -5.741  28.039  -6.952
  116XTA    C14 9103  -5.767  28.090  -6.829
  116XTA    C15 9104  -5.792  28.229  -6.813
  116XTA     H1 9105  -5.676  28.558  -6.738
  116XTA     H2 9106  -5.496  28.691  -6.786
  116XTA     H3 9107  -5.588  28.686  -7.214
  116XTA     H4 9108  -5.770  28.514  -7.153
  116XTA     H5 9109  -6.048  28.364  -7.062
  116XTA     H6 9110  -6.286  28.445  -7.036
  116XTA     H7 9111  -6.123  28.709  -6.733
  116XTA     H8 9112  -5.896  28.636  -6.781
  116XTA     H9 9113  -5.803  28.305  -7.144
  116XTA    H10 9114  -5.749  28.062  -7.169
  116XTA    H11 9115  -5.747  28.024  -6.747
  116XTA    H12 9116  -5.799  28.272  -6.717
  116XTA    OA1 9117  -5.417  28.785  -7.043
  116XTA    CO1 9118  -5.308  28.798  -6.954
  116XTA    OA2 9119  -6.340  28.633  -6.849
  116XTA    CO2 9120  -6.460  28.583  -6.914
  116XTA    CL1 9121  -6.580  28.640  -6.837
  116XTA    CL2 9122  -6.567  28.602  -6.689
  116XTA    CL3 9123  -6.705  28.551  -6.642
  116XTA    CL4 9124  -6.700  28.495  -6.502
  116XTA    CO3 9125  -6.674  28.596  -6.389
  116XTA    OA3 9126  -6.671  28.538  -6.256
  116XTA    CO4 9127  -6.541  28.486  -6.220
  116XTA    CT1 9128  -6.531  28.465  -6.073
  116XTA    CL5 9129  -6.401  28.383  -6.053
  116XTA    CL6 9130  -6.353  28.350  -5.905
  116XTA    OA4 9131  -5.696  27.910  -6.964
  116XTA    CO5 9132  -5.555  27.897  -6.997
  116XTA    HL1 9133  -5.482  27.955  -6.951
  116XTA    HL2 9134  -5.261  28.704  -6.936
  116XTA    HL3 9135  -5.234  28.861  -7.001
  116XTA    HL4 9136  -5.347  28.842  -6.865
  116XTA    HL5 9137  -6.470  28.611  -7.021
  116XTA    HL6 9138  -6.454  28.472  -6.894
  116XTA    HL7 9139  -6.666  28.599  -6.884
  116XTA    HL8 9140  -6.575  28.750  -6.845
  116XTA    HL9 9141  -6.538  28.686  -6.620
  116XTA   HL10 9142  -6.488  28.531  -6.685
  116XTA   HL11 9143  -6.778  28.629  -6.646
  116XTA   HL12 9144  -6.745  28.473  -6.703
  116XTA   HL13 9145  -6.623  28.416  -6.510
  116XTA   HL14 9146  -6.795  28.454  -6.484
  116XTA   HL15 9147  -6.583  28.643  -6.424
  116XTA   HL16 9148  -6.737  28.684  -6.395
  116XTA   HL17 9149  -6.532  28.392  -6.266
  116XTA   HL18 9150  -6.459  28.538  -6.268
  116XTA   HL19 9151  -6.319  28.417  -6.112
  116XTA   HL20 9152  -6.435  28.290  -6.103
  116XTA   HL21 9153  -6.312  28.437  -5.858
  116XTA   HL22 9154  -6.270  28.285  -5.905
  116XTA   HL23 9155  -6.429  28.297  -5.843
  116XTA   HL24 9156  -5.532  27.940  -7.098
  116XTA   HL25 9157  -5.518  27.799  -6.983
  116XTA    CO6 9158  -6.664  28.388  -6.016
  116XTA    CO7 9159  -6.499  28.609  -6.015
  116XTA    OA5 9160  -6.695  28.409  -5.878
  116XTA   HL26 9161  -6.628  28.284  -6.031
  116XTA   HL27 9162  -6.750  28.423  -6.070
  116XTA   HL28 9163  -6.493  28.594  -5.911
  116XTA   HL29 9164  -6.402  28.642  -6.044
  117XTA     NT 9165  -7.135  28.906  -8.751
  117XTA    CN1 9166  -7.114  28.789  -8.808
  117XTA     C1 9167  -7.105  28.672  -8.735
  117XTA     C2 9168  -7.083  28.545  -8.796
  117XTA     C3 9169  -7.090  28.531  -8.932
  117XTA     C4 9170  -7.107  28.652  -9.011
  117XTA     C5 9171  -7.107  28.778  -8.948
  117XTA    CN2 9172  -7.264  28.949  -8.741
  117XTA     C6 9173  -7.358  28.882  -8.660
  117XTA     C7 9174  -7.488  28.923  -8.647
  117XTA     C8 9175  -7.529  29.039  -8.713
  117XTA     C9 9176  -7.438  29.109  -8.790
  117XTA    C10 9177  -7.306  29.057  -8.813
  117XTA    CN3 9178  -7.050  28.960  -8.666
  117XTA    C11 9179  -6.939  29.030  -8.717
  117XTA    C12 9180  -6.839  29.078  -8.634
  117XTA    C13 9181  -6.857  29.074  -8.496
  117XTA    C14 9182  -6.974  29.006  -8.445
  117XTA    C15 9183  -7.069  28.947  -8.528
  117XTA     H1 9184  -7.111  28.671  -8.627
  117XTA     H2 9185  -7.081  28.461  -8.729
  117XTA     H3 9186  -7.115  28.648  -9.121
  117XTA     H4 9187  -7.106  28.863  -9.016
  117XTA     H5 9188  -7.332  28.793  -8.599
  117XTA     H6 9189  -7.554  28.871  -8.585
  117XTA     H7 9190  -7.467  29.202  -8.835
  117XTA     H8 9191  -7.237  29.106  -8.886
  117XTA     H9 9192  -6.937  29.037  -8.828
  117XTA    H10 9193  -6.757  29.126  -8.681
  117XTA    H11 9194  -6.994  28.993  -8.343
  117XTA    H12 9195  -7.159  28.893  -8.494
  117XTA    OA1 9196  -7.096  28.406  -8.985
  117XTA    CO1 9197  -7.011  28.399  -9.101
  117XTA    OA2 9198  -7.659  29.085  -8.687
  117XTA    CO2 9199  -7.684  29.223  -8.701
  117XTA    CL1 9200  -7.819  29.243  -8.639
  117XTA    CL2 9201  -7.929  29.258  -8.745
  117XTA    CL3 9202  -8.058  29.246  -8.660
  117XTA    CL4 9203  -8.186  29.205  -8.746
  117XTA    CO3 9204  -8.303  29.167  -8.654
  117XTA    OA3 9205  -8.259  29.050  -8.585
  117XTA    CO4 9206  -8.352  28.990  -8.496
  117XTA    CT1 9207  -8.266  28.903  -8.400
  117XTA    CL5 9208  -8.351  28.838  -8.290
  117XTA    CL6 9209  -8.460  28.747  -8.341
  117XTA    OA4 9210  -6.756  29.117  -8.411
  117XTA    CO5 9211  -6.736  29.026  -8.307
  117XTA    HL1 9212  -6.818  29.021  -8.242
  117XTA    HL2 9213  -7.053  28.469  -9.176
  117XTA    HL3 9214  -6.914  28.431  -9.057
  117XTA    HL4 9215  -7.004  28.294  -9.131
  117XTA    HL5 9216  -7.602  29.280  -8.657
  117XTA    HL6 9217  -7.673  29.266  -8.803
  117XTA    HL7 9218  -7.813  29.341  -8.590
  117XTA    HL8 9219  -7.839  29.167  -8.557
  117XTA    HL9 9220  -7.920  29.181  -8.824
  117XTA   HL10 9221  -7.918  29.355  -8.791
  117XTA   HL11 9222  -8.060  29.178  -8.575
  117XTA   HL12 9223  -8.082  29.343  -8.620
  117XTA   HL13 9224  -8.170  29.119  -8.817
  117XTA   HL14 9225  -8.214  29.295  -8.806
  117XTA   HL15 9226  -8.332  29.247  -8.587
  117XTA   HL16 9227  -8.386  29.135  -8.711
  117XTA   HL17 9228  -8.413  29.065  -8.441
  117XTA   HL18 9229  -8.424  28.929  -8.550
  117XTA   HL19 9230  -8.394  28.908  -8.215
  117XTA   HL20 9231  -8.280  28.777  -8.235
  117XTA   HL21 9232  -8.414  28.673  -8.397
  117XTA   HL22 9233  -8.535  28.803  -8.391
  117XTA   HL23 9234  -8.504  28.695  -8.257
  117XTA   HL24 9235  -6.656  29.064  -8.246
  117XTA   HL25 9236  -6.711  28.926  -8.354
  117XTA    CO6 9237  -8.181  29.014  -8.329
  117XTA    CO7 9238  -8.175  28.798  -8.471
  117XTA    OA5 9239  -8.145  28.970  -8.198
  117XTA   HL26 9240  -8.235  29.106  -8.331
  117XTA   HL27 9241  -8.093  29.036  -8.393
  117XTA   HL28 9242  -8.123  28.748  -8.389
  117XTA   HL29 9243  -8.089  28.854  -8.510
  118XTH     NT 9244  -6.122  31.872  -5.994
  118XTH    CN1 9245  -6.031  31.943  -5.920
  118XTH     C1 9246  -5.909  31.983  -5.978
  118XTH     C2 9247  -5.810  32.045  -5.903
  118XTH     C3 9248  -5.831  32.068  -5.764
  118XTH     C4 9249  -5.953  32.036  -5.708
  118XTH     C5 9250  -6.050  31.976  -5.785
  118XTH    CN2 9251  -6.097  31.747  -6.031
  118XTH     C6 9252  -6.076  31.740  -6.170
  118XTH     C7 9253  -6.021  31.622  -6.227
  118XTH     C8 9254  -5.990  31.514  -6.139
  118XTH     C9 9255  -6.019  31.518  -6.003
  118XTH    C10 9256  -6.066  31.640  -5.945
  118XTH    CN3 9257  -6.238  31.933  -6.029
  118XTH    C11 9258  -6.234  32.033  -6.128
  118XTH    C12 9259  -6.355  32.094  -6.169
  118XTH    C13 9260  -6.473  32.064  -6.103
  118XTH    C14 9261  -6.474  31.974  -6.001
  118XTH    C15 9262  -6.360  31.903  -5.965
  118XTH     H1 9263  -5.885  31.968  -6.085
  118XTH     H2 9264  -5.723  32.060  -5.957
  118XTH     H3 9265  -5.977  32.057  -5.606
  118XTH     H4 9266  -6.136  31.943  -5.730
  118XTH     H5 9267  -6.092  31.820  -6.238
  118XTH     H6 9268  -6.001  31.603  -6.333
  118XTH     H7 9269  -5.993  31.432  -5.942
  118XTH     H8 9270  -6.084  31.653  -5.840
  118XTH     H9 9271  -6.146  32.063  -6.181
  118XTH    H10 9272  -6.364  32.160  -6.254
  118XTH    H11 9273  -6.570  31.953  -5.953
  118XTH    H12 9274  -6.376  31.827  -5.897
  118XTH    OA1 9275  -5.749  32.138  -5.690
  118XTH    CO1 9276  -5.612  32.123  -5.718
  118XTH    OA2 9277  -5.924  31.405  -6.197
  118XTH    CO2 9278  -5.902  31.278  -6.127
  118XTH    CL1 9279  -5.842  31.180  -6.221
  118XTH    CL2 9280  -5.756  31.071  -6.152
  118XTH    CL3 9281  -5.713  30.960  -6.248
  118XTH    CL4 9282  -5.562  30.935  -6.234
  118XTH    CO3 9283  -5.493  30.851  -6.338
  118XTH    OA3 9284  -5.422  30.925  -6.439
  118XTH    CO4 9285  -5.492  30.979  -6.546
  118XTH    CT1 9286  -5.424  31.101  -6.590
  118XTH    CL5 9287  -5.402  31.200  -6.477
  118XTH    CL6 9288  -5.533  31.256  -6.423
  118XTH    OA4 9289  -6.590  32.127  -6.142
  118XTH    CO5 9290  -6.647  32.202  -6.034
  118XTH    HL1 9291  -6.745  32.236  -6.059
  118XTH    HL2 9292  -5.572  32.165  -5.809
  118XTH    HL3 9293  -5.557  32.185  -5.646
  118XTH    HL4 9294  -5.589  32.017  -5.711
  118XTH    HL5 9295  -5.843  31.303  -6.039
  118XTH    HL6 9296  -5.996  31.244  -6.079
  118XTH    HL7 9297  -5.788  31.229  -6.307
  118XTH    HL8 9298  -5.921  31.123  -6.266
  118XTH    HL9 9299  -5.808  31.025  -6.070
  118XTH   HL10 9300  -5.672  31.120  -6.110
  118XTH   HL11 9301  -5.778  30.867  -6.264
  118XTH   HL12 9302  -5.720  31.008  -6.342
  118XTH   HL13 9303  -5.549  30.897  -6.126
  118XTH   HL14 9304  -5.503  31.033  -6.234
  118XTH   HL15 9305  -5.421  30.802  -6.270
  118XTH   HL16 9306  -5.561  30.772  -6.379
  118XTH   HL17 9307  -5.481  30.909  -6.625
  118XTH   HL18 9308  -5.593  30.999  -6.527
  118XTH   HL19 9309  -5.336  31.279  -6.503
  118XTH   HL20 9310  -5.352  31.152  -6.394
  118XTH   HL21 9311  -5.501  31.320  -6.336
  118XTH   HL22 9312  -5.601  31.181  -6.388
  118XTH   HL23 9313  -5.578  31.325  -6.496
  118XTH   HL24 9314  -6.586  32.285  -6.014
  118XTH   HL25 9315  -6.661  32.139  -5.952
  118XTH    CO6 9316  -5.512  31.164  -6.704
  118XTH    CO7 9317  -5.284  31.080  -6.665
  118XTH    OA5 9318  -5.470  31.299  -6.748
  118XTH   HL26 9319  -5.605  31.181  -6.665
  118XTH   HL27 9320  -5.527  31.094  -6.792
  118XTH   HL28 9321  -5.251  30.994  -6.606
  118XTH   HL29 9322  -5.299  31.028  -6.756
  119XTA     NT 9323  -4.154  27.785  -6.852
  119XTA    CN1 9324  -4.112  27.667  -6.801
  119XTA     C1 9325  -4.189  27.547  -6.809
  119XTA     C2 9326  -4.143  27.430  -6.755
  119XTA     C3 9327  -4.029  27.426  -6.680
  119XTA     C4 9328  -3.950  27.540  -6.669
  119XTA     C5 9329  -3.989  27.659  -6.729
  119XTA    CN2 9330  -4.208  27.868  -6.754
  119XTA     C6 9331  -4.150  27.995  -6.737
  119XTA     C7 9332  -4.209  28.087  -6.648
  119XTA     C8 9333  -4.331  28.047  -6.578
  119XTA     C9 9334  -4.393  27.930  -6.611
  119XTA    C10 9335  -4.334  27.843  -6.702
  119XTA    CN3 9336  -4.177  27.801  -6.986
  119XTA    C11 9337  -4.072  27.842  -7.074
  119XTA    C12 9338  -4.092  27.843  -7.211
  119XTA    C13 9339  -4.217  27.808  -7.267
  119XTA    C14 9340  -4.325  27.786  -7.184
  119XTA    C15 9341  -4.310  27.786  -7.040
  119XTA     H1 9342  -4.284  27.553  -6.867
  119XTA     H2 9343  -4.212  27.345  -6.758
  119XTA     H3 9344  -3.848  27.537  -6.622
  119XTA     H4 9345  -3.927  27.743  -6.724
  119XTA     H5 9346  -4.063  28.020  -6.795
  119XTA     H6 9347  -4.161  28.182  -6.637
  119XTA     H7 9348  -4.489  27.902  -6.571
  119XTA     H8 9349  -4.392  27.767  -6.747
  119XTA     H9 9350  -3.977  27.867  -7.030
  119XTA    H10 9351  -4.021  27.873  -7.283
  119XTA    H11 9352  -4.414  27.762  -7.230
  119XTA    H12 9353  -4.384  27.752  -6.974
  119XTA    OA1 9354  -3.985  27.313  -6.606
  119XTA    CO1 9355  -4.072  27.204  -6.590
  119XTA    OA2 9356  -4.379  28.150  -6.500
  119XTA    CO2 9357  -4.442  28.123  -6.379
  119XTA    CL1 9358  -4.513  28.243  -6.325
  119XTA    CL2 9359  -4.640  28.271  -6.404
  119XTA    CL3 9360  -4.701  28.414  -6.363
  119XTA    CL4 9361  -4.823  28.450  -6.448
  119XTA    CO3 9362  -4.927  28.337  -6.454
  119XTA    OA3 9363  -4.977  28.312  -6.325
  119XTA    CO4 9364  -5.087  28.222  -6.311
  119XTA    CT1 9365  -5.148  28.228  -6.173
  119XTA    CL5 9366  -5.174  28.367  -6.132
  119XTA    CL6 9367  -5.224  28.464  -6.248
  119XTA    OA4 9368  -4.221  27.820  -7.398
  119XTA    CO5 9369  -4.342  27.814  -7.459
  119XTA    HL1 9370  -4.321  27.835  -7.566
  119XTA    HL2 9371  -4.160  27.250  -6.536
  119XTA    HL3 9372  -4.095  27.161  -6.681
  119XTA    HL4 9373  -4.029  27.126  -6.526
  119XTA    HL5 9374  -4.513  28.047  -6.390
  119XTA    HL6 9375  -4.360  28.086  -6.309
  119XTA    HL7 9376  -4.448  28.330  -6.326
  119XTA    HL8 9377  -4.534  28.233  -6.217
  119XTA    HL9 9378  -4.707  28.188  -6.382
  119XTA   HL10 9379  -4.615  28.281  -6.509
  119XTA   HL11 9380  -4.741  28.403  -6.260
  119XTA   HL12 9381  -4.637  28.499  -6.367
  119XTA   HL13 9382  -4.788  28.476  -6.548
  119XTA   HL14 9383  -4.878  28.534  -6.414
  119XTA   HL15 9384  -5.016  28.361  -6.513
  119XTA   HL16 9385  -4.887  28.243  -6.478
  119XTA   HL17 9386  -5.167  28.253  -6.379
  119XTA   HL18 9387  -5.049  28.125  -6.341
  119XTA   HL19 9388  -5.077  28.413  -6.091
  119XTA   HL20 9389  -5.248  28.369  -6.052
  119XTA   HL21 9390  -5.144  28.481  -6.313
  119XTA   HL22 9391  -5.244  28.563  -6.214
  119XTA   HL23 9392  -5.305  28.416  -6.297
  119XTA   HL24 9393  -4.416  27.884  -7.419
  119XTA   HL25 9394  -4.370  27.713  -7.445
  119XTA    CO6 9395  -5.059  28.154  -6.072
  119XTA    CO7 9396  -5.276  28.135  -6.174
  119XTA    OA5 9397  -5.352  28.129  -6.049
  119XTA   HL26 9398  -5.049  28.051  -6.109
  119XTA   HL27 9399  -5.109  28.137  -5.985
  119XTA   HL28 9400  -5.255  28.034  -6.202
  119XTA   HL29 9401  -5.349  28.190  -6.236
  120XTA     NT 9402  -7.424  28.202  -4.433
  120XTA    CN1 9403  -7.533  28.234  -4.367
  120XTA     C1 9404  -7.633  28.317  -4.421
  120XTA     C2 9405  -7.742  28.369  -4.345
  120XTA     C3 9406  -7.736  28.346  -4.206
  120XTA     C4 9407  -7.645  28.253  -4.152
  120XTA     C5 9408  -7.548  28.196  -4.238
  120XTA    CN2 9409  -7.436  28.161  -4.562
  120XTA     C6 9410  -7.412  28.251  -4.667
  120XTA     C7 9411  -7.416  28.198  -4.795
  120XTA     C8 9412  -7.463  28.064  -4.825
  120XTA     C9 9413  -7.492  27.980  -4.722
  120XTA    C10 9414  -7.476  28.028  -4.588
  120XTA    CN3 9415  -7.313  28.265  -4.395
  120XTA    C11 9416  -7.302  28.406  -4.403
  120XTA    C12 9417  -7.188  28.469  -4.360
  120XTA    C13 9418  -7.076  28.394  -4.324
  120XTA    C14 9419  -7.092  28.255  -4.311
  120XTA    C15 9420  -7.207  28.184  -4.350
  120XTA     H1 9421  -7.624  28.354  -4.529
  120XTA     H2 9422  -7.816  28.445  -4.381
  120XTA     H3 9423  -7.667  28.219  -4.053
  120XTA     H4 9424  -7.485  28.113  -4.207
  120XTA     H5 9425  -7.382  28.353  -4.655
  120XTA     H6 9426  -7.402  28.272  -4.873
  120XTA     H7 9427  -7.537  27.886  -4.751
  120XTA     H8 9428  -7.515  27.963  -4.508
  120XTA     H9 9429  -7.391  28.461  -4.421
  120XTA    H10 9430  -7.189  28.585  -4.354
  120XTA    H11 9431  -7.009  28.194  -4.281
  120XTA    H12 9432  -7.212  28.076  -4.347
  120XTA    OA1 9433  -7.827  28.410  -4.127
  120XTA    CO1 9434  -7.893  28.523  -4.173
  120XTA    OA2 9435  -7.466  28.017  -4.951
  120XTA    CO2 9436  -7.374  28.079  -5.037
  120XTA    CL1 9437  -7.314  27.975  -5.136
  120XTA    CL2 9438  -7.210  27.878  -5.075
  120XTA    CL3 9439  -7.267  27.736  -5.071
  120XTA    CL4 9440  -7.338  27.722  -4.930
  120XTA    CO3 9441  -7.251  27.760  -4.800
  120XTA    OA3 9442  -7.320  27.736  -4.683
  120XTA    CO4 9443  -7.315  27.604  -4.620
  120XTA    CT1 9444  -7.407  27.605  -4.492
  120XTA    CL5 9445  -7.400  27.466  -4.432
  120XTA    CL6 9446  -7.394  27.335  -4.524
  120XTA    OA4 9447  -6.961  28.466  -4.303
  120XTA    CO5 9448  -6.843  28.390  -4.326
  120XTA    HL1 9449  -6.848  28.345  -4.423
  120XTA    HL2 9450  -7.821  28.591  -4.211
  120XTA    HL3 9451  -7.968  28.506  -4.254
  120XTA    HL4 9452  -7.939  28.563  -4.084
  120XTA    HL5 9453  -7.428  28.166  -5.082
  120XTA    HL6 9454  -7.287  28.129  -4.987
  120XTA    HL7 9455  -7.259  28.034  -5.212
  120XTA    HL8 9456  -7.388  27.920  -5.200
  120XTA    HL9 9457  -7.170  27.907  -4.980
  120XTA   HL10 9458  -7.122  27.880  -5.141
  120XTA   HL11 9459  -7.326  27.707  -5.164
  120XTA   HL12 9460  -7.172  27.678  -5.071
  120XTA   HL13 9461  -7.358  27.613  -4.926
  120XTA   HL14 9462  -7.433  27.775  -4.915
  120XTA   HL15 9463  -7.158  27.708  -4.821
  120XTA   HL16 9464  -7.217  27.861  -4.800
  120XTA   HL17 9465  -7.352  27.528  -4.686
  120XTA   HL18 9466  -7.213  27.580  -4.604
  120XTA   HL19 9467  -7.499  27.463  -4.385
  120XTA   HL20 9468  -7.318  27.463  -4.356
  120XTA   HL21 9469  -7.297  27.317  -4.568
  120XTA   HL22 9470  -7.462  27.349  -4.605
  120XTA   HL23 9471  -7.415  27.250  -4.469
  120XTA   HL24 9472  -6.832  28.310  -4.253
  120XTA   HL25 9473  -6.749  28.453  -4.318
  120XTA    CO6 9474  -7.548  27.644  -4.535
  120XTA    CO7 9475  -7.353  27.716  -4.396
  120XTA    OA5 9476  -7.419  27.704  -4.277
  120XTA   HL26 9477  -7.533  27.733  -4.600
  120XTA   HL27 9478  -7.584  27.688  -4.447
  120XTA   HL28 9479  -7.368  27.823  -4.434
  120XTA   HL29 9480  -7.245  27.701  -4.385
  121XTA     NT 9481  -9.357  27.926  -5.438
  121XTA    CN1 9482  -9.243  27.855  -5.466
  121XTA     C1 9483  -9.134  27.860  -5.374
  121XTA     C2 9484  -9.012  27.794  -5.392
  121XTA     C3 9485  -8.998  27.730  -5.510
  121XTA     C4 9486  -9.106  27.714  -5.599
  121XTA     C5 9487  -9.230  27.778  -5.580
  121XTA    CN2 9488  -9.341  28.063  -5.437
  121XTA     C6 9489  -9.302  28.127  -5.316
  121XTA     C7 9490  -9.280  28.266  -5.314
  121XTA     C8 9491  -9.287  28.351  -5.428
  121XTA     C9 9492  -9.323  28.287  -5.550
  121XTA    C10 9493  -9.346  28.143  -5.557
  121XTA    CN3 9494  -9.472  27.868  -5.385
  121XTA    C11 9495  -9.584  27.848  -5.470
  121XTA    C12 9496  -9.707  27.801  -5.416
  121XTA    C13 9497  -9.715  27.768  -5.278
  121XTA    C14 9498  -9.603  27.785  -5.192
  121XTA    C15 9499  -9.490  27.844  -5.247
  121XTA     H1 9500  -9.144  27.930  -5.289
  121XTA     H2 9501  -8.941  27.802  -5.308
  121XTA     H3 9502  -9.097  27.663  -5.693
  121XTA     H4 9503  -9.307  27.772  -5.655
  121XTA     H5 9504  -9.289  28.073  -5.220
  121XTA     H6 9505  -9.251  28.311  -5.215
  121XTA     H7 9506  -9.344  28.343  -5.635
  121XTA     H8 9507  -9.363  28.099  -5.656
  121XTA     H9 9508  -9.582  27.873  -5.579
  121XTA    H10 9509  -9.803  27.805  -5.462
  121XTA    H11 9510  -9.612  27.748  -5.089
  121XTA    H12 9511  -9.410  27.873  -5.180
  121XTA    OA1 9512  -8.877  27.681  -5.549
  121XTA    CO1 9513  -8.760  27.742  -5.488
  121XTA    OA2 9514  -9.262  28.489  -5.431
  121XTA    CO2 9515  -9.193  28.545  -5.321
  121XTA    CL1 9516  -9.288  28.611  -5.215
  121XTA    CL2 9517  -9.221  28.692  -5.106
  121XTA    CL3 9518  -9.298  28.818  -5.068
  121XTA    CL4 9519  -9.443  28.787  -5.038
  121XTA    CO3 9520  -9.522  28.917  -5.010
  121XTA    OA3 9521  -9.635  28.886  -4.942
  121XTA    CO4 9522  -9.684  29.002  -4.879
  121XTA    CT1 9523  -9.753  28.947  -4.753
  121XTA    CL5 9524  -9.878  28.868  -4.809
  121XTA    CL6 9525  -9.985  28.824  -4.710
  121XTA    OA4 9526  -9.834  27.719  -5.225
  121XTA    CO5 9527  -9.883  27.799  -5.121
  121XTA    HL1 9528  -9.995  27.790  -5.121
  121XTA    HL2 9529  -8.750  27.851  -5.509
  121XTA    HL3 9530  -8.750  27.739  -5.376
  121XTA    HL4 9531  -8.665  27.694  -5.520
  121XTA    HL5 9532  -9.126  28.469  -5.280
  121XTA    HL6 9533  -9.134  28.625  -5.360
  121XTA    HL7 9534  -9.347  28.535  -5.162
  121XTA    HL8 9535  -9.356  28.669  -5.276
  121XTA    HL9 9536  -9.117  28.713  -5.127
  121XTA   HL10 9537  -9.238  28.642  -5.014
  121XTA   HL11 9538  -9.251  28.857  -4.979
  121XTA   HL12 9539  -9.291  28.902  -5.131
  121XTA   HL13 9540  -9.440  28.705  -4.966
  121XTA   HL14 9541  -9.486  28.744  -5.124
  121XTA   HL15 9542  -9.460  28.975  -4.950
  121XTA   HL16 9543  -9.545  28.968  -5.100
  121XTA   HL17 9544  -9.612  29.068  -4.840
  121XTA   HL18 9545  -9.750  29.068  -4.934
  121XTA   HL19 9546  -9.859  28.792  -4.879
  121XTA   HL20 9547  -9.929  28.937  -4.873
  121XTA   HL21 9548  -9.947  28.733  -4.670
  121XTA   HL22 9549 -10.073  28.807  -4.769
  121XTA   HL23 9550 -10.011  28.892  -4.634
  121XTA   HL24 9551  -9.861  27.905  -5.123
  121XTA   HL25 9552  -9.858  27.764  -5.023
  121XTA    CO6 9553  -9.793  29.071  -4.664
  121XTA    CO7 9554  -9.668  28.857  -4.671
  121XTA    OA5 9555  -9.832  29.181  -4.737
  121XTA   HL26 9556  -9.705  29.099  -4.601
  121XTA   HL27 9557  -9.872  29.049  -4.589
  121XTA   HL28 9558  -9.732  28.825  -4.592
  121XTA   HL29 9559  -9.632  28.774  -4.734
  122XTA     NT 9560  -3.996  26.246  -7.341
  122XTA    CN1 9561  -4.013  26.377  -7.313
  122XTA     C1 9562  -3.949  26.477  -7.381
  122XTA     C2 9563  -3.971  26.613  -7.348
  122XTA     C3 9564  -4.065  26.649  -7.249
  122XTA     C4 9565  -4.130  26.546  -7.180
  122XTA     C5 9566  -4.105  26.414  -7.212
  122XTA    CN2 9567  -3.884  26.176  -7.310
  122XTA     C6 9568  -3.843  26.151  -7.180
  122XTA     C7 9569  -3.734  26.069  -7.155
  122XTA     C8 9570  -3.659  26.015  -7.254
  122XTA     C9 9571  -3.689  26.047  -7.387
  122XTA    C10 9572  -3.803  26.125  -7.417
  122XTA    CN3 9573  -4.081  26.187  -7.422
  122XTA    C11 9574  -4.080  26.209  -7.561
  122XTA    C12 9575  -4.170  26.147  -7.639
  122XTA    C13 9576  -4.253  26.052  -7.593
  122XTA    C14 9577  -4.252  26.028  -7.455
  122XTA    C15 9578  -4.167  26.094  -7.373
  122XTA     H1 9579  -3.882  26.460  -7.462
  122XTA     H2 9580  -3.915  26.700  -7.389
  122XTA     H3 9581  -4.200  26.564  -7.099
  122XTA     H4 9582  -4.172  26.349  -7.159
  122XTA     H5 9583  -3.899  26.194  -7.095
  122XTA     H6 9584  -3.696  26.043  -7.054
  122XTA     H7 9585  -3.629  26.007  -7.463
  122XTA     H8 9586  -3.835  26.125  -7.524
  122XTA     H9 9587  -4.015  26.283  -7.605
  122XTA    H10 9588  -4.173  26.178  -7.743
  122XTA    H11 9589  -4.310  25.953  -7.405
  122XTA    H12 9590  -4.163  26.062  -7.266
  122XTA    OA1 9591  -4.080  26.783  -7.218
  122XTA    CO1 9592  -4.216  26.821  -7.228
  122XTA    OA2 9593  -3.547  25.947  -7.216
  122XTA    CO2 9594  -3.437  25.941  -7.307
  122XTA    CL1 9595  -3.320  25.902  -7.226
  122XTA    CL2 9596  -3.199  25.881  -7.322
  122XTA    CL3 9597  -3.077  25.835  -7.249
  122XTA    CL4 9598  -3.048  25.917  -7.123
  122XTA    CO3 9599  -2.925  25.874  -7.043
  122XTA    OA3 9600  -2.956  25.739  -7.002
  122XTA    CO4 9601  -2.868  25.640  -7.061
  122XTA    CT1 9602  -2.907  25.503  -7.017
  122XTA    CL5 9603  -2.884  25.507  -6.864
  122XTA    CL6 9604  -2.925  25.372  -6.797
  122XTA    OA4 9605  -4.345  25.989  -7.665
  122XTA    CO5 9606  -4.403  26.066  -7.772
  122XTA    HL1 9607  -4.474  26.141  -7.728
  122XTA    HL2 9608  -4.219  26.880  -7.325
  122XTA    HL3 9609  -4.286  26.730  -7.231
  122XTA    HL4 9610  -4.250  26.884  -7.146
  122XTA    HL5 9611  -3.469  25.870  -7.373
  122XTA    HL6 9612  -3.420  26.027  -7.370
  122XTA    HL7 9613  -3.344  25.805  -7.176
  122XTA    HL8 9614  -3.290  25.986  -7.162
  122XTA    HL9 9615  -3.177  25.967  -7.389
  122XTA   HL10 9616  -3.237  25.798  -7.386
  122XTA   HL11 9617  -3.102  25.727  -7.234
  122XTA   HL12 9618  -2.997  25.827  -7.320
  122XTA   HL13 9619  -3.132  25.932  -7.054
  122XTA   HL14 9620  -3.033  26.017  -7.156
  122XTA   HL15 9621  -2.828  25.889  -7.087
  122XTA   HL16 9622  -2.926  25.925  -6.947
  122XTA   HL17 9623  -2.875  25.644  -7.169
  122XTA   HL18 9624  -2.769  25.662  -7.035
  122XTA   HL19 9625  -2.930  25.594  -6.820
  122XTA   HL20 9626  -2.773  25.506  -6.857
  122XTA   HL21 9627  -2.867  25.373  -6.698
  122XTA   HL22 9628  -2.896  25.280  -6.849
  122XTA   HL23 9629  -3.035  25.363  -6.785
  122XTA   HL24 9630  -4.459  25.998  -7.842
  122XTA   HL25 9631  -4.334  26.106  -7.843
  122XTA    CO6 9632  -2.822  25.397  -7.087
  122XTA    CO7 9633  -3.055  25.476  -7.048
  122XTA    OA5 9634  -3.102  25.343  -7.010
  122XTA   HL26 9635  -2.714  25.414  -7.063
  122XTA   HL27 9636  -2.863  25.305  -7.041
  122XTA   HL28 9637  -3.077  25.498  -7.155
  122XTA   HL29 9638  -3.114  25.547  -6.991
  123XTA     NT 9639  -2.176  28.339  -8.738
  123XTA    CN1 9640  -2.232  28.418  -8.824
  123XTA     C1 9641  -2.368  28.403  -8.854
  123XTA     C2 9642  -2.430  28.477  -8.953
  123XTA     C3 9643  -2.358  28.580  -9.021
  123XTA     C4 9644  -2.220  28.594  -8.991
  123XTA     C5 9645  -2.158  28.515  -8.889
  123XTA    CN2 9646  -2.209  28.359  -8.608
  123XTA     C6 9647  -2.277  28.252  -8.549
  123XTA     C7 9648  -2.346  28.266  -8.424
  123XTA     C8 9649  -2.332  28.388  -8.354
  123XTA     C9 9650  -2.252  28.489  -8.411
  123XTA    C10 9651  -2.195  28.481  -8.540
  123XTA    CN3 9652  -2.100  28.231  -8.774
  123XTA    C11 9653  -2.141  28.139  -8.873
  123XTA    C12 9654  -2.041  28.053  -8.924
  123XTA    C13 9655  -1.906  28.051  -8.883
  123XTA    C14 9656  -1.869  28.151  -8.793
  123XTA    C15 9657  -1.965  28.240  -8.740
  123XTA     H1 9658  -2.431  28.329  -8.806
  123XTA     H2 9659  -2.528  28.443  -8.973
  123XTA     H3 9660  -2.155  28.669  -9.035
  123XTA     H4 9661  -2.055  28.547  -8.870
  123XTA     H5 9662  -2.283  28.156  -8.598
  123XTA     H6 9663  -2.400  28.185  -8.380
  123XTA     H7 9664  -2.223  28.568  -8.348
  123XTA     H8 9665  -2.134  28.556  -8.582
  123XTA     H9 9666  -2.238  28.139  -8.925
  123XTA    H10 9667  -2.070  27.981  -9.005
  123XTA    H11 9668  -1.762  28.156  -8.773
  123XTA    H12 9669  -1.938  28.304  -8.659
  123XTA    OA1 9670  -2.411  28.652  -9.123
  123XTA    CO1 9671  -2.552  28.669  -9.113
  123XTA    OA2 9672  -2.389  28.400  -8.226
  123XTA    CO2 9673  -2.429  28.534  -8.192
  123XTA    CL1 9674  -2.539  28.534  -8.084
  123XTA    CL2 9675  -2.667  28.455  -8.141
  123XTA    CL3 9676  -2.742  28.547  -8.227
  123XTA    CL4 9677  -2.862  28.487  -8.297
  123XTA    CO3 9678  -2.950  28.593  -8.369
  123XTA    OA3 9679  -3.021  28.684  -8.279
  123XTA    CO4 9680  -3.117  28.622  -8.197
  123XTA    CT1 9681  -3.206  28.734  -8.129
  123XTA    CL5 9682  -3.330  28.676  -8.050
  123XTA    CL6 9683  -3.439  28.592  -8.127
  123XTA    OA4 9684  -1.810  27.972  -8.940
  123XTA    CO5 9685  -1.683  28.036  -8.973
  123XTA    HL1 9686  -1.626  27.963  -9.035
  123XTA    HL2 9687  -2.569  28.697  -9.007
  123XTA    HL3 9688  -2.591  28.741  -9.180
  123XTA    HL4 9689  -2.620  28.577  -9.125
  123XTA    HL5 9690  -2.342  28.589  -8.149
  123XTA    HL6 9691  -2.474  28.581  -8.282
  123XTA    HL7 9692  -2.564  28.632  -8.032
  123XTA    HL8 9693  -2.505  28.463  -8.005
  123XTA    HL9 9694  -2.727  28.427  -8.051
  123XTA   HL10 9695  -2.640  28.360  -8.184
  123XTA   HL11 9696  -2.765  28.639  -8.172
  123XTA   HL12 9697  -2.673  28.568  -8.310
  123XTA   HL13 9698  -2.939  28.438  -8.237
  123XTA   HL14 9699  -2.831  28.413  -8.368
  123XTA   HL15 9700  -2.885  28.644  -8.436
  123XTA   HL16 9701  -3.023  28.539  -8.420
  123XTA   HL17 9702  -3.178  28.570  -8.269
  123XTA   HL18 9703  -3.086  28.556  -8.116
  123XTA   HL19 9704  -3.381  28.763  -8.008
  123XTA   HL20 9705  -3.306  28.619  -7.967
  123XTA   HL21 9706  -3.527  28.555  -8.069
  123XTA   HL22 9707  -3.393  28.498  -8.168
  123XTA   HL23 9708  -3.482  28.631  -8.221
  123XTA   HL24 9709  -1.634  28.040  -8.868
  123XTA   HL25 9710  -1.682  28.133  -9.025
  123XTA    CO6 9711  -3.258  28.831  -8.242
  123XTA    CO7 9712  -3.119  28.808  -8.027
  123XTA    OA5 9713  -3.072  28.738  -7.959
  123XTA   HL26 9714  -3.181  28.852  -8.315
  123XTA   HL27 9715  -3.358  28.767  -8.317
  123XTA   HL28 9716  -3.190  28.875  -7.968
  123XTA   HL29 9717  -3.052  28.875  -8.083
  124XTA     NT 9718  -5.621  26.034  -9.416
  124XTA    CN1 9719  -5.604  26.165  -9.411
  124XTA     C1 9720  -5.584  26.234  -9.293
  124XTA     C2 9721  -5.567  26.373  -9.289
  124XTA     C3 9722  -5.570  26.448  -9.407
  124XTA     C4 9723  -5.592  26.378  -9.528
  124XTA     C5 9724  -5.616  26.239  -9.529
  124XTA    CN2 9725  -5.751  25.992  -9.411
  124XTA     C6 9726  -5.816  25.940  -9.525
  124XTA     C7 9727  -5.939  25.872  -9.507
  124XTA     C8 9728  -6.004  25.871  -9.384
  124XTA     C9 9729  -5.944  25.935  -9.276
  124XTA    C10 9730  -5.817  25.988  -9.284
  124XTA    CN3 9731  -5.518  25.946  -9.430
  124XTA    C11 9732  -5.458  25.916  -9.548
  124XTA    C12 9733  -5.358  25.819  -9.551
  124XTA    C13 9734  -5.306  25.763  -9.430
  124XTA    C14 9735  -5.369  25.799  -9.307
  124XTA    C15 9736  -5.475  25.886  -9.309
  124XTA     H1 9737  -5.549  26.179  -9.208
  124XTA     H2 9738  -5.535  26.411  -9.195
  124XTA     H3 9739  -5.589  26.426  -9.622
  124XTA     H4 9740  -5.650  26.186  -9.621
  124XTA     H5 9741  -5.748  25.930  -9.610
  124XTA     H6 9742  -5.985  25.822  -9.588
  124XTA     H7 9743  -5.996  25.943  -9.184
  124XTA     H8 9744  -5.781  26.028  -9.191
  124XTA     H9 9745  -5.492  25.948  -9.640
  124XTA    H10 9746  -5.312  25.797  -9.646
  124XTA    H11 9747  -5.331  25.761  -9.210
  124XTA    H12 9748  -5.513  25.912  -9.209
  124XTA    OA1 9749  -5.545  26.585  -9.413
  124XTA    CO1 9750  -5.550  26.663  -9.291
  124XTA    OA2 9751  -6.125  25.804  -9.388
  124XTA    CO2 9752  -6.201  25.792  -9.270
  124XTA    CL1 9753  -6.290  25.672  -9.291
  124XTA    CL2 9754  -6.215  25.539  -9.286
  124XTA    CL3 9755  -6.166  25.501  -9.144
  124XTA    CL4 9756  -6.258  25.477  -9.033
  124XTA    CO3 9757  -6.187  25.473  -8.894
  124XTA    OA3 9758  -6.280  25.472  -8.787
  124XTA    CO4 9759  -6.222  25.513  -8.664
  124XTA    CT1 9760  -6.342  25.550  -8.570
  124XTA    CL5 9761  -6.433  25.426  -8.552
  124XTA    CL6 9762  -6.370  25.297  -8.493
  124XTA    OA4 9763  -5.194  25.685  -9.446
  124XTA    CO5 9764  -5.129  25.640  -9.328
  124XTA    HL1 9765  -5.102  25.718  -9.263
  124XTA    HL2 9766  -5.549  26.766  -9.320
  124XTA    HL3 9767  -5.643  26.649  -9.231
  124XTA    HL4 9768  -5.472  26.639  -9.222
  124XTA    HL5 9769  -6.144  25.763  -9.177
  124XTA    HL6 9770  -6.266  25.874  -9.247
  124XTA    HL7 9771  -6.334  25.670  -9.394
  124XTA    HL8 9772  -6.377  25.679  -9.228
  124XTA    HL9 9773  -6.136  25.559  -9.352
  124XTA   HL10 9774  -6.283  25.459  -9.322
  124XTA   HL11 9775  -6.112  25.409  -9.164
  124XTA   HL12 9776  -6.094  25.569  -9.110
  124XTA   HL13 9777  -6.313  25.389  -9.049
  124XTA   HL14 9778  -6.340  25.551  -9.026
  124XTA   HL15 9779  -6.123  25.389  -8.885
  124XTA   HL16 9780  -6.121  25.560  -8.885
  124XTA   HL17 9781  -6.153  25.442  -8.624
  124XTA   HL18 9782  -6.168  25.605  -8.689
  124XTA   HL19 9783  -6.473  25.398  -8.642
  124XTA   HL20 9784  -6.524  25.455  -8.495
  124XTA   HL21 9785  -6.442  25.216  -8.488
  124XTA   HL22 9786  -6.338  25.315  -8.391
  124XTA   HL23 9787  -6.292  25.247  -8.551
  124XTA   HL24 9788  -5.029  25.590  -9.349
  124XTA   HL25 9789  -5.204  25.567  -9.297
  124XTA    CO6 9790  -6.420  25.666  -8.643
  124XTA    CO7 9791  -6.300  25.606  -8.439
  124XTA    OA5 9792  -6.225  25.731  -8.453
  124XTA   HL26 9793  -6.336  25.743  -8.661
  124XTA   HL27 9794  -6.446  25.624  -8.737
  124XTA   HL28 9795  -6.237  25.525  -8.400
  124XTA   HL29 9796  -6.386  25.630  -8.378
  125XTA     NT 9797  -2.482  31.958  -9.143
  125XTA    CN1 9798  -2.403  31.988  -9.035
  125XTA     C1 9799  -2.262  31.999  -9.028
  125XTA     C2 9800  -2.184  32.000  -8.913
  125XTA     C3 9801  -2.245  32.011  -8.786
  125XTA     C4 9802  -2.387  32.018  -8.791
  125XTA     C5 9803  -2.465  31.999  -8.908
  125XTA    CN2 9804  -2.486  31.826  -9.174
  125XTA     C6 9805  -2.367  31.770  -9.234
  125XTA     C7 9806  -2.365  31.630  -9.270
  125XTA     C8 9807  -2.484  31.554  -9.258
  125XTA     C9 9808  -2.601  31.608  -9.199
  125XTA    C10 9809  -2.598  31.742  -9.150
  125XTA    CN3 9810  -2.484  32.050  -9.246
  125XTA    C11 9811  -2.452  32.182  -9.218
  125XTA    C12 9812  -2.459  32.281  -9.320
  125XTA    C13 9813  -2.483  32.249  -9.452
  125XTA    C14 9814  -2.509  32.110  -9.489
  125XTA    C15 9815  -2.509  32.014  -9.385
  125XTA     H1 9816  -2.198  31.989  -9.116
  125XTA     H2 9817  -2.075  31.992  -8.908
  125XTA     H3 9818  -2.443  32.022  -8.696
  125XTA     H4 9819  -2.569  31.966  -8.904
  125XTA     H5 9820  -2.279  31.831  -9.237
  125XTA     H6 9821  -2.270  31.582  -9.307
  125XTA     H7 9822  -2.691  31.552  -9.188
  125XTA     H8 9823  -2.684  31.790  -9.105
  125XTA     H9 9824  -2.430  32.208  -9.126
  125XTA    H10 9825  -2.429  32.384  -9.292
  125XTA    H11 9826  -2.519  32.072  -9.591
  125XTA    H12 9827  -2.532  31.906  -9.410
  125XTA    OA1 9828  -2.174  32.019  -8.663
  125XTA    CO1 9829  -2.051  32.092  -8.663
  125XTA    OA2 9830  -2.487  31.430  -9.304
  125XTA    CO2 9831  -2.507  31.423  -9.445
  125XTA    CL1 9832  -2.434  31.300  -9.490
  125XTA    CL2 9833  -2.285  31.330  -9.508
  125XTA    CL3 9834  -2.204  31.315  -9.370
  125XTA    CL4 9835  -2.053  31.287  -9.391
  125XTA    CO3 9836  -1.987  31.236  -9.266
  125XTA    OA3 9837  -1.877  31.172  -9.310
  125XTA    CO4 9838  -1.840  31.053  -9.236
  125XTA    CT1 9839  -1.802  30.937  -9.337
  125XTA    CL5 9840  -1.763  30.812  -9.251
  125XTA    CL6 9841  -1.876  30.759  -9.171
  125XTA    OA4 9842  -2.471  32.339  -9.554
  125XTA    CO5 9843  -2.334  32.376  -9.570
  125XTA    HL1 9844  -2.331  32.465  -9.635
  125XTA    HL2 9845  -2.018  32.099  -8.555
  125XTA    HL3 9846  -1.975  32.048  -8.730
  125XTA    HL4 9847  -2.057  32.196  -8.701
  125XTA    HL5 9848  -2.611  31.415  -9.464
  125XTA    HL6 9849  -2.469  31.520  -9.489
  125XTA    HL7 9850  -2.488  31.268  -9.583
  125XTA    HL8 9851  -2.447  31.220  -9.421
  125XTA    HL9 9852  -2.281  31.433  -9.555
  125XTA   HL10 9853  -2.252  31.261  -9.583
  125XTA   HL11 9854  -2.224  31.379  -9.287
  125XTA   HL12 9855  -2.232  31.221  -9.333
  125XTA   HL13 9856  -2.003  31.378  -9.419
  125XTA   HL14 9857  -2.034  31.221  -9.471
  125XTA   HL15 9858  -1.947  31.314  -9.203
  125XTA   HL16 9859  -2.049  31.174  -9.209
  125XTA   HL17 9860  -1.762  31.071  -9.155
  125XTA   HL18 9861  -1.923  31.019  -9.175
  125XTA   HL19 9862  -1.690  30.851  -9.185
  125XTA   HL20 9863  -1.729  30.719  -9.312
  125XTA   HL21 9864  -1.836  30.667  -9.121
  125XTA   HL22 9865  -1.955  30.735  -9.232
  125XTA   HL23 9866  -1.904  30.838  -9.099
  125XTA   HL24 9867  -2.262  32.292  -9.594
  125XTA   HL25 9868  -2.304  32.408  -9.466
  125XTA    CO6 9869  -1.688  30.977  -9.431
  125XTA    CO7 9870  -1.923  30.904  -9.422
  125XTA    OA5 9871  -1.949  30.987  -9.532
  125XTA   HL26 9872  -1.714  31.064  -9.489
  125XTA   HL27 9873  -1.673  30.901  -9.512
  125XTA   HL28 9874  -2.015  30.900  -9.366
  125XTA   HL29 9875  -1.906  30.807  -9.472
  126XTA     NT 9876  -8.604  30.459 -10.667
  126XTA    CN1 9877  -8.737  30.445 -10.702
  126XTA     C1 9878  -8.768  30.349 -10.803
  126XTA     C2 9879  -8.905  30.314 -10.822
  126XTA     C3 9880  -9.007  30.391 -10.768
  126XTA     C4 9881  -8.969  30.500 -10.688
  126XTA     C5 9882  -8.838  30.523 -10.641
  126XTA    CN2 9883  -8.534  30.566 -10.708
  126XTA     C6 9884  -8.515  30.676 -10.618
  126XTA     C7 9885  -8.457  30.797 -10.672
  126XTA     C8 9886  -8.417  30.800 -10.805
  126XTA     C9 9887  -8.448  30.692 -10.898
  126XTA    C10 9888  -8.508  30.578 -10.847
  126XTA    CN3 9889  -8.523  30.384 -10.588
  126XTA    C11 9890  -8.553  30.386 -10.452
  126XTA    C12 9891  -8.479  30.305 -10.364
  126XTA    C13 9892  -8.382  30.210 -10.407
  126XTA    C14 9893  -8.353  30.211 -10.546
  126XTA    C15 9894  -8.422  30.297 -10.636
  126XTA     H1 9895  -8.690  30.293 -10.854
  126XTA     H2 9896  -8.926  30.239 -10.902
  126XTA     H3 9897  -9.048  30.560 -10.647
  126XTA     H4 9898  -8.816  30.606 -10.569
  126XTA     H5 9899  -8.533  30.674 -10.507
  126XTA     H6 9900  -8.431  30.880 -10.611
  126XTA     H7 9901  -8.426  30.694 -11.003
  126XTA     H8 9902  -8.541  30.496 -10.912
  126XTA     H9 9903  -8.640  30.439 -10.409
  126XTA    H10 9904  -8.519  30.308 -10.263
  126XTA    H11 9905  -8.283  30.147 -10.593
  126XTA    H12 9906  -8.401  30.297 -10.742
  126XTA    OA1 9907  -9.132  30.354 -10.795
  126XTA    CO1 9908  -9.231  30.447 -10.749
  126XTA    OA2 9909  -8.351  30.908 -10.859
  126XTA    CO2 9910  -8.228  30.871 -10.927
  126XTA    CL1 9911  -8.138  30.993 -10.963
  126XTA    CL2 9912  -8.062  31.045 -10.835
  126XTA    CL3 9913  -7.970  31.169 -10.858
  126XTA    CL4 9914  -8.028  31.280 -10.950
  126XTA    CO3 9915  -8.139  31.359 -10.882
  126XTA    OA3 9916  -8.253  31.287 -10.843
  126XTA    CO4 9917  -8.357  31.367 -10.782
  126XTA    CT1 9918  -8.475  31.292 -10.720
  126XTA    CL5 9919  -8.417  31.175 -10.628
  126XTA    CL6 9920  -8.518  31.099 -10.538
  126XTA    OA4 9921  -8.306  30.140 -10.324
  126XTA    CO5 9922  -8.339  30.136 -10.183
  126XTA    HL1 9923  -8.445  30.110 -10.169
  126XTA    HL2 9924  -9.321  30.423 -10.797
  126XTA    HL3 9925  -9.235  30.449 -10.644
  126XTA    HL4 9926  -9.207  30.544 -10.783
  126XTA    HL5 9927  -8.167  30.796 -10.868
  126XTA    HL6 9928  -8.254  30.819 -11.024
  126XTA    HL7 9929  -8.193  31.077 -10.997
  126XTA    HL8 9930  -8.073  30.975 -11.042
  126XTA    HL9 9931  -8.015  30.957 -10.780
  126XTA   HL10 9932  -8.136  31.071 -10.764
  126XTA   HL11 9933  -7.940  31.209 -10.754
  126XTA   HL12 9934  -7.880  31.133 -10.908
  126XTA   HL13 9935  -8.064  31.219 -11.035
  126XTA   HL14 9936  -7.941  31.339 -10.984
  126XTA   HL15 9937  -8.088  31.401 -10.793
  126XTA   HL16 9938  -8.163  31.449 -10.940
  126XTA   HL17 9939  -8.306  31.408 -10.696
  126XTA   HL18 9940  -8.397  31.456 -10.837
  126XTA   HL19 9941  -8.348  31.230 -10.557
  126XTA   HL20 9942  -8.350  31.103 -10.677
  126XTA   HL21 9943  -8.464  31.026 -10.481
  126XTA   HL22 9944  -8.587  31.047 -10.605
  126XTA   HL23 9945  -8.567  31.171 -10.479
  126XTA   HL24 9946  -8.338  30.238 -10.147
  126XTA   HL25 9947  -8.275  30.069 -10.134
  126XTA    CO6 9948  -8.567  31.235 -10.832
  126XTA    CO7 9949  -8.557  31.389 -10.639
  126XTA    OA5 9950  -8.626  31.306 -10.897
  126XTA   HL26 9951  -8.633  31.162 -10.785
  126XTA   HL27 9952  -8.494  31.186 -10.902
  126XTA   HL28 9953  -8.607  31.504 -10.711
  126XTA   HL29 9954  -8.640  31.341 -10.598
  127XTA     NT 9955  -1.865  29.708  -5.928
  127XTA    CN1 9956  -1.909  29.635  -6.038
  127XTA     C1 9957  -1.863  29.659  -6.167
  127XTA     C2 9958  -1.909  29.580  -6.272
  127XTA     C3 9959  -2.011  29.489  -6.256
  127XTA     C4 9960  -2.052  29.458  -6.130
  127XTA     C5 9961  -2.001  29.528  -6.018
  127XTA    CN2 9962  -1.933  29.825  -5.909
  127XTA     C6 9963  -1.876  29.954  -5.930
  127XTA     C7 9964  -1.951  30.071  -5.899
  127XTA     C8 9965  -2.081  30.056  -5.846
  127XTA     C9 9966  -2.128  29.928  -5.815
  127XTA    C10 9967  -2.058  29.808  -5.849
  127XTA    CN3 9968  -1.767  29.668  -5.838
  127XTA    C11 9969  -1.646  29.735  -5.821
  127XTA    C12 9970  -1.561  29.710  -5.721
  127XTA    C13 9971  -1.591  29.608  -5.631
  127XTA    C14 9972  -1.706  29.525  -5.654
  127XTA    C15 9973  -1.793  29.562  -5.756
  127XTA     H1 9974  -1.786  29.733  -6.183
  127XTA     H2 9975  -1.865  29.599  -6.371
  127XTA     H3 9976  -2.131  29.378  -6.118
  127XTA     H4 9977  -2.042  29.495  -5.924
  127XTA     H5 9978  -1.779  29.966  -5.981
  127XTA     H6 9979  -1.917  30.172  -5.932
  127XTA     H7 9980  -2.228  29.921  -5.779
  127XTA     H8 9981  -2.087  29.714  -5.825
  127XTA     H9 9982  -1.630  29.816  -5.884
  127XTA    H10 9983  -1.471  29.770  -5.707
  127XTA    H11 9984  -1.729  29.448  -5.588
  127XTA    H12 9985  -1.884  29.506  -5.774
  127XTA    OA1 9986  -2.060  29.428  -6.371
  127XTA    CO1 9987  -2.162  29.338  -6.363
  127XTA    OA2 9988  -2.161  30.167  -5.827
  127XTA    CO2 9989  -2.283  30.160  -5.895
  127XTA    CL1 9990  -2.406  30.192  -5.802
  127XTA    CL2 9991  -2.402  30.113  -5.666
  127XTA    CL3 9992  -2.492  30.169  -5.558
  127XTA    CL4 9993  -2.637  30.111  -5.559
  127XTA    CO3 9994  -2.652  29.963  -5.534
  127XTA    OA3 9995  -2.629  29.930  -5.396
  127XTA    CO4 9996  -2.642  29.797  -5.372
  127XTA    CT1 9997  -2.568  29.752  -5.242
  127XTA    CL5 9998  -2.611  29.607  -5.220
  127XTA    CL6 9999  -2.541  29.529  -5.106
  127XTA    OA410000  -1.510  29.592  -5.520
  127XTA    CO510001  -1.540  29.490  -5.428
  127XTA    HL110002  -1.551  29.387  -5.477
  127XTA    HL210003  -2.190  29.310  -6.460
  127XTA    HL310004  -2.141  29.242  -6.307
  127XTA    HL410005  -2.247  29.388  -6.317
  127XTA    HL510006  -2.287  30.234  -5.978
  127XTA    HL610007  -2.324  30.066  -5.937
  127XTA    HL710008  -2.500  30.173  -5.855
  127XTA    HL810009  -2.410  30.299  -5.770
  127XTA    HL910010  -2.298  30.111  -5.636
  127XTA   HL1010011  -2.427  30.010  -5.683
  127XTA   HL1110012  -2.443  30.147  -5.466
  127XTA   HL1210013  -2.500  30.275  -5.556
  127XTA   HL1310014  -2.681  30.128  -5.652
  127XTA   HL1410015  -2.693  30.165  -5.489
  127XTA   HL1510016  -2.755  29.935  -5.554
  127XTA   HL1610017  -2.595  29.905  -5.608
  127XTA   HL1710018  -2.748  29.773  -5.353
  127XTA   HL1810019  -2.604  29.746  -5.462
  127XTA   HL1910020  -2.599  29.551  -5.315
  127XTA   HL2010021  -2.714  29.609  -5.192
  127XTA   HL2110022  -2.584  29.565  -5.014
  127XTA   HL2210023  -2.431  29.544  -5.108
  127XTA   HL2310024  -2.571  29.422  -5.118
  127XTA   HL2410025  -1.632  29.501  -5.378
  127XTA   HL2510026  -1.449  29.481  -5.367
  127XTA    CO610027  -2.618  29.841  -5.125
  127XTA    CO710028  -2.419  29.770  -5.250
  127XTA    OA510029  -2.731  29.827  -5.123
  127XTA   HL2610030  -2.579  29.936  -5.138
  127XTA   HL2710031  -2.576  29.795  -5.038
  127XTA   HL2810032  -2.391  29.907  -5.289
  127XTA   HL2910033  -2.382  29.700  -5.320
  128XTA     NT10034  -4.506  25.528  -9.759
  128XTA    CN110035  -4.467  25.410  -9.702
  128XTA     C110036  -4.511  25.385  -9.570
  128XTA     C210037  -4.486  25.256  -9.515
  128XTA     C310038  -4.416  25.155  -9.592
  128XTA     C410039  -4.366  25.191  -9.722
  128XTA     C510040  -4.382  25.317  -9.769
  128XTA    CN210041  -4.620  25.525  -9.843
  128XTA     C610042  -4.635  25.606  -9.956
  128XTA     C710043  -4.748  25.589 -10.038
  128XTA     C810044  -4.856  25.505  -9.994
  128XTA     C910045  -4.852  25.440  -9.871
  128XTA    C1010046  -4.733  25.453  -9.795
  128XTA    CN310047  -4.452  25.640  -9.719
  128XTA    C1110048  -4.523  25.733  -9.637
  128XTA    C1210049  -4.458  25.845  -9.575
  128XTA    C1310050  -4.320  25.865  -9.609
  128XTA    C1410051  -4.251  25.785  -9.702
  128XTA    C1510052  -4.316  25.675  -9.753
  128XTA     H110053  -4.568  25.465  -9.511
  128XTA     H210054  -4.524  25.228  -9.421
  128XTA     H310055  -4.311  25.122  -9.787
  128XTA     H410056  -4.353  25.331  -9.871
  128XTA     H510057  -4.555  25.673  -9.976
  128XTA     H610058  -4.764  25.663 -10.121
  128XTA     H710059  -4.938  25.389  -9.843
  128XTA     H810060  -4.750  25.412  -9.695
  128XTA     H910061  -4.628  25.705  -9.612
  128XTA    H1010062  -4.506  25.897  -9.489
  128XTA    H1110063  -4.147  25.798  -9.716
  128XTA    H1210064  -4.260  25.610  -9.820
  128XTA    OA110065  -4.401  25.025  -9.548
  128XTA    CO110066  -4.373  25.017  -9.409
  128XTA    OA210067  -4.972  25.504 -10.064
  128XTA    CO210068  -4.971  25.561 -10.194
  128XTA    CL110069  -5.099  25.530 -10.264
  128XTA    CL210070  -5.115  25.381 -10.312
  128XTA    CL310071  -5.262  25.349 -10.338
  128XTA    CL410072  -5.278  25.200 -10.364
  128XTA    CO310073  -5.416  25.160 -10.423
  128XTA    OA310074  -5.409  25.019 -10.454
  128XTA    CO410075  -5.423  24.931 -10.348
  128XTA    CT110076  -5.367  24.791 -10.371
  128XTA    CL510077  -5.215  24.806 -10.404
  128XTA    CL610078  -5.135  24.686 -10.420
  128XTA    OA410079  -4.264  25.977  -9.544
  128XTA    CO510080  -4.126  26.006  -9.566
  128XTA    HL110081  -4.101  26.103  -9.522
  128XTA    HL210082  -4.306  25.105  -9.383
  128XTA    HL310083  -4.465  25.013  -9.356
  128XTA    HL410084  -4.308  24.932  -9.395
  128XTA    HL510085  -4.949  25.671 -10.188
  128XTA    HL610086  -4.884  25.515 -10.253
  128XTA    HL710087  -5.097  25.595 -10.348
  128XTA    HL810088  -5.184  25.563 -10.203
  128XTA    HL910089  -5.078  25.318 -10.234
  128XTA   HL1010090  -5.051  25.351 -10.398
  128XTA   HL1110091  -5.329  25.377 -10.252
  128XTA   HL1210092  -5.294  25.398 -10.425
  128XTA   HL1310093  -5.261  25.148 -10.275
  128XTA   HL1410094  -5.195  25.172 -10.430
  128XTA   HL1510095  -5.501  25.184 -10.365
  128XTA   HL1610096  -5.414  25.206 -10.521
  128XTA   HL1710097  -5.381  24.973 -10.260
  128XTA   HL1810098  -5.531  24.923 -10.325
  128XTA   HL1910099  -5.172  24.877 -10.331
  128XTA   HL2010100  -5.204  24.856 -10.499
  128XTA   HL2110101  -5.185  24.601 -10.467
  128XTA   HL2210102  -5.118  24.657 -10.320
  128XTA   HL2310103  -5.039  24.709 -10.468
  128XTA   HL2410104  -4.112  26.001  -9.670
  128XTA   HL2510105  -4.053  25.927  -9.529
  128XTA    CO610106  -5.446  24.714 -10.479
  128XTA    CO710107  -5.387  24.715 -10.239
  128XTA    OA510108  -5.447  24.763 -10.574
  128XTA   HL2610109  -5.553  24.706 -10.456
  128XTA   HL2710110  -5.401  24.612 -10.484
  128XTA   HL2810111  -5.352  24.803 -10.131
  128XTA   HL2910112  -5.495  24.712 -10.209
  129XTA     NT10113  -3.051  28.360 -10.415
  129XTA    CN110114  -3.120  28.352 -10.526
  129XTA     C110115  -3.083  28.430 -10.638
  129XTA     C210116  -3.157  28.432 -10.764
  129XTA     C310117  -3.270  28.351 -10.772
  129XTA     C410118  -3.300  28.270 -10.661
  129XTA     C510119  -3.226  28.266 -10.537
  129XTA    CN210120  -2.998  28.250 -10.355
  129XTA     C610121  -2.932  28.157 -10.436
  129XTA     C710122  -2.852  28.060 -10.380
  129XTA     C810123  -2.842  28.051 -10.240
  129XTA     C910124  -2.916  28.136 -10.158
  129XTA    C1010125  -2.998  28.241 -10.214
  129XTA    CN310126  -3.008  28.487 -10.384
  129XTA    C1110127  -3.102  28.590 -10.362
  129XTA    C1210128  -3.064  28.718 -10.321
  129XTA    C1310129  -2.923  28.746 -10.308
  129XTA    C1410130  -2.830  28.643 -10.326
  129XTA    C1510131  -2.871  28.515 -10.365
  129XTA     H110132  -2.993  28.486 -10.627
  129XTA     H210133  -3.118  28.482 -10.849
  129XTA     H310134  -3.388  28.202 -10.674
  129XTA     H410135  -3.262  28.209 -10.454
  129XTA     H510136  -2.951  28.155 -10.544
  129XTA     H610137  -2.794  27.984 -10.439
  129XTA     H710138  -2.903  28.135 -10.053
  129XTA     H810139  -3.045  28.317 -10.156
  129XTA     H910140  -3.207  28.569 -10.378
  129XTA    H1010141  -3.132  28.796 -10.291
  129XTA    H1110142  -2.724  28.659 -10.321
  129XTA    H1210143  -2.797  28.440 -10.385
  129XTA    OA110144  -3.360  28.336 -10.881
  129XTA    CO110145  -3.298  28.355 -11.005
  129XTA    OA210146  -2.753  27.974 -10.182
  129XTA    CO210147  -2.617  28.004 -10.222
  129XTA    CL110148  -2.510  27.916 -10.144
  129XTA    CL210149  -2.365  27.955 -10.180
  129XTA    CL310150  -2.323  27.920 -10.318
  129XTA    CL410151  -2.300  27.767 -10.353
  129XTA    CO310152  -2.325  27.735 -10.499
  129XTA    OA310153  -2.269  27.607 -10.536
  129XTA    CO410154  -2.283  27.570 -10.674
  129XTA    CT110155  -2.213  27.437 -10.694
  129XTA    CL510156  -2.209  27.410 -10.845
  129XTA    CL610157  -2.333  27.444 -10.918
  129XTA    OA410158  -2.870  28.864 -10.267
  129XTA    CO510159  -2.955  28.982 -10.270
  129XTA    HL110160  -2.906  29.066 -10.229
  129XTA    HL210161  -3.376  28.355 -11.084
  129XTA    HL310162  -3.255  28.460 -11.020
  129XTA    HL410163  -3.224  28.284 -11.019
  129XTA    HL510164  -2.606  27.992 -10.335
  129XTA    HL610165  -2.594  28.106 -10.197
  129XTA    HL710166  -2.511  27.807 -10.155
  129XTA    HL810167  -2.524  27.925 -10.031
  129XTA    HL910168  -2.295  27.915 -10.107
  129XTA   HL1010169  -2.365  28.068 -10.174
  129XTA   HL1110170  -2.405  27.960 -10.384
  129XTA   HL1210171  -2.241  27.983 -10.350
  129XTA   HL1310172  -2.370  27.702 -10.301
  129XTA   HL1410173  -2.207  27.731 -10.311
  129XTA   HL1510174  -2.437  27.713 -10.506
  129XTA   HL1610175  -2.300  27.809 -10.571
  129XTA   HL1710176  -2.387  27.575 -10.686
  129XTA   HL1810177  -2.231  27.658 -10.719
  129XTA   HL1910178  -2.183  27.308 -10.858
  129XTA   HL2010179  -2.140  27.478 -10.895
  129XTA   HL2110180  -2.416  27.390 -10.872
  129XTA   HL2210181  -2.339  27.430 -11.034
  129XTA   HL2310182  -2.355  27.546 -10.904
  129XTA   HL2410183  -3.043  28.958 -10.217
  129XTA   HL2510184  -2.987  28.994 -10.376
  129XTA    CO610185  -2.295  27.334 -10.620
  129XTA    CO710186  -2.072  27.438 -10.625
  129XTA    OA510187  -1.980  27.532 -10.682
  129XTA   HL2610188  -2.383  27.330 -10.681
  129XTA   HL2710189  -2.325  27.375 -10.525
  129XTA   HL2810190  -2.013  27.338 -10.630
  129XTA   HL2910191  -2.079  27.466 -10.520
  130XTA     NT10192  -3.176  24.578  -8.309
  130XTA    CN110193  -3.075  24.577  -8.216
  130XTA     C110194  -2.949  24.517  -8.236
  130XTA     C210195  -2.835  24.540  -8.153
  130XTA     C310196  -2.851  24.620  -8.034
  130XTA     C410197  -2.975  24.677  -8.005
  130XTA     C510198  -3.086  24.654  -8.095
  130XTA    CN210199  -3.218  24.468  -8.374
  130XTA     C610200  -3.154  24.418  -8.487
  130XTA     C710201  -3.207  24.304  -8.550
  130XTA     C810202  -3.312  24.230  -8.496
  130XTA     C910203  -3.374  24.280  -8.378
  130XTA    C1010204  -3.329  24.402  -8.320
  130XTA    CN310205  -3.195  24.696  -8.371
  130XTA    C1110206  -3.307  24.775  -8.328
  130XTA    C1210207  -3.329  24.903  -8.385
  130XTA    C1310208  -3.237  24.960  -8.479
  130XTA    C1410209  -3.125  24.878  -8.513
  130XTA    C1510210  -3.103  24.749  -8.464
  130XTA     H110211  -2.948  24.447  -8.321
  130XTA     H210212  -2.745  24.485  -8.177
  130XTA     H310213  -3.001  24.728  -7.913
  130XTA     H410214  -3.174  24.708  -8.068
  130XTA     H510215  -3.065  24.473  -8.521
  130XTA     H610216  -3.161  24.267  -8.642
  130XTA     H710217  -3.458  24.223  -8.331
  130XTA     H810218  -3.355  24.441  -8.221
  130XTA     H910219  -3.369  24.742  -8.247
  130XTA    H1010220  -3.416  24.957  -8.347
  130XTA    H1110221  -3.051  24.926  -8.581
  130XTA    H1210222  -3.020  24.702  -8.507
  130XTA    OA110223  -2.741  24.638  -7.954
  130XTA    CO110224  -2.759  24.671  -7.817
  130XTA    OA210225  -3.349  24.106  -8.547
  130XTA    CO210226  -3.305  24.066  -8.679
  130XTA    CL110227  -3.400  23.957  -8.719
  130XTA    CL210228  -3.398  23.842  -8.618
  130XTA    CL310229  -3.426  23.701  -8.670
  130XTA    CL410230  -3.404  23.597  -8.565
  130XTA    CO310231  -3.449  23.457  -8.612
  130XTA    OA310232  -3.347  23.376  -8.668
  130XTA    CO410233  -3.332  23.389  -8.807
  130XTA    CT110234  -3.201  23.316  -8.858
  130XTA    CL510235  -3.191  23.169  -8.810
  130XTA    CL610236  -3.059  23.095  -8.821
  130XTA    OA410237  -3.250  25.079  -8.545
  130XTA    CO510238  -3.368  25.159  -8.509
  130XTA    HL110239  -3.373  25.167  -8.400
  130XTA    HL210240  -2.819  24.763  -7.801
  130XTA    HL310241  -2.807  24.588  -7.762
  130XTA    HL410242  -2.664  24.690  -7.764
  130XTA    HL510243  -3.306  24.149  -8.747
  130XTA    HL610244  -3.204  24.024  -8.673
  130XTA    HL710245  -3.364  23.928  -8.810
  130XTA    HL810246  -3.499  23.980  -8.744
  130XTA    HL910247  -3.467  23.875  -8.540
  130XTA   HL1010248  -3.305  23.832  -8.579
  130XTA   HL1110249  -3.533  23.686  -8.690
  130XTA   HL1210250  -3.368  23.685  -8.755
  130XTA   HL1310251  -3.457  23.615  -8.472
  130XTA   HL1410252  -3.305  23.600  -8.532
  130XTA   HL1510253  -3.479  23.403  -8.521
  130XTA   HL1610254  -3.540  23.474  -8.668
  130XTA   HL1710255  -3.419  23.345  -8.852
  130XTA   HL1810256  -3.318  23.480  -8.849
  130XTA   HL1910257  -3.276  23.111  -8.844
  130XTA   HL2010258  -3.211  23.186  -8.701
  130XTA   HL2110259  -3.058  23.008  -8.766
  130XTA   HL2210260  -2.983  23.157  -8.777
  130XTA   HL2310261  -3.026  23.072  -8.924
  130XTA   HL2410262  -3.457  25.109  -8.548
  130XTA   HL2510263  -3.346  25.259  -8.538
  130XTA    CO610264  -3.088  23.405  -8.804
  130XTA    CO710265  -3.190  23.336  -9.007
  130XTA    OA510266  -2.964  23.368  -8.862
  130XTA   HL2610267  -3.081  23.385  -8.699
  130XTA   HL2710268  -3.100  23.510  -8.822
  130XTA   HL2810269  -3.271  23.281  -9.050
  130XTA   HL2910270  -3.100  23.291  -9.038
  131XTA     NT10271  -8.210  23.481 -11.770
  131XTA    CN110272  -8.109  23.557 -11.800
  131XTA     C110273  -8.033  23.522 -11.910
  131XTA     C210274  -7.924  23.602 -11.946
  131XTA     C310275  -7.892  23.720 -11.875
  131XTA     C410276  -7.975  23.756 -11.766
  131XTA     C510277  -8.078  23.668 -11.726
  131XTA    CN210278  -8.335  23.533 -11.754
  131XTA     C610279  -8.398  23.549 -11.626
  131XTA     C710280  -8.521  23.612 -11.613
  131XTA     C810281  -8.595  23.639 -11.727
  131XTA     C910282  -8.538  23.614 -11.854
  131XTA    C1010283  -8.412  23.561 -11.869
  131XTA    CN310284  -8.188  23.353 -11.722
  131XTA    C1110285  -8.111  23.342 -11.609
  131XTA    C1210286  -8.043  23.224 -11.581
  131XTA    C1310287  -8.057  23.107 -11.665
  131XTA    C1410288  -8.140  23.121 -11.779
  131XTA    C1510289  -8.202  23.242 -11.800
  131XTA     H110290  -8.064  23.438 -11.964
  131XTA     H210291  -7.870  23.587 -12.042
  131XTA     H310292  -7.960  23.848 -11.715
  131XTA     H410293  -8.139  23.696 -11.644
  131XTA     H510294  -8.330  23.523 -11.546
  131XTA     H610295  -8.558  23.632 -11.511
  131XTA     H710296  -8.602  23.631 -11.933
  131XTA     H810297  -8.359  23.555 -11.963
  131XTA     H910298  -8.094  23.429 -11.546
  131XTA    H1010299  -7.973  23.218 -11.503
  131XTA    H1110300  -8.159  23.038 -11.843
  131XTA    H1210301  -8.249  23.253 -11.898
  131XTA    OA110302  -7.801  23.814 -11.918
  131XTA    CO110303  -7.679  23.765 -11.981
  131XTA    OA210304  -8.720  23.701 -11.723
  131XTA    CO210305  -8.748  23.788 -11.615
  131XTA    CL110306  -8.810  23.922 -11.664
  131XTA    CL210307  -8.935  23.907 -11.753
  131XTA    CL310308  -9.064  23.868 -11.671
  131XTA    CL410309  -9.175  23.858 -11.772
  131XTA    CO310310  -9.305  23.835 -11.704
  131XTA    OA310311  -9.314  23.693 -11.660
  131XTA    CO410312  -9.424  23.658 -11.577
  131XTA    CT110313  -9.424  23.510 -11.524
  131XTA    CL510314  -9.467  23.425 -11.640
  131XTA    CL610315  -9.602  23.462 -11.712
  131XTA    OA410316  -8.000  22.984 -11.638
  131XTA    CO510317  -7.908  22.974 -11.533
  131XTA    HL110318  -7.818  23.032 -11.545
  131XTA    HL210319  -7.608  23.841 -11.946
  131XTA    HL310320  -7.656  23.668 -11.943
  131XTA    HL410321  -7.675  23.762 -12.087
  131XTA    HL510322  -8.821  23.724 -11.565
  131XTA    HL610323  -8.665  23.805 -11.547
  131XTA    HL710324  -8.728  23.980 -11.716
  131XTA    HL810325  -8.836  23.985 -11.582
  131XTA    HL910326  -8.924  23.836 -11.832
  131XTA   HL1010327  -8.952  23.999 -11.797
  131XTA   HL1110328  -9.048  23.773 -11.619
  131XTA   HL1210329  -9.084  23.951 -11.603
  131XTA   HL1310330  -9.149  23.772 -11.828
  131XTA   HL1410331  -9.165  23.947 -11.827
  131XTA   HL1510332  -9.312  23.902 -11.612
  131XTA   HL1610333  -9.383  23.862 -11.770
  131XTA   HL1710334  -9.446  23.719 -11.486
  131XTA   HL1810335  -9.521  23.684 -11.629
  131XTA   HL1910336  -9.465  23.325 -11.607
  131XTA   HL2010337  -9.384  23.430 -11.716
  131XTA   HL2110338  -9.591  23.511 -11.808
  131XTA   HL2210339  -9.679  23.519 -11.656
  131XTA   HL2310340  -9.658  23.369 -11.746
  131XTA   HL2410341  -7.879  22.870 -11.517
  131XTA   HL2510342  -7.953  23.011 -11.446
  131XTA    CO610343  -9.519  23.489 -11.408
  131XTA    CO710344  -9.276  23.465 -11.471
  131XTA    OA510345  -9.495  23.358 -11.353
  131XTA   HL2610346  -9.626  23.508 -11.417
  131XTA   HL2710347  -9.486  23.557 -11.332
  131XTA   HL2810348  -9.264  23.355 -11.444
  131XTA   HL2910349  -9.221  23.463 -11.561
  132XTH     NT10350  -8.404  29.206  -7.963
  132XTH    CN110351  -8.298  29.287  -8.007
  132XTH     C110352  -8.186  29.317  -7.929
  132XTH     C210353  -8.083  29.399  -7.973
  132XTH     C310354  -8.084  29.455  -8.108
  132XTH     C410355  -8.203  29.435  -8.180
  132XTH     C510356  -8.298  29.346  -8.134
  132XTH    CN210357  -8.533  29.236  -7.993
  132XTH     C610358  -8.584  29.366  -7.963
  132XTH     C710359  -8.714  29.393  -7.990
  132XTH     C810360  -8.792  29.300  -8.061
  132XTH     C910361  -8.745  29.165  -8.092
  132XTH    C1010362  -8.613  29.133  -8.052
  132XTH    CN310363  -8.382  29.112  -7.866
  132XTH    C1110364  -8.313  28.997  -7.889
  132XTH    C1210365  -8.289  28.911  -7.775
  132XTH    C1310366  -8.348  28.936  -7.648
  132XTH    C1410367  -8.414  29.058  -7.630
  132XTH    C1510368  -8.435  29.140  -7.740
  132XTH     H110369  -8.179  29.279  -7.829
  132XTH     H210370  -7.995  29.410  -7.915
  132XTH     H310371  -8.223  29.496  -8.268
  132XTH     H410372  -8.384  29.334  -8.197
  132XTH     H510373  -8.525  29.436  -7.908
  132XTH     H610374  -8.749  29.484  -7.956
  132XTH     H710375  -8.812  29.091  -8.133
  132XTH     H810376  -8.568  29.033  -8.078
  132XTH     H910377  -8.276  28.972  -7.990
  132XTH    H1010378  -8.246  28.815  -7.805
  132XTH    H1110379  -8.475  29.078  -7.544
  132XTH    H1210380  -8.504  29.213  -7.710
  132XTH    OA110381  -7.974  29.528  -8.154
  132XTH    CO110382  -7.959  29.544  -8.294
  132XTH    OA210383  -8.927  29.321  -8.091
  132XTH    CO210384  -8.986  29.406  -7.999
  132XTH    CL110385  -9.137  29.372  -8.025
  132XTH    CL210386  -9.232  29.444  -7.932
  132XTH    CL310387  -9.232  29.584  -7.948
  132XTH    CL410388  -9.271  29.652  -7.811
  132XTH    CO310389  -9.162  29.667  -7.708
  132XTH    OA310390  -9.213  29.687  -7.577
  132XTH    CO410391  -9.237  29.563  -7.516
  132XTH    CT110392  -9.263  29.577  -7.363
  132XTH    CL510393  -9.394  29.658  -7.338
  132XTH    CL610394  -9.393  29.808  -7.378
  132XTH    OA410395  -8.323  28.841  -7.549
  132XTH    CO510396  -8.338  28.890  -7.418
  132XTH    HL110397  -8.298  28.825  -7.342
  132XTH    HL210398  -7.854  29.569  -8.313
  132XTH    HL310399  -7.976  29.452  -8.344
  132XTH    HL410400  -8.021  29.621  -8.332
  132XTH    HL510401  -8.957  29.380  -7.892
  132XTH    HL610402  -8.957  29.508  -8.019
  132XTH    HL710403  -9.140  29.267  -8.003
  132XTH    HL810404  -9.155  29.388  -8.130
  132XTH    HL910405  -9.213  29.408  -7.831
  132XTH   HL1010406  -9.336  29.403  -7.956
  132XTH   HL1110407  -9.137  29.626  -7.973
  132XTH   HL1210408  -9.311  29.616  -8.019
  132XTH   HL1310409  -9.344  29.603  -7.760
  132XTH   HL1410410  -9.311  29.755  -7.825
  132XTH   HL1510411  -9.097  29.581  -7.717
  132XTH   HL1610412  -9.096  29.752  -7.730
  132XTH   HL1710413  -9.329  29.520  -7.563
  132XTH   HL1810414  -9.154  29.495  -7.523
  132XTH   HL1910415  -9.428  29.637  -7.237
  132XTH   HL2010416  -9.470  29.619  -7.408
  132XTH   HL2110417  -9.485  29.857  -7.355
  132XTH   HL2210418  -9.359  29.829  -7.477
  132XTH   HL2310419  -9.329  29.855  -7.310
  132XTH   HL2410420  -8.444  28.901  -7.386
  132XTH   HL2510421  -8.300  28.990  -7.406
  132XTH    CO610422  -9.142  29.634  -7.289
  132XTH    CO710423  -9.279  29.429  -7.306
  132XTH    OA510424  -9.388  29.369  -7.366
  132XTH   HL2610425  -9.066  29.552  -7.281
  132XTH   HL2710426  -9.091  29.708  -7.346
  132XTH   HL2810427  -9.298  29.433  -7.203
  132XTH   HL2910428  -9.186  29.369  -7.323
  133XTA     NT10429  -7.797  23.385  -8.827
  133XTA    CN110430  -7.808  23.474  -8.931
  133XTA     C110431  -7.698  23.555  -8.967
  133XTA     C210432  -7.701  23.636  -9.086
  133XTA     C310433  -7.818  23.642  -9.167
  133XTA     C410434  -7.922  23.551  -9.132
  133XTA     C510435  -7.918  23.480  -9.018
  133XTA    CN210436  -7.693  23.301  -8.825
  133XTA     C610437  -7.682  23.169  -8.877
  133XTA     C710438  -7.559  23.099  -8.862
  133XTA     C810439  -7.448  23.166  -8.803
  133XTA     C910440  -7.461  23.290  -8.742
  133XTA    C1010441  -7.584  23.353  -8.752
  133XTA    CN310442  -7.881  23.401  -8.725
  133XTA    C1110443  -7.846  23.460  -8.603
  133XTA    C1210444  -7.941  23.480  -8.500
  133XTA    C1310445  -8.068  23.415  -8.508
  133XTA    C1410446  -8.103  23.350  -8.629
  133XTA    C1510447  -8.014  23.350  -8.738
  133XTA     H110448  -7.601  23.546  -8.920
  133XTA     H210449  -7.617  23.689  -9.120
  133XTA     H310450  -8.025  23.557  -9.180
  133XTA     H410451  -7.997  23.406  -9.008
  133XTA     H510452  -7.767  23.123  -8.922
  133XTA     H610453  -7.543  23.001  -8.898
  133XTA     H710454  -7.373  23.338  -8.698
  133XTA     H810455  -7.588  23.455  -8.705
  133XTA     H910456  -7.746  23.480  -8.582
  133XTA    H1010457  -7.919  23.529  -8.410
  133XTA    H1110458  -8.200  23.303  -8.635
  133XTA    H1210459  -8.048  23.312  -8.835
  133XTA    OA110460  -7.827  23.716  -9.278
  133XTA    CO110461  -7.723  23.696  -9.368
  133XTA    OA210462  -7.334  23.095  -8.805
  133XTA    CO210463  -7.220  23.161  -8.754
  133XTA    CL110464  -7.107  23.072  -8.740
  133XTA    CL210465  -6.989  23.143  -8.668
  133XTA    CL310466  -6.889  23.231  -8.760
  133XTA    CL410467  -6.818  23.139  -8.866
  133XTA    CO310468  -6.724  23.229  -8.941
  133XTA    OA310469  -6.646  23.169  -9.047
  133XTA    CO410470  -6.608  23.260  -9.148
  133XTA    CT110471  -6.515  23.197  -9.258
  133XTA    CL510472  -6.462  23.311  -9.352
  133XTA    CL610473  -6.573  23.364  -9.444
  133XTA    OA410474  -8.153  23.432  -8.400
  133XTA    CO510475  -8.195  23.303  -8.348
  133XTA    HL110476  -8.116  23.227  -8.341
  133XTA    HL210477  -7.726  23.777  -9.439
  133XTA    HL310478  -7.626  23.698  -9.323
  133XTA    HL410479  -7.735  23.604  -9.425
  133XTA    HL510480  -7.188  23.249  -8.818
  133XTA    HL610481  -7.249  23.206  -8.659
  133XTA    HL710482  -7.074  23.045  -8.837
  133XTA    HL810483  -7.133  22.981  -8.689
  133XTA    HL910484  -6.934  23.083  -8.598
  133XTA   HL1010485  -7.034  23.220  -8.596
  133XTA   HL1110486  -6.950  23.314  -8.808
  133XTA   HL1210487  -6.824  23.281  -8.686
  133XTA   HL1310488  -6.889  23.092  -8.933
  133XTA   HL1410489  -6.764  23.059  -8.822
  133XTA   HL1510490  -6.790  23.307  -8.987
  133XTA   HL1610491  -6.665  23.276  -8.864
  133XTA   HL1710492  -6.698  23.302  -9.193
  133XTA   HL1810493  -6.553  23.346  -9.101
  133XTA   HL1910494  -6.372  23.288  -9.398
  133XTA   HL2010495  -6.437  23.388  -9.284
  133XTA   HL2110496  -6.529  23.456  -9.506
  133XTA   HL2210497  -6.652  23.402  -9.377
  133XTA   HL2310498  -6.610  23.292  -9.520
  133XTA   HL2410499  -8.273  23.268  -8.419
  133XTA   HL2510500  -8.246  23.308  -8.250
  133XTA    CO610501  -6.596  23.083  -9.340
  133XTA    CO710502  -6.397  23.133  -9.187
  133XTA    OA510503  -6.335  23.086  -9.264
  133XTA   HL2610504  -6.534  23.064  -9.424
  133XTA   HL2710505  -6.614  22.961  -9.265
  133XTA   HL2810506  -6.435  23.060  -9.116
  133XTA   HL2910507  -6.347  23.216  -9.134
  134XTA     NT10508  -4.547  24.534  -6.632
  134XTA    CN110509  -4.472  24.636  -6.583
  134XTA     C110510  -4.505  24.770  -6.608
  134XTA     C210511  -4.424  24.876  -6.562
  134XTA     C310512  -4.325  24.859  -6.460
  134XTA     C410513  -4.288  24.721  -6.438
  134XTA     C510514  -4.357  24.617  -6.503
  134XTA    CN210515  -4.672  24.517  -6.587
  134XTA     C610516  -4.691  24.470  -6.457
  134XTA     C710517  -4.820  24.451  -6.398
  134XTA     C810518  -4.938  24.477  -6.474
  134XTA     C910519  -4.916  24.532  -6.602
  134XTA    C1010520  -4.788  24.551  -6.658
  134XTA    CN310521  -4.506  24.472  -6.746
  134XTA    C1110522  -4.514  24.330  -6.756
  134XTA    C1210523  -4.476  24.264  -6.871
  134XTA    C1310524  -4.442  24.339  -6.982
  134XTA    C1410525  -4.423  24.477  -6.977
  134XTA    C1510526  -4.449  24.540  -6.853
  134XTA     H110527  -4.595  24.792  -6.664
  134XTA     H210528  -4.431  24.981  -6.594
  134XTA     H310529  -4.207  24.695  -6.377
  134XTA     H410530  -4.342  24.523  -6.459
  134XTA     H510531  -4.601  24.452  -6.406
  134XTA     H610532  -4.837  24.406  -6.304
  134XTA     H710533  -4.992  24.561  -6.664
  134XTA     H810534  -4.767  24.600  -6.755
  134XTA     H910535  -4.550  24.268  -6.680
  134XTA    H1010536  -4.470  24.153  -6.883
  134XTA    H1110537  -4.380  24.527  -7.060
  134XTA    H1210538  -4.432  24.647  -6.843
  134XTA    OA110539  -4.270  24.966  -6.395
  134XTA    CO110540  -4.154  24.933  -6.322
  134XTA    OA210541  -5.056  24.443  -6.420
  134XTA    CO210542  -5.177  24.457  -6.500
  134XTA    CL110543  -5.304  24.445  -6.406
  134XTA    CL210544  -5.432  24.419  -6.476
  134XTA    CL310545  -5.517  24.301  -6.427
  134XTA    CL410546  -5.657  24.296  -6.495
  134XTA    CO310547  -5.760  24.384  -6.433
  134XTA    OA310548  -5.867  24.383  -6.528
  134XTA    CO410549  -5.975  24.467  -6.503
  134XTA    CT110550  -6.090  24.438  -6.601
  134XTA    CL510551  -6.206  24.520  -6.548
  134XTA    CL610552  -6.184  24.671  -6.551
  134XTA    OA410553  -4.414  24.282  -7.107
  134XTA    CO510554  -4.526  24.207  -7.157
  134XTA    HL110555  -4.616  24.265  -7.184
  134XTA    HL210556  -4.129  25.033  -6.269
  134XTA    HL310557  -4.175  24.850  -6.251
  134XTA    HL410558  -4.080  24.924  -6.395
  134XTA    HL510559  -5.182  24.551  -6.545
  134XTA    HL610560  -5.186  24.385  -6.571
  134XTA    HL710561  -5.305  24.530  -6.341
  134XTA    HL810562  -5.292  24.354  -6.348
  134XTA    HL910563  -5.412  24.402  -6.577
  134XTA   HL1010564  -5.502  24.502  -6.476
  134XTA   HL1110565  -5.463  24.208  -6.438
  134XTA   HL1210566  -5.530  24.289  -6.314
  134XTA   HL1310567  -5.700  24.198  -6.494
  134XTA   HL1410568  -5.652  24.309  -6.604
  134XTA   HL1510569  -5.801  24.346  -6.338
  134XTA   HL1610570  -5.707  24.476  -6.430
  134XTA   HL1710571  -6.008  24.442  -6.405
  134XTA   HL1810572  -5.944  24.569  -6.522
  134XTA   HL1910573  -6.239  24.494  -6.443
  134XTA   HL2010574  -6.292  24.499  -6.612
  134XTA   HL2110575  -6.271  24.726  -6.512
  134XTA   HL2210576  -6.164  24.705  -6.655
  134XTA   HL2310577  -6.096  24.696  -6.485
  134XTA   HL2410578  -4.572  24.146  -7.084
  134XTA   HL2510579  -4.491  24.138  -7.242
  134XTA    CO610580  -6.122  24.286  -6.576
  134XTA    CO710581  -6.056  24.474  -6.753
  134XTA    OA510582  -5.981  24.592  -6.771
  134XTA   HL2610583  -6.033  24.230  -6.551
  134XTA   HL2710584  -6.192  24.278  -6.486
  134XTA   HL2810585  -6.146  24.471  -6.814
  134XTA   HL2910586  -6.004  24.391  -6.800
  135XTA     NT10587  -7.360  29.585  -6.876
  135XTA    CN110588  -7.430  29.641  -6.977
  135XTA     C110589  -7.489  29.566  -7.074
  135XTA     C210590  -7.561  29.620  -7.187
  135XTA     C310591  -7.576  29.759  -7.202
  135XTA     C410592  -7.512  29.841  -7.105
  135XTA     C510593  -7.445  29.782  -6.996
  135XTA    CN210594  -7.229  29.607  -6.860
  135XTA     C610595  -7.147  29.534  -6.953
  135XTA     C710596  -7.015  29.574  -6.971
  135XTA     C810597  -6.958  29.671  -6.883
  135XTA     C910598  -7.034  29.737  -6.784
  135XTA    C1010599  -7.172  29.708  -6.778
  135XTA    CN310600  -7.419  29.529  -6.775
  135XTA    C1110601  -7.414  29.389  -6.766
  135XTA    C1210602  -7.484  29.326  -6.657
  135XTA    C1310603  -7.562  29.409  -6.572
  135XTA    C1410604  -7.580  29.547  -6.590
  135XTA    C1510605  -7.507  29.606  -6.694
  135XTA     H110606  -7.482  29.460  -7.057
  135XTA     H210607  -7.623  29.552  -7.243
  135XTA     H310608  -7.516  29.947  -7.113
  135XTA     H410609  -7.391  29.851  -6.931
  135XTA     H510610  -7.184  29.455  -7.012
  135XTA     H610611  -6.949  29.533  -7.050
  135XTA     H710612  -6.996  29.816  -6.726
  135XTA     H810613  -7.235  29.759  -6.714
  135XTA     H910614  -7.369  29.323  -6.836
  135XTA    H1010615  -7.475  29.221  -6.630
  135XTA    H1110616  -7.639  29.609  -6.526
  135XTA    H1210617  -7.503  29.708  -6.698
  135XTA    OA110618  -7.656  29.804  -7.302
  135XTA    CO110619  -7.738  29.915  -7.260
  135XTA    OA210620  -6.825  29.699  -6.889
  135XTA    CO210621  -6.757  29.703  -6.764
  135XTA    CL110622  -6.682  29.571  -6.741
  135XTA    CL210623  -6.598  29.529  -6.866
  135XTA    CL310624  -6.658  29.408  -6.933
  135XTA    CL410625  -6.559  29.314  -6.991
  135XTA    CO310626  -6.489  29.381  -7.100
  135XTA    OA310627  -6.560  29.373  -7.221
  135XTA    CO410628  -6.508  29.447  -7.328
  135XTA    CT110629  -6.608  29.464  -7.449
  135XTA    CL510630  -6.527  29.517  -7.576
  135XTA    CL610631  -6.453  29.655  -7.548
  135XTA    OA410632  -7.628  29.340  -6.468
  135XTA    CO510633  -7.726  29.412  -6.391
  135XTA    HL110634  -7.779  29.345  -6.323
  135XTA    HL210635  -7.802  29.887  -7.176
  135XTA    HL310636  -7.668  29.992  -7.230
  135XTA    HL410637  -7.802  29.956  -7.341
  135XTA    HL510638  -6.688  29.790  -6.756
  135XTA    HL610639  -6.825  29.712  -6.682
  135XTA    HL710640  -6.754  29.493  -6.721
  135XTA    HL810641  -6.623  29.586  -6.647
  135XTA    HL910642  -6.497  29.505  -6.820
  135XTA   HL1010643  -6.583  29.615  -6.935
  135XTA   HL1110644  -6.698  29.354  -6.850
  135XTA   HL1210645  -6.744  29.432  -6.993
  135XTA   HL1310646  -6.604  29.222  -7.031
  135XTA   HL1410647  -6.486  29.292  -6.907
  135XTA   HL1510648  -6.470  29.482  -7.070
  135XTA   HL1610649  -6.400  29.317  -7.105
  135XTA   HL1710650  -6.476  29.548  -7.293
  135XTA   HL1810651  -6.422  29.398  -7.364
  135XTA   HL1910652  -6.585  29.538  -7.666
  135XTA   HL2010653  -6.456  29.438  -7.600
  135XTA   HL2110654  -6.461  29.685  -7.446
  135XTA   HL2210655  -6.497  29.740  -7.596
  135XTA   HL2310656  -6.343  29.659  -7.552
  135XTA   HL2410657  -7.796  29.445  -6.470
  135XTA   HL2510658  -7.676  29.498  -6.341
  135XTA    CO610659  -6.727  29.528  -7.428
  135XTA    CO710660  -6.690  29.336  -7.475
  135XTA    OA510661  -6.786  29.458  -7.489
  135XTA   HL2610662  -6.723  29.630  -7.464
  135XTA   HL2710663  -6.750  29.531  -7.323
  135XTA   HL2810664  -6.722  29.261  -7.359
  135XTA   HL2910665  -6.670  29.281  -7.562
  136XTA     NT10666  -2.129  28.546  -9.366
  136XTA    CN110667  -2.091  28.671  -9.389
  136XTA     C110668  -2.128  28.777  -9.299
  136XTA     C210669  -2.083  28.908  -9.319
  136XTA     C310670  -2.015  28.942  -9.438
  136XTA     C410671  -1.981  28.839  -9.532
  136XTA     C510672  -2.025  28.706  -9.511
  136XTA    CN210673  -2.040  28.451  -9.367
  136XTA     C610674  -2.002  28.376  -9.479
  136XTA     C710675  -1.912  28.267  -9.467
  136XTA     C810676  -1.862  28.234  -9.336
  136XTA     C910677  -1.890  28.315  -9.229
  136XTA    C1010678  -1.982  28.421  -9.242
  136XTA    CN310679  -2.257  28.511  -9.401
  136XTA    C1110680  -2.334  28.428  -9.312
  136XTA    C1210681  -2.463  28.387  -9.360
  136XTA    C1310682  -2.519  28.430  -9.481
  136XTA    C1410683  -2.434  28.507  -9.568
  136XTA    C1510684  -2.306  28.542  -9.529
  136XTA     H110685  -2.186  28.750  -9.215
  136XTA     H210686  -2.125  28.976  -9.250
  136XTA     H310687  -1.934  28.868  -9.625
  136XTA     H410688  -2.000  28.634  -9.592
  136XTA     H510689  -2.047  28.393  -9.575
  136XTA     H610690  -1.903  28.199  -9.546
  136XTA     H710691  -1.843  28.288  -9.141
  136XTA     H810692  -2.025  28.474  -9.156
  136XTA     H910693  -2.293  28.412  -9.217
  136XTA    H1010694  -2.516  28.326  -9.291
  136XTA    H1110695  -2.477  28.550  -9.656
  136XTA    H1210696  -2.245  28.597  -9.600
  136XTA    OA110697  -2.004  29.073  -9.473
  136XTA    CO110698  -2.098  29.164  -9.414
  136XTA    OA210699  -1.785  28.118  -9.309
  136XTA    CO210700  -1.724  28.040  -9.418
  136XTA    CL110701  -1.617  28.126  -9.484
  136XTA    CL210702  -1.516  28.047  -9.568
  136XTA    CL310703  -1.419  28.133  -9.648
  136XTA    CL410704  -1.462  28.177  -9.785
  136XTA    CO310705  -1.347  28.192  -9.885
  136XTA    OA310706  -1.393  28.229 -10.014
  136XTA    CO410707  -1.470  28.137 -10.081
  136XTA    CT110708  -1.503  28.182 -10.228
  136XTA    CL510709  -1.551  28.327 -10.237
  136XTA    CL610710  -1.669  28.358 -10.150
  136XTA    OA410711  -2.648  28.404  -9.523
  136XTA    CO510712  -2.729  28.328  -9.431
  136XTA    HL110713  -2.825  28.368  -9.452
  136XTA    HL210714  -2.079  29.188  -9.305
  136XTA    HL310715  -2.089  29.259  -9.464
  136XTA    HL410716  -2.199  29.125  -9.430
  136XTA    HL510717  -1.678  27.945  -9.376
  136XTA    HL610718  -1.799  28.002  -9.495
  136XTA    HL710719  -1.565  28.180  -9.406
  136XTA    HL810720  -1.670  28.203  -9.546
  136XTA    HL910721  -1.563  27.975  -9.634
  136XTA   HL1010722  -1.471  27.994  -9.487
  136XTA   HL1110723  -1.391  28.214  -9.582
  136XTA   HL1210724  -1.328  28.071  -9.646
  136XTA   HL1310725  -1.509  28.275  -9.770
  136XTA   HL1410726  -1.542  28.117  -9.815
  136XTA   HL1510727  -1.277  28.274  -9.856
  136XTA   HL1610728  -1.279  28.105  -9.892
  136XTA   HL1710729  -1.407  28.046 -10.093
  136XTA   HL1810730  -1.564  28.120 -10.029
  136XTA   HL1910731  -1.585  28.352 -10.340
  136XTA   HL2010732  -1.471  28.393 -10.212
  136XTA   HL2110733  -1.635  28.368 -10.052
  136XTA   HL2210734  -1.748  28.287 -10.156
  136XTA   HL2310735  -1.721  28.452 -10.185
  136XTA   HL2410736  -2.720  28.354  -9.329
  136XTA   HL2510737  -2.705  28.218  -9.436
  136XTA    CO610738  -1.618  28.083 -10.271
  136XTA    CO710739  -1.388  28.163 -10.333
  136XTA    OA510740  -1.656  28.117 -10.409
  136XTA   HL2610741  -1.696  28.077 -10.190
  136XTA   HL2710742  -1.581  27.980 -10.271
  136XTA   HL2810743  -1.307  28.215 -10.282
  136XTA   HL2910744  -1.412  28.218 -10.422
  137XTA     NT10745  -6.515  24.162 -12.810
  137XTA    CN110746  -6.609  24.203 -12.904
  137XTA     C110747  -6.640  24.346 -12.916
  137XTA     C210748  -6.734  24.382 -13.017
  137XTA     C310749  -6.797  24.282 -13.098
  137XTA     C410750  -6.775  24.148 -13.080
  137XTA     C510751  -6.686  24.110 -12.976
  137XTA    CN210752  -6.387  24.201 -12.827
  137XTA     C610753  -6.303  24.142 -12.927
  137XTA     C710754  -6.173  24.194 -12.942
  137XTA     C810755  -6.130  24.306 -12.867
  137XTA     C910756  -6.216  24.367 -12.771
  137XTA    C1010757  -6.342  24.314 -12.748
  137XTA    CN310758  -6.544  24.108 -12.689
  137XTA    C1110759  -6.490  23.984 -12.646
  137XTA    C1210760  -6.504  23.953 -12.507
  137XTA    C1310761  -6.565  24.036 -12.416
  137XTA    C1410762  -6.631  24.158 -12.467
  137XTA    C1510763  -6.613  24.190 -12.603
  137XTA     H110764  -6.596  24.412 -12.849
  137XTA     H210765  -6.735  24.488 -13.025
  137XTA     H310766  -6.830  24.083 -13.151
  137XTA     H410767  -6.664  24.005 -12.964
  137XTA     H510768  -6.352  24.066 -12.993
  137XTA     H610769  -6.118  24.152 -13.023
  137XTA     H710770  -6.194  24.452 -12.716
  137XTA     H810771  -6.402  24.366 -12.676
  137XTA     H910772  -6.432  23.921 -12.714
  137XTA    H1010773  -6.454  23.863 -12.481
  137XTA    H1110774  -6.687  24.229 -12.401
  137XTA    H1210775  -6.652  24.290 -12.636
  137XTA    OA110776  -6.879  24.321 -13.197
  137XTA    CO110777  -6.812  24.398 -13.293
  137XTA    OA210778  -6.004  24.360 -12.892
  137XTA    CO210779  -5.946  24.449 -12.802
  137XTA    CL110780  -5.795  24.439 -12.812
  137XTA    CL210781  -5.727  24.549 -12.731
  137XTA    CL310782  -5.723  24.681 -12.802
  137XTA    CL410783  -5.675  24.795 -12.714
  137XTA    CO310784  -5.657  24.920 -12.795
  137XTA    OA310785  -5.785  24.959 -12.832
  137XTA    CO410786  -5.795  25.076 -12.906
  137XTA    CT110787  -5.939  25.130 -12.933
  137XTA    CL510788  -6.035  25.096 -12.817
  137XTA    CL610789  -6.081  24.949 -12.808
  137XTA    OA410790  -6.579  23.996 -12.289
  137XTA    CO510791  -6.615  24.105 -12.203
  137XTA    HL110792  -6.560  24.195 -12.222
  137XTA    HL210793  -6.740  24.337 -13.348
  137XTA    HL310794  -6.892  24.434 -13.361
  137XTA    HL410795  -6.771  24.482 -13.238
  137XTA    HL510796  -5.982  24.547 -12.831
  137XTA    HL610797  -5.977  24.439 -12.696
  137XTA    HL710798  -5.772  24.429 -12.913
  137XTA    HL810799  -5.781  24.343 -12.769
  137XTA    HL910800  -5.630  24.510 -12.719
  137XTA   HL1010801  -5.760  24.572 -12.632
  137XTA   HL1110802  -5.663  24.670 -12.894
  137XTA   HL1210803  -5.827  24.713 -12.842
  137XTA   HL1310804  -5.582  24.766 -12.666
  137XTA   HL1410805  -5.751  24.813 -12.635
  137XTA   HL1510806  -5.608  24.998 -12.736
  137XTA   HL1610807  -5.598  24.890 -12.880
  137XTA   HL1710808  -5.737  25.148 -12.851
  137XTA   HL1810809  -5.754  25.062 -13.002
  137XTA   HL1910810  -6.120  25.162 -12.818
  137XTA   HL2010811  -5.989  25.131 -12.725
  137XTA   HL2110812  -6.191  24.945 -12.839
  137XTA   HL2210813  -6.065  24.910 -12.708
  137XTA   HL2310814  -6.018  24.878 -12.869
  137XTA   HL2410815  -6.610  24.067 -12.106
  137XTA   HL2510816  -6.721  24.104 -12.231
  137XTA    CO610817  -5.995  25.066 -13.063
  137XTA    CO710818  -5.919  25.283 -12.957
  137XTA    OA510819  -6.096  25.101 -13.075
  137XTA   HL2610820  -5.982  24.960 -13.053
  137XTA   HL2710821  -5.932  25.110 -13.148
  137XTA   HL2810822  -5.836  25.305 -13.062
  137XTA   HL2910823  -6.009  25.337 -12.988
  138XTA     NT10824  -7.876  24.969  -8.882
  138XTA    CN110825  -7.949  24.872  -8.835
  138XTA     C110826  -7.942  24.745  -8.892
  138XTA     C210827  -8.000  24.632  -8.832
  138XTA     C310828  -8.058  24.641  -8.702
  138XTA     C410829  -8.061  24.762  -8.634
  138XTA     C510830  -8.003  24.877  -8.702
  138XTA    CN210831  -7.927  25.071  -8.951
  138XTA     C610832  -8.005  25.173  -8.889
  138XTA     C710833  -8.061  25.278  -8.964
  138XTA     C810834  -8.045  25.280  -9.105
  138XTA     C910835  -7.981  25.169  -9.167
  138XTA    C1010836  -7.917  25.067  -9.095
  138XTA    CN310837  -7.741  24.983  -8.857
  138XTA    C1110838  -7.690  25.065  -8.757
  138XTA    C1210839  -7.552  25.073  -8.728
  138XTA    C1310840  -7.456  24.992  -8.799
  138XTA    C1410841  -7.506  24.908  -8.902
  138XTA    C1510842  -7.644  24.901  -8.929
  138XTA     H110843  -7.902  24.724  -8.990
  138XTA     H210844  -7.997  24.532  -8.884
  138XTA     H310845  -8.090  24.763  -8.537
  138XTA     H410846  -7.999  24.962  -8.641
  138XTA     H510847  -8.014  25.175  -8.780
  138XTA     H610848  -8.114  25.365  -8.915
  138XTA     H710849  -7.964  25.163  -9.278
  138XTA     H810850  -7.873  24.984  -9.143
  138XTA     H910851  -7.759  25.131  -8.702
  138XTA    H1010852  -7.528  25.156  -8.661
  138XTA    H1110853  -7.447  24.847  -8.967
  138XTA    H1210854  -7.683  24.833  -9.003
  138XTA    OA110855  -8.104  24.516  -8.652
  138XTA    CO110856  -8.090  24.507  -8.506
  138XTA    OA210857  -8.079  25.398  -9.174
  138XTA    CO210858  -8.055  25.396  -9.321
  138XTA    CL110859  -7.913  25.444  -9.352
  138XTA    CL210860  -7.913  25.591  -9.388
  138XTA    CL310861  -7.774  25.652  -9.372
  138XTA    CL410862  -7.682  25.592  -9.482
  138XTA    CO310863  -7.539  25.611  -9.437
  138XTA    OA310864  -7.536  25.538  -9.313
  138XTA    CO410865  -7.404  25.530  -9.258
  138XTA    CT110866  -7.404  25.483  -9.116
  138XTA    CL510867  -7.445  25.337  -9.102
  138XTA    CL610868  -7.602  25.325  -9.100
  138XTA    OA410869  -7.323  24.991  -8.774
  138XTA    CO510870  -7.292  25.030  -8.640
  138XTA    HL110871  -7.188  25.053  -8.618
  138XTA    HL210872  -8.065  24.405  -8.474
  138XTA    HL310873  -8.003  24.564  -8.469
  138XTA    HL410874  -8.187  24.543  -8.462
  138XTA    HL510875  -8.080  25.304  -9.360
  138XTA    HL610876  -8.131  25.463  -9.363
  138XTA    HL710877  -7.897  25.393  -9.450
  138XTA    HL810878  -7.842  25.424  -9.272
  138XTA    HL910879  -7.979  25.634  -9.308
  138XTA   HL1010880  -7.941  25.604  -9.489
  138XTA   HL1110881  -7.773  25.752  -9.388
  138XTA   HL1210882  -7.737  25.620  -9.271
  138XTA   HL1310883  -7.696  25.652  -9.575
  138XTA   HL1410884  -7.702  25.487  -9.512
  138XTA   HL1510885  -7.486  25.571  -9.523
  138XTA   HL1610886  -7.508  25.712  -9.438
  138XTA   HL1710887  -7.342  25.471  -9.320
  138XTA   HL1810888  -7.357  25.629  -9.256
  138XTA   HL1910889  -7.405  25.294  -9.005
  138XTA   HL2010890  -7.403  25.286  -9.195
  138XTA   HL2110891  -7.631  25.222  -9.126
  138XTA   HL2210892  -7.652  25.389  -9.173
  138XTA   HL2310893  -7.643  25.342  -8.999
  138XTA   HL2410894  -7.326  24.952  -8.577
  138XTA   HL2510895  -7.358  25.116  -8.611
  138XTA    CO610896  -7.478  25.574  -9.020
  138XTA    CO710897  -7.254  25.496  -9.070
  138XTA    OA510898  -7.423  25.698  -9.038
  138XTA   HL2610899  -7.456  25.542  -8.923
  138XTA   HL2710900  -7.585  25.575  -9.039
  138XTA   HL2810901  -7.222  25.609  -9.075
  138XTA   HL2910902  -7.194  25.465  -9.156
  139XTA     NT10903  -7.741  25.509  -4.965
  139XTA    CN110904  -7.782  25.450  -4.847
  139XTA     C110905  -7.762  25.517  -4.717
  139XTA     C210906  -7.804  25.454  -4.599
  139XTA     C310907  -7.882  25.335  -4.604
  139XTA     C410908  -7.911  25.271  -4.725
  139XTA     C510909  -7.869  25.334  -4.848
  139XTA    CN210910  -7.621  25.468  -5.017
  139XTA     C610911  -7.523  25.564  -5.028
  139XTA     C710912  -7.395  25.532  -5.069
  139XTA     C810913  -7.358  25.401  -5.104
  139XTA     C910914  -7.463  25.308  -5.109
  139XTA    C1010915  -7.589  25.339  -5.056
  139XTA    CN310916  -7.835  25.587  -5.030
  139XTA    C1110917  -7.833  25.720  -4.998
  139XTA    C1210918  -7.935  25.803  -5.048
  139XTA    C1310919  -8.039  25.754  -5.132
  139XTA    C1410920  -8.039  25.621  -5.162
  139XTA    C1510921  -7.932  25.538  -5.122
  139XTA     H110922  -7.700  25.609  -4.707
  139XTA     H210923  -7.758  25.485  -4.507
  139XTA     H310924  -7.976  25.187  -4.724
  139XTA     H410925  -7.906  25.292  -4.945
  139XTA     H510926  -7.529  25.667  -4.991
  139XTA     H610927  -7.317  25.608  -5.067
  139XTA     H710928  -7.443  25.208  -5.142
  139XTA     H810929  -7.664  25.258  -5.046
  139XTA     H910930  -7.768  25.755  -4.919
  139XTA    H1010931  -7.938  25.909  -5.025
  139XTA    H1110932  -8.115  25.581  -5.222
  139XTA    H1210933  -7.941  25.433  -5.150
  139XTA    OA110934  -7.900  25.264  -4.490
  139XTA    CO110935  -8.025  25.193  -4.479
  139XTA    OA210936  -7.233  25.369  -5.147
  139XTA    CO210937  -7.238  25.293  -5.275
  139XTA    CL110938  -7.107  25.291  -5.348
  139XTA    CL210939  -7.112  25.209  -5.477
  139XTA    CL310940  -6.976  25.203  -5.549
  139XTA    CL410941  -6.954  25.339  -5.622
  139XTA    CO310942  -6.825  25.357  -5.691
  139XTA    OA310943  -6.730  25.365  -5.589
  139XTA    CO410944  -6.608  25.418  -5.631
  139XTA    CT110945  -6.495  25.386  -5.532
  139XTA    CL510946  -6.373  25.467  -5.579
  139XTA    CL610947  -6.256  25.473  -5.474
  139XTA    OA410948  -8.121  25.839  -5.200
  139XTA    CO510949  -8.105  25.977  -5.176
  139XTA    HL110950  -8.108  26.000  -5.065
  139XTA    HL210951  -8.101  25.254  -4.532
  139XTA    HL310952  -8.025  25.094  -4.526
  139XTA    HL410953  -8.052  25.173  -4.371
  139XTA    HL510954  -7.277  25.192  -5.256
  139XTA    HL610955  -7.315  25.353  -5.332
  139XTA    HL710956  -7.032  25.239  -5.289
  139XTA    HL810957  -7.081  25.390  -5.368
  139XTA    HL910958  -7.182  25.251  -5.555
  139XTA   HL1010959  -7.153  25.107  -5.475
  139XTA   HL1110960  -6.896  25.188  -5.474
  139XTA   HL1210961  -6.972  25.119  -5.622
  139XTA   HL1310962  -6.950  25.415  -5.544
  139XTA   HL1410963  -7.033  25.363  -5.695
  139XTA   HL1510964  -6.804  25.271  -5.748
  139XTA   HL1610965  -6.823  25.438  -5.759
  139XTA   HL1710966  -6.578  25.375  -5.723
  139XTA   HL1810967  -6.618  25.527  -5.646
  139XTA   HL1910968  -6.391  25.570  -5.603
  139XTA   HL2010969  -6.330  25.423  -5.667
  139XTA   HL2110970  -6.174  25.544  -5.490
  139XTA   HL2210971  -6.205  25.385  -5.448
  139XTA   HL2310972  -6.282  25.515  -5.378
  139XTA   HL2410973  -8.185  26.041  -5.216
  139XTA   HL2510974  -8.006  26.008  -5.208
  139XTA    CO610975  -6.466  25.232  -5.536
  139XTA    CO710976  -6.543  25.413  -5.386
  139XTA    OA510977  -6.565  25.520  -5.376
  139XTA   HL2610978  -6.420  25.208  -5.441
  139XTA   HL2710979  -6.591  25.172  -5.541
  139XTA   HL2810980  -6.470  25.374  -5.315
  139XTA   HL2910981  -6.635  25.355  -5.375
  140XTA     NT10982  -7.596  28.472  -5.395
  140XTA    CN110983  -7.534  28.586  -5.345
  140XTA     C110984  -7.393  28.601  -5.359
  140XTA     C210985  -7.330  28.715  -5.303
  140XTA     C310986  -7.406  28.818  -5.247
  140XTA     C410987  -7.547  28.809  -5.244
  140XTA     C510988  -7.610  28.694  -5.288
  140XTA    CN210989  -7.577  28.433  -5.524
  140XTA     C610990  -7.514  28.308  -5.548
  140XTA     C710991  -7.502  28.255  -5.672
  140XTA     C810992  -7.555  28.323  -5.782
  140XTA     C910993  -7.619  28.447  -5.763
  140XTA    C1010994  -7.633  28.502  -5.636
  140XTA    CN310995  -7.678  28.404  -5.317
  140XTA    C1110996  -7.817  28.415  -5.326
  140XTA    C1210997  -7.902  28.351  -5.235
  140XTA    C1310998  -7.841  28.275  -5.121
  140XTA    C1410999  -7.700  28.262  -5.119
  140XTA    C1511000  -7.617  28.335  -5.211
  140XTA     H111001  -7.336  28.521  -5.406
  140XTA     H211002  -7.217  28.722  -5.300
  140XTA     H311003  -7.607  28.890  -5.196
  140XTA     H411004  -7.717  28.685  -5.281
  140XTA     H511005  -7.478  28.247  -5.465
  140XTA     H611006  -7.458  28.156  -5.687
  140XTA     H711007  -7.672  28.503  -5.841
  140XTA     H811008  -7.689  28.592  -5.625
  140XTA     H911009  -7.857  28.476  -5.405
  140XTA    H1011010  -8.011  28.362  -5.252
  140XTA    H1111011  -7.661  28.202  -5.044
  140XTA    H1211012  -7.508  28.324  -5.205
  140XTA    OA111013  -7.344  28.924  -5.189
  140XTA    CO111014  -7.408  28.993  -5.083
  140XTA    OA211015  -7.550  28.264  -5.906
  140XTA    CO211016  -7.611  28.329  -6.016
  140XTA    CL111017  -7.560  28.259  -6.145
  140XTA    CL211018  -7.567  28.344  -6.270
  140XTA    CL311019  -7.711  28.342  -6.321
  140XTA    CL411020  -7.788  28.471  -6.274
  140XTA    CO311021  -7.755  28.590  -6.366
  140XTA    OA311022  -7.838  28.693  -6.310
  140XTA    CO411023  -7.799  28.818  -6.362
  140XTA    CT111024  -7.883  28.930  -6.302
  140XTA    CL511025  -7.847  29.077  -6.338
  140XTA    CL611026  -7.853  29.102  -6.489
  140XTA    OA411027  -7.912  28.214  -5.024
  140XTA    CO511028  -8.047  28.245  -5.030
  140XTA    HL111029  -8.053  28.351  -5.017
  140XTA    HL211030  -7.494  29.053  -5.113
  140XTA    HL311031  -7.436  28.909  -5.022
  140XTA    HL411032  -7.335  29.049  -5.032
  140XTA    HL511033  -7.714  28.312  -6.006
  140XTA    HL611034  -7.593  28.436  -6.019
  140XTA    HL711035  -7.603  28.166  -6.164
  140XTA    HL811036  -7.454  28.227  -6.135
  140XTA    HL911037  -7.510  28.282  -6.343
  140XTA   HL1011038  -7.519  28.436  -6.269
  140XTA   HL1111039  -7.702  28.324  -6.429
  140XTA   HL1211040  -7.770  28.256  -6.281
  140XTA   HL1311041  -7.762  28.492  -6.168
  140XTA   HL1411042  -7.893  28.449  -6.285
  140XTA   HL1511043  -7.647  28.626  -6.363
  140XTA   HL1611044  -7.778  28.570  -6.469
  140XTA   HL1711045  -7.695  28.848  -6.330
  140XTA   HL1811046  -7.814  28.829  -6.473
  140XTA   HL1911047  -7.742  29.091  -6.298
  140XTA   HL2011048  -7.910  29.158  -6.294
  140XTA   HL2111049  -7.953  29.078  -6.514
  140XTA   HL2211050  -7.792  29.039  -6.552
  140XTA   HL2311051  -7.833  29.200  -6.509
  140XTA   HL2411052  -8.092  28.184  -4.958
  140XTA   HL2511053  -8.091  28.218  -5.123
  140XTA    CO611054  -7.865  28.927  -6.148
  140XTA    CO711055  -8.031  28.911  -6.331
  140XTA    OA511056  -7.728  28.935  -6.103
  140XTA   HL2611057  -7.887  28.822  -6.136
  140XTA   HL2711058  -7.928  28.997  -6.094
  140XTA   HL2811059  -8.059  28.808  -6.335
  140XTA   HL2911060  -8.050  28.939  -6.435
  141XTA     NT11061  -5.230  26.552 -10.686
  141XTA    CN111062  -5.165  26.470 -10.762
  141XTA     C111063  -5.078  26.525 -10.859
  141XTA     C211064  -4.992  26.433 -10.923
  141XTA     C311065  -4.995  26.293 -10.904
  141XTA     C411066  -5.077  26.244 -10.804
  141XTA     C511067  -5.157  26.335 -10.730
  141XTA    CN211068  -5.368  26.555 -10.679
  141XTA     C611069  -5.436  26.634 -10.775
  141XTA     C711070  -5.572  26.672 -10.759
  141XTA     C811071  -5.644  26.617 -10.647
  141XTA     C911072  -5.577  26.527 -10.561
  141XTA    C1011073  -5.439  26.490 -10.575
  141XTA    CN311074  -5.167  26.631 -10.595
  141XTA    C1111075  -5.177  26.776 -10.606
  141XTA    C1211076  -5.094  26.856 -10.518
  141XTA    C1311077  -5.015  26.795 -10.422
  141XTA    C1411078  -5.011  26.653 -10.407
  141XTA    C1511079  -5.098  26.571 -10.487
  141XTA     H111080  -5.080  26.630 -10.887
  141XTA     H211081  -4.919  26.474 -10.993
  141XTA     H311082  -5.089  26.141 -10.778
  141XTA     H411083  -5.220  26.302 -10.645
  141XTA     H511084  -5.387  26.692 -10.851
  141XTA     H611085  -5.623  26.743 -10.825
  141XTA     H711086  -5.636  26.486 -10.485
  141XTA     H811087  -5.385  26.426 -10.510
  141XTA     H911088  -5.247  26.818 -10.675
  141XTA    H1011089  -5.101  26.967 -10.529
  141XTA    H1111090  -4.953  26.608 -10.332
  141XTA    H1211091  -5.087  26.463 -10.485
  141XTA    OA111092  -4.904  26.211 -10.968
  141XTA    CO111093  -4.923  26.070 -10.957
  141XTA    OA211094  -5.777  26.644 -10.630
  141XTA    CO211095  -5.820  26.701 -10.506
  141XTA    CL111096  -5.747  26.829 -10.467
  141XTA    CL211097  -5.640  26.805 -10.350
  141XTA    CL311098  -5.592  26.930 -10.282
  141XTA    CL411099  -5.510  27.011 -10.390
  141XTA    CO311100  -5.436  27.138 -10.343
  141XTA    OA311101  -5.366  27.190 -10.456
  141XTA    CO411102  -5.298  27.314 -10.431
  141XTA    CT111103  -5.146  27.288 -10.452
  141XTA    CL511104  -5.094  27.184 -10.353
  141XTA    CL611105  -5.059  27.236 -10.211
  141XTA    OA411106  -4.921  26.868 -10.363
  141XTA    CO511107  -4.940  26.877 -10.223
  141XTA    HL111108  -4.900  26.979 -10.194
  141XTA    HL211109  -4.860  26.021 -11.027
  141XTA    HL311110  -4.908  26.042 -10.849
  141XTA    HL411111  -5.020  26.044 -10.995
  141XTA    HL511112  -5.925  26.709 -10.492
  141XTA    HL611113  -5.794  26.628 -10.434
  141XTA    HL711114  -5.826  26.893 -10.421
  141XTA    HL811115  -5.713  26.883 -10.555
  141XTA    HL911116  -5.558  26.742 -10.391
  141XTA   HL1011117  -5.702  26.755 -10.274
  141XTA   HL1111118  -5.683  26.992 -10.256
  141XTA   HL1211119  -5.530  26.892 -10.201
  141XTA   HL1311120  -5.578  27.037 -10.473
  141XTA   HL1411121  -5.438  26.944 -10.435
  141XTA   HL1511122  -5.500  27.216 -10.296
  141XTA   HL1611123  -5.361  27.114 -10.270
  141XTA   HL1711124  -5.330  27.398 -10.503
  141XTA   HL1811125  -5.328  27.357 -10.333
  141XTA   HL1911126  -5.006  27.140 -10.391
  141XTA   HL2011127  -5.164  27.096 -10.341
  141XTA   HL2111128  -5.122  27.321 -10.176
  141XTA   HL2211129  -4.954  27.264 -10.208
  141XTA   HL2311130  -5.070  27.152 -10.141
  141XTA   HL2411131  -4.890  26.799 -10.167
  141XTA   HL2511132  -5.046  26.886 -10.186
  141XTA    CO611133  -5.064  27.416 -10.439
  141XTA    CO711134  -5.114  27.226 -10.590
  141XTA    OA511135  -5.115  27.530 -10.503
  141XTA   HL2611136  -4.957  27.396 -10.463
  141XTA   HL2711137  -5.073  27.447 -10.333
  141XTA   HL2811138  -5.185  27.140 -10.616
  141XTA   HL2911139  -5.145  27.305 -10.659
  142XTA     NT11140  -8.183  27.462  -9.861
  142XTA    CN111141  -8.283  27.540  -9.922
  142XTA     C111142  -8.249  27.597 -10.047
  142XTA     C211143  -8.352  27.676 -10.111
  142XTA     C311144  -8.480  27.682 -10.055
  142XTA     C411145  -8.510  27.613  -9.937
  142XTA     C511146  -8.411  27.538  -9.875
  142XTA    CN211147  -8.172  27.324  -9.879
  142XTA     C611148  -8.204  27.241  -9.771
  142XTA     C711149  -8.175  27.103  -9.782
  142XTA     C811150  -8.135  27.044  -9.904
  142XTA     C911151  -8.122  27.128 -10.018
  142XTA    C1011152  -8.141  27.269 -10.000
  142XTA    CN311153  -8.103  27.524  -9.771
  142XTA    C1111154  -8.154  27.597  -9.659
  142XTA    C1211155  -8.064  27.660  -9.575
  142XTA    C1311156  -7.921  27.638  -9.591
  142XTA    C1411157  -7.875  27.549  -9.686
  142XTA    C1511158  -7.965  27.495  -9.779
  142XTA     H111159  -8.146  27.591 -10.088
  142XTA     H211160  -8.321  27.720 -10.200
  142XTA     H311161  -8.608  27.612  -9.902
  142XTA     H411162  -8.436  27.473  -9.789
  142XTA     H511163  -8.255  27.275  -9.680
  142XTA     H611164  -8.195  27.038  -9.700
  142XTA     H711165  -8.089  27.088 -10.115
  142XTA     H811166  -8.124  27.343 -10.080
  142XTA     H911167  -8.262  27.614  -9.649
  142XTA    H1011168  -8.112  27.720  -9.493
  142XTA    H1111169  -7.772  27.533  -9.699
  142XTA    H1211170  -7.930  27.443  -9.867
  142XTA    OA111171  -8.584  27.740 -10.118
  142XTA    CO111172  -8.586  27.715 -10.256
  142XTA    OA211173  -8.107  26.911  -9.898
  142XTA    CO211174  -8.051  26.850 -10.011
  142XTA    CL111175  -7.905  26.898 -10.031
  142XTA    CL211176  -7.857  26.913 -10.180
  142XTA    CL311177  -7.852  26.785 -10.257
  142XTA    CL411178  -7.742  26.680 -10.218
  142XTA    CO311179  -7.723  26.566 -10.328
  142XTA    OA311180  -7.651  26.454 -10.270
  142XTA    CO411181  -7.644  26.344 -10.356
  142XTA    CT111182  -7.564  26.237 -10.296
  142XTA    CL511183  -7.622  26.188 -10.160
  142XTA    CL611184  -7.769  26.154 -10.165
  142XTA    OA411185  -7.837  27.695  -9.500
  142XTA    CO511186  -7.743  27.599  -9.438
  142XTA    HL111187  -7.666  27.556  -9.509
  142XTA    HL211188  -8.546  27.617 -10.283
  142XTA    HL311189  -8.688  27.728 -10.287
  142XTA    HL411190  -8.519  27.782 -10.303
  142XTA    HL511191  -8.045  26.739 -10.009
  142XTA    HL611192  -8.109  26.879 -10.103
  142XTA    HL711193  -7.834  26.842  -9.969
  142XTA    HL811194  -7.900  26.999  -9.996
  142XTA    HL911195  -7.753  26.948 -10.190
  142XTA   HL1011196  -7.921  26.989 -10.225
  142XTA   HL1111197  -7.955  26.747 -10.270
  142XTA   HL1211198  -7.834  26.805 -10.359
  142XTA   HL1311199  -7.764  26.632 -10.119
  142XTA   HL1411200  -7.652  26.736 -10.216
  142XTA   HL1511201  -7.822  26.529 -10.366
  142XTA   HL1611202  -7.672  26.605 -10.421
  142XTA   HL1711203  -7.744  26.322 -10.376
  142XTA   HL1811204  -7.594  26.375 -10.450
  142XTA   HL1911205  -7.618  26.270 -10.082
  142XTA   HL2011206  -7.563  26.099 -10.132
  142XTA   HL2111207  -7.815  26.164 -10.068
  142XTA   HL2211208  -7.804  26.056 -10.191
  142XTA   HL2311209  -7.823  26.219 -10.234
  142XTA   HL2411210  -7.788  27.530  -9.366
  142XTA   HL2511211  -7.681  27.661  -9.367
  142XTA    CO611212  -7.419  26.294 -10.268
  142XTA    CO711213  -7.555  26.117 -10.392
  142XTA    OA511214  -7.350  26.223 -10.166
  142XTA   HL2611215  -7.431  26.394 -10.247
  142XTA   HL2711216  -7.363  26.290 -10.362
  142XTA   HL2811217  -7.625  26.048 -10.357
  142XTA   HL2911218  -7.462  26.064 -10.391
  143XTA     NT11219  -4.041  28.662  -8.510
  143XTA    CN111220  -4.092  28.599  -8.613
  143XTA     C111221  -4.131  28.678  -8.722
  143XTA     C211222  -4.191  28.618  -8.832
  143XTA     C311223  -4.187  28.480  -8.849
  143XTA     C411224  -4.149  28.395  -8.745
  143XTA     C511225  -4.103  28.456  -8.624
  143XTA    CN211226  -3.905  28.647  -8.494
  143XTA     C611227  -3.823  28.688  -8.604
  143XTA     C711228  -3.684  28.669  -8.599
  143XTA     C811229  -3.622  28.611  -8.485
  143XTA     C911230  -3.701  28.576  -8.370
  143XTA    C1011231  -3.840  28.599  -8.377
  143XTA    CN311232  -4.120  28.669  -8.400
  143XTA    C1111233  -4.167  28.555  -8.330
  143XTA    C1211234  -4.243  28.573  -8.214
  143XTA    C1311235  -4.279  28.702  -8.174
  143XTA    C1411236  -4.228  28.815  -8.244
  143XTA    C1511237  -4.148  28.801  -8.353
  143XTA     H111238  -4.117  28.781  -8.728
  143XTA     H211239  -4.239  28.676  -8.909
  143XTA     H311240  -4.182  28.291  -8.750
  143XTA     H411241  -4.068  28.389  -8.542
  143XTA     H511242  -3.859  28.735  -8.698
  143XTA     H611243  -3.615  28.699  -8.676
  143XTA     H711244  -3.651  28.538  -8.282
  143XTA     H811245  -3.904  28.571  -8.297
  143XTA     H911246  -4.136  28.457  -8.359
  143XTA    H1011247  -4.260  28.491  -8.143
  143XTA    H1111248  -4.241  28.917  -8.199
  143XTA    H1211249  -4.105  28.886  -8.405
  143XTA    OA111250  -4.246  28.413  -8.954
  143XTA    CO111251  -4.255  28.478  -9.079
  143XTA    OA211252  -3.485  28.579  -8.482
  143XTA    CO211253  -3.425  28.555  -8.607
  143XTA    CL111254  -3.283  28.494  -8.586
  143XTA    CL211255  -3.207  28.437  -8.709
  143XTA    CL311256  -3.219  28.525  -8.843
  143XTA    CL411257  -3.149  28.662  -8.822
  143XTA    CO311258  -3.151  28.737  -8.956
  143XTA    OA311259  -3.268  28.721  -9.031
  143XTA    CO411260  -3.373  28.799  -8.973
  143XTA    CT111261  -3.505  28.784  -9.054
  143XTA    CL511262  -3.532  28.890  -9.162
  143XTA    CL611263  -3.515  29.032  -9.110
  143XTA    OA411264  -4.352  28.724  -8.063
  143XTA    CO511265  -4.378  28.620  -7.972
  143XTA    HL111266  -4.464  28.651  -7.913
  143XTA    HL211267  -4.323  28.413  -9.135
  143XTA    HL311268  -4.318  28.562  -9.064
  143XTA    HL411269  -4.164  28.516  -9.129
  143XTA    HL511270  -3.486  28.477  -8.651
  143XTA    HL611271  -3.426  28.634  -8.683
  143XTA    HL711272  -3.296  28.407  -8.524
  143XTA    HL811273  -3.220  28.556  -8.521
  143XTA    HL911274  -3.250  28.339  -8.722
  143XTA   HL1011275  -3.105  28.418  -8.687
  143XTA   HL1111276  -3.162  28.475  -8.926
  143XTA   HL1211277  -3.321  28.544  -8.877
  143XTA   HL1311278  -3.052  28.646  -8.776
  143XTA   HL1411279  -3.198  28.720  -8.742
  143XTA   HL1511280  -3.132  28.845  -8.947
  143XTA   HL1611281  -3.057  28.709  -9.005
  143XTA   HL1711282  -3.388  28.773  -8.871
  143XTA   HL1811283  -3.341  28.899  -8.973
  143XTA   HL1911284  -3.634  28.878  -9.205
  143XTA   HL2011285  -3.462  28.880  -9.243
  143XTA   HL2111286  -3.417  29.060  -9.108
  143XTA   HL2211287  -3.544  29.039  -9.004
  143XTA   HL2311288  -3.565  29.108  -9.172
  143XTA   HL2411289  -4.291  28.600  -7.904
  143XTA   HL2511290  -4.411  28.534  -8.028
  143XTA    CO611291  -3.621  28.770  -8.973
  143XTA    CO711292  -3.534  28.647  -9.099
  143XTA    OA511293  -3.662  28.672  -9.011
  143XTA   HL2611294  -3.692  28.857  -8.978
  143XTA   HL2711295  -3.587  28.773  -8.866
  143XTA   HL2811296  -3.449  28.531  -9.056
  143XTA   HL2911297  -3.567  28.633  -9.198
  144XTA     NT11298  -2.014  25.734  -7.391
  144XTA    CN111299  -1.998  25.709  -7.522
  144XTA     C111300  -1.871  25.740  -7.576
  144XTA     C211301  -1.848  25.718  -7.711
  144XTA     C311302  -1.950  25.681  -7.798
  144XTA     C411303  -2.083  25.667  -7.749
  144XTA     C511304  -2.099  25.681  -7.610
  144XTA    CN211305  -2.045  25.858  -7.351
  144XTA     C611306  -2.178  25.904  -7.363
  144XTA     C711307  -2.210  26.029  -7.317
  144XTA     C811308  -2.120  26.102  -7.237
  144XTA     C911309  -1.988  26.058  -7.230
  144XTA    C1011310  -1.942  25.933  -7.281
  144XTA    CN311311  -2.013  25.631  -7.311
  144XTA    C1111312  -2.133  25.603  -7.247
  144XTA    C1211313  -2.156  25.483  -7.175
  144XTA    C1311314  -2.038  25.401  -7.148
  144XTA    C1411315  -1.914  25.438  -7.202
  144XTA    C1511316  -1.901  25.552  -7.287
  144XTA     H111317  -1.791  25.773  -7.513
  144XTA     H211318  -1.752  25.715  -7.747
  144XTA     H311319  -2.166  25.641  -7.808
  144XTA     H411320  -2.198  25.675  -7.567
  144XTA     H511321  -2.252  25.843  -7.410
  144XTA     H611322  -2.311  26.063  -7.335
  144XTA     H711323  -1.927  26.117  -7.168
  144XTA     H811324  -1.839  25.899  -7.272
  144XTA     H911325  -2.220  25.657  -7.280
  144XTA    H1011326  -2.253  25.434  -7.146
  144XTA    H1111327  -1.833  25.374  -7.188
  144XTA    H1211328  -1.805  25.570  -7.326
  144XTA    OA111329  -1.918  25.664  -7.933
  144XTA    CO111330  -2.020  25.641  -8.029
  144XTA    OA211331  -2.153  26.224  -7.184
  144XTA    CO211332  -2.270  26.288  -7.232
  144XTA    CL111333  -2.276  26.434  -7.176
  144XTA    CL211334  -2.286  26.435  -7.028
  144XTA    CL311335  -2.268  26.574  -6.966
  144XTA    CL411336  -2.386  26.675  -6.958
  144XTA    CO311337  -2.339  26.825  -6.928
  144XTA    OA311338  -2.461  26.885  -6.899
  144XTA    CO411339  -2.449  27.027  -6.893
  144XTA    CT111340  -2.557  27.094  -6.812
  144XTA    CL511341  -2.696  27.070  -6.866
  144XTA    CL611342  -2.758  26.934  -6.832
  144XTA    OA411343  -2.027  25.292  -7.069
  144XTA    CO511344  -2.138  25.273  -6.984
  144XTA    HL111345  -2.170  25.360  -6.935
  144XTA    HL211346  -2.058  25.536  -8.020
  144XTA    HL311347  -2.111  25.700  -8.027
  144XTA    HL411348  -1.986  25.645  -8.134
  144XTA    HL511349  -2.270  26.295  -7.339
  144XTA    HL611350  -2.363  26.231  -7.213
  144XTA    HL711351  -2.355  26.498  -7.219
  144XTA    HL811352  -2.183  26.479  -7.213
  144XTA    HL911353  -2.196  26.374  -6.997
  144XTA   HL1011354  -2.371  26.391  -6.983
  144XTA   HL1111355  -2.243  26.552  -6.867
  144XTA   HL1211356  -2.173  26.616  -7.003
  144XTA   HL1311357  -2.462  26.644  -6.894
  144XTA   HL1411358  -2.420  26.682  -7.067
  144XTA   HL1511359  -2.280  26.810  -6.834
  144XTA   HL1611360  -2.273  26.881  -7.008
  144XTA   HL1711361  -2.359  27.058  -6.839
  144XTA   HL1811362  -2.430  27.063  -6.995
  144XTA   HL1911363  -2.708  27.080  -6.975
  144XTA   HL2011364  -2.765  27.146  -6.831
  144XTA   HL2111365  -2.820  26.904  -6.916
  144XTA   HL2211366  -2.821  26.950  -6.742
  144XTA   HL2311367  -2.692  26.849  -6.817
  144XTA   HL2411368  -2.119  25.197  -6.907
  144XTA   HL2511369  -2.209  25.231  -7.058
  144XTA    CO611370  -2.525  27.243  -6.824
  144XTA    CO711371  -2.542  27.051  -6.654
  144XTA    OA511372  -2.590  27.295  -6.749
  144XTA   HL2611373  -2.541  27.296  -6.923
  144XTA   HL2711374  -2.419  27.263  -6.790
  144XTA   HL2811375  -2.584  26.921  -6.621
  144XTA   HL2911376  -2.611  27.113  -6.595
  145XTA     NT11377  -8.253  29.711  -8.682
  145XTA    CN111378  -8.349  29.650  -8.615
  145XTA     C111379  -8.318  29.529  -8.558
  145XTA     C211380  -8.420  29.468  -8.480
  145XTA     C311381  -8.551  29.523  -8.471
  145XTA     C411382  -8.578  29.643  -8.529
  145XTA     C511383  -8.475  29.711  -8.596
  145XTA    CN211384  -8.125  29.714  -8.630
  145XTA     C611385  -8.094  29.809  -8.529
  145XTA     C711386  -7.962  29.825  -8.480
  145XTA     C811387  -7.858  29.751  -8.544
  145XTA     C911388  -7.891  29.649  -8.642
  145XTA    C1011389  -8.021  29.627  -8.682
  145XTA    CN311390  -8.266  29.747  -8.808
  145XTA    C1111391  -8.253  29.652  -8.911
  145XTA    C1211392  -8.265  29.682  -9.048
  145XTA    C1311393  -8.290  29.813  -9.086
  145XTA    C1411394  -8.310  29.912  -8.984
  145XTA    C1511395  -8.301  29.879  -8.840
  145XTA     H111396  -8.230  29.478  -8.585
  145XTA     H211397  -8.399  29.378  -8.428
  145XTA     H311398  -8.678  29.692  -8.512
  145XTA     H411399  -8.488  29.809  -8.646
  145XTA     H511400  -8.179  29.871  -8.498
  145XTA     H611401  -7.944  29.902  -8.401
  145XTA     H711402  -7.811  29.591  -8.683
  145XTA     H811403  -8.042  29.548  -8.755
  145XTA     H911404  -8.236  29.549  -8.892
  145XTA    H1011405  -8.254  29.599  -9.118
  145XTA    H1111406  -8.338  30.016  -9.010
  145XTA    H1211407  -8.329  29.948  -8.761
  145XTA    OA111408  -8.661  29.464  -8.405
  145XTA    CO111409  -8.641  29.325  -8.354
  145XTA    OA211410  -7.726  29.766  -8.512
  145XTA    CO211411  -7.682  29.859  -8.417
  145XTA    CL111412  -7.525  29.864  -8.407
  145XTA    CL211413  -7.475  29.719  -8.400
  145XTA    CL311414  -7.491  29.642  -8.269
  145XTA    CL411415  -7.436  29.502  -8.271
  145XTA    CO311416  -7.422  29.449  -8.130
  145XTA    OA311417  -7.547  29.427  -8.076
  145XTA    CO411418  -7.584  29.288  -8.080
  145XTA    CT111419  -7.580  29.229  -7.945
  145XTA    CL511420  -7.439  29.216  -7.881
  145XTA    CL611421  -7.419  29.134  -7.757
  145XTA    OA411422  -8.315  29.838  -9.216
  145XTA    CO511423  -8.264  29.962  -9.271
  145XTA    HL111424  -8.255  29.955  -9.384
  145XTA    HL211425  -8.730  29.273  -8.315
  145XTA    HL311426  -8.595  29.275  -8.441
  145XTA    HL411427  -8.571  29.326  -8.267
  145XTA    HL511428  -7.710  29.963  -8.443
  145XTA    HL611429  -7.719  29.836  -8.321
  145XTA    HL711430  -7.486  29.912  -8.323
  145XTA    HL811431  -7.488  29.918  -8.496
  145XTA    HL911432  -7.370  29.721  -8.433
  145XTA   HL1011433  -7.515  29.663  -8.479
  145XTA   HL1111434  -7.436  29.698  -8.195
  145XTA   HL1211435  -7.596  29.624  -8.239
  145XTA   HL1311436  -7.345  29.502  -8.335
  145XTA   HL1411437  -7.510  29.435  -8.319
  145XTA   HL1511438  -7.369  29.357  -8.135
  145XTA   HL1611439  -7.364  29.515  -8.064
  145XTA   HL1711440  -7.684  29.283  -8.121
  145XTA   HL1811441  -7.533  29.217  -8.146
  145XTA   HL1911442  -7.406  29.314  -7.845
  145XTA   HL2011443  -7.383  29.185  -7.963
  145XTA   HL2111444  -7.469  29.186  -7.677
  145XTA   HL2211445  -7.316  29.120  -7.734
  145XTA   HL2311446  -7.463  29.039  -7.763
  145XTA   HL2411447  -8.164  29.982  -9.241
  145XTA   HL2511448  -8.334  30.049  -9.251
  145XTA    CO611449  -7.639  29.087  -7.968
  145XTA    CO711450  -7.688  29.298  -7.861
  145XTA    OA511451  -7.698  29.243  -7.768
  145XTA   HL2611452  -7.652  29.024  -7.876
  145XTA   HL2711453  -7.543  29.019  -8.045
  145XTA   HL2811454  -7.783  29.305  -7.913
  145XTA   HL2911455  -7.667  29.403  -7.838
  146XTA     NT11456  -2.450  24.667  -6.109
  146XTA    CN111457  -2.333  24.605  -6.105
  146XTA     C111458  -2.279  24.549  -5.983
  146XTA     C211459  -2.151  24.499  -5.980
  146XTA     C311460  -2.070  24.489  -6.093
  146XTA     C411461  -2.117  24.542  -6.218
  146XTA     C511462  -2.248  24.597  -6.222
  146XTA    CN211463  -2.572  24.604  -6.095
  146XTA     C611464  -2.663  24.634  -5.995
  146XTA     C711465  -2.797  24.584  -6.004
  146XTA     C811466  -2.833  24.502  -6.112
  146XTA     C911467  -2.738  24.471  -6.206
  146XTA    C1011468  -2.609  24.519  -6.202
  146XTA    CN311469  -2.456  24.801  -6.115
  146XTA    C1111470  -2.454  24.871  -5.997
  146XTA    C1211471  -2.455  25.015  -5.998
  146XTA    C1311472  -2.447  25.079  -6.122
  146XTA    C1411473  -2.425  25.006  -6.239
  146XTA    C1511474  -2.434  24.864  -6.238
  146XTA     H111475  -2.343  24.561  -5.899
  146XTA     H211476  -2.105  24.472  -5.889
  146XTA     H311477  -2.059  24.550  -6.312
  146XTA     H411478  -2.280  24.644  -6.320
  146XTA     H511479  -2.628  24.689  -5.907
  146XTA     H611480  -2.873  24.611  -5.929
  146XTA     H711481  -2.770  24.405  -6.286
  146XTA     H811482  -2.539  24.504  -6.280
  146XTA     H911483  -2.461  24.811  -5.902
  146XTA    H1011484  -2.461  25.079  -5.905
  146XTA    H1111485  -2.398  25.062  -6.328
  146XTA    H1211486  -2.417  24.803  -6.331
  146XTA    OA111487  -1.943  24.427  -6.084
  146XTA    CO111488  -1.863  24.418  -6.195
  146XTA    OA211489  -2.960  24.456  -6.125
  146XTA    CO211490  -3.071  24.537  -6.101
  146XTA    CL111491  -3.129  24.560  -6.237
  146XTA    CL211492  -3.235  24.669  -6.242
  146XTA    CL311493  -3.310  24.659  -6.376
  146XTA    CL411494  -3.381  24.793  -6.405
  146XTA    CO311495  -3.439  24.789  -6.547
  146XTA    OA311496  -3.333  24.801  -6.641
  146XTA    CO411497  -3.375  24.839  -6.770
  146XTA    CT111498  -3.254  24.851  -6.863
  146XTA    CL511499  -3.146  24.740  -6.825
  146XTA    CL611500  -3.194  24.592  -6.841
  146XTA    OA411501  -2.442  25.217  -6.134
  146XTA    CO511502  -2.439  25.298  -6.017
  146XTA    HL111503  -2.351  25.276  -5.950
  146XTA    HL211504  -1.838  24.521  -6.215
  146XTA    HL311505  -1.770  24.373  -6.184
  146XTA    HL411506  -1.916  24.370  -6.283
  146XTA    HL511507  -3.140  24.478  -6.044
  146XTA    HL611508  -3.055  24.624  -6.048
  146XTA    HL711509  -3.177  24.474  -6.280
  146XTA    HL811510  -3.048  24.588  -6.307
  146XTA    HL911511  -3.180  24.767  -6.242
  146XTA   HL1011512  -3.309  24.681  -6.171
  146XTA   HL1111513  -3.256  24.622  -6.462
  146XTA   HL1211514  -3.377  24.575  -6.358
  146XTA   HL1311515  -3.301  24.870  -6.401
  146XTA   HL1411516  -3.461  24.810  -6.337
  146XTA   HL1511517  -3.497  24.701  -6.556
  146XTA   HL1611518  -3.510  24.876  -6.561
  146XTA   HL1711519  -3.446  24.762  -6.809
  146XTA   HL1811520  -3.431  24.937  -6.762
  146XTA   HL1911521  -3.116  24.763  -6.721
  146XTA   HL2011522  -3.054  24.762  -6.881
  146XTA   HL2111523  -3.113  24.518  -6.827
  146XTA   HL2211524  -3.229  24.571  -6.946
  146XTA   HL2311525  -3.276  24.567  -6.776
  146XTA   HL2411526  -2.529  25.284  -5.956
  146XTA   HL2511527  -2.434  25.405  -6.034
  146XTA    CO611528  -3.191  24.986  -6.840
  146XTA    CO711529  -3.283  24.853  -7.014
  146XTA    OA511530  -3.372  24.747  -7.050
  146XTA   HL2611531  -3.181  25.000  -6.727
  146XTA   HL2711532  -3.095  24.992  -6.887
  146XTA   HL2811533  -3.192  24.840  -7.077
  146XTA   HL2911534  -3.336  24.944  -7.045
  147XTA     NT11535  -4.277  28.905  -6.198
  147XTA    CN111536  -4.275  29.009  -6.104
  147XTA     C111537  -4.383  29.008  -6.003
  147XTA     C211538  -4.390  29.111  -5.912
  147XTA     C311539  -4.291  29.212  -5.910
  147XTA     C411540  -4.181  29.206  -6.001
  147XTA     C511541  -4.171  29.105  -6.095
  147XTA    CN211542  -4.261  28.932  -6.328
  147XTA     C611543  -4.137  28.915  -6.398
  147XTA     C711544  -4.135  28.955  -6.536
  147XTA     C811545  -4.253  29.001  -6.600
  147XTA     C911546  -4.373  29.028  -6.531
  147XTA    C1011547  -4.372  28.991  -6.394
  147XTA    CN311548  -4.262  28.785  -6.147
  147XTA    C1111549  -4.371  28.697  -6.150
  147XTA    C1211550  -4.352  28.560  -6.110
  147XTA    C1311551  -4.228  28.522  -6.055
  147XTA    C1411552  -4.125  28.617  -6.046
  147XTA    C1511553  -4.140  28.747  -6.086
  147XTA     H111554  -4.464  28.931  -6.007
  147XTA     H211555  -4.476  29.131  -5.852
  147XTA     H311556  -4.107  29.282  -6.011
  147XTA     H411557  -4.086  29.114  -6.161
  147XTA     H511558  -4.053  28.875  -6.354
  147XTA     H611559  -4.043  28.941  -6.595
  147XTA     H711560  -4.470  29.061  -6.570
  147XTA     H811561  -4.455  28.999  -6.324
  147XTA     H911562  -4.471  28.737  -6.171
  147XTA    H1011563  -4.445  28.499  -6.101
  147XTA    H1111564  -4.030  28.577  -6.008
  147XTA    H1211565  -4.055  28.813  -6.076
  147XTA    OA111566  -4.299  29.317  -5.829
  147XTA    CO111567  -4.400  29.325  -5.730
  147XTA    OA211568  -4.243  29.019  -6.737
  147XTA    CO211569  -4.321  29.118  -6.802
  147XTA    CL111570  -4.306  29.097  -6.953
  147XTA    CL211571  -4.371  29.190  -7.055
  147XTA    CL311572  -4.524  29.176  -7.086
  147XTA    CL411573  -4.546  29.250  -7.215
  147XTA    CO311574  -4.691  29.239  -7.266
  147XTA    OA311575  -4.782  29.305  -7.185
  147XTA    CO411576  -4.894  29.348  -7.258
  147XTA    CT111577  -5.011  29.406  -7.173
  147XTA    CL511578  -5.044  29.304  -7.063
  147XTA    CL611579  -5.070  29.160  -7.105
  147XTA    OA411580  -4.187  28.392  -6.024
  147XTA    CO511581  -4.295  28.299  -6.025
  147XTA    HL111582  -4.260  28.199  -6.002
  147XTA    HL211583  -4.400  29.424  -5.689
  147XTA    HL311584  -4.501  29.306  -5.770
  147XTA    HL411585  -4.372  29.254  -5.653
  147XTA    HL511586  -4.427  29.102  -6.775
  147XTA    HL611587  -4.284  29.218  -6.771
  147XTA    HL711588  -4.327  28.998  -6.984
  147XTA    HL811589  -4.199  29.102  -6.967
  147XTA    HL911590  -4.324  29.180  -7.151
  147XTA   HL1011591  -4.345  29.291  -7.032
  147XTA   HL1111592  -4.535  29.069  -7.088
  147XTA   HL1211593  -4.581  29.209  -7.000
  147XTA   HL1311594  -4.472  29.214  -7.291
  147XTA   HL1411595  -4.518  29.354  -7.206
  147XTA   HL1511596  -4.700  29.277  -7.362
  147XTA   HL1611597  -4.719  29.130  -7.282
  147XTA   HL1711598  -4.860  29.431  -7.318
  147XTA   HL1811599  -4.933  29.265  -7.306
  147XTA   HL1911600  -5.133  29.346  -7.010
  147XTA   HL2011601  -4.960  29.311  -6.992
  147XTA   HL2111602  -5.156  29.163  -7.169
  147XTA   HL2211603  -5.094  29.113  -7.010
  147XTA   HL2311604  -4.985  29.123  -7.167
  147XTA   HL2411605  -4.314  28.296  -6.128
  147XTA   HL2511606  -4.376  28.325  -5.954
  147XTA    CO611607  -5.129  29.437  -7.272
  147XTA    CO711608  -4.963  29.533  -7.095
  147XTA    OA511609  -5.068  29.618  -7.056
  147XTA   HL2611610  -5.219  29.473  -7.221
  147XTA   HL2711611  -5.171  29.345  -7.305
  147XTA   HL2811612  -4.901  29.598  -7.163
  147XTA   HL2911613  -4.901  29.503  -7.012
  148XTA     NT11614  -2.557  25.913  -7.568
  148XTA    CN111615  -2.452  25.984  -7.613
  148XTA     C111616  -2.341  25.916  -7.660
  148XTA     C211617  -2.227  25.987  -7.702
  148XTA     C311618  -2.214  26.125  -7.676
  148XTA     C411619  -2.335  26.191  -7.630
  148XTA     C511620  -2.455  26.121  -7.605
  148XTA    CN211621  -2.528  25.849  -7.455
  148XTA     C611622  -2.514  25.707  -7.446
  148XTA     C711623  -2.491  25.640  -7.328
  148XTA     C811624  -2.485  25.716  -7.207
  148XTA     C911625  -2.498  25.859  -7.212
  148XTA    C1011626  -2.520  25.924  -7.336
  148XTA    CN311627  -2.666  25.891  -7.644
  148XTA    C1111628  -2.656  25.869  -7.782
  148XTA    C1211629  -2.770  25.823  -7.855
  148XTA    C1311630  -2.898  25.829  -7.800
  148XTA    C1411631  -2.908  25.863  -7.664
  148XTA    C1511632  -2.794  25.890  -7.588
  148XTA     H111633  -2.340  25.807  -7.664
  148XTA     H211634  -2.143  25.927  -7.736
  148XTA     H311635  -2.326  26.294  -7.609
  148XTA     H411636  -2.536  26.177  -7.582
  148XTA     H511637  -2.514  25.660  -7.542
  148XTA     H611638  -2.472  25.529  -7.332
  148XTA     H711639  -2.497  25.912  -7.118
  148XTA     H811640  -2.521  26.028  -7.327
  148XTA     H911641  -2.560  25.891  -7.830
  148XTA    H1011642  -2.756  25.799  -7.958
  148XTA    H1111643  -3.004  25.858  -7.616
  148XTA    H1211644  -2.812  25.913  -7.484
  148XTA    OA111645  -2.101  26.196  -7.655
  148XTA    CO111646  -1.982  26.135  -7.710
  148XTA    OA211647  -2.459  25.646  -7.088
  148XTA    CO211648  -2.383  25.717  -6.994
  148XTA    CL111649  -2.351  25.627  -6.873
  148XTA    CL211650  -2.320  25.706  -6.745
  148XTA    CL311651  -2.429  25.792  -6.687
  148XTA    CL411652  -2.559  25.716  -6.654
  148XTA    CO311653  -2.685  25.798  -6.696
  148XTA    OA311654  -2.794  25.734  -6.633
  148XTA    CO411655  -2.923  25.802  -6.650
  148XTA    CT111656  -3.041  25.753  -6.557
  148XTA    CL511657  -3.173  25.823  -6.612
  148XTA    CL611658  -3.238  25.774  -6.743
  148XTA    OA411659  -3.011  25.798  -7.875
  148XTA    CO511660  -2.995  25.766  -8.013
  148XTA    HL111661  -3.088  25.726  -8.054
  148XTA    HL211662  -1.992  26.092  -7.807
  148XTA    HL311663  -1.921  26.225  -7.737
  148XTA    HL411664  -1.926  26.069  -7.649
  148XTA    HL511665  -2.282  25.746  -7.032
  148XTA    HL611666  -2.439  25.805  -6.958
  148XTA    HL711667  -2.277  25.555  -6.890
  148XTA    HL811668  -2.441  25.574  -6.846
  148XTA    HL911669  -2.249  25.773  -6.777
  148XTA   HL1011670  -2.277  25.637  -6.668
  148XTA   HL1111671  -2.395  25.834  -6.595
  148XTA   HL1211672  -2.444  25.875  -6.761
  148XTA   HL1311673  -2.566  25.703  -6.544
  148XTA   HL1411674  -2.570  25.615  -6.691
  148XTA   HL1511675  -2.664  25.903  -6.664
  148XTA   HL1611676  -2.696  25.795  -6.802
  148XTA   HL1711677  -2.908  25.908  -6.618
  148XTA   HL1811678  -2.966  25.804  -6.749
  148XTA   HL1911679  -3.156  25.931  -6.629
  148XTA   HL2011680  -3.245  25.819  -6.530
  148XTA   HL2111681  -3.279  25.672  -6.723
  148XTA   HL2211682  -3.167  25.769  -6.824
  148XTA   HL2311683  -3.309  25.841  -6.778
  148XTA   HL2411684  -2.921  25.680  -8.030
  148XTA   HL2511685  -2.953  25.854  -8.073
  148XTA    CO611686  -2.997  25.798  -6.413
  148XTA    CO711687  -3.044  25.598  -6.572
  148XTA    OA511688  -3.157  25.538  -6.496
  148XTA   HL2611689  -2.904  25.757  -6.402
  148XTA   HL2711690  -3.064  25.772  -6.336
  148XTA   HL2811691  -2.952  25.550  -6.541
  148XTA   HL2911692  -3.070  25.584  -6.676
  149XTA     NT11693  -8.595  25.768  -6.778
  149XTA    CN111694  -8.662  25.676  -6.709
  149XTA     C111695  -8.632  25.658  -6.571
  149XTA     C211696  -8.705  25.567  -6.495
  149XTA     C311697  -8.796  25.477  -6.555
  149XTA     C411698  -8.815  25.486  -6.695
  149XTA     C511699  -8.754  25.587  -6.770
  149XTA    CN211700  -8.649  25.890  -6.806
  149XTA     C611701  -8.755  25.898  -6.891
  149XTA     C711702  -8.822  26.016  -6.911
  149XTA     C811703  -8.780  26.133  -6.855
  149XTA     C911704  -8.676  26.131  -6.768
  149XTA    C1011705  -8.613  26.012  -6.736
  149XTA    CN311706  -8.462  25.754  -6.810
  149XTA    C1111707  -8.356  25.775  -6.718
  149XTA    C1211708  -8.225  25.769  -6.764
  149XTA    C1311709  -8.197  25.736  -6.899
  149XTA    C1411710  -8.308  25.718  -6.987
  149XTA    C1511711  -8.440  25.725  -6.944
  149XTA     H111712  -8.555  25.724  -6.530
  149XTA     H211713  -8.684  25.572  -6.393
  149XTA     H311714  -8.896  25.426  -6.746
  149XTA     H411715  -8.777  25.587  -6.871
  149XTA     H511716  -8.789  25.814  -6.938
  149XTA     H611717  -8.904  26.017  -6.978
  149XTA     H711718  -8.626  26.221  -6.736
  149XTA     H811719  -8.540  26.019  -6.657
  149XTA     H911720  -8.373  25.786  -6.614
  149XTA    H1011721  -8.134  25.786  -6.701
  149XTA    H1111722  -8.298  25.705  -7.090
  149XTA    H1211723  -8.519  25.713  -7.015
  149XTA    OA111724  -8.855  25.383  -6.473
  149XTA    CO111725  -8.894  25.266  -6.534
  149XTA    OA211726  -8.846  26.250  -6.879
  149XTA    CO211727  -8.777  26.339  -6.977
  149XTA    CL111728  -8.890  26.385  -7.073
  149XTA    CL211729  -8.976  26.497  -7.007
  149XTA    CL311730  -9.107  26.506  -7.084
  149XTA    CL411731  -9.209  26.395  -7.037
  149XTA    CO311732  -9.295  26.445  -6.918
  149XTA    OA311733  -9.348  26.341  -6.833
  149XTA    CO411734  -9.425  26.377  -6.720
  149XTA    CT111735  -9.477  26.252  -6.651
  149XTA    CL511736  -9.598  26.191  -6.731
  149XTA    CL611737  -9.565  26.124  -6.866
  149XTA    OA411738  -8.064  25.720  -6.945
  149XTA    CO511739  -8.039  25.683  -7.085
  149XTA    HL111740  -7.933  25.709  -7.127
  149XTA    HL211741  -8.986  25.294  -6.590
  149XTA    HL311742  -8.822  25.223  -6.603
  149XTA    HL411743  -8.911  25.186  -6.467
  149XTA    HL511744  -8.725  26.415  -6.920
  149XTA    HL611745  -8.714  26.275  -7.034
  149XTA    HL711746  -8.960  26.298  -7.092
  149XTA    HL811747  -8.853  26.409  -7.166
  149XTA    HL911748  -8.920  26.589  -6.988
  149XTA   HL1011749  -8.996  26.473  -6.905
  149XTA   HL1111750  -9.158  26.604  -7.071
  149XTA   HL1211751  -9.084  26.505  -7.185
  149XTA   HL1311752  -9.163  26.302  -7.010
  149XTA   HL1411753  -9.275  26.370  -7.126
  149XTA   HL1511754  -9.237  26.517  -6.866
  149XTA   HL1611755  -9.386  26.495  -6.955
  149XTA   HL1711756  -9.361  26.438  -6.656
  149XTA   HL1811757  -9.511  26.440  -6.734
  149XTA   HL1911758  -9.676  26.264  -6.759
  149XTA   HL2011759  -9.637  26.103  -6.669
  149XTA   HL2111760  -9.660  26.106  -6.923
  149XTA   HL2211761  -9.528  26.028  -6.849
  149XTA   HL2311762  -9.502  26.168  -6.942
  149XTA   HL2411763  -8.105  25.717  -7.156
  149XTA   HL2511764  -8.059  25.579  -7.103
  149XTA    CO611765  -9.523  26.280  -6.511
  149XTA    CO711766  -9.368  26.146  -6.633
  149XTA    OA511767  -9.607  26.360  -6.517
  149XTA   HL2611768  -9.429  26.302  -6.457
  149XTA   HL2711769  -9.565  26.190  -6.464
  149XTA   HL2811770  -9.296  26.104  -6.751
  149XTA   HL2911771  -9.293  26.187  -6.565
  150XTA     NT11772  -6.612  26.874  -4.315
  150XTA    CN111773  -6.638  27.003  -4.342
  150XTA     C111774  -6.542  27.062  -4.431
  150XTA     C211775  -6.566  27.194  -4.472
  150XTA     C311776  -6.688  27.258  -4.443
  150XTA     C411777  -6.784  27.187  -4.367
  150XTA     C511778  -6.765  27.055  -4.323
  150XTA    CN211779  -6.700  26.785  -4.360
  150XTA     C611780  -6.698  26.746  -4.496
  150XTA     C711781  -6.774  26.637  -4.539
  150XTA     C811782  -6.849  26.565  -4.443
  150XTA     C911783  -6.834  26.590  -4.305
  150XTA    C1011784  -6.768  26.705  -4.273
  150XTA    CN311785  -6.512  26.842  -4.228
  150XTA    C1111786  -6.407  26.758  -4.268
  150XTA    C1211787  -6.308  26.719  -4.175
  150XTA    C1311788  -6.306  26.783  -4.048
  150XTA    C1411789  -6.407  26.873  -4.009
  150XTA    C1511790  -6.509  26.903  -4.097
  150XTA     H111791  -6.449  27.019  -4.465
  150XTA     H211792  -6.487  27.245  -4.528
  150XTA     H311793  -6.889  27.229  -4.365
  150XTA     H411794  -6.839  26.995  -4.276
  150XTA     H511795  -6.619  26.787  -4.560
  150XTA     H611796  -6.789  26.608  -4.642
  150XTA     H711797  -6.897  26.528  -4.240
  150XTA     H811798  -6.767  26.738  -4.174
  150XTA     H911799  -6.415  26.710  -4.365
  150XTA    H1011800  -6.227  26.654  -4.209
  150XTA    H1111801  -6.402  26.920  -3.911
  150XTA    H1211802  -6.582  26.966  -4.055
  150XTA    OA111803  -6.711  27.385  -4.481
  150XTA    CO111804  -6.600  27.477  -4.471
  150XTA    OA211805  -6.914  26.450  -4.483
  150XTA    CO211806  -6.814  26.351  -4.485
  150XTA    CL111807  -6.862  26.216  -4.539
  150XTA    CL211808  -6.794  26.084  -4.483
  150XTA    CL311809  -6.674  26.035  -4.568
  150XTA    CL411810  -6.682  25.880  -4.573
  150XTA    CO311811  -6.579  25.830  -4.666
  150XTA    OA311812  -6.593  25.866  -4.804
  150XTA    CO411813  -6.490  25.831  -4.903
  150XTA    CT111814  -6.473  25.932  -5.017
  150XTA    CL511815  -6.417  26.057  -4.952
  150XTA    CL611816  -6.281  26.044  -4.883
  150XTA    OA411817  -6.221  26.760  -3.949
  150XTA    CO511818  -6.118  26.664  -3.967
  150XTA    HL111819  -6.072  26.656  -3.874
  150XTA    HL211820  -6.564  27.485  -4.376
  150XTA    HL311821  -6.521  27.450  -4.538
  150XTA    HL411822  -6.644  27.573  -4.496
  150XTA    HL511823  -6.720  26.382  -4.535
  150XTA    HL611824  -6.789  26.330  -4.380
  150XTA    HL711825  -6.875  26.218  -4.647
  150XTA    HL811826  -6.967  26.205  -4.508
  150XTA    HL911827  -6.888  26.021  -4.483
  150XTA   HL1011828  -6.767  26.091  -4.373
  150XTA   HL1111829  -6.684  26.069  -4.673
  150XTA   HL1211830  -6.575  26.075  -4.543
  150XTA   HL1311831  -6.776  25.848  -4.604
  150XTA   HL1411832  -6.661  25.852  -4.466
  150XTA   HL1511833  -6.482  25.871  -4.634
  150XTA   HL1611834  -6.594  25.722  -4.669
  150XTA   HL1711835  -6.392  25.812  -4.863
  150XTA   HL1811836  -6.512  25.734  -4.949
  150XTA   HL1911837  -6.488  26.092  -4.882
  150XTA   HL2011838  -6.413  26.130  -5.039
  150XTA   HL2111839  -6.209  25.979  -4.938
  150XTA   HL2211840  -6.310  25.996  -4.786
  150XTA   HL2311841  -6.231  26.144  -4.862
  150XTA   HL2411842  -6.056  26.695  -4.054
  150XTA   HL2511843  -6.153  26.567  -3.987
  150XTA    CO611844  -6.608  25.953  -5.087
  150XTA    CO711845  -6.363  25.880  -5.110
  150XTA    OA511846  -6.332  25.961  -5.178
  150XTA   HL2611847  -6.609  26.052  -5.136
  150XTA   HL2711848  -6.716  25.963  -5.004
  150XTA   HL2811849  -6.398  25.806  -5.181
  150XTA   HL2911850  -6.286  25.820  -5.051
  151XTA     NT11851  -3.557  28.986 -11.376
  151XTA    CN111852  -3.477  28.875 -11.394
  151XTA     C111853  -3.385  28.838 -11.294
  151XTA     C211854  -3.280  28.748 -11.324
  151XTA     C311855  -3.280  28.680 -11.451
  151XTA     C411856  -3.381  28.714 -11.547
  151XTA     C511857  -3.472  28.813 -11.518
  151XTA    CN211858  -3.491  29.107 -11.366
  151XTA     C611859  -3.433  29.130 -11.243
  151XTA     C711860  -3.347  29.245 -11.235
  151XTA     C811861  -3.337  29.334 -11.343
  151XTA     C911862  -3.400  29.306 -11.463
  151XTA    C1011863  -3.479  29.196 -11.472
  151XTA    CN311864  -3.688  28.979 -11.340
  151XTA    C1111865  -3.793  28.983 -11.442
  151XTA    C1211866  -3.928  28.959 -11.406
  151XTA    C1311867  -3.956  28.925 -11.271
  151XTA    C1411868  -3.854  28.908 -11.173
  151XTA    C1511869  -3.719  28.940 -11.209
  151XTA     H111870  -3.384  28.885 -11.190
  151XTA     H211871  -3.193  28.729 -11.261
  151XTA     H311872  -3.381  28.677 -11.646
  151XTA     H411873  -3.544  28.836 -11.601
  151XTA     H511874  -3.457  29.065 -11.162
  151XTA     H611875  -3.294  29.275 -11.140
  151XTA     H711876  -3.383  29.373 -11.556
  151XTA     H811877  -3.536  29.173 -11.564
  151XTA     H911878  -3.775  28.998 -11.548
  151XTA    H1011879  -4.009  28.969 -11.480
  151XTA    H1111880  -3.871  28.876 -11.073
  151XTA    H1211881  -3.639  28.934 -11.140
  151XTA    OA111882  -3.186  28.584 -11.460
  151XTA    CO111883  -3.161  28.545 -11.594
  151XTA    OA211884  -3.252  29.442 -11.333
  151XTA    CO211885  -3.116  29.404 -11.293
  151XTA    CL111886  -3.023  29.398 -11.410
  151XTA    CL211887  -2.876  29.376 -11.376
  151XTA    CL311888  -2.792  29.360 -11.501
  151XTA    CL411889  -2.641  29.353 -11.482
  151XTA    CO311890  -2.559  29.300 -11.612
  151XTA    OA311891  -2.438  29.255 -11.560
  151XTA    CO411892  -2.349  29.219 -11.662
  151XTA    CT111893  -2.242  29.109 -11.623
  151XTA    CL511894  -2.296  28.965 -11.629
  151XTA    CL611895  -2.428  28.948 -11.556
  151XTA    OA411896  -4.084  28.892 -11.227
  151XTA    CO511897  -4.176  28.842 -11.327
  151XTA    HL111898  -4.124  28.760 -11.372
  151XTA    HL211899  -3.064  28.494 -11.608
  151XTA    HL311900  -3.236  28.470 -11.627
  151XTA    HL411901  -3.138  28.630 -11.663
  151XTA    HL511902  -3.058  29.458 -11.217
  151XTA    HL611903  -3.102  29.307 -11.253
  151XTA    HL711904  -3.029  29.489 -11.466
  151XTA    HL811905  -3.056  29.316 -11.479
  151XTA    HL911906  -2.865  29.276 -11.328
  151XTA   HL1011907  -2.842  29.454 -11.305
  151XTA   HL1111908  -2.817  29.275 -11.556
  151XTA   HL1211909  -2.808  29.450 -11.557
  151XTA   HL1311910  -2.636  29.283 -11.405
  151XTA   HL1411911  -2.602  29.444 -11.432
  151XTA   HL1511912  -2.623  29.212 -11.635
  151XTA   HL1611913  -2.555  29.373 -11.695
  151XTA   HL1711914  -2.402  29.196 -11.755
  151XTA   HL1811915  -2.291  29.305 -11.685
  151XTA   HL1911916  -2.221  28.897 -11.591
  151XTA   HL2011917  -2.312  28.926 -11.727
  151XTA   HL2111918  -2.439  28.850 -11.526
  151XTA   HL2211919  -2.517  28.964 -11.619
  151XTA   HL2311920  -2.437  29.011 -11.471
  151XTA   HL2411921  -4.200  28.893 -11.416
  151XTA   HL2511922  -4.271  28.804 -11.291
  151XTA    CO611923  -2.186  29.157 -11.489
  151XTA    CO711924  -2.117  29.111 -11.712
  151XTA    OA511925  -2.130  29.102 -11.818
  151XTA   HL2611926  -2.172  29.266 -11.504
  151XTA   HL2711927  -2.282  29.145 -11.394
  151XTA   HL2811928  -2.057  29.031 -11.679
  151XTA   HL2911929  -2.065  29.208 -11.684
  152XTA     NT11930  -4.534  32.786 -10.383
  152XTA    CN111931  -4.453  32.898 -10.389
  152XTA     C111932  -4.507  33.018 -10.340
  152XTA     C211933  -4.449  33.147 -10.361
  152XTA     C311934  -4.325  33.152 -10.437
  152XTA     C411935  -4.274  33.027 -10.486
  152XTA     C511936  -4.332  32.901 -10.469
  152XTA    CN211937  -4.554  32.728 -10.262
  152XTA     C611938  -4.677  32.742 -10.204
  152XTA     C711939  -4.708  32.691 -10.078
  152XTA     C811940  -4.611  32.616 -10.017
  152XTA     C911941  -4.482  32.602 -10.070
  152XTA    C1011942  -4.456  32.660 -10.194
  152XTA    CN311943  -4.572  32.724 -10.494
  152XTA    C1111944  -4.515  32.609 -10.548
  152XTA    C1211945  -4.558  32.563 -10.671
  152XTA    C1311946  -4.654  32.624 -10.745
  152XTA    C1411947  -4.719  32.733 -10.685
  152XTA    C1511948  -4.682  32.781 -10.558
  152XTA     H111949  -4.596  33.026 -10.288
  152XTA     H211950  -4.514  33.225 -10.334
  152XTA     H311951  -4.182  33.025 -10.545
  152XTA     H411952  -4.295  32.813 -10.522
  152XTA     H511953  -4.756  32.790 -10.261
  152XTA     H611954  -4.807  32.709 -10.042
  152XTA     H711955  -4.407  32.547 -10.013
  152XTA     H811956  -4.353  32.655 -10.245
  152XTA     H911957  -4.439  32.558 -10.489
  152XTA    H1011958  -4.505  32.482 -10.716
  152XTA    H1111959  -4.816  32.770 -10.720
  152XTA    H1211960  -4.738  32.861 -10.516
  152XTA    OA111961  -4.249  33.269 -10.465
  152XTA    CO111962  -4.323  33.387 -10.438
  152XTA    OA211963  -4.628  32.537  -9.903
  152XTA    CO211964  -4.757  32.542  -9.833
  152XTA    CL111965  -4.737  32.441  -9.722
  152XTA    CL211966  -4.854  32.437  -9.616
  152XTA    CL311967  -4.834  32.332  -9.505
  152XTA    CL411968  -4.822  32.183  -9.546
  152XTA    CO311969  -4.950  32.124  -9.613
  152XTA    OA311970  -4.901  32.014  -9.700
  152XTA    CO411971  -4.880  32.060  -9.833
  152XTA    CT111972  -4.864  31.941  -9.934
  152XTA    CL511973  -4.856  32.000 -10.070
  152XTA    CL611974  -4.822  31.908 -10.191
  152XTA    OA411975  -4.676  32.586 -10.878
  152XTA    CO511976  -4.686  32.703 -10.959
  152XTA    HL111977  -4.765  32.766 -10.916
  152XTA    HL211978  -4.271  33.479 -10.464
  152XTA    HL311979  -4.415  33.384 -10.493
  152XTA    HL411980  -4.350  33.391 -10.338
  152XTA    HL511981  -4.771  32.639  -9.789
  152XTA    HL611982  -4.850  32.528  -9.891
  152XTA    HL711983  -4.651  32.478  -9.668
  152XTA    HL811984  -4.727  32.347  -9.768
  152XTA    HL911985  -4.948  32.426  -9.673
  152XTA   HL1011986  -4.861  32.538  -9.572
  152XTA   HL1111987  -4.736  32.353  -9.465
  152XTA   HL1211988  -4.917  32.335  -9.432
  152XTA   HL1311989  -4.790  32.115  -9.463
  152XTA   HL1411990  -4.739  32.182  -9.614
  152XTA   HL1511991  -5.017  32.102  -9.534
  152XTA   HL1611992  -5.002  32.202  -9.675
  152XTA   HL1711993  -4.966  32.107  -9.877
  152XTA   HL1811994  -4.795  32.124  -9.838
  152XTA   HL1911995  -4.789  32.088 -10.054
  152XTA   HL2011996  -4.962  32.039 -10.091
  152XTA   HL2111997  -4.819  31.971 -10.288
  152XTA   HL2211998  -4.887  31.818 -10.193
  152XTA   HL2311999  -4.723  31.876 -10.176
  152XTA   HL2412000  -4.723  32.688 -11.067
  152XTA   HL2512001  -4.594  32.754 -10.966
  152XTA    CO612002  -4.984  31.838  -9.910
  152XTA    CO712003  -4.735  31.859  -9.911
  152XTA    OA512004  -5.106  31.898  -9.938
  152XTA   HL2612005  -4.982  31.795  -9.809
  152XTA   HL2712006  -4.985  31.758  -9.984
  152XTA   HL2812007  -4.741  31.759  -9.961
  152XTA   HL2912008  -4.728  31.832  -9.806
  153XTA     NT12009  -7.134  24.374  -9.927
  153XTA    CN112010  -7.047  24.349 -10.032
  153XTA     C112011  -7.092  24.367 -10.165
  153XTA     C212012  -7.007  24.322 -10.272
  153XTA     C312013  -6.879  24.276 -10.246
  153XTA     C412014  -6.837  24.263 -10.115
  153XTA     C512015  -6.920  24.292 -10.013
  153XTA    CN212016  -7.081  24.399  -9.804
  153XTA     C612017  -7.047  24.290  -9.717
  153XTA     C712018  -6.989  24.325  -9.593
  153XTA     C812019  -6.968  24.457  -9.552
  153XTA     C912020  -7.011  24.558  -9.640
  153XTA    C1012021  -7.080  24.531  -9.761
  153XTA    CN312022  -7.259  24.330  -9.936
  153XTA    C1112023  -7.357  24.425  -9.963
  153XTA    C1212024  -7.492  24.383  -9.995
  153XTA    C1312025  -7.517  24.244  -9.972
  153XTA    C1412026  -7.419  24.156  -9.919
  153XTA    C1512027  -7.293  24.196  -9.913
  153XTA     H112028  -7.189  24.418 -10.180
  153XTA     H212029  -7.040  24.345 -10.374
  153XTA     H312030  -6.734  24.235 -10.097
  153XTA     H412031  -6.891  24.269  -9.911
  153XTA     H512032  -7.061  24.188  -9.742
  153XTA     H612033  -6.958  24.246  -9.529
  153XTA     H712034  -7.014  24.654  -9.607
  153XTA     H812035  -7.143  24.605  -9.816
  153XTA     H912036  -7.337  24.529  -9.974
  153XTA    H1012037  -7.574  24.447 -10.018
  153XTA    H1112038  -7.449  24.057  -9.881
  153XTA    H1212039  -7.225  24.124  -9.879
  153XTA    OA112040  -6.801  24.223 -10.346
  153XTA    CO112041  -6.842  24.226 -10.482
  153XTA    OA212042  -6.907  24.497  -9.438
  153XTA    CO212043  -6.861  24.403  -9.347
  153XTA    CL112044  -6.757  24.486  -9.269
  153XTA    CL212045  -6.820  24.571  -9.157
  153XTA    CL312046  -6.721  24.639  -9.072
  153XTA    CL412047  -6.773  24.742  -8.974
  153XTA    CO312048  -6.690  24.771  -8.860
  153XTA    OA312049  -6.778  24.835  -8.770
  153XTA    CO412050  -6.725  24.911  -8.668
  153XTA    CT112051  -6.821  25.027  -8.630
  153XTA    CL512052  -6.759  25.135  -8.541
  153XTA    CL612053  -6.686  25.087  -8.414
  153XTA    OA412054  -7.644  24.198 -10.011
  153XTA    CO512055  -7.664  24.064 -10.052
  153XTA    HL112056  -7.771  24.057 -10.081
  153XTA    HL212057  -6.768  24.178 -10.552
  153XTA    HL312058  -6.928  24.160 -10.478
  153XTA    HL412059  -6.862  24.324 -10.514
  153XTA    HL512060  -6.936  24.364  -9.285
  153XTA    HL612061  -6.818  24.323  -9.405
  153XTA    HL712062  -6.699  24.550  -9.343
  153XTA    HL812063  -6.679  24.424  -9.225
  153XTA    HL912064  -6.885  24.508  -9.094
  153XTA   HL1012065  -6.878  24.646  -9.210
  153XTA   HL1112066  -6.662  24.569  -9.017
  153XTA   HL1212067  -6.653  24.691  -9.138
  153XTA   HL1312068  -6.866  24.716  -8.932
  153XTA   HL1412069  -6.795  24.833  -9.036
  153XTA   HL1512070  -6.648  24.683  -8.807
  153XTA   HL1612071  -6.605  24.837  -8.877
  153XTA   HL1712072  -6.698  24.854  -8.581
  153XTA   HL1812073  -6.623  24.950  -8.690
  153XTA   HL1912074  -6.842  25.203  -8.510
  153XTA   HL2012075  -6.696  25.201  -8.600
  153XTA   HL2112076  -6.615  25.006  -8.446
  153XTA   HL2212077  -6.770  25.041  -8.361
  153XTA   HL2312078  -6.641  25.168  -8.359
  153XTA   HL2412079  -7.648  23.989  -9.976
  153XTA   HL2512080  -7.612  24.049 -10.150
  153XTA    CO612081  -6.937  24.966  -8.547
  153XTA    CO712082  -6.876  25.099  -8.756
  153XTA    OA512083  -6.987  25.184  -8.726
  153XTA   HL2612084  -7.000  25.049  -8.506
  153XTA   HL2712085  -7.000  24.920  -8.623
  153XTA   HL2812086  -6.910  25.031  -8.830
  153XTA   HL2912087  -6.795  25.161  -8.788
  154XTA     NT12088  -1.532  30.788  -8.877
  154XTA    CN112089  -1.637  30.865  -8.863
  154XTA     C112090  -1.648  30.998  -8.925
  154XTA     C212091  -1.745  31.085  -8.886
  154XTA     C312092  -1.833  31.058  -8.784
  154XTA     C412093  -1.832  30.931  -8.731
  154XTA     C512094  -1.733  30.833  -8.762
  154XTA    CN212095  -1.536  30.676  -8.950
  154XTA     C612096  -1.509  30.673  -9.087
  154XTA     C712097  -1.510  30.548  -9.162
  154XTA     C812098  -1.555  30.430  -9.095
  154XTA     C912099  -1.586  30.437  -8.958
  154XTA    C1012100  -1.572  30.555  -8.883
  154XTA    CN312101  -1.411  30.825  -8.822
  154XTA    C1112102  -1.404  30.854  -8.686
  154XTA    C1212103  -1.291  30.895  -8.620
  154XTA    C1312104  -1.173  30.905  -8.692
  154XTA    C1412105  -1.174  30.880  -8.832
  154XTA    C1512106  -1.291  30.843  -8.897
  154XTA     H112107  -1.574  31.024  -9.000
  154XTA     H212108  -1.746  31.187  -8.917
  154XTA     H312109  -1.897  30.918  -8.642
  154XTA     H412110  -1.733  30.742  -8.705
  154XTA     H512111  -1.483  30.767  -9.132
  154XTA     H612112  -1.480  30.545  -9.265
  154XTA     H712113  -1.611  30.343  -8.905
  154XTA     H812114  -1.594  30.564  -8.781
  154XTA     H912115  -1.490  30.850  -8.627
  154XTA    H1012116  -1.303  30.924  -8.517
  154XTA    H1112117  -1.091  30.909  -8.892
  154XTA    H1212118  -1.285  30.831  -9.009
  154XTA    OA112119  -1.928  31.149  -8.738
  154XTA    CO112120  -1.932  31.278  -8.794
  154XTA    OA212121  -1.557  30.311  -9.166
  154XTA    CO212122  -1.571  30.188  -9.095
  154XTA    CL112123  -1.576  30.080  -9.201
  154XTA    CL212124  -1.579  29.946  -9.133
  154XTA    CL312125  -1.713  29.899  -9.073
  154XTA    CL412126  -1.696  29.765  -8.994
  154XTA    CO312127  -1.807  29.656  -9.000
  154XTA    OA312128  -1.859  29.638  -9.128
  154XTA    CO412129  -1.759  29.594  -9.231
  154XTA    CT112130  -1.819  29.614  -9.372
  154XTA    CL512131  -1.919  29.501  -9.392
  154XTA    CL612132  -2.046  29.507  -9.303
  154XTA    OA412133  -1.055  30.942  -8.638
  154XTA    CO512134  -1.056  30.967  -8.496
  154XTA    HL112135  -1.055  30.874  -8.442
  154XTA    HL212136  -1.840  31.324  -8.776
  154XTA    HL312137  -1.948  31.265  -8.902
  154XTA    HL412138  -2.017  31.336  -8.756
  154XTA    HL512139  -1.500  30.167  -9.028
  154XTA    HL612140  -1.663  30.172  -9.045
  154XTA    HL712141  -1.485  30.106  -9.261
  154XTA    HL812142  -1.654  30.099  -9.275
  154XTA    HL912143  -1.509  29.945  -9.053
  154XTA   HL1012144  -1.535  29.869  -9.199
  154XTA   HL1112145  -1.746  29.969  -9.001
  154XTA   HL1212146  -1.788  29.889  -9.155
  154XTA   HL1312147  -1.656  29.770  -8.889
  154XTA   HL1412148  -1.606  29.726  -9.030
  154XTA   HL1512149  -1.745  29.565  -8.975
  154XTA   HL1612150  -1.873  29.670  -8.921
  154XTA   HL1712151  -1.680  29.666  -9.215
  154XTA   HL1812152  -1.723  29.493  -9.217
  154XTA   HL1912153  -1.874  29.409  -9.376
  154XTA   HL2012154  -1.950  29.492  -9.496
  154XTA   HL2112155  -2.033  29.525  -9.194
  154XTA   HL2212156  -2.124  29.434  -9.310
  154XTA   HL2312157  -2.097  29.599  -9.318
  154XTA   HL2412158  -1.123  31.041  -8.457
  154XTA   HL2512159  -0.955  31.005  -8.472
  154XTA    CO612160  -1.699  29.598  -9.471
  154XTA    CO712161  -1.875  29.748  -9.411
  154XTA    OA512162  -1.626  29.674  -9.462
  154XTA   HL2612163  -1.750  29.598  -9.575
  154XTA   HL2712164  -1.653  29.499  -9.453
  154XTA   HL2812165  -1.779  29.858  -9.402
  154XTA   HL2912166  -1.947  29.768  -9.328
  155XTA     NT12167  -7.570  24.938  -7.875
  155XTA    CN112168  -7.612  24.852  -7.773
  155XTA     C112169  -7.750  24.820  -7.753
  155XTA     C212170  -7.782  24.720  -7.656
  155XTA     C312171  -7.682  24.661  -7.577
  155XTA     C412172  -7.546  24.698  -7.591
  155XTA     C512173  -7.510  24.788  -7.700
  155XTA    CN212174  -7.490  25.041  -7.845
  155XTA     C612175  -7.543  25.166  -7.824
  155XTA     C712176  -7.451  25.271  -7.813
  155XTA     C812177  -7.310  25.253  -7.817
  155XTA     C912178  -7.263  25.123  -7.846
  155XTA    C1012179  -7.354  25.024  -7.858
  155XTA    CN312180  -7.632  24.934  -7.988
  155XTA    C1112181  -7.738  25.026  -8.019
  155XTA    C1212182  -7.785  25.025  -8.153
  155XTA    C1312183  -7.735  24.932  -8.257
  155XTA    C1412184  -7.633  24.848  -8.214
  155XTA    C1512185  -7.577  24.854  -8.087
  155XTA     H112186  -7.829  24.863  -7.819
  155XTA     H212187  -7.890  24.683  -7.637
  155XTA     H312188  -7.471  24.672  -7.515
  155XTA     H412189  -7.408  24.808  -7.726
  155XTA     H512190  -7.647  25.180  -7.813
  155XTA     H612191  -7.485  25.369  -7.800
  155XTA     H712192  -7.161  25.085  -7.853
  155XTA     H812193  -7.314  24.928  -7.883
  155XTA     H912194  -7.783  25.097  -7.952
  155XTA    H1012195  -7.866  25.083  -8.186
  155XTA    H1112196  -7.607  24.768  -8.281
  155XTA    H1212197  -7.508  24.785  -8.047
  155XTA    OA112198  -7.730  24.574  -7.478
  155XTA    CO112199  -7.635  24.485  -7.430
  155XTA    OA212200  -7.232  25.368  -7.835
  155XTA    CO212201  -7.094  25.361  -7.820
  155XTA    CL112202  -7.029  25.325  -7.947
  155XTA    CL212203  -7.074  25.441  -8.045
  155XTA    CL312204  -7.014  25.412  -8.181
  155XTA    CL412205  -7.087  25.478  -8.297
  155XTA    CO312206  -7.124  25.617  -8.291
  155XTA    OA312207  -7.152  25.674  -8.424
  155XTA    CO412208  -7.155  25.811  -8.415
  155XTA    CT112209  -7.185  25.874  -8.552
  155XTA    CL512210  -7.191  26.027  -8.543
  155XTA    CL612211  -7.185  26.101  -8.684
  155XTA    OA412212  -7.797  24.920  -8.379
  155XTA    CO512213  -7.771  24.798  -8.446
  155XTA    HL112214  -7.670  24.793  -8.500
  155XTA    HL212215  -7.548  24.533  -7.390
  155XTA    HL312216  -7.677  24.409  -7.367
  155XTA    HL412217  -7.594  24.422  -7.511
  155XTA    HL512218  -7.076  25.459  -7.779
  155XTA    HL612219  -7.063  25.294  -7.736
  155XTA    HL712220  -7.071  25.232  -7.979
  155XTA    HL812221  -6.925  25.316  -7.929
  155XTA    HL912222  -7.048  25.537  -8.003
  155XTA   HL1012223  -7.183  25.443  -8.046
  155XTA   HL1112224  -6.906  25.429  -8.190
  155XTA   HL1212225  -7.018  25.308  -8.204
  155XTA   HL1312226  -7.187  25.439  -8.313
  155XTA   HL1412227  -7.038  25.452  -8.390
  155XTA   HL1512228  -7.215  25.637  -8.234
  155XTA   HL1612229  -7.043  25.682  -8.263
  155XTA   HL1712230  -7.236  25.832  -8.348
  155XTA   HL1812231  -7.062  25.858  -8.384
  155XTA   HL1912232  -7.103  26.053  -8.483
  155XTA   HL2012233  -7.275  26.064  -8.485
  155XTA   HL2112234  -7.125  26.043  -8.753
  155XTA   HL2212235  -7.136  26.202  -8.683
  155XTA   HL2312236  -7.284  26.119  -8.726
  155XTA   HL2412237  -7.830  24.801  -8.530
  155XTA   HL2512238  -7.786  24.709  -8.391
  155XTA    CO612239  -7.317  25.815  -8.607
  155XTA    CO712240  -7.075  25.832  -8.653
  155XTA    OA512241  -6.957  25.887  -8.612
  155XTA   HL2612242  -7.307  25.708  -8.626
  155XTA   HL2712243  -7.396  25.826  -8.541
  155XTA   HL2812244  -7.099  25.855  -8.764
  155XTA   HL2912245  -7.074  25.722  -8.660
  156XTA     NT12246  -8.814  29.064  -5.385
  156XTA    CN112247  -8.818  28.942  -5.328
  156XTA     C112248  -8.872  28.923  -5.205
  156XTA     C212249  -8.859  28.802  -5.142
  156XTA     C312250  -8.811  28.688  -5.212
  156XTA     C412251  -8.759  28.702  -5.341
  156XTA     C512252  -8.759  28.832  -5.400
  156XTA    CN212253  -8.887  29.085  -5.496
  156XTA     C612254  -9.032  29.096  -5.480
  156XTA     C712255  -9.117  29.098  -5.594
  156XTA     C812256  -9.064  29.104  -5.729
  156XTA     C912257  -8.922  29.089  -5.743
  156XTA    C1012258  -8.836  29.076  -5.628
  156XTA    CN312259  -8.764  29.170  -5.318
  156XTA    C1112260  -8.626  29.198  -5.326
  156XTA    C1212261  -8.572  29.295  -5.248
  156XTA    C1312262  -8.653  29.365  -5.151
  156XTA    C1412263  -8.793  29.333  -5.137
  156XTA    C1512264  -8.849  29.234  -5.224
  156XTA     H112265  -8.918  29.000  -5.150
  156XTA     H212266  -8.905  28.799  -5.044
  156XTA     H312267  -8.724  28.614  -5.392
  156XTA     H412268  -8.710  28.846  -5.489
  156XTA     H512269  -9.081  29.087  -5.384
  156XTA     H612270  -9.224  29.096  -5.574
  156XTA     H712271  -8.884  29.072  -5.845
  156XTA     H812272  -8.732  29.050  -5.643
  156XTA     H912273  -8.563  29.140  -5.393
  156XTA    H1012274  -8.465  29.320  -5.245
  156XTA    H1112275  -8.853  29.379  -5.064
  156XTA    H1212276  -8.948  29.201  -5.206
  156XTA    OA112277  -8.795  28.568  -5.150
  156XTA    CO112278  -8.879  28.533  -5.044
  156XTA    OA212279  -9.148  29.112  -5.840
  156XTA    CO212280  -9.286  29.151  -5.805
  156XTA    CL112281  -9.373  29.155  -5.924
  156XTA    CL212282  -9.410  29.027  -6.002
  156XTA    CL312283  -9.523  29.046  -6.102
  156XTA    CL412284  -9.532  28.927  -6.214
  156XTA    CO312285  -9.414  28.897  -6.301
  156XTA    OA312286  -9.396  29.002  -6.394
  156XTA    CO412287  -9.299  28.969  -6.494
  156XTA    CT112288  -9.188  29.073  -6.487
  156XTA    CL512289  -9.242  29.215  -6.488
  156XTA    CL612290  -9.137  29.317  -6.455
  156XTA    OA412291  -8.589  29.454  -5.066
  156XTA    CO512292  -8.645  29.585  -5.061
  156XTA    HL112293  -8.592  29.642  -4.983
  156XTA    HL212294  -8.862  28.424  -5.025
  156XTA    HL312295  -8.860  28.578  -4.948
  156XTA    HL412296  -8.987  28.553  -5.060
  156XTA    HL512297  -9.333  29.076  -5.740
  156XTA    HL612298  -9.275  29.258  -5.772
  156XTA    HL712299  -9.312  29.212  -5.997
  156XTA    HL812300  -9.465  29.221  -5.905
  156XTA    HL912301  -9.433  28.936  -5.949
  156XTA   HL1012302  -9.318  29.013  -6.063
  156XTA   HL1112303  -9.620  29.046  -6.058
  156XTA   HL1212304  -9.504  29.136  -6.158
  156XTA   HL1312305  -9.616  28.960  -6.281
  156XTA   HL1412306  -9.563  28.832  -6.164
  156XTA   HL1512307  -9.325  28.891  -6.240
  156XTA   HL1612308  -9.418  28.800  -6.355
  156XTA   HL1712309  -9.262  28.869  -6.485
  156XTA   HL1812310  -9.349  28.973  -6.589
  156XTA   HL1912311  -9.314  29.230  -6.406
  156XTA   HL2012312  -9.296  29.231  -6.578
  156XTA   HL2112313  -9.175  29.420  -6.453
  156XTA   HL2212314  -9.065  29.318  -6.535
  156XTA   HL2312315  -9.085  29.299  -6.359
  156XTA   HL2412316  -8.753  29.561  -5.057
  156XTA   HL2512317  -8.627  29.637  -5.157
  156XTA    CO612318  -9.095  29.037  -6.603
  156XTA    CO712319  -9.120  29.049  -6.348
  156XTA    OA512320  -9.155  29.066  -6.730
  156XTA   HL2612321  -9.066  28.933  -6.610
  156XTA   HL2712322  -9.000  29.099  -6.591
  156XTA   HL2812323  -9.184  29.090  -6.274
  156XTA   HL2912324  -9.022  29.094  -6.343
  157XTA     NT12325  -5.693  23.610  -9.794
  157XTA    CN112326  -5.734  23.546  -9.899
  157XTA     C112327  -5.669  23.558 -10.022
  157XTA     C212328  -5.718  23.493 -10.140
  157XTA     C312329  -5.833  23.417 -10.134
  157XTA     C412330  -5.896  23.401 -10.010
  157XTA     C512331  -5.850  23.466  -9.891
  157XTA    CN212332  -5.753  23.728  -9.762
  157XTA     C612333  -5.861  23.731  -9.675
  157XTA     C712334  -5.920  23.850  -9.643
  157XTA     C812335  -5.884  23.967  -9.708
  157XTA     C912336  -5.775  23.971  -9.793
  157XTA    C1012337  -5.713  23.848  -9.823
  157XTA    CN312338  -5.588  23.552  -9.723
  157XTA    C1112339  -5.613  23.459  -9.616
  157XTA    C1212340  -5.502  23.409  -9.547
  157XTA    C1312341  -5.365  23.448  -9.576
  157XTA    C1412342  -5.351  23.546  -9.676
  157XTA    C1512343  -5.460  23.598  -9.744
  157XTA     H112344  -5.579  23.622 -10.032
  157XTA     H212345  -5.663  23.498 -10.237
  157XTA     H312346  -5.993  23.351 -10.012
  157XTA     H412347  -5.909  23.450  -9.806
  157XTA     H512348  -5.901  23.640  -9.641
  157XTA     H612349  -5.996  23.847  -9.568
  157XTA     H712350  -5.755  24.058  -9.846
  157XTA     H812351  -5.636  23.838  -9.900
  157XTA     H912352  -5.718  23.429  -9.601
  157XTA    H1012353  -5.530  23.324  -9.486
  157XTA    H1112354  -5.252  23.587  -9.706
  157XTA    H1212355  -5.443  23.677  -9.819
  157XTA    OA112356  -5.887  23.356 -10.245
  157XTA    CO112357  -5.808  23.348 -10.366
  157XTA    OA212358  -5.954  24.086  -9.697
  157XTA    CO212359  -6.090  24.064  -9.689
  157XTA    CL112360  -6.148  24.199  -9.731
  157XTA    CL212361  -6.299  24.199  -9.709
  157XTA    CL312362  -6.383  24.276  -9.816
  157XTA    CL412363  -6.433  24.201  -9.945
  157XTA    CO312364  -6.317  24.157 -10.033
  157XTA    OA312365  -6.234  24.267 -10.055
  157XTA    CO412366  -6.131  24.236 -10.153
  157XTA    CT112367  -6.024  24.344 -10.167
  157XTA    CL512368  -5.954  24.386 -10.031
  157XTA    CL612369  -5.865  24.278  -9.971
  157XTA    OA412370  -5.251  23.410  -9.519
  157XTA    CO512371  -5.267  23.313  -9.417
  157XTA    HL112372  -5.173  23.283  -9.363
  157XTA    HL212373  -5.726  23.286 -10.360
  157XTA    HL312374  -5.861  23.289 -10.443
  157XTA    HL412375  -5.781  23.442 -10.410
  157XTA    HL512376  -6.123  23.992  -9.766
  157XTA    HL612377  -6.126  24.040  -9.592
  157XTA    HL712378  -6.125  24.216  -9.832
  157XTA    HL812379  -6.098  24.281  -9.673
  157XTA    HL912380  -6.322  24.233  -9.611
  157XTA   HL1012381  -6.338  24.094  -9.717
  157XTA   HL1112382  -6.473  24.298  -9.767
  157XTA   HL1212383  -6.342  24.372  -9.843
  157XTA   HL1312384  -6.505  24.269 -10.005
  157XTA   HL1412385  -6.481  24.113  -9.912
  157XTA   HL1512386  -6.264  24.081  -9.986
  157XTA   HL1612387  -6.364  24.110 -10.124
  157XTA   HL1712388  -6.079  24.143 -10.132
  157XTA   HL1812389  -6.191  24.224 -10.242
  157XTA   HL1912390  -6.030  24.417  -9.957
  157XTA   HL2012391  -5.898  24.487 -10.045
  157XTA   HL2112392  -5.781  24.252 -10.038
  157XTA   HL2212393  -5.922  24.181  -9.954
  157XTA   HL2312394  -5.837  24.304  -9.869
  157XTA   HL2412395  -5.329  23.228  -9.454
  157XTA   HL2512396  -5.329  23.360  -9.338
  157XTA    CO612397  -6.074  24.470 -10.230
  157XTA    CO712398  -5.929  24.292 -10.275
  157XTA    OA512399  -5.824  24.384 -10.306
  157XTA   HL2612400  -5.997  24.543 -10.238
  157XTA   HL2712401  -6.142  24.517 -10.151
  157XTA   HL2812402  -5.978  24.265 -10.370
  157XTA   HL2912403  -5.896  24.193 -10.243
  158XTA     NT12404  -2.851  30.686 -10.049
  158XTA    CN112405  -2.795  30.808 -10.044
  158XTA     C112406  -2.827  30.908 -10.138
  158XTA     C212407  -2.766  31.037 -10.133
  158XTA     C312408  -2.680  31.074 -10.031
  158XTA     C412409  -2.648  30.979  -9.941
  158XTA     C512410  -2.698  30.843  -9.942
  158XTA    CN212411  -2.957  30.659  -9.968
  158XTA     C612412  -2.959  30.545  -9.881
  158XTA     C712413  -3.070  30.514  -9.803
  158XTA     C812414  -3.194  30.585  -9.818
  158XTA     C912415  -3.194  30.681  -9.921
  158XTA    C1012416  -3.079  30.721  -9.988
  158XTA    CN312417  -2.791  30.586 -10.120
  158XTA    C1112418  -2.839  30.527 -10.237
  158XTA    C1212419  -2.770  30.420 -10.306
  158XTA    C1312420  -2.659  30.366 -10.248
  158XTA    C1412421  -2.610  30.423 -10.130
  158XTA    C1512422  -2.672  30.536 -10.071
  158XTA     H112423  -2.892  30.886 -10.217
  158XTA     H212424  -2.780  31.096 -10.217
  158XTA     H312425  -2.570  30.995  -9.869
  158XTA     H412426  -2.662  30.769  -9.875
  158XTA     H512427  -2.868  30.493  -9.879
  158XTA     H612428  -3.053  30.435  -9.735
  158XTA     H712429  -3.293  30.726  -9.946
  158XTA     H812430  -3.084  30.791 -10.066
  158XTA     H912431  -2.932  30.569 -10.277
  158XTA    H1012432  -2.814  30.384 -10.401
  158XTA    H1112433  -2.526  30.396 -10.077
  158XTA    H1212434  -2.637  30.579  -9.980
  158XTA    OA112435  -2.646  31.206 -10.014
  158XTA    CO112436  -2.562  31.245  -9.904
  158XTA    OA212437  -3.312  30.566  -9.752
  158XTA    CO212438  -3.356  30.425  -9.744
  158XTA    CL112439  -3.413  30.363  -9.874
  158XTA    CL212440  -3.462  30.460  -9.982
  158XTA    CL312441  -3.588  30.543  -9.954
  158XTA    CL412442  -3.611  30.671 -10.042
  158XTA    CO312443  -3.706  30.770  -9.974
  158XTA    OA312444  -3.656  30.807  -9.849
  158XTA    CO412445  -3.568  30.922  -9.837
  158XTA    CT112446  -3.514  30.928  -9.700
  158XTA    CL512447  -3.419  31.050  -9.688
  158XTA    CL612448  -3.479  31.188  -9.685
  158XTA    OA412449  -2.591  30.267 -10.313
  158XTA    CO512450  -2.460  30.229 -10.259
  158XTA    HL112451  -2.415  30.153 -10.328
  158XTA    HL212452  -2.538  31.350  -9.921
  158XTA    HL312453  -2.602  31.231  -9.805
  158XTA    HL412454  -2.464  31.201  -9.914
  158XTA    HL512455  -3.262  30.367  -9.722
  158XTA    HL612456  -3.419  30.418  -9.650
  158XTA    HL712457  -3.498  30.292  -9.849
  158XTA    HL812458  -3.334  30.311  -9.930
  158XTA    HL912459  -3.480  30.410 -10.081
  158XTA   HL1012460  -3.385  30.529 -10.008
  158XTA   HL1112461  -3.677  30.483  -9.949
  158XTA   HL1212462  -3.581  30.583  -9.853
  158XTA   HL1312463  -3.643  30.641 -10.137
  158XTA   HL1412464  -3.521  30.721 -10.059
  158XTA   HL1512465  -3.706  30.871 -10.024
  158XTA   HL1612466  -3.806  30.729  -9.980
  158XTA   HL1712467  -3.496  30.909  -9.918
  158XTA   HL1812468  -3.629  31.011  -9.864
  158XTA   HL1912469  -3.366  31.044  -9.779
  158XTA   HL2012470  -3.344  31.033  -9.611
  158XTA   HL2112471  -3.411  31.279  -9.664
  158XTA   HL2212472  -3.550  31.191  -9.600
  158XTA   HL2312473  -3.533  31.203  -9.781
  158XTA   HL2412474  -2.475  30.193 -10.157
  158XTA   HL2512475  -2.397  30.316 -10.264
  158XTA    CO612476  -3.460  30.804  -9.661
  158XTA    CO712477  -3.613  30.914  -9.591
  158XTA    OA512478  -3.526  30.789  -9.565
  158XTA   HL2612479  -3.357  30.804  -9.634
  158XTA   HL2712480  -3.472  30.736  -9.752
  158XTA   HL2812481  -3.739  30.885  -9.641
  158XTA   HL2912482  -3.608  30.989  -9.510
  159XTA     NT12483  -4.689  26.288  -4.158
  159XTA    CN112484  -4.726  26.282  -4.285
  159XTA     C112485  -4.743  26.157  -4.348
  159XTA     C212486  -4.778  26.146  -4.485
  159XTA     C312487  -4.799  26.263  -4.564
  159XTA     C412488  -4.781  26.391  -4.505
  159XTA     C512489  -4.757  26.397  -4.362
  159XTA    CN212490  -4.560  26.269  -4.132
  159XTA     C612491  -4.499  26.145  -4.156
  159XTA     C712492  -4.356  26.118  -4.139
  159XTA     C812493  -4.269  26.222  -4.100
  159XTA     C912494  -4.333  26.344  -4.069
  159XTA    C1012495  -4.469  26.368  -4.084
  159XTA    CN312496  -4.785  26.265  -4.063
  159XTA    C1112497  -4.776  26.165  -3.965
  159XTA    C1212498  -4.878  26.128  -3.873
  159XTA    C1312499  -4.990  26.215  -3.870
  159XTA    C1412500  -4.999  26.319  -3.967
  159XTA    C1512501  -4.895  26.348  -4.056
  159XTA     H112502  -4.721  26.073  -4.286
  159XTA     H212503  -4.778  26.048  -4.528
  159XTA     H312504  -4.790  26.479  -4.567
  159XTA     H412505  -4.761  26.497  -4.314
  159XTA     H512506  -4.554  26.065  -4.196
  159XTA     H612507  -4.317  26.020  -4.156
  159XTA     H712508  -4.267  26.423  -4.034
  159XTA     H812509  -4.510  26.465  -4.067
  159XTA     H912510  -4.684  26.108  -3.964
  159XTA    H1012511  -4.863  26.052  -3.799
  159XTA    H1112512  -5.081  26.384  -3.966
  159XTA    H1212513  -4.903  26.427  -4.125
  159XTA    OA112514  -4.826  26.250  -4.701
  159XTA    CO112515  -4.858  26.364  -4.783
  159XTA    OA212516  -4.131  26.203  -4.079
  159XTA    CO212517  -4.097  26.072  -4.024
  159XTA    CL112518  -3.997  26.083  -3.912
  159XTA    CL212519  -4.016  26.201  -3.820
  159XTA    CL312520  -3.909  26.211  -3.708
  159XTA    CL412521  -3.771  26.256  -3.743
  159XTA    CO312522  -3.678  26.241  -3.621
  159XTA    OA312523  -3.550  26.307  -3.635
  159XTA    CO412524  -3.556  26.443  -3.589
  159XTA    CT112525  -3.417  26.504  -3.564
  159XTA    CL512526  -3.439  26.634  -3.492
  159XTA    CL612527  -3.455  26.614  -3.342
  159XTA    OA412528  -5.084  26.188  -3.778
  159XTA    CO512529  -5.170  26.296  -3.748
  159XTA    HL112530  -5.232  26.336  -3.829
  159XTA    HL212531  -4.921  26.436  -4.749
  159XTA    HL312532  -4.774  26.429  -4.801
  159XTA    HL412533  -4.891  26.336  -4.885
  159XTA    HL512534  -4.183  26.024  -3.985
  159XTA    HL612535  -4.064  26.009  -4.107
  159XTA    HL712536  -3.900  26.099  -3.958
  159XTA    HL812537  -3.980  25.992  -3.869
  159XTA    HL912538  -4.117  26.181  -3.785
  159XTA   HL1012539  -4.015  26.294  -3.881
  159XTA   HL1112540  -3.944  26.269  -3.625
  159XTA   HL1212541  -3.899  26.102  -3.676
  159XTA   HL1312542  -3.778  26.361  -3.761
  159XTA   HL1412543  -3.726  26.211  -3.826
  159XTA   HL1512544  -3.733  26.274  -3.527
  159XTA   HL1612545  -3.672  26.132  -3.600
  159XTA   HL1712546  -3.613  26.501  -3.664
  159XTA   HL1812547  -3.617  26.456  -3.499
  159XTA   HL1912548  -3.532  26.688  -3.521
  159XTA   HL2012549  -3.354  26.701  -3.495
  159XTA   HL2112550  -3.486  26.705  -3.285
  159XTA   HL2212551  -3.367  26.584  -3.302
  159XTA   HL2312552  -3.523  26.526  -3.319
  159XTA   HL2412553  -5.120  26.382  -3.707
  159XTA   HL2512554  -5.245  26.269  -3.672
  159XTA    CO612555  -3.356  26.537  -3.701
  159XTA    CO712556  -3.325  26.401  -3.495
  159XTA    OA512557  -3.223  26.445  -3.471
  159XTA   HL2612558  -3.249  26.566  -3.676
  159XTA   HL2712559  -3.418  26.630  -3.783
  159XTA   HL2812560  -3.311  26.298  -3.546
  159XTA   HL2912561  -3.363  26.380  -3.398
  160XTA     NT12562  -1.002  31.361  -6.018
  160XTA    CN112563  -1.040  31.393  -6.146
  160XTA     C112564  -0.953  31.418  -6.253
  160XTA     C212565  -1.001  31.453  -6.382
  160XTA     C312566  -1.136  31.474  -6.405
  160XTA     C412567  -1.222  31.454  -6.294
  160XTA     C512568  -1.177  31.416  -6.168
  160XTA    CN212569  -1.008  31.233  -5.980
  160XTA     C612570  -1.128  31.161  -5.979
  160XTA     C712571  -1.119  31.024  -5.952
  160XTA     C812572  -0.994  30.959  -5.927
  160XTA     C912573  -0.874  31.034  -5.925
  160XTA    C1012574  -0.881  31.175  -5.952
  160XTA    CN312575  -0.991  31.467  -5.936
  160XTA    C1112576  -0.879  31.554  -5.941
  160XTA    C1212577  -0.873  31.670  -5.856
  160XTA    C1312578  -0.974  31.699  -5.767
  160XTA    C1412579  -1.083  31.607  -5.763
  160XTA    C1512580  -1.090  31.491  -5.841
  160XTA     H112581  -0.845  31.412  -6.242
  160XTA     H212582  -0.945  31.484  -6.469
  160XTA     H312583  -1.328  31.477  -6.298
  160XTA     H412584  -1.257  31.411  -6.090
  160XTA     H512585  -1.218  31.218  -5.995
  160XTA     H612586  -1.204  30.973  -5.944
  160XTA     H712587  -0.788  30.985  -5.900
  160XTA     H812588  -0.784  31.227  -5.945
  160XTA     H912589  -0.797  31.550  -6.008
  160XTA    H1012590  -0.797  31.749  -5.876
  160XTA    H1112591  -1.159  31.613  -5.687
  160XTA    H1212592  -1.181  31.424  -5.831
  160XTA    OA112593  -1.175  31.516  -6.525
  160XTA    CO112594  -1.235  31.405  -6.596
  160XTA    OA212595  -0.998  30.824  -5.892
  160XTA    CO212596  -0.887  30.748  -5.951
  160XTA    CL112597  -0.809  30.676  -5.834
  160XTA    CL212598  -0.771  30.774  -5.725
  160XTA    CL312599  -0.719  30.710  -5.596
  160XTA    CL412600  -0.721  30.801  -5.469
  160XTA    CO312601  -0.618  30.919  -5.480
  160XTA    OA312602  -0.636  31.010  -5.373
  160XTA    CO412603  -0.547  31.122  -5.377
  160XTA    CT112604  -0.523  31.172  -5.230
  160XTA    CL512605  -0.470  31.065  -5.133
  160XTA    CL612606  -0.536  30.925  -5.120
  160XTA    OA412607  -0.982  31.817  -5.705
  160XTA    CO512608  -0.897  31.818  -5.592
  160XTA    HL112609  -0.919  31.913  -5.538
  160XTA    HL212610  -1.320  31.352  -6.544
  160XTA    HL312611  -1.256  31.448  -6.693
  160XTA    HL412612  -1.169  31.330  -6.622
  160XTA    HL512613  -0.930  30.667  -6.020
  160XTA    HL612614  -0.827  30.820  -6.007
  160XTA    HL712615  -0.730  30.632  -5.884
  160XTA    HL812616  -0.883  30.600  -5.811
  160XTA    HL912617  -0.845  30.846  -5.713
  160XTA   HL1012618  -0.695  30.838  -5.769
  160XTA   HL1112619  -0.783  30.625  -5.565
  160XTA   HL1212620  -0.614  30.679  -5.617
  160XTA   HL1312621  -0.693  30.744  -5.380
  160XTA   HL1412622  -0.821  30.846  -5.467
  160XTA   HL1512623  -0.515  30.893  -5.494
  160XTA   HL1612624  -0.664  30.954  -5.571
  160XTA   HL1712625  -0.460  31.079  -5.433
  160XTA   HL1812626  -0.595  31.191  -5.444
  160XTA   HL1912627  -0.475  31.112  -5.032
  160XTA   HL2012628  -0.364  31.035  -5.143
  160XTA   HL2112629  -0.638  30.923  -5.081
  160XTA   HL2212630  -0.463  30.874  -5.048
  160XTA   HL2312631  -0.532  30.861  -5.204
  160XTA   HL2412632  -0.788  31.813  -5.604
  160XTA   HL2512633  -0.916  31.734  -5.525
  160XTA    CO612634  -0.666  31.208  -5.182
  160XTA    CO712635  -0.432  31.302  -5.239
  160XTA    OA512636  -0.646  31.272  -5.058
  160XTA   HL2612637  -0.732  31.123  -5.167
  160XTA   HL2712638  -0.711  31.279  -5.247
  160XTA   HL2812639  -0.477  31.367  -5.312
  160XTA   HL2912640  -0.446  31.355  -5.150
  161XTA     NT12641  -8.394  24.437  -4.035
  161XTA    CN112642  -8.285  24.384  -3.972
  161XTA     C112643  -8.250  24.247  -3.996
  161XTA     C212644  -8.138  24.202  -3.929
  161XTA     C312645  -8.069  24.281  -3.832
  161XTA     C412646  -8.108  24.413  -3.810
  161XTA     C512647  -8.218  24.466  -3.878
  161XTA    CN212648  -8.506  24.460  -3.961
  161XTA     C612649  -8.575  24.354  -3.898
  161XTA     C712650  -8.683  24.376  -3.812
  161XTA     C812651  -8.729  24.504  -3.783
  161XTA     C912652  -8.670  24.607  -3.853
  161XTA    C1012653  -8.558  24.590  -3.940
  161XTA    CN312654  -8.401  24.441  -4.169
  161XTA    C1112655  -8.319  24.535  -4.238
  161XTA    C1212656  -8.335  24.549  -4.380
  161XTA    C1312657  -8.414  24.463  -4.452
  161XTA    C1412658  -8.488  24.359  -4.383
  161XTA    C1512659  -8.471  24.350  -4.243
  161XTA     H112660  -8.311  24.191  -4.062
  161XTA     H212661  -8.111  24.098  -3.948
  161XTA     H312662  -8.070  24.472  -3.726
  161XTA     H412663  -8.241  24.569  -3.851
  161XTA     H512664  -8.537  24.252  -3.906
  161XTA     H612665  -8.725  24.280  -3.782
  161XTA     H712666  -8.697  24.707  -3.820
  161XTA     H812667  -8.512  24.679  -3.981
  161XTA     H912668  -8.254  24.605  -4.183
  161XTA    H1012669  -8.270  24.614  -4.438
  161XTA    H1112670  -8.541  24.288  -4.447
  161XTA    H1212671  -8.510  24.261  -4.208
  161XTA    OA112672  -7.980  24.221  -3.751
  161XTA    CO112673  -7.967  24.274  -3.622
  161XTA    OA212674  -8.829  24.521  -3.690
  161XTA    CO212675  -8.912  24.632  -3.715
  161XTA    CL112676  -8.909  24.731  -3.606
  161XTA    CL212677  -9.008  24.847  -3.627
  161XTA    CL312678  -8.945  24.949  -3.727
  161XTA    CL412679  -9.015  25.084  -3.749
  161XTA    CO312680  -8.927  25.190  -3.817
  161XTA    OA312681  -8.998  25.289  -3.899
  161XTA    CO412682  -8.920  25.406  -3.947
  161XTA    CT112683  -8.992  25.519  -4.029
  161XTA    CL512684  -9.043  25.463  -4.164
  161XTA    CL612685  -9.131  25.342  -4.158
  161XTA    OA412686  -8.407  24.444  -4.591
  161XTA    CO512687  -8.304  24.515  -4.656
  161XTA    HL112688  -8.217  24.470  -4.619
  161XTA    HL212689  -8.052  24.299  -3.561
  161XTA    HL312690  -7.899  24.200  -3.567
  161XTA    HL412691  -7.921  24.365  -3.641
  161XTA    HL512692  -8.890  24.686  -3.802
  161XTA    HL612693  -9.011  24.591  -3.723
  161XTA    HL712694  -8.814  24.779  -3.589
  161XTA    HL812695  -8.937  24.681  -3.514
  161XTA    HL912696  -9.014  24.905  -3.535
  161XTA   HL1012697  -9.105  24.815  -3.669
  161XTA   HL1112698  -8.844  24.969  -3.685
  161XTA   HL1212699  -8.930  24.917  -3.826
  161XTA   HL1312700  -9.044  25.120  -3.645
  161XTA   HL1412701  -9.105  25.069  -3.807
  161XTA   HL1512702  -8.863  25.233  -3.736
  161XTA   HL1612703  -8.854  25.137  -3.883
  161XTA   HL1712704  -8.885  25.444  -3.853
  161XTA   HL1812705  -8.848  25.363  -4.015
  161XTA   HL1912706  -8.955  25.444  -4.222
  161XTA   HL2012707  -9.091  25.542  -4.225
  161XTA   HL2112708  -9.203  25.353  -4.080
  161XTA   HL2212709  -9.072  25.255  -4.118
  161XTA   HL2312710  -9.178  25.311  -4.249
  161XTA   HL2412711  -8.301  24.617  -4.634
  161XTA   HL2512712  -8.302  24.497  -4.763
  161XTA    CO612713  -8.905  25.647  -4.047
  161XTA    CO712714  -9.114  25.561  -3.941
  161XTA    OA512715  -9.175  25.638  -3.991
  161XTA   HL2612716  -8.880  25.683  -3.946
  161XTA   HL2712717  -8.987  25.744  -4.111
  161XTA   HL2812718  -9.078  25.597  -3.850
  161XTA   HL2912719  -9.170  25.473  -3.918
  162XTA     NT12720  -7.568  24.953  -5.396
  162XTA    CN112721  -7.674  25.010  -5.350
  162XTA     C112722  -7.670  25.150  -5.320
  162XTA     C212723  -7.789  25.220  -5.292
  162XTA     C312724  -7.915  25.148  -5.280
  162XTA     C412725  -7.915  25.007  -5.312
  162XTA     C512726  -7.799  24.941  -5.352
  162XTA    CN212727  -7.506  24.873  -5.313
  162XTA     C612728  -7.562  24.750  -5.270
  162XTA     C712729  -7.489  24.667  -5.186
  162XTA     C812730  -7.366  24.713  -5.134
  162XTA     C912731  -7.309  24.831  -5.186
  162XTA    C1012732  -7.380  24.910  -5.271
  162XTA    CN312733  -7.549  24.947  -5.530
  162XTA    C1112734  -7.451  25.023  -5.591
  162XTA    C1212735  -7.408  25.009  -5.726
  162XTA    C1312736  -7.476  24.916  -5.805
  162XTA    C1412737  -7.578  24.829  -5.751
  162XTA    C1512738  -7.609  24.847  -5.614
  162XTA     H112739  -7.572  25.193  -5.312
  162XTA     H212740  -7.782  25.330  -5.271
  162XTA     H312741  -7.999  24.946  -5.290
  162XTA     H412742  -7.809  24.837  -5.379
  162XTA     H512743  -7.662  24.722  -5.306
  162XTA     H612744  -7.521  24.565  -5.156
  162XTA     H712745  -7.215  24.868  -5.163
  162XTA     H812746  -7.325  24.990  -5.317
  162XTA     H912747  -7.393  25.094  -5.530
  162XTA    H1012748  -7.340  25.076  -5.772
  162XTA    H1112749  -7.617  24.744  -5.806
  162XTA    H1212750  -7.679  24.782  -5.572
  162XTA    OA112751  -8.023  25.221  -5.237
  162XTA    CO112752  -8.103  25.149  -5.148
  162XTA    OA212753  -7.296  24.652  -5.034
  162XTA    CO212754  -7.337  24.518  -4.978
  162XTA    CL112755  -7.228  24.416  -4.978
  162XTA    CL212756  -7.249  24.325  -5.100
  162XTA    CL312757  -7.149  24.210  -5.115
  162XTA    CL412758  -7.018  24.239  -5.193
  162XTA    CO312759  -7.032  24.243  -5.347
  162XTA    OA312760  -7.094  24.129  -5.400
  162XTA    CO412761  -7.018  24.008  -5.366
  162XTA    CT112762  -7.063  23.881  -5.435
  162XTA    CL512763  -7.013  23.756  -5.353
  162XTA    CL612764  -6.868  23.745  -5.319
  162XTA    OA412765  -7.423  24.894  -5.928
  162XTA    CO512766  -7.495  24.831  -6.026
  162XTA    HL112767  -7.602  24.863  -6.020
  162XTA    HL212768  -8.187  25.217  -5.116
  162XTA    HL312769  -8.141  25.059  -5.191
  162XTA    HL412770  -8.043  25.116  -5.060
  162XTA    HL512771  -7.367  24.540  -4.873
  162XTA    HL612772  -7.427  24.476  -5.026
  162XTA    HL712773  -7.229  24.356  -4.888
  162XTA    HL812774  -7.131  24.466  -4.978
  162XTA    HL912775  -7.249  24.394  -5.189
  162XTA   HL1012776  -7.350  24.282  -5.086
  162XTA   HL1112777  -7.127  24.161  -5.021
  162XTA   HL1212778  -7.197  24.133  -5.178
  162XTA   HL1312779  -6.938  24.165  -5.171
  162XTA   HL1412780  -6.987  24.331  -5.136
  162XTA   HL1512781  -7.093  24.326  -5.386
  162XTA   HL1612782  -6.934  24.239  -5.399
  162XTA   HL1712783  -6.911  24.015  -5.387
  162XTA   HL1812784  -7.024  23.991  -5.256
  162XTA   HL1912785  -7.051  23.662  -5.397
  162XTA   HL2012786  -7.066  23.754  -5.257
  162XTA   HL2112787  -6.833  23.835  -5.262
  162XTA   HL2212788  -6.812  23.744  -5.417
  162XTA   HL2312789  -6.834  23.666  -5.251
  162XTA   HL2412790  -7.484  24.723  -6.025
  162XTA   HL2512791  -7.454  24.867  -6.121
  162XTA    CO612792  -7.028  23.887  -5.584
  162XTA    CO712793  -7.218  23.877  -5.428
  162XTA    OA512794  -7.293  23.850  -5.308
  162XTA   HL2612795  -6.918  23.895  -5.582
  162XTA   HL2712796  -7.067  23.984  -5.616
  162XTA   HL2812797  -7.255  23.803  -5.500
  162XTA   HL2912798  -7.239  23.967  -5.473
  163XTA     NT12799  -4.645  26.052  -7.311
  163XTA    CN112800  -4.780  26.053  -7.345
  163XTA     C112801  -4.872  26.150  -7.291
  163XTA     C212802  -5.004  26.146  -7.341
  163XTA     C312803  -5.049  26.047  -7.426
  163XTA     C412804  -4.962  25.938  -7.460
  163XTA     C512805  -4.827  25.951  -7.427
  163XTA    CN212806  -4.567  26.160  -7.332
  163XTA     C612807  -4.520  26.237  -7.228
  163XTA     C712808  -4.443  26.348  -7.258
  163XTA     C812809  -4.426  26.389  -7.388
  163XTA     C912810  -4.480  26.319  -7.499
  163XTA    C1012811  -4.553  26.204  -7.466
  163XTA    CN312812  -4.610  25.958  -7.221
  163XTA    C1112813  -4.516  25.854  -7.248
  163XTA    C1212814  -4.480  25.761  -7.148
  163XTA    C1312815  -4.541  25.762  -7.021
  163XTA    C1412816  -4.639  25.866  -6.994
  163XTA    C1512817  -4.670  25.957  -7.092
  163XTA     H112818  -4.841  26.224  -7.228
  163XTA     H212819  -5.078  26.221  -7.304
  163XTA     H312820  -4.990  25.843  -7.510
  163XTA     H412821  -4.754  25.868  -7.458
  163XTA     H512822  -4.539  26.203  -7.128
  163XTA     H612823  -4.412  26.415  -7.182
  163XTA     H712824  -4.460  26.347  -7.599
  163XTA     H812825  -4.591  26.140  -7.538
  163XTA     H912826  -4.473  25.840  -7.342
  163XTA    H1012827  -4.421  25.676  -7.174
  163XTA    H1112828  -4.688  25.873  -6.903
  163XTA    H1212829  -4.750  26.027  -7.062
  163XTA    OA112830  -5.179  26.045  -7.458
  163XTA    CO112831  -5.231  25.939  -7.538
  163XTA    OA212832  -4.344  26.501  -7.400
  163XTA    CO212833  -4.324  26.552  -7.528
  163XTA    CL112834  -4.452  26.613  -7.582
  163XTA    CL212835  -4.431  26.660  -7.724
  163XTA    CL312836  -4.568  26.702  -7.788
  163XTA    CL412837  -4.670  26.597  -7.816
  163XTA    CO312838  -4.803  26.647  -7.864
  163XTA    OA312839  -4.867  26.711  -7.751
  163XTA    CO412840  -4.945  26.639  -7.662
  163XTA    CT112841  -4.998  26.715  -7.546
  163XTA    CL512842  -4.881  26.764  -7.464
  163XTA    CL612843  -4.748  26.686  -7.448
  163XTA    OA412844  -4.503  25.659  -6.931
  163XTA    CO512845  -4.617  25.598  -6.869
  163XTA    HL112846  -4.596  25.520  -6.794
  163XTA    HL212847  -5.229  25.835  -7.507
  163XTA    HL312848  -5.331  25.970  -7.567
  163XTA    HL412849  -5.168  25.933  -7.625
  163XTA    HL512850  -4.259  26.637  -7.533
  163XTA    HL612851  -4.273  26.480  -7.595
  163XTA    HL712852  -4.479  26.694  -7.512
  163XTA    HL812853  -4.534  26.538  -7.572
  163XTA    HL912854  -4.388  26.578  -7.785
  163XTA   HL1012855  -4.355  26.742  -7.733
  163XTA   HL1112856  -4.615  26.780  -7.726
  163XTA   HL1212857  -4.542  26.758  -7.878
  163XTA   HL1312858  -4.683  26.530  -7.728
  163XTA   HL1412859  -4.627  26.528  -7.895
  163XTA   HL1512860  -4.790  26.724  -7.936
  163XTA   HL1612861  -4.858  26.562  -7.900
  163XTA   HL1712862  -5.023  26.588  -7.721
  163XTA   HL1812863  -4.881  26.555  -7.630
  163XTA   HL1912864  -4.909  26.790  -7.359
  163XTA   HL2012865  -4.848  26.855  -7.524
  163XTA   HL2112866  -4.759  26.595  -7.394
  163XTA   HL2212867  -4.678  26.747  -7.384
  163XTA   HL2312868  -4.702  26.673  -7.546
  163XTA   HL2412869  -4.684  25.559  -6.948
  163XTA   HL2512870  -4.671  25.684  -6.822
  163XTA    CO612871  -5.075  26.617  -7.451
  163XTA    CO712872  -5.097  26.826  -7.591
  163XTA    OA512873  -5.182  26.574  -7.517
  163XTA   HL2612874  -5.103  26.669  -7.355
  163XTA   HL2712875  -5.021  26.530  -7.420
  163XTA   HL2812876  -5.038  26.900  -7.651
  163XTA   HL2912877  -5.173  26.788  -7.658
  164XTA     NT12878  -5.530  26.170  -4.198
  164XTA    CN112879  -5.624  26.160  -4.106
  164XTA     C112880  -5.610  26.211  -3.980
  164XTA     C212881  -5.710  26.209  -3.879
  164XTA     C312882  -5.831  26.148  -3.923
  164XTA     C412883  -5.844  26.090  -4.051
  164XTA     C512884  -5.737  26.086  -4.139
  164XTA    CN212885  -5.563  26.230  -4.318
  164XTA     C612886  -5.569  26.158  -4.434
  164XTA     C712887  -5.577  26.221  -4.563
  164XTA     C812888  -5.589  26.361  -4.569
  164XTA     C912889  -5.613  26.431  -4.452
  164XTA    C1012890  -5.594  26.366  -4.326
  164XTA    CN312891  -5.423  26.089  -4.192
  164XTA    C1112892  -5.424  25.950  -4.242
  164XTA    C1212893  -5.297  25.889  -4.269
  164XTA    C1312894  -5.174  25.947  -4.220
  164XTA    C1412895  -5.183  26.080  -4.164
  164XTA    C1512896  -5.305  26.146  -4.154
  164XTA     H112897  -5.520  26.260  -3.957
  164XTA     H212898  -5.707  26.259  -3.783
  164XTA     H312899  -5.945  26.061  -4.081
  164XTA     H412900  -5.751  26.040  -4.229
  164XTA     H512901  -5.556  26.051  -4.433
  164XTA     H612902  -5.560  26.154  -4.644
  164XTA     H712903  -5.632  26.538  -4.466
  164XTA     H812904  -5.612  26.424  -4.240
  164XTA     H912905  -5.516  25.906  -4.266
  164XTA    H1012906  -5.294  25.790  -4.310
  164XTA    H1112907  -5.097  26.125  -4.123
  164XTA    H1212908  -5.314  26.251  -4.118
  164XTA    OA112909  -5.934  26.136  -3.838
  164XTA    CO112910  -6.048  26.207  -3.882
  164XTA    OA212911  -5.576  26.442  -4.685
  164XTA    CO212912  -5.496  26.383  -4.782
  164XTA    CL112913  -5.473  26.478  -4.897
  164XTA    CL212914  -5.325  26.482  -4.939
  164XTA    CL312915  -5.265  26.357  -5.000
  164XTA    CL412916  -5.126  26.385  -5.063
  164XTA    CO312917  -5.046  26.254  -5.107
  164XTA    OA312918  -5.118  26.183  -5.204
  164XTA    CO412919  -5.061  26.057  -5.246
  164XTA    CT112920  -5.099  26.028  -5.393
  164XTA    CL512921  -5.240  25.983  -5.422
  164XTA    CL612922  -5.348  26.078  -5.369
  164XTA    OA412923  -5.062  25.873  -4.225
  164XTA    CO512924  -4.950  25.910  -4.153
  164XTA    HL112925  -4.900  26.005  -4.189
  164XTA    HL212926  -6.125  26.152  -3.934
  164XTA    HL312927  -6.108  26.237  -3.794
  164XTA    HL412928  -6.016  26.295  -3.931
  164XTA    HL512929  -5.394  26.368  -4.747
  164XTA    HL612930  -5.535  26.289  -4.813
  164XTA    HL712931  -5.489  26.582  -4.872
  164XTA    HL812932  -5.538  26.439  -4.973
  164XTA    HL912933  -5.260  26.512  -4.858
  164XTA   HL1012934  -5.304  26.569  -5.008
  164XTA   HL1112935  -5.252  26.283  -4.921
  164XTA   HL1212936  -5.339  26.323  -5.071
  164XTA   HL1312937  -5.062  26.445  -4.997
  164XTA   HL1412938  -5.144  26.447  -5.151
  164XTA   HL1512939  -4.950  26.283  -5.147
  164XTA   HL1612940  -5.026  26.190  -5.021
  164XTA   HL1712941  -4.955  26.067  -5.239
  164XTA   HL1812942  -5.101  25.982  -5.183
  164XTA   HL1912943  -5.257  25.885  -5.380
  164XTA   HL2012944  -5.244  25.974  -5.529
  164XTA   HL2112945  -5.346  26.177  -5.411
  164XTA   HL2212946  -5.359  26.100  -5.262
  164XTA   HL2312947  -5.441  26.042  -5.400
  164XTA   HL2412948  -4.880  25.824  -4.152
  164XTA   HL2512949  -4.978  25.930  -4.050
  164XTA    CO612950  -4.998  25.918  -5.442
  164XTA    CO712951  -5.056  26.148  -5.482
  164XTA    OA512952  -5.097  26.152  -5.583
  164XTA   HL2612953  -5.020  25.890  -5.544
  164XTA   HL2712954  -4.867  25.962  -5.436
  164XTA   HL2812955  -4.951  26.166  -5.477
  164XTA   HL2912956  -5.102  26.243  -5.439
  165XTA     NT12957  -4.190  23.985  -6.048
  165XTA    CN112958  -4.241  24.054  -5.941
  165XTA     C112959  -4.195  24.185  -5.908
  165XTA     C212960  -4.264  24.272  -5.823
  165XTA     C312961  -4.373  24.218  -5.753
  165XTA     C412962  -4.407  24.083  -5.765
  165XTA     C512963  -4.350  23.998  -5.868
  165XTA    CN212964  -4.070  23.924  -6.030
  165XTA     C612965  -3.954  23.978  -6.083
  165XTA     C712966  -3.831  23.920  -6.076
  165XTA     C812967  -3.821  23.803  -5.997
  165XTA     C912968  -3.932  23.757  -5.926
  165XTA    C1012969  -4.062  23.812  -5.946
  165XTA    CN312970  -4.263  23.967  -6.159
  165XTA    C1112971  -4.252  24.061  -6.269
  165XTA    C1212972  -4.338  24.051  -6.381
  165XTA    C1312973  -4.436  23.950  -6.384
  165XTA    C1412974  -4.440  23.850  -6.274
  165XTA    C1512975  -4.355  23.864  -6.165
  165XTA     H112976  -4.111  24.220  -5.959
  165XTA     H212977  -4.220  24.374  -5.807
  165XTA     H312978  -4.492  24.039  -5.713
  165XTA     H412979  -4.386  23.904  -5.898
  165XTA     H512980  -3.959  24.064  -6.147
  165XTA     H612981  -3.748  23.955  -6.132
  165XTA     H712982  -3.921  23.668  -5.865
  165XTA     H812983  -4.140  23.769  -5.891
  165XTA     H912984  -4.167  24.136  -6.257
  165XTA    H1012985  -4.339  24.124  -6.464
  165XTA    H1112986  -4.520  23.778  -6.260
  165XTA    H1212987  -4.380  23.803  -6.083
  165XTA    OA112988  -4.435  24.301  -5.664
  165XTA    CO112989  -4.554  24.264  -5.594
  165XTA    OA212990  -3.705  23.731  -5.975
  165XTA    CO212991  -3.587  23.787  -6.031
  165XTA    CL112992  -3.469  23.702  -5.986
  165XTA    CL212993  -3.440  23.710  -5.831
  165XTA    CL312994  -3.368  23.841  -5.800
  165XTA    CL412995  -3.445  23.933  -5.709
  165XTA    CO312996  -3.567  23.988  -5.780
  165XTA    OA312997  -3.625  24.079  -5.685
  165XTA    CO412998  -3.737  24.152  -5.742
  165XTA    CT112999  -3.785  24.265  -5.644
  165XTA    CL513000  -3.671  24.365  -5.628
  165XTA    CL613001  -3.641  24.468  -5.732
  165XTA    OA413002  -4.518  23.944  -6.490
  165XTA    CO513003  -4.605  23.831  -6.492
  165XTA    HL113004  -4.663  23.838  -6.407
  165XTA    HL213005  -4.582  24.340  -5.524
  165XTA    HL313006  -4.640  24.253  -5.663
  165XTA    HL413007  -4.549  24.179  -5.531
  165XTA    HL513008  -3.612  23.773  -6.136
  165XTA    HL613009  -3.568  23.890  -6.015
  165XTA    HL713010  -3.379  23.730  -6.037
  165XTA    HL813011  -3.496  23.600  -6.012
  165XTA    HL913012  -3.377  23.619  -5.807
  165XTA   HL1013013  -3.530  23.704  -5.776
  165XTA   HL1113014  -3.266  23.827  -5.758
  165XTA   HL1213015  -3.347  23.905  -5.891
  165XTA   HL1313016  -3.381  24.019  -5.686
  165XTA   HL1413017  -3.477  23.870  -5.623
  165XTA   HL1513018  -3.553  24.044  -5.867
  165XTA   HL1613019  -3.639  23.913  -5.801
  165XTA   HL1713020  -3.688  24.205  -5.828
  165XTA   HL1813021  -3.809  24.081  -5.785
  165XTA   HL1913022  -3.575  24.314  -5.593
  165XTA   HL2013023  -3.693  24.428  -5.543
  165XTA   HL2113024  -3.702  24.555  -5.721
  165XTA   HL2213025  -3.637  24.427  -5.830
  165XTA   HL2313026  -3.537  24.505  -5.715
  165XTA   HL2413027  -4.564  23.733  -6.488
  165XTA   HL2513028  -4.662  23.828  -6.586
  165XTA    CO613029  -3.816  24.194  -5.505
  165XTA    CO713030  -3.915  24.336  -5.699
  165XTA    OA513031  -3.959  24.436  -5.604
  165XTA   HL2613032  -3.728  24.138  -5.478
  165XTA   HL2713033  -3.823  24.277  -5.435
  165XTA   HL2813034  -4.000  24.266  -5.709
  165XTA   HL2913035  -3.892  24.374  -5.804
  166XTA     NT13036  -6.311  28.748  -8.412
  166XTA    CN113037  -6.209  28.676  -8.360
  166XTA     C113038  -6.211  28.535  -8.354
  166XTA     C213039  -6.106  28.465  -8.294
  166XTA     C313040  -5.995  28.530  -8.245
  166XTA     C413041  -5.989  28.672  -8.250
  166XTA     C513042  -6.093  28.743  -8.313
  166XTA    CN213043  -6.286  28.828  -8.516
  166XTA     C613044  -6.269  28.777  -8.642
  166XTA     C713045  -6.233  28.862  -8.749
  166XTA     C813046  -6.216  29.002  -8.723
  166XTA     C913047  -6.240  29.054  -8.599
  166XTA    C1013048  -6.288  28.967  -8.491
  166XTA    CN313049  -6.439  28.724  -8.372
  166XTA    C1113050  -6.469  28.722  -8.234
  166XTA    C1213051  -6.601  28.704  -8.192
  166XTA    C1313052  -6.709  28.693  -8.278
  166XTA    C1413053  -6.678  28.684  -8.418
  166XTA    C1513054  -6.542  28.694  -8.461
  166XTA     H113055  -6.292  28.479  -8.400
  166XTA     H213056  -6.101  28.355  -8.285
  166XTA     H313057  -5.905  28.725  -8.204
  166XTA     H413058  -6.082  28.849  -8.319
  166XTA     H513059  -6.269  28.668  -8.663
  166XTA     H613060  -6.208  28.815  -8.843
  166XTA     H713061  -6.235  29.161  -8.584
  166XTA     H813062  -6.311  29.004  -8.387
  166XTA     H913063  -6.389  28.734  -8.161
  166XTA    H1013064  -6.622  28.680  -8.089
  166XTA    H1113065  -6.755  28.674  -8.491
  166XTA    H1213066  -6.520  28.683  -8.567
  166XTA    OA113067  -5.886  28.463  -8.196
  166XTA    CO113068  -5.898  28.325  -8.180
  166XTA    OA213069  -6.189  29.088  -8.824
  166XTA    CO213070  -6.112  29.045  -8.938
  166XTA    CL113071  -5.955  29.059  -8.924
  166XTA    CL213072  -5.869  28.985  -9.028
  166XTA    CL313073  -5.716  29.011  -9.011
  166XTA    CL413074  -5.641  28.918  -8.907
  166XTA    CO313075  -5.496  28.952  -8.924
  166XTA    OA313076  -5.459  29.091  -8.907
  166XTA    CO413077  -5.323  29.118  -8.929
  166XTA    CT113078  -5.285  29.259  -8.956
  166XTA    CL513079  -5.137  29.236  -8.995
  166XTA    CL613080  -5.065  29.360  -9.039
  166XTA    OA413081  -6.838  28.669  -8.245
  166XTA    CO513082  -6.854  28.605  -8.123
  166XTA    HL113083  -6.790  28.518  -8.127
  166XTA    HL213084  -5.799  28.294  -8.158
  166XTA    HL313085  -5.966  28.289  -8.095
  166XTA    HL413086  -5.931  28.274  -8.272
  166XTA    HL513087  -6.138  28.952  -8.979
  166XTA    HL613088  -6.136  29.110  -9.023
  166XTA    HL713089  -5.922  29.017  -8.822
  166XTA    HL813090  -5.926  29.163  -8.932
  166XTA    HL913091  -5.886  29.029  -9.124
  166XTA   HL1013092  -5.887  28.876  -9.032
  166XTA   HL1113093  -5.668  29.006  -9.106
  166XTA   HL1213094  -5.702  29.117  -8.988
  166XTA   HL1313095  -5.658  28.815  -8.930
  166XTA   HL1413096  -5.682  28.923  -8.809
  166XTA   HL1513097  -5.436  28.894  -8.858
  166XTA   HL1613098  -5.462  28.926  -9.025
  166XTA   HL1713099  -5.266  29.075  -8.842
  166XTA   HL1813100  -5.296  29.057  -9.021
  166XTA   HL1913101  -5.136  29.166  -9.074
  166XTA   HL2013102  -5.097  29.195  -8.904
  166XTA   HL2113103  -5.068  29.435  -8.958
  166XTA   HL2213104  -5.094  29.403  -9.137
  166XTA   HL2313105  -4.959  29.336  -9.050
  166XTA   HL2413106  -6.952  28.579  -8.085
  166XTA   HL2513107  -6.807  28.662  -8.051
  166XTA    CO613108  -5.304  29.339  -8.821
  166XTA    CO713109  -5.377  29.326  -9.059
  166XTA    OA513110  -5.266  29.475  -8.834
  166XTA   HL2613111  -5.235  29.289  -8.749
  166XTA   HL2713112  -5.405  29.327  -8.773
  166XTA   HL2813113  -5.479  29.323  -9.023
  166XTA   HL2913114  -5.341  29.433  -9.061
  167XTA     NT13115  -4.904  30.820 -11.219
  167XTA    CN113116  -4.814  30.882 -11.142
  167XTA     C113117  -4.839  30.911 -11.007
  167XTA     C213118  -4.736  30.964 -10.924
  167XTA     C313119  -4.608  31.002 -10.970
  167XTA     C413120  -4.577  30.962 -11.100
  167XTA     C513121  -4.680  30.910 -11.181
  167XTA    CN213122  -5.024  30.874 -11.230
  167XTA     C613123  -5.136  30.819 -11.165
  167XTA     C713124  -5.264  30.877 -11.179
  167XTA     C813125  -5.283  30.984 -11.268
  167XTA     C913126  -5.173  31.037 -11.335
  167XTA    C1013127  -5.040  30.988 -11.312
  167XTA    CN313128  -4.875  30.703 -11.287
  167XTA    C1113129  -4.806  30.605 -11.216
  167XTA    C1213130  -4.755  30.489 -11.289
  167XTA    C1313131  -4.764  30.486 -11.426
  167XTA    C1413132  -4.820  30.590 -11.497
  167XTA    C1513133  -4.873  30.700 -11.429
  167XTA     H113134  -4.937  30.902 -10.972
  167XTA     H213135  -4.764  30.974 -10.821
  167XTA     H313136  -4.476  30.970 -11.133
  167XTA     H413137  -4.659  30.892 -11.289
  167XTA     H513138  -5.130  30.741 -11.096
  167XTA     H613139  -5.355  30.833 -11.129
  167XTA     H713140  -5.185  31.123 -11.395
  167XTA     H813141  -4.955  31.050 -11.360
  167XTA     H913142  -4.784  30.606 -11.110
  167XTA    H1013143  -4.705  30.404 -11.240
  167XTA    H1113144  -4.819  30.586 -11.604
  167XTA    H1213145  -4.897  30.793 -11.480
  167XTA    OA113146  -4.504  31.052 -10.887
  167XTA    CO113147  -4.534  31.064 -10.747
  167XTA    OA213148  -5.409  31.045 -11.264
  167XTA    CO213149  -5.446  31.143 -11.358
  167XTA    CL113150  -5.573  31.222 -11.311
  167XTA    CL213151  -5.537  31.307 -11.194
  167XTA    CL313152  -5.660  31.365 -11.124
  167XTA    CL413153  -5.621  31.472 -11.022
  167XTA    CO313154  -5.717  31.495 -10.899
  167XTA    OA313155  -5.729  31.378 -10.820
  167XTA    CO413156  -5.605  31.328 -10.762
  167XTA    CT113157  -5.652  31.251 -10.634
  167XTA    CL513158  -5.523  31.214 -10.553
  167XTA    CL613159  -5.550  31.146 -10.418
  167XTA    OA413160  -4.703  30.379 -11.477
  167XTA    CO513161  -4.754  30.336 -11.597
  167XTA    HL113162  -4.864  30.360 -11.591
  167XTA    HL213163  -4.449  31.088 -10.688
  167XTA    HL313164  -4.617  31.133 -10.740
  167XTA    HL413165  -4.568  30.962 -10.714
  167XTA    HL513166  -5.373  31.220 -11.377
  167XTA    HL613167  -5.479  31.094 -11.451
  167XTA    HL713168  -5.653  31.153 -11.282
  167XTA    HL813169  -5.611  31.286 -11.396
  167XTA    HL913170  -5.463  31.384 -11.221
  167XTA   HL1013171  -5.481  31.246 -11.121
  167XTA   HL1113172  -5.732  31.394 -11.197
  167XTA   HL1213173  -5.729  31.291 -11.078
  167XTA   HL1313174  -5.581  31.561 -11.073
  167XTA   HL1413175  -5.521  31.443 -10.980
  167XTA   HL1513176  -5.677  31.584 -10.847
  167XTA   HL1613177  -5.819  31.511 -10.935
  167XTA   HL1713178  -5.556  31.268 -10.834
  167XTA   HL1813179  -5.537  31.407 -10.736
  167XTA   HL1913180  -5.470  31.305 -10.536
  167XTA   HL2013181  -5.456  31.163 -10.617
  167XTA   HL2113182  -5.604  31.214 -10.358
  167XTA   HL2213183  -5.458  31.117 -10.370
  167XTA   HL2313184  -5.600  31.052 -10.430
  167XTA   HL2413185  -4.743  30.222 -11.614
  167XTA   HL2513186  -4.700  30.378 -11.685
  167XTA    CO613187  -5.740  31.133 -10.696
  167XTA    CO713188  -5.751  31.337 -10.550
  167XTA    OA513189  -5.767  31.053 -10.622
  167XTA   HL2613190  -5.666  31.085 -10.766
  167XTA   HL2713191  -5.823  31.177 -10.747
  167XTA   HL2813192  -5.870  31.361 -10.623
  167XTA   HL2913193  -5.797  31.282 -10.472
  168XTA     NT13194  -6.963  30.558  -4.927
  168XTA    CN113195  -6.853  30.630  -4.950
  168XTA     C113196  -6.845  30.731  -5.049
  168XTA     C213197  -6.735  30.805  -5.076
  168XTA     C313198  -6.622  30.781  -4.998
  168XTA     C413199  -6.621  30.683  -4.895
  168XTA     C513200  -6.737  30.604  -4.875
  168XTA    CN213201  -7.054  30.592  -4.832
  168XTA     C613202  -7.021  30.617  -4.699
  168XTA     C713203  -7.111  30.666  -4.610
  168XTA     C813204  -7.246  30.669  -4.645
  168XTA     C913205  -7.283  30.649  -4.784
  168XTA    C1013206  -7.191  30.601  -4.874
  168XTA    CN313207  -6.975  30.430  -4.981
  168XTA    C1113208  -7.001  30.317  -4.902
  168XTA    C1213209  -7.010  30.189  -4.963
  168XTA    C1313210  -7.002  30.169  -5.102
  168XTA    C1413211  -6.991  30.282  -5.178
  168XTA    C1513212  -6.977  30.412  -5.124
  168XTA     H113213  -6.933  30.764  -5.092
  168XTA     H213214  -6.744  30.874  -5.161
  168XTA     H313215  -6.532  30.672  -4.836
  168XTA     H413216  -6.736  30.524  -4.800
  168XTA     H513217  -6.921  30.601  -4.674
  168XTA     H613218  -7.087  30.686  -4.509
  168XTA     H713219  -7.383  30.668  -4.812
  168XTA     H813220  -7.211  30.562  -4.973
  168XTA     H913221  -7.017  30.328  -4.797
  168XTA    H1013222  -7.027  30.105  -4.910
  168XTA    H1113223  -6.987  30.263  -5.280
  168XTA    H1213224  -6.976  30.497  -5.190
  168XTA    OA113225  -6.505  30.858  -5.000
  168XTA    CO113226  -6.535  30.992  -5.029
  168XTA    OA213227  -7.344  30.687  -4.550
  168XTA    CO213228  -7.434  30.796  -4.577
  168XTA    CL113229  -7.579  30.751  -4.575
  168XTA    CL213230  -7.619  30.654  -4.688
  168XTA    CL313231  -7.760  30.596  -4.667
  168XTA    CL413232  -7.868  30.693  -4.716
  168XTA    CO313233  -8.004  30.629  -4.752
  168XTA    OA313234  -7.980  30.533  -4.853
  168XTA    CO413235  -8.101  30.482  -4.903
  168XTA    CT113236  -8.073  30.370  -5.010
  168XTA    CL513237  -7.967  30.407  -5.116
  168XTA    CL613238  -8.009  30.540  -5.184
  168XTA    OA413239  -7.011  30.046  -5.162
  168XTA    CO513240  -6.943  30.027  -5.280
  168XTA    HL113241  -6.836  30.035  -5.275
  168XTA    HL213242  -6.558  30.993  -5.132
  168XTA    HL313243  -6.613  31.022  -4.955
  168XTA    HL413244  -6.448  31.059  -5.017
  168XTA    HL513245  -7.423  30.871  -4.497
  168XTA    HL613246  -7.412  30.859  -4.666
  168XTA    HL713247  -7.633  30.843  -4.584
  168XTA    HL813248  -7.593  30.691  -4.485
  168XTA    HL913249  -7.540  30.577  -4.698
  168XTA   HL1013250  -7.616  30.713  -4.780
  168XTA   HL1113251  -7.768  30.502  -4.726
  168XTA   HL1213252  -7.786  30.577  -4.559
  168XTA   HL1313253  -7.834  30.758  -4.800
  168XTA   HL1413254  -7.868  30.764  -4.635
  168XTA   HL1513255  -8.045  30.574  -4.664
  168XTA   HL1613256  -8.077  30.712  -4.769
  168XTA   HL1713257  -8.171  30.453  -4.828
  168XTA   HL1813258  -8.150  30.566  -4.947
  168XTA   HL1913259  -7.946  30.329  -5.186
  168XTA   HL2013260  -7.875  30.418  -5.067
  168XTA   HL2113261  -7.978  30.623  -5.121
  168XTA   HL2213262  -8.117  30.534  -5.204
  168XTA   HL2313263  -7.952  30.554  -5.276
  168XTA   HL2413264  -6.998  30.080  -5.358
  168XTA   HL2513265  -6.955  29.922  -5.305
  168XTA    CO613266  -8.206  30.334  -5.083
  168XTA    CO713267  -8.020  30.239  -4.938
  168XTA    OA513268  -8.186  30.275  -5.173
  168XTA   HL2613269  -8.260  30.426  -5.113
  168XTA   HL2713270  -8.281  30.284  -5.023
  168XTA   HL2813271  -8.108  30.205  -4.827
  168XTA   HL2913272  -8.037  30.167  -5.021
  169XTA     NT13273  -9.622  25.234  -7.731
  169XTA    CN113274  -9.514  25.210  -7.805
  169XTA     C113275  -9.407  25.305  -7.810
  169XTA     C213276  -9.285  25.269  -7.862
  169XTA     C313277  -9.257  25.139  -7.917
  169XTA     C413278  -9.371  25.056  -7.928
  169XTA     C513279  -9.494  25.092  -7.872
  169XTA    CN213280  -9.638  25.177  -7.611
  169XTA     C613281  -9.562  25.219  -7.500
  169XTA     C713282  -9.587  25.157  -7.372
  169XTA     C813283  -9.685  25.055  -7.357
  169XTA     C913284  -9.758  25.020  -7.478
  169XTA    C1013285  -9.732  25.075  -7.604
  169XTA    CN313286  -9.721  25.304  -7.795
  169XTA    C1113287  -9.800  25.238  -7.894
  169XTA    C1213288  -9.912  25.306  -7.938
  169XTA    C1313289  -9.955  25.429  -7.881
  169XTA    C1413290  -9.868  25.495  -7.785
  169XTA    C1513291  -9.759  25.427  -7.739
  169XTA     H113292  -9.419  25.403  -7.755
  169XTA     H213293  -9.212  25.346  -7.867
  169XTA     H313294  -9.366  24.966  -7.981
  169XTA     H413295  -9.576  25.023  -7.880
  169XTA     H513296  -9.488  25.298  -7.508
  169XTA     H613297  -9.523  25.187  -7.287
  169XTA     H713298  -9.825  24.943  -7.468
  169XTA     H813299  -9.779  25.040  -7.689
  169XTA     H913300  -9.770  25.137  -7.930
  169XTA    H1013301  -9.988  25.250  -7.999
  169XTA    H1113302  -9.894  25.593  -7.748
  169XTA    H1213303  -9.687  25.471  -7.675
  169XTA    OA113304  -9.139  25.102  -7.967
  169XTA    CO113305  -9.014  25.153  -7.912
  169XTA    OA213306  -9.717  25.000  -7.236
  169XTA    CO213307  -9.847  24.952  -7.223
  169XTA    CL113308  -9.883  24.960  -7.070
  169XTA    CL213309 -10.030  24.947  -7.044
  169XTA    CL313310 -10.042  24.925  -6.892
  169XTA    CL413311 -10.148  24.823  -6.851
  169XTA    CO313312 -10.278  24.888  -6.791
  169XTA    OA313313 -10.253  24.945  -6.663
  169XTA    CO413314 -10.364  25.000  -6.600
  169XTA    CT113315 -10.324  25.017  -6.448
  169XTA    CL513316 -10.254  24.897  -6.394
  169XTA    CL613317 -10.335  24.772  -6.387
  169XTA    OA413318 -10.067  25.492  -7.928
  169XTA    CO513319 -10.189  25.414  -7.940
  169XTA    HL113320 -10.273  25.485  -7.952
  169XTA    HL213321  -8.993  25.243  -7.971
  169XTA    HL313322  -9.015  25.191  -7.808
  169XTA    HL413323  -8.937  25.083  -7.921
  169XTA    HL513324  -9.910  25.027  -7.271
  169XTA    HL613325  -9.858  24.851  -7.272
  169XTA    HL713326  -9.842  25.040  -7.015
  169XTA    HL813327  -9.826  24.871  -7.041
  169XTA    HL913328 -10.085  24.857  -7.098
  169XTA   HL1013329 -10.077  25.038  -7.079
  169XTA   HL1113330  -9.947  24.880  -6.859
  169XTA   HL1213331 -10.040  25.024  -6.843
  169XTA   HL1313332 -10.099  24.749  -6.787
  169XTA   HL1413333 -10.179  24.767  -6.939
  169XTA   HL1513334 -10.320  24.966  -6.858
  169XTA   HL1613335 -10.351  24.819  -6.772
  169XTA   HL1713336 -10.383  25.098  -6.642
  169XTA   HL1813337 -10.444  24.929  -6.600
  169XTA   HL1913338 -10.207  24.908  -6.302
  169XTA   HL2013339 -10.179  24.867  -6.465
  169XTA   HL2113340 -10.340  24.710  -6.483
  169XTA   HL2213341 -10.438  24.779  -6.354
  169XTA   HL2313342 -10.276  24.704  -6.318
  169XTA   HL2413343 -10.201  25.347  -7.851
  169XTA   HL2513344 -10.196  25.350  -8.032
  169XTA    CO613345 -10.454  25.050  -6.373
  169XTA    CO713346 -10.239  25.146  -6.438
  169XTA    OA513347 -10.109  25.126  -6.489
  169XTA   HL2613348 -10.531  24.976  -6.392
  169XTA   HL2713349 -10.432  25.037  -6.271
  169XTA   HL2813350 -10.230  25.174  -6.332
  169XTA   HL2913351 -10.286  25.223  -6.498
  170XTA     NT13352  -3.970  28.232  -7.308
  170XTA    CN113353  -3.854  28.167  -7.291
  170XTA     C113354  -3.842  28.058  -7.203
  170XTA     C213355  -3.728  27.979  -7.198
  170XTA     C313356  -3.621  28.009  -7.290
  170XTA     C413357  -3.628  28.117  -7.378
  170XTA     C513358  -3.744  28.197  -7.384
  170XTA    CN213359  -4.033  28.230  -7.428
  170XTA     C613360  -4.036  28.350  -7.503
  170XTA     C713361  -4.102  28.360  -7.621
  170XTA     C813362  -4.165  28.242  -7.673
  170XTA     C913363  -4.163  28.120  -7.599
  170XTA    C1013364  -4.103  28.114  -7.474
  170XTA    CN313365  -4.044  28.265  -7.202
  170XTA    C1113366  -4.149  28.192  -7.152
  170XTA    C1213367  -4.222  28.236  -7.039
  170XTA    C1313368  -4.185  28.357  -6.978
  170XTA    C1413369  -4.074  28.426  -7.023
  170XTA    C1513370  -4.001  28.382  -7.140
  170XTA     H113371  -3.926  28.029  -7.140
  170XTA     H213372  -3.714  27.894  -7.132
  170XTA     H313373  -3.541  28.156  -7.428
  170XTA     H413374  -3.750  28.288  -7.443
  170XTA     H513375  -3.980  28.435  -7.466
  170XTA     H613376  -4.110  28.457  -7.674
  170XTA     H713377  -4.202  28.020  -7.628
  170XTA     H813378  -4.112  28.025  -7.418
  170XTA     H913379  -4.184  28.096  -7.196
  170XTA    H1013380  -4.313  28.184  -7.029
  170XTA    H1113381  -4.060  28.523  -6.974
  170XTA    H1213382  -3.911  28.444  -7.169
  170XTA    OA113383  -3.523  27.914  -7.288
  170XTA    CO113384  -3.393  27.966  -7.317
  170XTA    OA213385  -4.242  28.258  -7.793
  170XTA    CO213386  -4.339  28.160  -7.811
  170XTA    CL113387  -4.427  28.201  -7.924
  170XTA    CL213388  -4.354  28.189  -8.057
  170XTA    CL313389  -4.441  28.213  -8.177
  170XTA    CL413390  -4.354  28.251  -8.304
  170XTA    CO313391  -4.243  28.155  -8.349
  170XTA    OA313392  -4.128  28.187  -8.269
  170XTA    CO413393  -4.005  28.129  -8.313
  170XTA    CT113394  -3.886  28.142  -8.222
  170XTA    CL513395  -3.851  28.289  -8.203
  170XTA    CL613396  -3.708  28.320  -8.146
  170XTA    OA413397  -4.239  28.384  -6.858
  170XTA    CO513398  -4.362  28.328  -6.821
  170XTA    HL113399  -4.397  28.380  -6.729
  170XTA    HL213400  -3.395  28.019  -7.409
  170XTA    HL313401  -3.369  28.040  -7.244
  170XTA    HL413402  -3.331  27.877  -7.332
  170XTA    HL513403  -4.301  28.056  -7.832
  170XTA    HL613404  -4.403  28.158  -7.725
  170XTA    HL713405  -4.468  28.298  -7.913
  170XTA    HL813406  -4.502  28.129  -7.934
  170XTA    HL913407  -4.305  28.090  -8.057
  170XTA   HL1013408  -4.267  28.256  -8.054
  170XTA   HL1113409  -4.502  28.124  -8.196
  170XTA   HL1213410  -4.512  28.286  -8.153
  170XTA   HL1313411  -4.319  28.350  -8.292
  170XTA   HL1413412  -4.418  28.270  -8.390
  170XTA   HL1513413  -4.267  28.043  -8.331
  170XTA   HL1613414  -4.220  28.171  -8.457
  170XTA   HL1713415  -4.023  28.020  -8.324
  170XTA   HL1813416  -3.980  28.174  -8.413
  170XTA   HL1913417  -3.916  28.352  -8.136
  170XTA   HL2013418  -3.883  28.330  -8.300
  170XTA   HL2113419  -3.700  28.409  -8.082
  170XTA   HL2213420  -3.642  28.325  -8.227
  170XTA   HL2313421  -3.681  28.230  -8.090
  170XTA   HL2413422  -4.351  28.230  -6.783
  170XTA   HL2513423  -4.438  28.326  -6.897
  170XTA    CO613424  -3.777  28.061  -8.297
  170XTA    CO713425  -3.903  28.058  -8.090
  170XTA    OA513426  -3.908  27.945  -8.096
  170XTA   HL2613427  -3.814  27.964  -8.315
  170XTA   HL2713428  -3.667  28.046  -8.204
  170XTA   HL2813429  -3.982  28.100  -8.026
  170XTA   HL2913430  -3.803  28.067  -8.047
  171XTA     NT13431  -2.858  28.522 -12.401
  171XTA    CN113432  -2.751  28.513 -12.477
  171XTA     C113433  -2.755  28.467 -12.606
  171XTA     C213434  -2.639  28.461 -12.685
  171XTA     C313435  -2.519  28.508 -12.634
  171XTA     C413436  -2.506  28.559 -12.507
  171XTA     C513437  -2.627  28.552 -12.420
  171XTA    CN213438  -2.869  28.448 -12.282
  171XTA     C613439  -2.862  28.306 -12.273
  171XTA     C713440  -2.873  28.240 -12.144
  171XTA     C813441  -2.859  28.317 -12.026
  171XTA     C913442  -2.864  28.462 -12.036
  171XTA    C1013443  -2.867  28.526 -12.162
  171XTA    CN313444  -2.959  28.600 -12.449
  171XTA    C1113445  -2.945  28.737 -12.427
  171XTA    C1213446  -3.042  28.830 -12.472
  171XTA    C1313447  -3.170  28.780 -12.519
  171XTA    C1413448  -3.178  28.639 -12.534
  171XTA    C1513449  -3.078  28.548 -12.501
  171XTA     H113450  -2.851  28.448 -12.658
  171XTA     H213451  -2.645  28.423 -12.794
  171XTA     H313452  -2.410  28.593 -12.469
  171XTA     H413453  -2.620  28.592 -12.324
  171XTA     H513454  -2.866  28.248 -12.369
  171XTA     H613455  -2.869  28.132 -12.138
  171XTA     H713456  -2.851  28.521 -11.948
  171XTA     H813457  -2.863  28.630 -12.166
  171XTA     H913458  -2.862  28.769 -12.368
  171XTA    H1013459  -3.034  28.933 -12.465
  171XTA    H1113460  -3.272  28.593 -12.563
  171XTA    H1213461  -3.091  28.438 -12.512
  171XTA    OA113462  -2.400  28.502 -12.705
  171XTA    CO113463  -2.411  28.503 -12.846
  171XTA    OA213464  -2.858  28.265 -11.897
  171XTA    CO213465  -2.837  28.125 -11.881
  171XTA    CL113466  -2.970  28.051 -11.894
  171XTA    CL213467  -3.086  28.112 -11.811
  171XTA    CL313468  -3.215  28.030 -11.809
  171XTA    CL413469  -3.269  28.007 -11.949
  171XTA    CO313470  -3.409  27.939 -11.959
  171XTA    OA313471  -3.441  27.922 -12.092
  171XTA    CO413472  -3.572  27.867 -12.102
  171XTA    CT113473  -3.668  27.971 -12.166
  171XTA    CL513474  -3.689  28.084 -12.066
  171XTA    CL613475  -3.584  28.192 -12.071
  171XTA    OA413476  -3.276  28.862 -12.547
  171XTA    CO513477  -3.394  28.813 -12.605
  171XTA    HL113478  -3.449  28.910 -12.628
  171XTA    HL213479  -2.447  28.410 -12.884
  171XTA    HL313480  -2.484  28.584 -12.863
  171XTA    HL413481  -2.326  28.537 -12.890
  171XTA    HL513482  -2.758  28.074 -11.940
  171XTA    HL613483  -2.793  28.089 -11.780
  171XTA    HL713484  -2.959  27.949 -11.869
  171XTA    HL813485  -3.008  28.054 -11.999
  171XTA    HL913486  -3.110  28.217 -11.827
  171XTA   HL1013487  -3.058  28.128 -11.710
  171XTA   HL1113488  -3.188  27.932 -11.765
  171XTA   HL1213489  -3.286  28.084 -11.744
  171XTA   HL1313490  -3.192  27.943 -11.999
  171XTA   HL1413491  -3.282  28.102 -11.996
  171XTA   HL1513492  -3.411  27.830 -11.926
  171XTA   HL1613493  -3.488  27.987 -11.899
  171XTA   HL1713494  -3.566  27.790 -12.180
  171XTA   HL1813495  -3.615  27.822 -12.010
  171XTA   HL1913496  -3.705  28.054 -11.961
  171XTA   HL2013497  -3.785  28.132 -12.082
  171XTA   HL2113498  -3.603  28.285 -12.015
  171XTA   HL2213499  -3.558  28.219 -12.172
  171XTA   HL2313500  -3.493  28.163 -12.026
  171XTA   HL2413501  -3.445  28.743 -12.535
  171XTA   HL2513502  -3.369  28.767 -12.697
  171XTA    CO613503  -3.803  27.910 -12.191
  171XTA    CO713504  -3.624  28.024 -12.307
  171XTA    OA513505  -3.796  27.811 -12.230
  171XTA   HL2613506  -3.859  27.980 -12.252
  171XTA   HL2713507  -3.861  27.911 -12.102
  171XTA   HL2813508  -3.505  28.089 -12.298
  171XTA   HL2913509  -3.596  27.936 -12.362
  172XTA     NT13510  -7.725  27.063  -7.937
  172XTA    CN113511  -7.772  27.056  -8.061
  172XTA     C113512  -7.908  27.038  -8.086
  172XTA     C213513  -7.958  27.023  -8.218
  172XTA     C313514  -7.875  27.008  -8.329
  172XTA     C413515  -7.736  27.024  -8.306
  172XTA     C513516  -7.685  27.045  -8.174
  172XTA    CN213517  -7.697  27.185  -7.885
  172XTA     C613518  -7.773  27.255  -7.796
  172XTA     C713519  -7.732  27.382  -7.750
  172XTA     C813520  -7.614  27.442  -7.799
  172XTA     C913521  -7.535  27.365  -7.883
  172XTA    C1013522  -7.572  27.235  -7.922
  172XTA    CN313523  -7.725  26.949  -7.863
  172XTA    C1113524  -7.823  26.845  -7.876
  172XTA    C1213525  -7.833  26.746  -7.776
  172XTA    C1313526  -7.733  26.728  -7.680
  172XTA    C1413527  -7.622  26.816  -7.688
  172XTA    C1513528  -7.619  26.926  -7.774
  172XTA     H113529  -7.976  27.045  -8.002
  172XTA     H213530  -8.064  27.001  -8.234
  172XTA     H313531  -7.662  27.024  -8.385
  172XTA     H413532  -7.578  27.033  -8.170
  172XTA     H513533  -7.865  27.216  -7.766
  172XTA     H613534  -7.784  27.439  -7.679
  172XTA     H713535  -7.434  27.406  -7.913
  172XTA     H813536  -7.507  27.165  -7.976
  172XTA     H913537  -7.885  26.835  -7.965
  172XTA    H1013538  -7.917  26.680  -7.777
  172XTA    H1113539  -7.537  26.813  -7.624
  172XTA    H1213540  -7.537  27.003  -7.778
  172XTA    OA113541  -7.933  26.974  -8.448
  172XTA    CO113542  -7.850  26.912  -8.544
  172XTA    OA213543  -7.574  27.563  -7.751
  172XTA    CO213544  -7.473  27.624  -7.822
  172XTA    CL113545  -7.453  27.769  -7.779
  172XTA    CL213546  -7.357  27.852  -7.865
  172XTA    CL313547  -7.308  27.991  -7.802
  172XTA    CL413548  -7.232  28.080  -7.904
  172XTA    CO313549  -7.275  28.092  -8.051
  172XTA    OA313550  -7.408  28.140  -8.036
  172XTA    CO413551  -7.493  28.102  -8.146
  172XTA    CT113552  -7.637  28.131  -8.089
  172XTA    CL513553  -7.751  28.116  -8.195
  172XTA    CL613554  -7.759  27.982  -8.266
  172XTA    OA413555  -7.736  26.628  -7.590
  172XTA    CO513556  -7.668  26.646  -7.462
  172XTA    HL113557  -7.562  26.649  -7.480
  172XTA    HL213558  -7.772  26.972  -8.579
  172XTA    HL313559  -7.808  26.817  -8.501
  172XTA    HL413560  -7.915  26.892  -8.628
  172XTA    HL513561  -7.374  27.572  -7.801
  172XTA    HL613562  -7.505  27.630  -7.929
  172XTA    HL713563  -7.419  27.769  -7.673
  172XTA    HL813564  -7.546  27.823  -7.793
  172XTA    HL913565  -7.403  27.859  -7.958
  172XTA   HL1013566  -7.273  27.792  -7.894
  172XTA   HL1113567  -7.389  28.051  -7.777
  172XTA   HL1213568  -7.247  27.965  -7.713
  172XTA   HL1313569  -7.130  28.039  -7.907
  172XTA   HL1413570  -7.229  28.183  -7.869
  172XTA   HL1513571  -7.201  28.153  -8.111
  172XTA   HL1613572  -7.283  27.994  -8.100
  172XTA   HL1713573  -7.468  28.165  -8.235
  172XTA   HL1813574  -7.483  28.002  -8.180
  172XTA   HL1913575  -7.725  28.194  -8.264
  172XTA   HL2013576  -7.844  28.148  -8.153
  172XTA   HL2113577  -7.862  27.956  -8.291
  172XTA   HL2213578  -7.710  27.905  -8.204
  172XTA   HL2313579  -7.704  27.984  -8.357
  172XTA   HL2413580  -7.694  26.564  -7.397
  172XTA   HL2513581  -7.689  26.743  -7.411
  172XTA    CO613582  -7.633  28.276  -8.032
  172XTA    CO713583  -7.661  28.044  -7.961
  172XTA    OA513584  -7.593  28.369  -8.134
  172XTA   HL2613585  -7.567  28.288  -7.946
  172XTA   HL2713586  -7.730  28.306  -7.994
  172XTA   HL2813587  -7.704  27.948  -7.998
  172XTA   HL2913588  -7.566  28.017  -7.902
  173XTA     NT13589  -9.138  27.735  -8.618
  173XTA    CN113590  -9.092  27.710  -8.743
  173XTA     C113591  -9.174  27.699  -8.855
  173XTA     C213592  -9.123  27.663  -8.980
  173XTA     C313593  -8.987  27.628  -8.999
  173XTA     C413594  -8.910  27.629  -8.881
  173XTA     C513595  -8.958  27.675  -8.758
  173XTA    CN213596  -9.075  27.835  -8.555
  173XTA     C613597  -9.124  27.966  -8.571
  173XTA     C713598  -9.053  28.080  -8.512
  173XTA     C813599  -8.933  28.053  -8.439
  173XTA     C913600  -8.882  27.924  -8.430
  173XTA    C1013601  -8.957  27.808  -8.475
  173XTA    CN313602  -9.178  27.635  -8.534
  173XTA    C1113603  -9.099  27.519  -8.511
  173XTA    C1213604  -9.159  27.411  -8.441
  173XTA    C1313605  -9.291  27.420  -8.383
  173XTA    C1413606  -9.361  27.540  -8.393
  173XTA    C1513607  -9.304  27.645  -8.474
  173XTA     H113608  -9.283  27.713  -8.848
  173XTA     H213609  -9.192  27.664  -9.063
  173XTA     H313610  -8.805  27.603  -8.886
  173XTA     H413611  -8.886  27.671  -8.683
  173XTA     H513612  -9.225  27.977  -8.613
  173XTA     H613613  -9.086  28.184  -8.520
  173XTA     H713614  -8.780  27.908  -8.382
  173XTA     H813615  -8.915  27.712  -8.462
  173XTA     H913616  -9.001  27.519  -8.561
  173XTA    H1013617  -9.102  27.322  -8.441
  173XTA    H1113618  -9.449  27.555  -8.339
  173XTA    H1213619  -9.376  27.735  -8.472
  173XTA    OA113620  -8.950  27.586  -9.122
  173XTA    CO113621  -8.829  27.519  -9.131
  173XTA    OA213622  -8.867  28.163  -8.385
  173XTA    CO213623  -8.935  28.225  -8.269
  173XTA    CL113624  -8.839  28.315  -8.201
  173XTA    CL213625  -8.708  28.244  -8.180
  173XTA    CL313626  -8.610  28.306  -8.069
  173XTA    CL413627  -8.478  28.238  -8.075
  173XTA    CO313628  -8.486  28.089  -8.045
  173XTA    OA313629  -8.353  28.051  -8.008
  173XTA    CO413630  -8.337  27.920  -7.957
  173XTA    CT113631  -8.188  27.886  -7.918
  173XTA    CL513632  -8.094  27.933  -8.032
  173XTA    CL613633  -8.124  27.882  -8.174
  173XTA    OA413634  -9.355  27.322  -8.317
  173XTA    CO513635  -9.271  27.208  -8.302
  173XTA    HL113636  -9.178  27.236  -8.248
  173XTA    HL213637  -8.741  27.568  -9.086
  173XTA    HL313638  -8.840  27.427  -9.081
  173XTA    HL413639  -8.815  27.477  -9.229
  173XTA    HL513640  -9.028  28.270  -8.311
  173XTA    HL613641  -8.952  28.140  -8.199
  173XTA    HL713642  -8.878  28.341  -8.100
  173XTA    HL813643  -8.823  28.411  -8.256
  173XTA    HL913644  -8.651  28.224  -8.273
  173XTA   HL1013645  -8.730  28.147  -8.138
  173XTA   HL1113646  -8.603  28.418  -8.077
  173XTA   HL1213647  -8.654  28.297  -7.976
  173XTA   HL1313648  -8.415  28.288  -8.003
  173XTA   HL1413649  -8.436  28.265  -8.179
  173XTA   HL1513650  -8.542  28.072  -7.955
  173XTA   HL1613651  -8.521  28.027  -8.128
  173XTA   HL1713652  -8.403  27.924  -7.869
  173XTA   HL1813653  -8.377  27.851  -8.036
  173XTA   HL1913654  -7.991  27.908  -8.007
  173XTA   HL2013655  -8.085  28.044  -8.029
  173XTA   HL2113656  -8.227  27.891  -8.211
  173XTA   HL2213657  -8.089  27.777  -8.184
  173XTA   HL2313658  -8.068  27.939  -8.244
  173XTA   HL2413659  -9.247  27.154  -8.401
  173XTA   HL2513660  -9.325  27.131  -8.237
  173XTA    CO613661  -8.159  27.735  -7.890
  173XTA    CO713662  -8.155  27.971  -7.788
  173XTA    OA513663  -8.043  27.979  -7.769
  173XTA   HL2613664  -8.179  27.674  -7.984
  173XTA   HL2713665  -8.026  27.716  -7.863
  173XTA   HL2813666  -8.189  27.920  -7.703
  173XTA   HL2913667  -8.206  28.070  -7.786
  174XTA     NT13668  -3.170  31.518 -10.763
  174XTA    CN113669  -3.151  31.385 -10.758
  174XTA     C113670  -3.066  31.329 -10.661
  174XTA     C213671  -3.045  31.189 -10.657
  174XTA     C313672  -3.107  31.104 -10.748
  174XTA     C413673  -3.189  31.160 -10.849
  174XTA     C513674  -3.211  31.302 -10.854
  174XTA    CN213675  -3.252  31.562 -10.667
  174XTA     C613676  -3.204  31.672 -10.592
  174XTA     C713677  -3.285  31.725 -10.490
  174XTA     C813678  -3.420  31.684 -10.473
  174XTA     C913679  -3.466  31.577 -10.552
  174XTA    C1013680  -3.379  31.514 -10.648
  174XTA    CN313681  -3.149  31.580 -10.879
  174XTA    C1113682  -3.015  31.597 -10.926
  174XTA    C1213683  -2.992  31.661 -11.049
  174XTA    C1313684  -3.106  31.705 -11.127
  174XTA    C1413685  -3.239  31.680 -11.079
  174XTA    C1513686  -3.257  31.614 -10.956
  174XTA     H113687  -3.008  31.389 -10.594
  174XTA     H213688  -2.966  31.152 -10.590
  174XTA     H313689  -3.230  31.085 -10.926
  174XTA     H413690  -3.268  31.352 -10.931
  174XTA     H513691  -3.108  31.708 -10.615
  174XTA     H613692  -3.252  31.815 -10.439
  174XTA     H713693  -3.570  31.535 -10.544
  174XTA     H813694  -3.420  31.431 -10.707
  174XTA     H913695  -2.934  31.558 -10.864
  174XTA    H1013696  -2.890  31.670 -11.083
  174XTA    H1113697  -3.321  31.721 -11.132
  174XTA    H1213698  -3.356  31.591 -10.918
  174XTA    OA113699  -3.090  30.971 -10.765
  174XTA    CO113700  -2.989  30.909 -10.686
  174XTA    OA213701  -3.494  31.760 -10.386
  174XTA    CO213702  -3.619  31.711 -10.345
  174XTA    CL113703  -3.680  31.806 -10.241
  174XTA    CL213704  -3.816  31.748 -10.196
  174XTA    CL313705  -3.890  31.844 -10.100
  174XTA    CL413706  -4.021  31.791 -10.038
  174XTA    CO313707  -4.080  31.908  -9.956
  174XTA    OA313708  -4.224  31.897  -9.954
  174XTA    CO413709  -4.288  32.014  -9.904
  174XTA    CT113710  -4.422  32.026  -9.977
  174XTA    CL513711  -4.481  32.167  -9.954
  174XTA    CL613712  -4.461  32.223  -9.801
  174XTA    OA413713  -3.098  31.766 -11.251
  174XTA    CO513714  -2.972  31.754 -11.315
  174XTA    HL113715  -2.896  31.781 -11.249
  174XTA    HL213716  -2.891  30.962 -10.685
  174XTA    HL313717  -3.020  30.891 -10.584
  174XTA    HL413718  -2.965  30.806 -10.720
  174XTA    HL513719  -3.678  31.694 -10.440
  174XTA    HL613720  -3.606  31.611 -10.294
  174XTA    HL713721  -3.691  31.903 -10.285
  174XTA    HL813722  -3.615  31.814 -10.160
  174XTA    HL913723  -3.809  31.655 -10.140
  174XTA   HL1013724  -3.886  31.723 -10.276
  174XTA   HL1113725  -3.826  31.870 -10.017
  174XTA   HL1213726  -3.916  31.933 -10.154
  174XTA   HL1313727  -4.005  31.701  -9.982
  174XTA   HL1413728  -4.092  31.778 -10.128
  174XTA   HL1513729  -4.043  31.916  -9.852
  174XTA   HL1613730  -4.057  32.004 -10.003
  174XTA   HL1713731  -4.302  32.015  -9.797
  174XTA   HL1813732  -4.224  32.099  -9.923
  174XTA   HL1913733  -4.584  32.176  -9.980
  174XTA   HL2013734  -4.448  32.237 -10.030
  174XTA   HL2113735  -4.513  32.164  -9.735
  174XTA   HL2213736  -4.511  32.321  -9.798
  174XTA   HL2313737  -4.354  32.233  -9.780
  174XTA   HL2413738  -2.971  31.830 -11.388
  174XTA   HL2513739  -2.954  31.657 -11.361
  174XTA    CO613740  -4.513  31.914  -9.917
  174XTA    CO713741  -4.395  32.012 -10.125
  174XTA    OA513742  -4.615  31.927  -9.957
  174XTA   HL2613743  -4.514  31.930  -9.809
  174XTA   HL2713744  -4.474  31.822  -9.941
  174XTA   HL2813745  -4.347  31.882 -10.156
  174XTA   HL2913746  -4.498  32.020 -10.164
  175XTA     NT13747  -8.608  27.843  -6.370
  175XTA    CN113748  -8.679  27.734  -6.330
  175XTA     C113749  -8.631  27.660  -6.224
  175XTA     C213750  -8.707  27.560  -6.164
  175XTA     C313751  -8.829  27.522  -6.220
  175XTA     C413752  -8.874  27.590  -6.330
  175XTA     C513753  -8.802  27.693  -6.387
  175XTA    CN213754  -8.615  27.891  -6.495
  175XTA     C613755  -8.506  27.874  -6.577
  175XTA     C713756  -8.510  27.929  -6.707
  175XTA     C813757  -8.626  27.993  -6.758
  175XTA     C913758  -8.731  28.010  -6.669
  175XTA    C1013759  -8.728  27.962  -6.540
  175XTA    CN313760  -8.602  27.947  -6.280
  175XTA    C1113761  -8.471  27.999  -6.244
  175XTA    C1213762  -8.467  28.104  -6.149
  175XTA    C1313763  -8.587  28.161  -6.102
  175XTA    C1413764  -8.711  28.113  -6.147
  175XTA    C1513765  -8.723  27.999  -6.229
  175XTA     H113766  -8.546  27.696  -6.177
  175XTA     H213767  -8.671  27.509  -6.078
  175XTA     H313768  -8.967  27.570  -6.378
  175XTA     H413769  -8.850  27.746  -6.464
  175XTA     H513770  -8.419  27.827  -6.541
  175XTA     H613771  -8.421  27.925  -6.765
  175XTA     H713772  -8.824  28.060  -6.696
  175XTA     H813773  -8.803  27.998  -6.472
  175XTA     H913774  -8.376  27.947  -6.280
  175XTA    H1013775  -8.364  28.138  -6.123
  175XTA    H1113776  -8.795  28.173  -6.111
  175XTA    H1213777  -8.820  27.964  -6.263
  175XTA    OA113778  -8.895  27.412  -6.167
  175XTA    CO113779  -8.992  27.352  -6.245
  175XTA    OA213780  -8.645  28.049  -6.879
  175XTA    CO213781  -8.535  28.059  -6.973
  175XTA    CL113782  -8.500  27.932  -7.039
  175XTA    CL213783  -8.619  27.868  -7.108
  175XTA    CL313784  -8.592  27.724  -7.166
  175XTA    CL413785  -8.558  27.630  -7.051
  175XTA    CO313786  -8.503  27.499  -7.093
  175XTA    OA313787  -8.602  27.452  -7.185
  175XTA    CO413788  -8.549  27.349  -7.269
  175XTA    CT113789  -8.623  27.345  -7.395
  175XTA    CL513790  -8.777  27.359  -7.378
  175XTA    CL613791  -8.849  27.366  -7.507
  175XTA    OA413792  -8.561  28.263  -6.017
  175XTA    CO513793  -8.652  28.375  -6.039
  175XTA    HL113794  -8.619  28.476  -6.013
  175XTA    HL213795  -8.961  27.345  -6.353
  175XTA    HL313796  -9.025  27.254  -6.210
  175XTA    HL413797  -9.077  27.415  -6.241
  175XTA    HL513798  -8.584  28.126  -7.041
  175XTA    HL613799  -8.439  28.101  -6.933
  175XTA    HL713800  -8.457  27.870  -6.955
  175XTA    HL813801  -8.412  27.943  -7.100
  175XTA    HL913802  -8.650  27.925  -7.187
  175XTA   HL1013803  -8.701  27.857  -7.037
  175XTA   HL1113804  -8.676  27.684  -7.222
  175XTA   HL1213805  -8.506  27.732  -7.240
  175XTA   HL1313806  -8.646  27.604  -6.993
  175XTA   HL1413807  -8.488  27.671  -6.979
  175XTA   HL1513808  -8.401  27.519  -7.141
  175XTA   HL1613809  -8.483  27.424  -7.020
  175XTA   HL1713810  -8.443  27.350  -7.288
  175XTA   HL1813811  -8.570  27.260  -7.213
  175XTA   HL1913812  -8.800  27.454  -7.329
  175XTA   HL2013813  -8.805  27.287  -7.312
  175XTA   HL2113814  -8.835  27.285  -7.579
  175XTA   HL2213815  -8.834  27.467  -7.543
  175XTA   HL2313816  -8.958  27.368  -7.497
  175XTA   HL2413817  -8.753  28.356  -5.992
  175XTA   HL2513818  -8.688  28.383  -6.145
  175XTA    CO613819  -8.586  27.217  -7.469
  175XTA    CO713820  -8.571  27.456  -7.489
  175XTA    OA513821  -8.432  27.449  -7.516
  175XTA   HL2613822  -8.482  27.189  -7.455
  175XTA   HL2713823  -8.645  27.136  -7.424
  175XTA   HL2813824  -8.601  27.555  -7.461
  175XTA   HL2913825  -8.624  27.448  -7.582
  176XTA     NT13826  -3.922  28.218  -6.331
  176XTA    CN113827  -3.821  28.263  -6.252
  176XTA     C113828  -3.702  28.197  -6.264
  176XTA     C213829  -3.601  28.220  -6.170
  176XTA     C313830  -3.608  28.328  -6.077
  176XTA     C413831  -3.728  28.408  -6.080
  176XTA     C513832  -3.835  28.368  -6.161
  176XTA    CN213833  -3.977  28.100  -6.299
  176XTA     C613834  -4.004  28.014  -6.406
  176XTA     C713835  -4.056  27.892  -6.375
  176XTA     C813836  -4.093  27.853  -6.242
  176XTA     C913837  -4.059  27.945  -6.136
  176XTA    C1013838  -4.001  28.070  -6.164
  176XTA    CN313839  -3.992  28.308  -6.410
  176XTA    C1113840  -3.920  28.376  -6.514
  176XTA    C1213841  -3.992  28.461  -6.602
  176XTA    C1313842  -4.128  28.492  -6.574
  176XTA    C1413843  -4.187  28.433  -6.460
  176XTA    C1513844  -4.124  28.336  -6.382
  176XTA     H113845  -3.679  28.117  -6.340
  176XTA     H213846  -3.512  28.161  -6.179
  176XTA     H313847  -3.744  28.474  -6.001
  176XTA     H413848  -3.926  28.416  -6.143
  176XTA     H513849  -3.995  28.046  -6.506
  176XTA     H613850  -4.087  27.828  -6.451
  176XTA     H713851  -4.096  27.918  -6.034
  176XTA     H813852  -3.974  28.134  -6.074
  176XTA     H913853  -3.809  28.365  -6.525
  176XTA    H1013854  -3.940  28.508  -6.687
  176XTA    H1113855  -4.288  28.472  -6.430
  176XTA    H1213856  -4.161  28.292  -6.293
  176XTA    OA113857  -3.496  28.348  -5.991
  176XTA    CO113858  -3.469  28.490  -5.963
  176XTA    OA213859  -4.160  27.738  -6.217
  176XTA    CO213860  -4.191  27.650  -6.323
  176XTA    CL113861  -4.266  27.527  -6.276
  176XTA    CL213862  -4.399  27.563  -6.201
  176XTA    CL313863  -4.495  27.647  -6.286
  176XTA    CL413864  -4.486  27.799  -6.256
  176XTA    CO313865  -4.536  27.834  -6.120
  176XTA    OA313866  -4.603  27.957  -6.129
  176XTA    CO413867  -4.616  28.026  -6.008
  176XTA    CT113868  -4.763  28.071  -5.966
  176XTA    CL513869  -4.771  28.140  -5.824
  176XTA    CL613870  -4.678  28.261  -5.800
  176XTA    OA413871  -4.197  28.582  -6.657
  176XTA    CO513872  -4.311  28.645  -6.607
  176XTA    HL113873  -4.349  28.721  -6.683
  176XTA    HL213874  -3.476  28.547  -6.060
  176XTA    HL313875  -3.538  28.518  -5.880
  176XTA    HL413876  -3.372  28.504  -5.922
  176XTA    HL513877  -4.255  27.695  -6.395
  176XTA    HL613878  -4.097  27.606  -6.367
  176XTA    HL713879  -4.202  27.469  -6.207
  176XTA    HL813880  -4.295  27.472  -6.356
  176XTA    HL913881  -4.370  27.620  -6.116
  176XTA   HL1013882  -4.454  27.476  -6.167
  176XTA   HL1113883  -4.477  27.635  -6.387
  176XTA   HL1213884  -4.600  27.620  -6.276
  176XTA   HL1313885  -4.552  27.848  -6.324
  176XTA   HL1413886  -4.389  27.848  -6.279
  176XTA   HL1513887  -4.606  27.761  -6.081
  176XTA   HL1613888  -4.450  27.835  -6.056
  176XTA   HL1713889  -4.574  27.977  -5.920
  176XTA   HL1813890  -4.563  28.121  -6.013
  176XTA   HL1913891  -4.768  28.063  -5.751
  176XTA   HL2013892  -4.874  28.176  -5.817
  176XTA   HL2113893  -4.701  28.285  -5.702
  176XTA   HL2213894  -4.697  28.349  -5.857
  176XTA   HL2313895  -4.572  28.237  -5.812
  176XTA   HL2413896  -4.295  28.694  -6.509
  176XTA   HL2513897  -4.386  28.569  -6.591
  176XTA    CO613898  -4.846  27.936  -5.965
  176XTA    CO713899  -4.814  28.164  -6.079
  176XTA    OA513900  -4.939  28.229  -6.044
  176XTA   HL2613901  -4.952  27.945  -5.927
  176XTA   HL2713902  -4.851  27.899  -6.066
  176XTA   HL2813903  -4.823  28.117  -6.165
  176XTA   HL2913904  -4.742  28.242  -6.101
  177XTA     NT13905  -9.640  27.011  -8.002
  177XTA    CN113906  -9.664  27.084  -8.118
  177XTA     C113907  -9.652  27.222  -8.131
  177XTA     C213908  -9.645  27.290  -8.252
  177XTA     C313909  -9.687  27.216  -8.369
  177XTA     C413910  -9.705  27.078  -8.357
  177XTA     C513911  -9.681  27.009  -8.236
  177XTA    CN213912  -9.523  27.041  -7.939
  177XTA     C613913  -9.403  27.013  -8.006
  177XTA     C713914  -9.279  27.038  -7.941
  177XTA     C813915  -9.280  27.093  -7.811
  177XTA     C913916  -9.402  27.121  -7.745
  177XTA    C1013917  -9.518  27.092  -7.808
  177XTA    CN313918  -9.729  26.920  -7.951
  177XTA    C1113919  -9.694  26.782  -7.929
  177XTA    C1213920  -9.792  26.701  -7.877
  177XTA    C1313921  -9.912  26.752  -7.814
  177XTA    C1413922  -9.934  26.887  -7.826
  177XTA    C1513923  -9.848  26.969  -7.896
  177XTA     H113924  -9.631  27.281  -8.042
  177XTA     H213925  -9.627  27.393  -8.256
  177XTA     H313926  -9.743  27.021  -8.439
  177XTA     H413927  -9.684  26.901  -8.237
  177XTA     H513928  -9.403  26.970  -8.111
  177XTA     H613929  -9.189  27.016  -7.985
  177XTA     H713930  -9.403  27.159  -7.641
  177XTA     H813931  -9.614  27.113  -7.746
  177XTA     H913932  -9.601  26.731  -7.966
  177XTA    H1013933  -9.773  26.599  -7.885
  177XTA    H1113934 -10.031  26.924  -7.785
  177XTA    H1213935  -9.874  27.074  -7.926
  177XTA    OA113936  -9.710  27.271  -8.497
  177XTA    CO113937  -9.626  27.371  -8.549
  177XTA    OA213938  -9.156  27.117  -7.746
  177XTA    CO213939  -9.074  27.206  -7.813
  177XTA    CL113940  -9.134  27.349  -7.788
  177XTA    CL213941  -9.072  27.464  -7.869
  177XTA    CL313942  -9.120  27.465  -8.012
  177XTA    CL413943  -9.080  27.589  -8.087
  177XTA    CO313944  -8.936  27.587  -8.144
  177XTA    OA313945  -8.933  27.477  -8.233
  177XTA    CO413946  -8.809  27.436  -8.273
  177XTA    CT113947  -8.779  27.297  -8.212
  177XTA    CL513948  -8.887  27.189  -8.246
  177XTA    CL613949  -8.876  27.053  -8.183
  177XTA    OA413950  -9.996  26.675  -7.737
  177XTA    CO513951  -9.977  26.538  -7.746
  177XTA    HL113952  -9.870  26.516  -7.712
  177XTA    HL213953  -9.518  27.349  -8.531
  177XTA    HL313954  -9.634  27.378  -8.658
  177XTA    HL413955  -9.666  27.464  -8.510
  177XTA    HL513956  -8.983  27.209  -7.767
  177XTA    HL613957  -9.048  27.195  -7.921
  177XTA    HL713958  -9.125  27.368  -7.679
  177XTA    HL813959  -9.245  27.342  -7.805
  177XTA    HL913960  -8.969  27.457  -7.874
  177XTA   HL1013961  -9.086  27.566  -7.828
  177XTA   HL1113962  -9.090  27.373  -8.062
  177XTA   HL1213963  -9.225  27.468  -8.001
  177XTA   HL1313964  -9.095  27.669  -8.018
  177XTA   HL1413965  -9.158  27.598  -8.164
  177XTA   HL1513966  -8.913  27.679  -8.199
  177XTA   HL1613967  -8.859  27.577  -8.066
  177XTA   HL1713968  -8.818  27.417  -8.376
  177XTA   HL1813969  -8.732  27.515  -8.260
  177XTA   HL1913970  -8.874  27.176  -8.358
  177XTA   HL2013971  -8.984  27.226  -8.233
  177XTA   HL2113972  -8.873  27.065  -8.078
  177XTA   HL2213973  -8.779  27.016  -8.215
  177XTA   HL2313974  -8.958  26.986  -8.229
  177XTA   HL2413975  -9.980  26.509  -7.854
  177XTA   HL2513976 -10.059  26.491  -7.691
  177XTA    CO613977  -8.749  27.312  -8.063
  177XTA    CO713978  -8.643  27.259  -8.288
  177XTA    OA513979  -8.699  27.220  -8.018
  177XTA   HL2613980  -8.838  27.337  -8.011
  177XTA   HL2713981  -8.689  27.410  -8.061
  177XTA   HL2813982  -8.658  27.294  -8.429
  177XTA   HL2913983  -8.567  27.328  -8.257
  178XTA     NT13984  -9.073  28.608  -6.819
  178XTA    CN113985  -9.065  28.497  -6.890
  178XTA     C113986  -9.136  28.473  -7.008
  178XTA     C213987  -9.126  28.350  -7.071
  178XTA     C313988  -9.024  28.261  -7.041
  178XTA     C413989  -8.937  28.294  -6.935
  178XTA     C513990  -8.963  28.407  -6.860
  178XTA    CN213991  -8.976  28.704  -6.818
  178XTA     C613992  -8.920  28.765  -6.702
  178XTA     C713993  -8.813  28.864  -6.712
  178XTA     C813994  -8.771  28.906  -6.835
  178XTA     C913995  -8.837  28.856  -6.953
  178XTA    C1013996  -8.933  28.754  -6.940
  178XTA    CN313997  -9.198  28.653  -6.789
  178XTA    C1113998  -9.265  28.604  -6.671
  178XTA    C1213999  -9.394  28.640  -6.636
  178XTA    C1314000  -9.457  28.738  -6.709
  178XTA    C1414001  -9.396  28.791  -6.826
  178XTA    C1514002  -9.264  28.750  -6.865
  178XTA     H114003  -9.209  28.545  -7.052
  178XTA     H214004  -9.184  28.312  -7.153
  178XTA     H314005  -8.856  28.227  -6.906
  178XTA     H414006  -8.899  28.427  -6.774
  178XTA     H514007  -8.955  28.728  -6.604
  178XTA     H614008  -8.752  28.889  -6.623
  178XTA     H714009  -8.815  28.900  -7.050
  178XTA     H814010  -8.986  28.727  -7.034
  178XTA     H914011  -9.216  28.531  -6.611
  178XTA    H1014012  -9.453  28.608  -6.549
  178XTA    H1114013  -9.450  28.863  -6.883
  178XTA    H1214014  -9.224  28.781  -6.961
  178XTA    OA114015  -9.006  28.156  -7.126
  178XTA    CO114016  -8.873  28.096  -7.125
  178XTA    OA214017  -8.671  28.995  -6.852
  178XTA    CO214018  -8.638  29.086  -6.747
  178XTA    CL114019  -8.542  29.202  -6.772
  178XTA    CL214020  -8.585  29.307  -6.868
  178XTA    CL314021  -8.695  29.401  -6.822
  178XTA    CL414022  -8.746  29.479  -6.944
  178XTA    CO314023  -8.828  29.393  -7.037
  178XTA    OA314024  -8.923  29.340  -6.950
  178XTA    CO414025  -9.013  29.268  -7.024
  178XTA    CT114026  -9.131  29.216  -6.933
  178XTA    CL514027  -9.228  29.138  -7.021
  178XTA    CL614028  -9.166  29.026  -7.105
  178XTA    OA414029  -9.590  28.770  -6.686
  178XTA    CO514030  -9.624  28.904  -6.703
  178XTA    HL114031  -9.730  28.911  -6.672
  178XTA    HL214032  -8.804  28.181  -7.131
  178XTA    HL314033  -8.866  28.048  -7.031
  178XTA    HL414034  -8.865  28.029  -7.207
  178XTA    HL514035  -8.739  29.135  -6.724
  178XTA    HL614036  -8.615  29.021  -6.668
  178XTA    HL714037  -8.449  29.169  -6.809
  178XTA    HL814038  -8.510  29.241  -6.686
  178XTA    HL914039  -8.608  29.258  -6.961
  178XTA   HL1014040  -8.496  29.364  -6.898
  178XTA   HL1114041  -8.778  29.368  -6.751
  178XTA   HL1214042  -8.655  29.478  -6.765
  178XTA   HL1314043  -8.676  29.527  -7.011
  178XTA   HL1414044  -8.819  29.553  -6.913
  178XTA   HL1514045  -8.865  29.456  -7.121
  178XTA   HL1614046  -8.779  29.306  -7.081
  178XTA   HL1714047  -9.049  29.337  -7.106
  178XTA   HL1814048  -8.963  29.190  -7.076
  178XTA   HL1914049  -9.278  29.206  -7.088
  178XTA   HL2014050  -9.295  29.100  -6.943
  178XTA   HL2114051  -9.097  29.066  -7.182
  178XTA   HL2214052  -9.234  28.959  -7.147
  178XTA   HL2314053  -9.115  28.955  -7.044
  178XTA   HL2414054  -9.596  28.950  -6.799
  178XTA   HL2514055  -9.576  28.974  -6.634
  178XTA    CO614056  -9.203  29.337  -6.868
  178XTA    CO714057  -9.072  29.124  -6.827
  178XTA    OA514058  -9.257  29.434  -6.955
  178XTA   HL2614059  -9.120  29.387  -6.817
  178XTA   HL2714060  -9.272  29.313  -6.790
  178XTA   HL2814061  -9.021  29.034  -6.873
  178XTA   HL2914062  -9.003  29.183  -6.766
  179XTA     NT14063  -4.266  29.420  -9.029
  179XTA    CN114064  -4.233  29.510  -8.938
  179XTA     C114065  -4.324  29.538  -8.828
  179XTA     C214066  -4.288  29.638  -8.736
  179XTA     C314067  -4.168  29.710  -8.749
  179XTA     C414068  -4.076  29.682  -8.852
  179XTA     C514069  -4.106  29.579  -8.947
  179XTA    CN214070  -4.373  29.457  -9.103
  179XTA     C614071  -4.485  29.373  -9.113
  179XTA     C714072  -4.593  29.395  -9.199
  179XTA     C814073  -4.599  29.514  -9.265
  179XTA     C914074  -4.484  29.601  -9.262
  179XTA    C1014075  -4.373  29.571  -9.186
  179XTA    CN314076  -4.182  29.315  -9.049
  179XTA    C1114077  -4.192  29.215  -8.953
  179XTA    C1214078  -4.114  29.094  -8.967
  179XTA    C1314079  -4.020  29.081  -9.077
  179XTA    C1414080  -4.002  29.193  -9.159
  179XTA    C1514081  -4.092  29.302  -9.152
  179XTA     H114082  -4.412  29.479  -8.828
  179XTA     H214083  -4.365  29.647  -8.655
  179XTA     H314084  -3.982  29.733  -8.852
  179XTA     H414085  -4.032  29.534  -9.015
  179XTA     H514086  -4.478  29.277  -9.065
  179XTA     H614087  -4.674  29.333  -9.208
  179XTA     H714088  -4.486  29.687  -9.323
  179XTA     H814089  -4.288  29.630  -9.201
  179XTA     H914090  -4.256  29.231  -8.864
  179XTA    H1014091  -4.112  29.010  -8.895
  179XTA    H1114092  -3.925  29.194  -9.231
  179XTA    H1214093  -4.077  29.376  -9.228
  179XTA    OA114094  -4.151  29.804  -8.655
  179XTA    CO114095  -4.019  29.867  -8.646
  179XTA    OA214096  -4.697  29.547  -9.352
  179XTA    CO214097  -4.789  29.645  -9.308
  179XTA    CL114098  -4.897  29.673  -9.416
  179XTA    CL214099  -4.998  29.558  -9.442
  179XTA    CL314100  -4.935  29.419  -9.467
  179XTA    CL414101  -4.856  29.413  -9.601
  179XTA    CO314102  -4.743  29.308  -9.602
  179XTA    OA314103  -4.802  29.185  -9.551
  179XTA    CO414104  -4.902  29.130  -9.637
  179XTA    CT114105  -4.962  28.999  -9.600
  179XTA    CL514106  -4.851  28.897  -9.587
  179XTA    CL614107  -4.751  28.911  -9.462
  179XTA    OA414108  -3.948  28.968  -9.100
  179XTA    CO514109  -3.975  28.850  -9.032
  179XTA    HL114110  -4.072  28.802  -9.050
  179XTA    HL214111  -3.956  29.784  -8.614
  179XTA    HL314112  -3.967  29.912  -8.728
  179XTA    HL414113  -4.023  29.942  -8.569
  179XTA    HL514114  -4.828  29.627  -9.206
  179XTA    HL614115  -4.719  29.723  -9.293
  179XTA    HL714116  -4.855  29.705  -9.514
  179XTA    HL814117  -4.941  29.761  -9.377
  179XTA    HL914118  -5.055  29.589  -9.524
  179XTA   HL1014119  -5.067  29.564  -9.360
  179XTA   HL1114120  -4.882  29.392  -9.379
  179XTA   HL1214121  -5.017  29.344  -9.472
  179XTA   HL1314122  -4.829  29.515  -9.626
  179XTA   HL1414123  -4.939  29.404  -9.673
  179XTA   HL1514124  -4.691  29.302  -9.699
  179XTA   HL1614125  -4.664  29.339  -9.534
  179XTA   HL1714126  -4.984  29.196  -9.659
  179XTA   HL1814127  -4.845  29.117  -9.728
  179XTA   HL1914128  -4.804  28.884  -9.688
  179XTA   HL2014129  -4.897  28.800  -9.577
  179XTA   HL2114130  -4.700  29.005  -9.474
  179XTA   HL2214131  -4.666  28.840  -9.450
  179XTA   HL2314132  -4.806  28.906  -9.365
  179XTA   HL2414133  -3.965  28.849  -8.921
  179XTA   HL2514134  -3.892  28.779  -9.048
  179XTA    CO614135  -5.063  28.943  -9.695
  179XTA    CO714136  -5.030  29.005  -9.461
  179XTA    OA514137  -5.125  29.071  -9.465
  179XTA   HL2614138  -5.014  28.946  -9.792
  179XTA   HL2714139  -5.172  29.026  -9.679
  179XTA   HL2814140  -4.963  29.055  -9.393
  179XTA   HL2914141  -5.053  28.910  -9.431
  180XTA     NT14142  -5.813  29.486  -9.407
  180XTA    CN114143  -5.695  29.554  -9.424
  180XTA     C114144  -5.585  29.518  -9.338
  180XTA     C214145  -5.464  29.599  -9.351
  180XTA     C314146  -5.455  29.714  -9.435
  180XTA     C414147  -5.566  29.748  -9.523
  180XTA     C514148  -5.679  29.659  -9.520
  180XTA    CN214149  -5.806  29.367  -9.463
  180XTA     C614150  -5.795  29.253  -9.380
  180XTA     C714151  -5.799  29.125  -9.438
  180XTA     C814152  -5.803  29.111  -9.582
  180XTA     C914153  -5.806  29.222  -9.662
  180XTA    C1014154  -5.816  29.351  -9.605
  180XTA    CN314155  -5.915  29.524  -9.324
  180XTA    C1114156  -6.044  29.530  -9.373
  180XTA    C1214157  -6.150  29.571  -9.288
  180XTA    C1314158  -6.125  29.612  -9.151
  180XTA    C1414159  -5.994  29.611  -9.104
  180XTA    C1514160  -5.891  29.570  -9.188
  180XTA     H114161  -5.596  29.440  -9.269
  180XTA     H214162  -5.371  29.587  -9.292
  180XTA     H314163  -5.565  29.830  -9.594
  180XTA     H414164  -5.755  29.670  -9.593
  180XTA     H514165  -5.791  29.256  -9.270
  180XTA     H614166  -5.795  29.041  -9.371
  180XTA     H714167  -5.792  29.212  -9.771
  180XTA     H814168  -5.843  29.440  -9.670
  180XTA     H914169  -6.068  29.508  -9.480
  180XTA    H1014170  -6.253  29.568  -9.340
  180XTA    H1114171  -5.976  29.646  -9.003
  180XTA    H1214172  -5.791  29.570  -9.140
  180XTA    OA114173  -5.346  29.799  -9.426
  180XTA    CO114174  -5.273  29.797  -9.302
  180XTA    OA214175  -5.803  28.991  -9.645
  180XTA    CO214176  -5.819  28.876  -9.567
  180XTA    CL114177  -5.791  28.753  -9.660
  180XTA    CL214178  -5.856  28.629  -9.603
  180XTA    CL314179  -5.809  28.499  -9.669
  180XTA    CL414180  -5.664  28.479  -9.686
  180XTA    CO314181  -5.608  28.533  -9.815
  180XTA    OA314182  -5.460  28.544  -9.815
  180XTA    CO414183  -5.400  28.671  -9.791
  180XTA    CT114184  -5.269  28.655  -9.727
  180XTA    CL514185  -5.271  28.609  -9.577
  180XTA    CL614186  -5.137  28.591  -9.497
  180XTA    OA414187  -6.229  29.676  -9.092
  180XTA    CO514188  -6.198  29.730  -8.963
  180XTA    HL114189  -6.302  29.766  -8.940
  180XTA    HL214190  -5.207  29.709  -9.300
  180XTA    HL314191  -5.212  29.886  -9.299
  180XTA    HL414192  -5.345  29.791  -9.220
  180XTA    HL514193  -5.748  28.877  -9.490
  180XTA    HL614194  -5.908  28.868  -9.511
  180XTA    HL714195  -5.684  28.737  -9.666
  180XTA    HL814196  -5.827  28.776  -9.758
  180XTA    HL914197  -5.964  28.649  -9.591
  180XTA   HL1014198  -5.825  28.635  -9.501
  180XTA   HL1114199  -5.855  28.418  -9.619
  180XTA   HL1214200  -5.856  28.498  -9.767
  180XTA   HL1314201  -5.654  28.371  -9.669
  180XTA   HL1414202  -5.607  28.520  -9.600
  180XTA   HL1514203  -5.643  28.489  -9.907
  180XTA   HL1614204  -5.642  28.634  -9.824
  180XTA   HL1714205  -5.381  28.728  -9.881
  180XTA   HL1814206  -5.468  28.740  -9.733
  180XTA   HL1914207  -5.333  28.517  -9.586
  180XTA   HL2014208  -5.330  28.683  -9.529
  180XTA   HL2114209  -5.156  28.530  -9.415
  180XTA   HL2214210  -5.103  28.691  -9.466
  180XTA   HL2314211  -5.056  28.539  -9.546
  180XTA   HL2414212  -6.126  29.808  -8.969
  180XTA   HL2514213  -6.182  29.655  -8.893
  180XTA    CO614214  -5.208  28.798  -9.732
  180XTA    CO714215  -5.180  28.564  -9.823
  180XTA    OA514216  -5.106  28.814  -9.676
  180XTA   HL2614217  -5.282  28.854  -9.673
  180XTA   HL2714218  -5.206  28.834  -9.835
  180XTA   HL2814219  -5.179  28.618  -9.946
  180XTA   HL2914220  -5.222  28.460  -9.830
  181XTA     NT14221  -6.088  26.800  -4.576
  181XTA    CN114222  -6.008  26.894  -4.520
  181XTA     C114223  -5.882  26.936  -4.577
  181XTA     C214224  -5.803  27.026  -4.502
  181XTA     C314225  -5.855  27.090  -4.384
  181XTA     C414226  -5.981  27.052  -4.339
  181XTA     C514227  -6.057  26.952  -4.402
  181XTA    CN214228  -6.068  26.674  -4.537
  181XTA     C614229  -6.180  26.592  -4.501
  181XTA     C714230  -6.162  26.452  -4.477
  181XTA     C814231  -6.033  26.391  -4.487
  181XTA     C914232  -5.927  26.472  -4.528
  181XTA    C1014233  -5.944  26.608  -4.552
  181XTA    CN314234  -6.148  26.823  -4.698
  181XTA    C1114235  -6.085  26.808  -4.822
  181XTA    C1214236  -6.156  26.818  -4.945
  181XTA    C1314237  -6.295  26.839  -4.941
  181XTA    C1414238  -6.360  26.846  -4.816
  181XTA    C1514239  -6.285  26.848  -4.698
  181XTA     H114240  -5.851  26.884  -4.667
  181XTA     H214241  -5.689  27.037  -4.524
  181XTA     H314242  -6.015  27.110  -4.259
  181XTA     H414243  -6.147  26.908  -4.357
  181XTA     H514244  -6.276  26.634  -4.503
  181XTA     H614245  -6.241  26.384  -4.443
  181XTA     H714246  -5.832  26.431  -4.549
  181XTA     H814247  -5.862  26.668  -4.584
  181XTA     H914248  -5.979  26.782  -4.826
  181XTA    H1014249  -6.113  26.790  -5.043
  181XTA    H1114250  -6.473  26.850  -4.820
  181XTA    H1214251  -6.327  26.900  -4.612
  181XTA    OA114252  -5.787  27.190  -4.311
  181XTA    CO114253  -5.649  27.200  -4.344
  181XTA    OA214254  -6.033  26.262  -4.456
  181XTA    CO214255  -5.917  26.181  -4.487
  181XTA    CL114256  -5.912  26.113  -4.625
  181XTA    CL214257  -5.888  26.219  -4.737
  181XTA    CL314258  -5.911  26.164  -4.878
  181XTA    CL414259  -5.793  26.073  -4.918
  181XTA    CO314260  -5.836  25.963  -5.020
  181XTA    OA314261  -5.937  25.868  -4.974
  181XTA    CO414262  -5.893  25.775  -4.874
  181XTA    CT114263  -5.997  25.661  -4.844
  181XTA    CL514264  -6.127  25.730  -4.787
  181XTA    CL614265  -6.247  25.634  -4.766
  181XTA    OA414266  -6.374  26.841  -5.055
  181XTA    CO514267  -6.306  26.833  -5.180
  181XTA    HL114268  -6.392  26.847  -5.241
  181XTA    HL214269  -5.601  27.103  -4.312
  181XTA    HL314270  -5.628  27.235  -4.450
  181XTA    HL414271  -5.609  27.273  -4.281
  181XTA    HL514272  -5.831  26.239  -4.457
  181XTA    HL614273  -5.922  26.095  -4.420
  181XTA    HL714274  -6.009  26.064  -4.630
  181XTA    HL814275  -5.835  26.038  -4.638
  181XTA    HL914276  -5.786  26.254  -4.718
  181XTA   HL1014277  -5.957  26.305  -4.713
  181XTA   HL1114278  -6.006  26.107  -4.886
  181XTA   HL1214279  -5.923  26.249  -4.947
  181XTA   HL1314280  -5.748  26.032  -4.831
  181XTA   HL1414281  -5.711  26.140  -4.958
  181XTA   HL1514282  -5.865  26.003  -5.114
  181XTA   HL1614283  -5.747  25.905  -5.045
  181XTA   HL1714284  -5.798  25.726  -4.904
  181XTA   HL1814285  -5.860  25.840  -4.789
  181XTA   HL1914286  -6.158  25.805  -4.855
  181XTA   HL2014287  -6.102  25.787  -4.701
  181XTA   HL2114288  -6.227  25.576  -4.680
  181XTA   HL2214289  -6.279  25.580  -4.853
  181XTA   HL2314290  -6.324  25.694  -4.725
  181XTA   HL2414291  -6.254  26.742  -5.193
  181XTA   HL2514292  -6.237  26.926  -5.190
  181XTA    CO614293  -5.940  25.564  -4.739
  181XTA    CO714294  -6.036  25.585  -4.973
  181XTA    OA514295  -5.914  25.549  -5.042
  181XTA   HL2614296  -6.005  25.479  -4.724
  181XTA   HL2714297  -5.851  25.521  -4.771
  181XTA   HL2814298  -6.097  25.653  -5.035
  181XTA   HL2914299  -6.080  25.488  -4.946
  182XTA     NT14300  -4.318  28.853  -5.597
  182XTA    CN114301  -4.312  28.794  -5.477
  182XTA     C114302  -4.368  28.846  -5.358
  182XTA     C214303  -4.334  28.798  -5.230
  182XTA     C314304  -4.238  28.693  -5.223
  182XTA     C414305  -4.197  28.626  -5.340
  182XTA     C514306  -4.238  28.678  -5.468
  182XTA    CN214307  -4.443  28.885  -5.636
  182XTA     C614308  -4.493  29.012  -5.611
  182XTA     C714309  -4.627  29.052  -5.643
  182XTA     C814310  -4.711  28.957  -5.699
  182XTA     C914311  -4.659  28.829  -5.737
  182XTA    C1014312  -4.527  28.791  -5.699
  182XTA    CN314313  -4.213  28.928  -5.642
  182XTA    C1114314  -4.168  29.045  -5.573
  182XTA    C1214315  -4.051  29.110  -5.615
  182XTA    C1314316  -3.981  29.057  -5.726
  182XTA    C1414317  -4.036  28.948  -5.798
  182XTA    C1514318  -4.153  28.886  -5.764
  182XTA     H114319  -4.423  28.937  -5.359
  182XTA     H214320  -4.367  28.846  -5.137
  182XTA     H314321  -4.129  28.540  -5.334
  182XTA     H414322  -4.182  28.647  -5.558
  182XTA     H514323  -4.435  29.076  -5.551
  182XTA     H614324  -4.672  29.146  -5.617
  182XTA     H714325  -4.723  28.759  -5.794
  182XTA     H814326  -4.489  28.690  -5.721
  182XTA     H914327  -4.218  29.079  -5.492
  182XTA    H1014328  -4.021  29.199  -5.573
  182XTA    H1114329  -3.996  28.923  -5.892
  182XTA    H1214330  -4.200  28.802  -5.815
  182XTA    OA114331  -4.191  28.663  -5.098
  182XTA    CO114332  -4.082  28.568  -5.082
  182XTA    OA214333  -4.842  28.992  -5.727
  182XTA    CO214334  -4.927  28.884  -5.776
  182XTA    CL114335  -5.066  28.931  -5.759
  182XTA    CL214336  -5.161  28.820  -5.806
  182XTA    CL314337  -5.314  28.866  -5.799
  182XTA    CL414338  -5.416  28.755  -5.810
  182XTA    CO314339  -5.413  28.654  -5.689
  182XTA    OA314340  -5.522  28.560  -5.710
  182XTA    CO414341  -5.525  28.453  -5.618
  182XTA    CT114342  -5.632  28.355  -5.653
  182XTA    CL514343  -5.610  28.227  -5.569
  182XTA    CL614344  -5.638  28.263  -5.416
  182XTA    OA414345  -3.878  29.134  -5.775
  182XTA    CO514346  -3.817  29.088  -5.893
  182XTA    HL114347  -3.738  29.148  -5.932
  182XTA    HL214348  -4.108  28.466  -5.098
  182XTA    HL314349  -4.000  28.587  -5.150
  182XTA    HL414350  -4.044  28.589  -4.984
  182XTA    HL514351  -4.910  28.883  -5.886
  182XTA    HL614352  -4.914  28.792  -5.712
  182XTA    HL714353  -5.082  29.023  -5.815
  182XTA    HL814354  -5.081  28.942  -5.651
  182XTA    HL914355  -5.152  28.727  -5.744
  182XTA   HL1014356  -5.124  28.784  -5.902
  182XTA   HL1114357  -5.343  28.922  -5.709
  182XTA   HL1214358  -5.334  28.931  -5.885
  182XTA   HL1314359  -5.417  28.690  -5.896
  182XTA   HL1414360  -5.521  28.793  -5.807
  182XTA   HL1514361  -5.316  28.606  -5.681
  182XTA   HL1614362  -5.439  28.714  -5.596
  182XTA   HL1714363  -5.427  28.405  -5.623
  182XTA   HL1814364  -5.531  28.499  -5.521
  182XTA   HL1914365  -5.511  28.186  -5.571
  182XTA   HL2014366  -5.683  28.153  -5.590
  182XTA   HL2114367  -5.743  28.290  -5.413
  182XTA   HL2214368  -5.572  28.338  -5.381
  182XTA   HL2314369  -5.635  28.175  -5.363
  182XTA   HL2414370  -3.899  29.074  -5.967
  182XTA   HL2514371  -3.778  28.989  -5.877
  182XTA    CO614372  -5.628  28.304  -5.795
  182XTA    CO714373  -5.768  28.417  -5.633
  182XTA    OA514374  -5.861  28.321  -5.606
  182XTA   HL2614375  -5.627  28.390  -5.863
  182XTA   HL2714376  -5.729  28.260  -5.806
  182XTA   HL2814377  -5.792  28.490  -5.712
  182XTA   HL2914378  -5.760  28.463  -5.530
  183XTA     NT14379  -6.510  29.877  -7.182
  183XTA    CN114380  -6.636  29.875  -7.247
  183XTA     C114381  -6.732  29.786  -7.194
  183XTA     C214382  -6.854  29.773  -7.265
  183XTA     C314383  -6.878  29.836  -7.385
  183XTA     C414384  -6.776  29.920  -7.438
  183XTA     C514385  -6.656  29.937  -7.371
  183XTA    CN214386  -6.398  29.829  -7.239
  183XTA     C614387  -6.337  29.710  -7.197
  183XTA     C714388  -6.218  29.665  -7.258
  183XTA     C814389  -6.165  29.730  -7.371
  183XTA     C914390  -6.225  29.852  -7.411
  183XTA    C1014391  -6.342  29.898  -7.352
  183XTA    CN314392  -6.487  29.963  -7.078
  183XTA    C1114393  -6.497  29.911  -6.948
  183XTA    C1214394  -6.456  29.989  -6.838
  183XTA    C1314395  -6.411  30.122  -6.856
  183XTA    C1414396  -6.396  30.171  -6.987
  183XTA    C1514397  -6.435  30.096  -7.097
  183XTA     H114398  -6.722  29.719  -7.104
  183XTA     H214399  -6.938  29.722  -7.230
  183XTA     H314400  -6.792  29.969  -7.529
  183XTA     H414401  -6.575  29.996  -7.420
  183XTA     H514402  -6.378  29.660  -7.112
  183XTA     H614403  -6.168  29.570  -7.229
  183XTA     H714404  -6.176  29.906  -7.496
  183XTA     H814405  -6.374  29.998  -7.387
  183XTA     H914406  -6.530  29.808  -6.926
  183XTA    H1014407  -6.467  29.958  -6.740
  183XTA    H1114408  -6.360  30.271  -7.000
  183XTA    H1214409  -6.429  30.150  -7.190
  183XTA    OA114410  -7.004  29.824  -7.442
  183XTA    CO114411  -7.029  29.894  -7.564
  183XTA    OA214412  -6.056  29.692  -7.444
  183XTA    CO214413  -6.020  29.556  -7.444
  183XTA    CL114414  -5.925  29.530  -7.558
  183XTA    CL214415  -5.810  29.642  -7.567
  183XTA    CL314416  -5.718  29.629  -7.692
  183XTA    CL414417  -5.666  29.757  -7.752
  183XTA    CO314418  -5.572  29.737  -7.888
  183XTA    OA314419  -5.575  29.859  -7.970
  183XTA    CO414420  -5.460  29.932  -7.924
  183XTA    CT114421  -5.481  30.079  -7.954
  183XTA    CL514422  -5.594  30.154  -7.895
  183XTA    CL614423  -5.598  30.307  -7.896
  183XTA    OA414424  -6.368  30.181  -6.742
  183XTA    CO514425  -6.281  30.287  -6.753
  183XTA    HL114426  -6.316  30.369  -6.815
  183XTA    HL214427  -7.023  29.991  -7.536
  183XTA    HL314428  -6.964  29.872  -7.642
  183XTA    HL414429  -7.126  29.884  -7.609
  183XTA    HL514430  -5.954  29.540  -7.359
  183XTA    HL614431  -6.107  29.495  -7.418
  183XTA    HL714432  -5.981  29.533  -7.652
  183XTA    HL814433  -5.883  29.430  -7.559
  183XTA    HL914434  -5.751  29.641  -7.469
  183XTA   HL1014435  -5.855  29.745  -7.573
  183XTA   HL1114436  -5.634  29.561  -7.665
  183XTA   HL1214437  -5.789  29.580  -7.760
  183XTA   HL1314438  -5.606  29.817  -7.677
  183XTA   HL1414439  -5.737  29.828  -7.771
  183XTA   HL1514440  -5.470  29.703  -7.863
  183XTA   HL1614441  -5.611  29.652  -7.948
  183XTA   HL1714442  -5.461  29.918  -7.816
  183XTA   HL1814443  -5.361  29.896  -7.960
  183XTA   HL1914444  -5.583  30.124  -7.795
  183XTA   HL2014445  -5.688  30.116  -7.948
  183XTA   HL2114446  -5.694  30.335  -7.867
  183XTA   HL2214447  -5.589  30.339  -8.002
  183XTA   HL2314448  -5.512  30.344  -7.835
  183XTA   HL2414449  -6.189  30.251  -6.791
  183XTA   HL2514450  -6.266  30.331  -6.654
  183XTA    CO614451  -5.500  30.095  -8.107
  183XTA    CO714452  -5.352  30.156  -7.925
  183XTA    OA514453  -5.382  30.064  -8.173
  183XTA   HL2614454  -5.514  30.202  -8.138
  183XTA   HL2714455  -5.577  30.031  -8.148
  183XTA   HL2814456  -5.358  30.258  -7.965
  183XTA   HL2914457  -5.262  30.114  -7.964
  184XTH     NT14458  -6.877  25.805  -6.468
  184XTH    CN114459  -6.780  25.760  -6.547
  184XTH     C114460  -6.799  25.730  -6.685
  184XTH     C214461  -6.689  25.692  -6.768
  184XTH     C314462  -6.561  25.679  -6.713
  184XTH     C414463  -6.548  25.721  -6.580
  184XTH     C514464  -6.654  25.753  -6.490
  184XTH    CN214465  -7.002  25.754  -6.472
  184XTH     C614466  -7.102  25.809  -6.550
  184XTH     C714467  -7.231  25.757  -6.548
  184XTH     C814468  -7.257  25.635  -6.480
  184XTH     C914469  -7.154  25.582  -6.399
  184XTH    C1014470  -7.026  25.645  -6.387
  184XTH    CN314471  -6.855  25.913  -6.385
  184XTH    C1114472  -6.853  25.888  -6.242
  184XTH    C1214473  -6.825  25.989  -6.147
  184XTH    C1314474  -6.782  26.113  -6.200
  184XTH    C1414475  -6.775  26.133  -6.341
  184XTH    C1514476  -6.826  26.038  -6.429
  184XTH     H114477  -6.897  25.737  -6.731
  184XTH     H214478  -6.717  25.650  -6.868
  184XTH     H314479  -6.449  25.711  -6.540
  184XTH     H414480  -6.627  25.785  -6.389
  184XTH     H514481  -7.073  25.890  -6.618
  184XTH     H614482  -7.307  25.805  -6.602
  184XTH     H714483  -7.171  25.501  -6.337
  184XTH     H814484  -6.959  25.593  -6.320
  184XTH     H914485  -6.881  25.791  -6.208
  184XTH    H1014486  -6.821  25.962  -6.044
  184XTH    H1114487  -6.739  26.228  -6.388
  184XTH    H1214488  -6.846  26.060  -6.530
  184XTH    OA114489  -6.451  25.637  -6.781
  184XTH    CO114490  -6.468  25.616  -6.923
  184XTH    OA214491  -7.383  25.573  -6.483
  184XTH    CO214492  -7.403  25.449  -6.417
  184XTH    CL114493  -7.421  25.467  -6.262
  184XTH    CL214494  -7.361  25.353  -6.180
  184XTH    CL314495  -7.336  25.399  -6.030
  184XTH    CL414496  -7.434  25.337  -5.936
  184XTH    CO314497  -7.584  25.394  -5.943
  184XTH    OA314498  -7.563  25.531  -5.926
  184XTH    CO414499  -7.681  25.596  -5.901
  184XTH    CT114500  -7.662  25.757  -5.900
  184XTH    CL514501  -7.798  25.825  -5.857
  184XTH    CL614502  -7.786  25.979  -5.865
  184XTH    OA414503  -6.756  26.222  -6.113
  184XTH    CO514504  -6.706  26.338  -6.175
  184XTH    HL114505  -6.625  26.312  -6.237
  184XTH    HL214506  -6.486  25.708  -6.976
  184XTH    HL314507  -6.376  25.572  -6.957
  184XTH    HL414508  -6.546  25.545  -6.948
  184XTH    HL514509  -7.488  25.402  -6.460
  184XTH    HL614510  -7.315  25.376  -6.437
  184XTH    HL714511  -7.526  25.475  -6.239
  184XTH    HL814512  -7.385  25.565  -6.242
  184XTH    HL914513  -7.260  25.327  -6.216
  184XTH   HL1014514  -7.436  25.274  -6.166
  184XTH   HL1114515  -7.233  25.376  -6.015
  184XTH   HL1214516  -7.346  25.509  -6.032
  184XTH   HL1314517  -7.402  25.361  -5.834
  184XTH   HL1414518  -7.446  25.226  -5.941
  184XTH   HL1514519  -7.616  25.378  -6.052
  184XTH   HL1614520  -7.655  25.360  -5.875
  184XTH   HL1714521  -7.764  25.583  -5.974
  184XTH   HL1814522  -7.720  25.576  -5.801
  184XTH   HL1914523  -7.822  25.792  -5.754
  184XTH   HL2014524  -7.876  25.785  -5.923
  184XTH   HL2114525  -7.747  26.013  -5.957
  184XTH   HL2214526  -7.713  26.007  -5.792
  184XTH   HL2314527  -7.878  26.031  -5.840
  184XTH   HL2414528  -6.672  26.414  -6.107
  184XTH   HL2514529  -6.781  26.371  -6.247
  184XTH    CO614530  -7.631  25.788  -6.047
  184XTH    CO714531  -7.545  25.797  -5.811
  184XTH    OA514532  -7.741  25.779  -6.129
  184XTH   HL2614533  -7.554  25.719  -6.079
  184XTH   HL2714534  -7.586  25.888  -6.069
  184XTH   HL2814535  -7.464  25.736  -5.843
  184XTH   HL2914536  -7.523  25.904  -5.810
  185XTA     NT14537  -5.822  22.897  -5.157
  185XTA    CN114538  -5.796  23.023  -5.201
  185XTA     C114539  -5.751  23.039  -5.336
  185XTA     C214540  -5.719  23.177  -5.380
  185XTA     C314541  -5.722  23.286  -5.289
  185XTA     C414542  -5.759  23.255  -5.158
  185XTA     C514543  -5.798  23.129  -5.110
  185XTA    CN214544  -5.936  22.839  -5.201
  185XTA     C614545  -6.057  22.886  -5.148
  185XTA     C714546  -6.176  22.832  -5.199
  185XTA     C814547  -6.182  22.743  -5.308
  185XTA     C914548  -6.056  22.689  -5.354
  185XTA    C1014549  -5.935  22.742  -5.305
  185XTA    CN314550  -5.724  22.832  -5.086
  185XTA    C1114551  -5.591  22.816  -5.134
  185XTA    C1214552  -5.492  22.745  -5.067
  185XTA    C1314553  -5.523  22.688  -4.943
  185XTA    C1414554  -5.649  22.709  -4.888
  185XTA    C1514555  -5.752  22.765  -4.965
  185XTA     H114556  -5.738  22.957  -5.404
  185XTA     H214557  -5.697  23.195  -5.486
  185XTA     H314558  -5.773  23.331  -5.086
  185XTA     H414559  -5.827  23.106  -5.008
  185XTA     H514560  -6.060  22.956  -5.065
  185XTA     H614561  -6.262  22.872  -5.150
  185XTA     H714562  -6.052  22.611  -5.433
  185XTA     H814563  -5.835  22.716  -5.342
  185XTA     H914564  -5.565  22.854  -5.233
  185XTA    H1014565  -5.387  22.743  -5.112
  185XTA    H1114566  -5.672  22.657  -4.795
  185XTA    H1214567  -5.854  22.771  -4.932
  185XTA    OA114568  -5.693  23.420  -5.324
  185XTA    CO114569  -5.731  23.459  -5.452
  185XTA    OA214570  -6.303  22.694  -5.357
  185XTA    CO214571  -6.412  22.788  -5.373
  185XTA    CL114572  -6.534  22.724  -5.444
  185XTA    CL214573  -6.629  22.831  -5.493
  185XTA    CL314574  -6.740  22.775  -5.575
  185XTA    CL414575  -6.847  22.879  -5.611
  185XTA    CO314576  -6.930  22.838  -5.731
  185XTA    OA314577  -6.853  22.797  -5.837
  185XTA    CO414578  -6.778  22.899  -5.903
  185XTA    CT114579  -6.814  22.895  -6.050
  185XTA    CL514580  -6.949  22.965  -6.061
  185XTA    CL614581  -7.002  22.995  -6.201
  185XTA    OA414582  -5.424  22.620  -4.878
  185XTA    CO514583  -5.461  22.519  -4.779
  185XTA    HL114584  -5.505  22.430  -4.822
  185XTA    HL214585  -5.726  23.564  -5.466
  185XTA    HL314586  -5.651  23.434  -5.519
  185XTA    HL414587  -5.838  23.430  -5.481
  185XTA    HL514588  -6.440  22.827  -5.275
  185XTA    HL614589  -6.377  22.872  -5.425
  185XTA    HL714590  -6.588  22.651  -5.374
  185XTA    HL814591  -6.503  22.665  -5.536
  185XTA    HL914592  -6.581  22.913  -5.547
  185XTA   HL1014593  -6.675  22.871  -5.403
  185XTA   HL1114594  -6.699  22.737  -5.668
  185XTA   HL1214595  -6.786  22.699  -5.516
  185XTA   HL1314596  -6.812  22.967  -5.642
  185XTA   HL1414597  -6.919  22.889  -5.523
  185XTA   HL1514598  -7.015  22.773  -5.706
  185XTA   HL1614599  -6.971  22.932  -5.775
  185XTA   HL1714600  -6.792  22.999  -5.870
  185XTA   HL1814601  -6.677  22.878  -5.888
  185XTA   HL1914602  -6.944  23.066  -6.005
  185XTA   HL2014603  -7.026  22.905  -6.015
  185XTA   HL2114604  -7.028  22.906  -6.260
  185XTA   HL2214605  -6.932  23.054  -6.260
  185XTA   HL2314606  -7.096  23.054  -6.190
  185XTA   HL2414607  -5.522  22.559  -4.695
  185XTA   HL2514608  -5.367  22.492  -4.730
  185XTA    CO614609  -6.813  22.748  -6.087
  185XTA    CO714610  -6.706  22.974  -6.127
  185XTA    OA514611  -6.570  22.932  -6.094
  185XTA   HL2614612  -6.743  22.684  -6.041
  185XTA   HL2714613  -6.911  22.694  -6.075
  185XTA   HL2814614  -6.712  23.085  -6.114
  185XTA   HL2914615  -6.722  22.963  -6.234
  186XTA     NT14616  -4.178  29.829  -9.428
  186XTA    CN114617  -4.079  29.897  -9.488
  186XTA     C114618  -4.105  29.968  -9.611
  186XTA     C214619  -4.003  30.045  -9.671
  186XTA     C314620  -3.874  30.048  -9.611
  186XTA     C414621  -3.850  29.970  -9.495
  186XTA     C514622  -3.949  29.905  -9.429
  186XTA    CN214623  -4.227  29.875  -9.311
  186XTA     C614624  -4.162  29.862  -9.192
  186XTA     C714625  -4.211  29.917  -9.075
  186XTA     C814626  -4.337  29.983  -9.076
  186XTA     C914627  -4.400  29.999  -9.200
  186XTA    C1014628  -4.355  29.936  -9.317
  186XTA    CN314629  -4.222  29.711  -9.469
  186XTA    C1114630  -4.155  29.592  -9.430
  186XTA    C1214631  -4.200  29.466  -9.484
  186XTA    C1314632  -4.314  29.459  -9.562
  186XTA    C1414633  -4.384  29.576  -9.583
  186XTA    C1514634  -4.340  29.704  -9.541
  186XTA     H114635  -4.195  29.974  -9.665
  186XTA     H214636  -4.020  30.113  -9.755
  186XTA     H314637  -3.755  29.973  -9.447
  186XTA     H414638  -3.923  29.843  -9.344
  186XTA     H514639  -4.066  29.823  -9.187
  186XTA     H614640  -4.164  29.918  -8.978
  186XTA     H714641  -4.495  30.049  -9.208
  186XTA     H814642  -4.408  29.957  -9.412
  186XTA     H914643  -4.073  29.610  -9.360
  186XTA    H1014644  -4.144  29.377  -9.456
  186XTA    H1114645  -4.472  29.567  -9.645
  186XTA    H1214646  -4.401  29.791  -9.566
  186XTA    OA114647  -3.770  30.128  -9.661
  186XTA    CO114648  -3.787  30.189  -9.788
  186XTA    OA214649  -4.404  30.049  -8.972
  186XTA    CO214650  -4.375  30.004  -8.832
  186XTA    CL114651  -4.432  30.111  -8.732
  186XTA    CL214652  -4.423  30.080  -8.579
  186XTA    CL314653  -4.280  30.114  -8.521
  186XTA    CL414654  -4.289  30.085  -8.367
  186XTA    CO314655  -4.164  30.124  -8.288
  186XTA    OA314656  -4.191  30.105  -8.153
  186XTA    CO414657  -4.072  30.082  -8.072
  186XTA    CT114658  -4.119  30.038  -7.926
  186XTA    CL514659  -4.181  29.894  -7.937
  186XTA    CL614660  -4.285  29.863  -7.824
  186XTA    OA414661  -4.371  29.345  -9.610
  186XTA    CO514662  -4.389  29.252  -9.510
  186XTA    HL114663  -4.429  29.158  -9.548
  186XTA    HL214664  -3.692  30.231  -9.824
  186XTA    HL314665  -3.828  30.120  -9.862
  186XTA    HL414666  -3.870  30.260  -9.775
  186XTA    HL514667  -4.416  29.904  -8.827
  186XTA    HL614668  -4.275  29.997  -8.819
  186XTA    HL714669  -4.537  30.129  -8.747
  186XTA    HL814670  -4.377  30.200  -8.742
  186XTA    HL914671  -4.455  29.977  -8.568
  186XTA   HL1014672  -4.496  30.143  -8.522
  186XTA   HL1114673  -4.205  30.057  -8.574
  186XTA   HL1214674  -4.252  30.217  -8.530
  186XTA   HL1314675  -4.300  29.974  -8.349
  186XTA   HL1414676  -4.385  30.126  -8.330
  186XTA   HL1514677  -4.068  30.077  -8.325
  186XTA   HL1614678  -4.136  30.233  -8.307
  186XTA   HL1714679  -4.017  29.995  -8.113
  186XTA   HL1814680  -4.009  30.169  -8.088
  186XTA   HL1914681  -4.090  29.828  -7.928
  186XTA   HL2014682  -4.225  29.882  -8.037
  186XTA   HL2114683  -4.296  29.757  -7.827
  186XTA   HL2214684  -4.382  29.907  -7.857
  186XTA   HL2314685  -4.268  29.901  -7.724
  186XTA   HL2414686  -4.460  29.292  -9.442
  186XTA   HL2514687  -4.306  29.227  -9.448
  186XTA    CO614688  -4.227  30.147  -7.895
  186XTA    CO714689  -4.015  30.041  -7.821
  186XTA    OA514690  -4.250  30.156  -7.757
  186XTA   HL2614691  -4.323  30.119  -7.943
  186XTA   HL2714692  -4.186  30.241  -7.926
  186XTA   HL2814693  -3.977  30.140  -7.806
  186XTA   HL2914694  -4.050  29.998  -7.731
  187XTA     NT14695  -3.361  29.891 -11.805
  187XTA    CN114696  -3.340  29.845 -11.927
  187XTA     C114697  -3.337  29.710 -11.952
  187XTA     C214698  -3.308  29.656 -12.074
  187XTA     C314699  -3.276  29.737 -12.189
  187XTA     C414700  -3.279  29.875 -12.168
  187XTA     C514701  -3.312  29.931 -12.034
  187XTA    CN214702  -3.272  29.860 -11.704
  187XTA     C614703  -3.309  29.772 -11.599
  187XTA     C714704  -3.217  29.735 -11.496
  187XTA     C814705  -3.091  29.795 -11.498
  187XTA     C914706  -3.063  29.895 -11.594
  187XTA    C1014707  -3.152  29.932 -11.694
  187XTA    CN314708  -3.479  29.953 -11.773
  187XTA    C1114709  -3.592  29.882 -11.730
  187XTA    C1214710  -3.710  29.954 -11.701
  187XTA    C1314711  -3.710  30.091 -11.699
  187XTA    C1414712  -3.592  30.159 -11.732
  187XTA    C1514713  -3.473  30.090 -11.756
  187XTA     H114714  -3.369  29.645 -11.872
  187XTA     H214715  -3.315  29.543 -12.081
  187XTA     H314716  -3.252  29.940 -12.251
  187XTA     H414717  -3.312  30.040 -12.006
  187XTA     H514718  -3.407  29.730 -11.587
  187XTA     H614719  -3.262  29.680 -11.413
  187XTA     H714720  -2.965  29.948 -11.593
  187XTA     H814721  -3.114  30.002 -11.757
  187XTA     H914722  -3.604  29.772 -11.729
  187XTA    H1014723  -3.799  29.892 -11.675
  187XTA    H1114724  -3.595  30.269 -11.721
  187XTA    H1214725  -3.379  30.141 -11.786
  187XTA    OA114726  -3.252  29.682 -12.317
  187XTA    CO114727  -3.205  29.551 -12.322
  187XTA    OA214728  -3.010  29.763 -11.392
  187XTA    CO214729  -2.881  29.824 -11.386
  187XTA    CL114730  -2.776  29.760 -11.476
  187XTA    CL214731  -2.653  29.852 -11.486
  187XTA    CL314732  -2.552  29.816 -11.594
  187XTA    CL414733  -2.576  29.887 -11.728
  187XTA    CO314734  -2.711  29.844 -11.785
  187XTA    OA314735  -2.720  29.901 -11.910
  187XTA    CO414736  -2.837  29.854 -11.991
  187XTA    CT114737  -2.825  29.902 -12.136
  187XTA    CL514738  -2.709  29.827 -12.211
  187XTA    CL614739  -2.576  29.830 -12.150
  187XTA    OA414740  -3.826  30.161 -11.672
  187XTA    CO514741  -3.955  30.091 -11.657
  187XTA    HL114742  -3.976  30.043 -11.748
  187XTA    HL214743  -3.276  29.476 -12.284
  187XTA    HL314744  -3.180  29.537 -12.428
  187XTA    HL414745  -3.112  29.536 -12.254
  187XTA    HL514746  -2.890  29.926 -11.408
  187XTA    HL614747  -2.857  29.811 -11.276
  187XTA    HL714748  -2.830  29.750 -11.562
  187XTA    HL814749  -2.755  29.659 -11.451
  187XTA    HL914750  -2.597  29.835 -11.395
  187XTA   HL1014751  -2.683  29.952 -11.493
  187XTA   HL1114752  -2.450  29.835 -11.561
  187XTA   HL1214753  -2.552  29.710 -11.608
  187XTA   HL1314754  -2.499  29.861 -11.804
  187XTA   HL1414755  -2.565  29.998 -11.714
  187XTA   HL1514756  -2.707  29.736 -11.793
  187XTA   HL1614757  -2.793  29.889 -11.721
  187XTA   HL1714758  -2.840  29.748 -11.983
  187XTA   HL1814759  -2.919  29.909 -11.943
  187XTA   HL1914760  -2.715  29.866 -12.314
  187XTA   HL2014761  -2.744  29.722 -12.228
  187XTA   HL2114762  -2.510  29.773 -12.216
  187XTA   HL2214763  -2.580  29.793 -12.048
  187XTA   HL2314764  -2.530  29.930 -12.145
  187XTA   HL2414765  -4.026  30.170 -11.648
  187XTA   HL2514766  -3.950  30.009 -11.580
  187XTA    CO614767  -2.801  30.055 -12.152
  187XTA    CO714768  -2.956  29.858 -12.207
  187XTA    OA514769  -2.907  30.121 -12.079
  187XTA   HL2614770  -2.803  30.077 -12.257
  187XTA   HL2714771  -2.698  30.091 -12.121
  187XTA   HL2814772  -3.042  29.911 -12.161
  187XTA   HL2914773  -2.978  29.748 -12.210
  188XTA     NT14774  -3.245  30.641 -10.896
  188XTA    CN114775  -3.228  30.639 -10.760
  188XTA     C114776  -3.324  30.694 -10.679
  188XTA     C214777  -3.306  30.692 -10.537
  188XTA     C314778  -3.197  30.622 -10.480
  188XTA     C414779  -3.098  30.564 -10.566
  188XTA     C514780  -3.115  30.572 -10.703
  188XTA    CN214781  -3.349  30.582 -10.946
  188XTA     C614782  -3.439  30.643 -11.030
  188XTA     C714783  -3.548  30.576 -11.093
  188XTA     C814784  -3.555  30.438 -11.070
  188XTA     C914785  -3.458  30.367 -10.996
  188XTA    C1014786  -3.357  30.441 -10.924
  188XTA    CN314787  -3.147  30.671 -10.986
  188XTA    C1114788  -3.067  30.566 -11.040
  188XTA    C1214789  -2.980  30.592 -11.148
  188XTA    C1314790  -2.963  30.722 -11.204
  188XTA    C1414791  -3.034  30.830 -11.142
  188XTA    C1514792  -3.125  30.800 -11.043
  188XTA     H114793  -3.404  30.743 -10.727
  188XTA     H214794  -3.363  30.745 -10.466
  188XTA     H314795  -3.018  30.507 -10.529
  188XTA     H414796  -3.049  30.514 -10.767
  188XTA     H514797  -3.434  30.744 -11.067
  188XTA     H614798  -3.626  30.621 -11.156
  188XTA     H714799  -3.460  30.252 -10.986
  188XTA     H814800  -3.289  30.396 -10.859
  188XTA     H914801  -3.089  30.467 -11.004
  188XTA    H1014802  -2.933  30.497 -11.184
  188XTA    H1114803  -3.014  30.924 -11.174
  188XTA    H1214804  -3.194  30.874 -11.005
  188XTA    OA114805  -3.177  30.615 -10.342
  188XTA    CO114806  -3.273  30.672 -10.257
  188XTA    OA214807  -3.661  30.370 -11.125
  188XTA    CO214808  -3.624  30.266 -11.217
  188XTA    CL114809  -3.572  30.330 -11.344
  188XTA    CL214810  -3.473  30.241 -11.417
  188XTA    CL314811  -3.318  30.270 -11.394
  188XTA    CL414812  -3.254  30.390 -11.464
  188XTA    CO314813  -3.313  30.523 -11.449
  188XTA    OA314814  -3.248  30.636 -11.503
  188XTA    CO414815  -3.190  30.620 -11.636
  188XTA    CT114816  -3.167  30.754 -11.705
  188XTA    CL514817  -3.082  30.839 -11.610
  188XTA    CL614818  -3.080  30.990 -11.627
  188XTA    OA414819  -2.872  30.746 -11.305
  188XTA    CO514820  -2.827  30.638 -11.380
  188XTA    HL114821  -2.908  30.578 -11.416
  188XTA    HL214822  -3.243  30.652 -10.156
  188XTA    HL314823  -3.298  30.779 -10.267
  188XTA    HL414824  -3.359  30.608 -10.282
  188XTA    HL514825  -3.554  30.203 -11.174
  188XTA    HL614826  -3.712  30.209 -11.232
  188XTA    HL714827  -3.540  30.427 -11.325
  188XTA    HL814828  -3.667  30.348 -11.402
  188XTA    HL914829  -3.489  30.232 -11.526
  188XTA   HL1014830  -3.505  30.138 -11.386
  188XTA   HL1114831  -3.286  30.260 -11.290
  188XTA   HL1214832  -3.268  30.185 -11.442
  188XTA   HL1314833  -3.263  30.358 -11.572
  188XTA   HL1414834  -3.146  30.398 -11.431
  188XTA   HL1514835  -3.423  30.527 -11.471
  188XTA   HL1614836  -3.318  30.541 -11.339
  188XTA   HL1714837  -3.097  30.561 -11.625
  188XTA   HL1814838  -3.272  30.574 -11.695
  188XTA   HL1914839  -2.981  30.796 -11.604
  188XTA   HL2014840  -3.120  30.821 -11.512
  188XTA   HL2114841  -3.180  31.038 -11.626
  188XTA   HL2214842  -3.041  31.011 -11.728
  188XTA   HL2314843  -3.013  31.036 -11.553
  188XTA   HL2414844  -2.752  30.573 -11.327
  188XTA   HL2514845  -2.775  30.674 -11.475
  188XTA    CO614846  -3.279  30.806 -11.770
  188XTA    CO714847  -3.101  30.739 -11.834
  188XTA    OA514848  -3.225  30.836 -11.860
  188XTA   HL2614849  -3.327  30.881 -11.712
  188XTA   HL2714850  -3.359  30.739 -11.784
  188XTA   HL2814851  -3.116  30.612 -11.886
  188XTA   HL2914852  -3.003  30.777 -11.838
  189XTA     NT14853  -5.797  31.121  -4.987
  189XTA    CN114854  -5.911  31.148  -5.058
  189XTA     C114855  -5.996  31.250  -5.015
  189XTA     C214856  -6.111  31.283  -5.091
  189XTA     C314857  -6.140  31.217  -5.212
  189XTA     C414858  -6.056  31.115  -5.251
  189XTA     C514859  -5.947  31.077  -5.175
  189XTA    CN214860  -5.790  31.042  -4.880
  189XTA     C614861  -5.866  31.073  -4.765
  189XTA     C714862  -5.849  30.996  -4.650
  189XTA     C814863  -5.750  30.898  -4.646
  189XTA     C914864  -5.675  30.861  -4.761
  189XTA    C1014865  -5.694  30.940  -4.876
  189XTA    CN314866  -5.691  31.202  -5.004
  189XTA    C1114867  -5.688  31.327  -4.931
  189XTA    C1214868  -5.570  31.397  -4.927
  189XTA    C1314869  -5.461  31.352  -5.006
  189XTA    C1414870  -5.468  31.236  -5.079
  189XTA    C1514871  -5.585  31.158  -5.078
  189XTA     H114872  -5.974  31.308  -4.921
  189XTA     H214873  -6.173  31.371  -5.064
  189XTA     H314874  -6.084  31.057  -5.337
  189XTA     H414875  -5.885  30.983  -5.200
  189XTA     H514876  -5.947  31.149  -4.764
  189XTA     H614877  -5.911  31.025  -4.558
  189XTA     H714878  -5.595  30.794  -4.762
  189XTA     H814879  -5.644  30.915  -4.963
  189XTA     H914880  -5.776  31.349  -4.869
  189XTA    H1014881  -5.557  31.476  -4.858
  189XTA    H1114882  -5.393  31.205  -5.146
  189XTA    H1214883  -5.599  31.066  -5.136
  189XTA    OA114884  -6.255  31.250  -5.275
  189XTA    CO114885  -6.251  31.235  -5.420
  189XTA    OA214886  -5.736  30.835  -4.524
  189XTA    CO214887  -5.606  30.791  -4.491
  189XTA    CL114888  -5.587  30.774  -4.337
  189XTA    CL214889  -5.434  30.744  -4.303
  189XTA    CL314890  -5.408  30.688  -4.161
  189XTA    CL414891  -5.254  30.678  -4.128
  189XTA    CO314892  -5.229  30.624  -3.990
  189XTA    OA314893  -5.256  30.483  -3.988
  189XTA    CO414894  -5.143  30.411  -4.015
  189XTA    CT114895  -5.165  30.262  -3.995
  189XTA    CL514896  -5.158  30.216  -3.848
  189XTA    CL614897  -5.052  30.279  -3.764
  189XTA    OA414898  -5.348  31.430  -5.003
  189XTA    CO514899  -5.246  31.400  -5.085
  189XTA    HL114900  -5.160  31.465  -5.078
  189XTA    HL214901  -6.352  31.251  -5.448
  189XTA    HL314902  -6.184  31.316  -5.456
  189XTA    HL414903  -6.215  31.145  -5.473
  189XTA    HL514904  -5.578  30.699  -4.543
  189XTA    HL614905  -5.531  30.867  -4.521
  189XTA    HL714906  -5.650  30.694  -4.293
  189XTA    HL814907  -5.615  30.870  -4.293
  189XTA    HL914908  -5.375  30.838  -4.322
  189XTA   HL1014909  -5.404  30.662  -4.365
  189XTA   HL1114910  -5.464  30.745  -4.079
  189XTA   HL1214911  -5.441  30.580  -4.159
  189XTA   HL1314912  -5.226  30.783  -4.136
  189XTA   HL1414913  -5.207  30.613  -4.202
  189XTA   HL1514914  -5.128  30.648  -3.966
  189XTA   HL1614915  -5.292  30.669  -3.911
  189XTA   HL1714916  -5.124  30.438  -4.117
  189XTA   HL1814917  -5.064  30.451  -3.948
  189XTA   HL1914918  -5.158  30.105  -3.844
  189XTA   HL2014919  -5.250  30.245  -3.795
  189XTA   HL2114920  -4.955  30.263  -3.801
  189XTA   HL2214921  -5.047  30.219  -3.674
  189XTA   HL2314922  -5.079  30.379  -3.735
  189XTA   HL2414923  -5.286  31.437  -5.181
  189XTA   HL2514924  -5.209  31.292  -5.082
  189XTA    CO614925  -5.052  30.197  -4.066
  189XTA    CO714926  -5.295  30.203  -4.062
  189XTA    OA514927  -5.059  30.052  -4.063
  189XTA   HL2614928  -4.952  30.217  -4.030
  189XTA   HL2714929  -5.058  30.214  -4.177
  189XTA   HL2814930  -5.294  30.095  -4.060
  189XTA   HL2914931  -5.309  30.225  -4.165
  190XTA     NT14932  -7.906  24.371  -5.508
  190XTA    CN114933  -7.771  24.389  -5.491
  190XTA     C114934  -7.692  24.303  -5.408
  190XTA     C214935  -7.558  24.332  -5.379
  190XTA     C314936  -7.495  24.447  -5.434
  190XTA     C414937  -7.573  24.530  -5.521
  190XTA     C514938  -7.712  24.506  -5.541
  190XTA    CN214939  -7.989  24.473  -5.552
  190XTA     C614940  -8.052  24.548  -5.450
  190XTA     C714941  -8.139  24.650  -5.490
  190XTA     C814942  -8.156  24.684  -5.623
  190XTA     C914943  -8.099  24.609  -5.730
  190XTA    C1014944  -8.003  24.506  -5.686
  190XTA    CN314945  -7.954  24.247  -5.537
  190XTA    C1114946  -8.051  24.188  -5.458
  190XTA    C1214947  -8.112  24.064  -5.490
  190XTA    C1314948  -8.077  24.002  -5.612
  190XTA    C1414949  -7.982  24.062  -5.694
  190XTA    C1514950  -7.922  24.184  -5.655
  190XTA     H114951  -7.736  24.218  -5.361
  190XTA     H214952  -7.505  24.261  -5.308
  190XTA     H314953  -7.529  24.628  -5.553
  190XTA     H414954  -7.766  24.574  -5.596
  190XTA     H514955  -8.048  24.524  -5.344
  190XTA     H614956  -8.198  24.713  -5.422
  190XTA     H714957  -8.127  24.639  -5.828
  190XTA     H814958  -7.962  24.441  -5.760
  190XTA     H914959  -8.081  24.233  -5.364
  190XTA    H1014960  -8.191  24.025  -5.428
  190XTA    H1114961  -7.957  24.016  -5.782
  190XTA    H1214962  -7.848  24.241  -5.715
  190XTA    OA114963  -7.358  24.461  -5.428
  190XTA    CO114964  -7.298  24.579  -5.482
  190XTA    OA214965  -8.244  24.785  -5.655
  190XTA    CO214966  -8.197  24.886  -5.741
  190XTA    CL114967  -8.289  25.002  -5.745
  190XTA    CL214968  -8.246  25.121  -5.839
  190XTA    CL314969  -8.332  25.246  -5.831
  190XTA    CL414970  -8.285  25.355  -5.929
  190XTA    CO314971  -8.329  25.328  -6.070
  190XTA    OA314972  -8.301  25.446  -6.142
  190XTA    CO414973  -8.353  25.439  -6.279
  190XTA    CT114974  -8.230  25.455  -6.372
  190XTA    CL514975  -8.277  25.509  -6.507
  190XTA    CL614976  -8.361  25.407  -6.574
  190XTA    OA414977  -8.134  23.889  -5.667
  190XTA    CO514978  -8.261  23.861  -5.618
  190XTA    HL114979  -8.344  23.931  -5.633
  190XTA    HL214980  -7.327  24.601  -5.587
  190XTA    HL314981  -7.317  24.659  -5.418
  190XTA    HL414982  -7.188  24.564  -5.474
  190XTA    HL514983  -8.096  24.924  -5.711
  190XTA    HL614984  -8.173  24.863  -5.844
  190XTA    HL714985  -8.298  25.031  -5.648
  190XTA    HL814986  -8.386  24.968  -5.788
  190XTA    HL914987  -8.244  25.088  -5.937
  190XTA   HL1014988  -8.147  25.154  -5.820
  190XTA   HL1114989  -8.438  25.211  -5.843
  190XTA   HL1214990  -8.299  25.293  -5.735
  190XTA   HL1314991  -8.174  25.360  -5.928
  190XTA   HL1414992  -8.326  25.452  -5.891
  190XTA   HL1514993  -8.274  25.247  -6.120
  190XTA   HL1614994  -8.425  25.291  -6.080
  190XTA   HL1714995  -8.404  25.346  -6.297
  190XTA   HL1814996  -8.425  25.521  -6.288
  190XTA   HL1914997  -8.189  25.525  -6.566
  190XTA   HL2014998  -8.336  25.600  -6.494
  190XTA   HL2114999  -8.374  25.422  -6.678
  190XTA   HL2215000  -8.463  25.407  -6.526
  190XTA   HL2315001  -8.314  25.312  -6.561
  190XTA   HL2415002  -8.256  23.849  -5.513
  190XTA   HL2515003  -8.297  23.768  -5.657
  190XTA    CO615004  -8.164  25.312  -6.372
  190XTA    CO715005  -8.128  25.557  -6.302
  190XTA    OA515006  -8.091  25.306  -6.460
  190XTA   HL2615007  -8.245  25.233  -6.393
  190XTA   HL2715008  -8.121  25.280  -6.273
  190XTA   HL2815009  -8.195  25.670  -6.244
  190XTA   HL2915010  -8.091  25.495  -6.219
  191XTA     NT15011  -2.653  27.362  -8.045
  191XTA    CN115012  -2.610  27.460  -8.123
  191XTA     C115013  -2.532  27.430  -8.236
  191XTA     C215014  -2.494  27.528  -8.322
  191XTA     C315015  -2.519  27.667  -8.303
  191XTA     C415016  -2.583  27.700  -8.185
  191XTA     C515017  -2.634  27.600  -8.098
  191XTA    CN215018  -2.597  27.350  -7.923
  191XTA     C615019  -2.668  27.346  -7.803
  191XTA     C715020  -2.614  27.344  -7.677
  191XTA     C815021  -2.476  27.324  -7.665
  191XTA     C915022  -2.398  27.336  -7.782
  191XTA    C1015023  -2.462  27.344  -7.908
  191XTA    CN315024  -2.744  27.267  -8.089
  191XTA    C1115025  -2.879  27.299  -8.087
  191XTA    C1215026  -2.966  27.195  -8.128
  191XTA    C1315027  -2.923  27.064  -8.155
  191XTA    C1415028  -2.784  27.035  -8.147
  191XTA    C1515029  -2.692  27.138  -8.123
  191XTA     H115030  -2.506  27.328  -8.260
  191XTA     H215031  -2.433  27.509  -8.409
  191XTA     H315032  -2.584  27.805  -8.162
  191XTA     H415033  -2.674  27.639  -8.002
  191XTA     H515034  -2.772  27.340  -7.807
  191XTA     H615035  -2.677  27.340  -7.583
  191XTA     H715036  -2.290  27.325  -7.787
  191XTA     H815037  -2.397  27.356  -7.990
  191XTA     H915038  -2.919  27.393  -8.057
  191XTA    H1015039  -3.072  27.216  -8.124
  191XTA    H1115040  -2.752  26.936  -8.143
  191XTA    H1215041  -2.583  27.108  -8.119
  191XTA    OA115042  -2.460  27.751  -8.390
  191XTA    CO115043  -2.486  27.891  -8.373
  191XTA    OA215044  -2.425  27.297  -7.539
  191XTA    CO215045  -2.294  27.346  -7.510
  191XTA    CL115046  -2.294  27.398  -7.362
  191XTA    CL215047  -2.407  27.502  -7.331
  191XTA    CL315048  -2.392  27.635  -7.415
  191XTA    CL415049  -2.504  27.742  -7.390
  191XTA    CO315050  -2.451  27.883  -7.418
  191XTA    OA315051  -2.560  27.963  -7.440
  191XTA    CO415052  -2.526  28.083  -7.511
  191XTA    CT115053  -2.618  28.203  -7.478
  191XTA    CL515054  -2.622  28.218  -7.322
  191XTA    CL615055  -2.679  28.339  -7.252
  191XTA    OA415056  -3.011  26.961  -8.181
  191XTA    CO515057  -3.119  26.992  -8.270
  191XTA    HL115058  -3.182  26.902  -8.252
  191XTA    HL215059  -2.598  27.895  -8.365
  191XTA    HL315060  -2.437  27.932  -8.290
  191XTA    HL415061  -2.460  27.949  -8.455
  191XTA    HL515062  -2.214  27.265  -7.525
  191XTA    HL615063  -2.273  27.435  -7.576
  191XTA    HL715064  -2.203  27.454  -7.343
  191XTA    HL815065  -2.306  27.308  -7.297
  191XTA    HL915066  -2.399  27.521  -7.227
  191XTA   HL1015067  -2.504  27.464  -7.348
  191XTA   HL1115068  -2.294  27.684  -7.390
  191XTA   HL1215069  -2.396  27.609  -7.521
  191XTA   HL1315070  -2.529  27.744  -7.281
  191XTA   HL1415071  -2.585  27.716  -7.456
  191XTA   HL1515072  -2.409  27.923  -7.329
  191XTA   HL1615073  -2.389  27.878  -7.513
  191XTA   HL1715074  -2.422  28.116  -7.495
  191XTA   HL1815075  -2.534  28.057  -7.613
  191XTA   HL1915076  -2.521  28.205  -7.277
  191XTA   HL2015077  -2.683  28.138  -7.289
  191XTA   HL2115078  -2.610  28.432  -7.245
  191XTA   HL2215079  -2.706  28.320  -7.146
  191XTA   HL2315080  -2.783  28.375  -7.276
  191XTA   HL2415081  -3.081  26.981  -8.366
  191XTA   HL2515082  -3.190  27.079  -8.254
  191XTA    CO615083  -2.756  28.174  -7.538
  191XTA    CO715084  -2.576  28.341  -7.538
  191XTA    OA515085  -2.451  28.380  -7.490
  191XTA   HL2615086  -2.787  28.075  -7.515
  191XTA   HL2715087  -2.757  28.191  -7.652
  191XTA   HL2815088  -2.661  28.417  -7.518
  191XTA   HL2915089  -2.580  28.335  -7.643
  192XTA     NT15090  -3.572  26.682  -7.836
  192XTA    CN115091  -3.552  26.605  -7.725
  192XTA     C115092  -3.423  26.549  -7.705
  192XTA     C215093  -3.403  26.465  -7.594
  192XTA     C315094  -3.493  26.452  -7.491
  192XTA     C415095  -3.617  26.524  -7.503
  192XTA     C515096  -3.646  26.602  -7.613
  192XTA    CN215097  -3.557  26.624  -7.957
  192XTA     C615098  -3.479  26.687  -8.055
  192XTA     C715099  -3.446  26.625  -8.174
  192XTA     C815100  -3.499  26.494  -8.211
  192XTA     C915101  -3.576  26.435  -8.110
  192XTA    C1015102  -3.611  26.500  -7.990
  192XTA    CN315103  -3.648  26.794  -7.840
  192XTA    C1115104  -3.785  26.784  -7.873
  192XTA    C1215105  -3.860  26.902  -7.878
  192XTA    C1315106  -3.804  27.029  -7.861
  192XTA    C1415107  -3.665  27.039  -7.830
  192XTA    C1515108  -3.590  26.923  -7.812
  192XTA     H115109  -3.338  26.559  -7.770
  192XTA     H215110  -3.317  26.404  -7.579
  192XTA     H315111  -3.700  26.516  -7.433
  192XTA     H415112  -3.747  26.656  -7.607
  192XTA     H515113  -3.416  26.777  -8.030
  192XTA     H615114  -3.377  26.681  -8.231
  192XTA     H715115  -3.616  26.331  -8.130
  192XTA     H815116  -3.684  26.460  -7.923
  192XTA     H915117  -3.837  26.690  -7.885
  192XTA    H1015118  -3.970  26.908  -7.882
  192XTA    H1115119  -3.625  27.138  -7.824
  192XTA    H1215120  -3.490  26.922  -7.783
  192XTA    OA115121  -3.462  26.366  -7.393
  192XTA    CO115122  -3.553  26.365  -7.282
  192XTA    OA215123  -3.467  26.415  -8.323
  192XTA    CO215124  -3.374  26.466  -8.411
  192XTA    CL115125  -3.423  26.597  -8.486
  192XTA    CL215126  -3.287  26.669  -8.538
  192XTA    CL315127  -3.314  26.792  -8.627
  192XTA    CL415128  -3.326  26.920  -8.545
  192XTA    CO315129  -3.372  27.031  -8.632
  192XTA    OA315130  -3.284  27.046  -8.741
  192XTA    CO415131  -3.330  27.131  -8.840
  192XTA    CT115132  -3.303  27.063  -8.974
  192XTA    CL515133  -3.409  26.951  -9.011
  192XTA    CL615134  -3.556  26.993  -8.996
  192XTA    OA415135  -3.885  27.136  -7.886
  192XTA    CO515136  -3.849  27.254  -7.819
  192XTA    HL115137  -3.816  27.230  -7.718
  192XTA    HL215138  -3.651  26.372  -7.304
  192XTA    HL315139  -3.548  26.261  -7.242
  192XTA    HL415140  -3.544  26.428  -7.191
  192XTA    HL515141  -3.281  26.482  -8.359
  192XTA    HL615142  -3.375  26.392  -8.494
  192XTA    HL715143  -3.464  26.674  -8.419
  192XTA    HL815144  -3.492  26.578  -8.568
  192XTA    HL915145  -3.234  26.598  -8.607
  192XTA   HL1015146  -3.213  26.698  -8.455
  192XTA   HL1115147  -3.237  26.801  -8.702
  192XTA   HL1215148  -3.407  26.776  -8.688
  192XTA   HL1315149  -3.228  26.949  -8.523
  192XTA   HL1415150  -3.383  26.890  -8.458
  192XTA   HL1515151  -3.477  27.013  -8.672
  192XTA   HL1615152  -3.381  27.126  -8.594
  192XTA   HL1715153  -3.436  27.140  -8.828
  192XTA   HL1815154  -3.296  27.232  -8.834
  192XTA   HL1915155  -3.397  26.867  -8.943
  192XTA   HL2015156  -3.400  26.905  -9.105
  192XTA   HL2115157  -3.624  26.943  -9.061
  192XTA   HL2215158  -3.557  27.106  -9.005
  192XTA   HL2315159  -3.582  26.970  -8.891
  192XTA   HL2415160  -3.939  27.310  -7.798
  192XTA   HL2515161  -3.771  27.305  -7.876
  192XTA    CO615162  -3.159  26.999  -8.973
  192XTA    CO715163  -3.300  27.169  -9.085
  192XTA    OA515164  -3.139  26.903  -9.078
  192XTA   HL2615165  -3.157  26.931  -8.880
  192XTA   HL2715166  -3.078  27.072  -8.960
  192XTA   HL2815167  -3.203  27.218  -9.069
  192XTA   HL2915168  -3.282  27.113  -9.175
  193XTA     NT15169  -8.296  25.726 -11.180
  193XTA    CN115170  -8.315  25.836 -11.104
  193XTA     C115171  -8.266  25.845 -10.968
  193XTA     C215172  -8.271  25.963 -10.895
  193XTA     C315173  -8.330  26.079 -10.952
  193XTA     C415174  -8.390  26.067 -11.078
  193XTA     C515175  -8.389  25.944 -11.150
  193XTA    CN215176  -8.189  25.729 -11.263
  193XTA     C615177  -8.102  25.620 -11.278
  193XTA     C715178  -8.002  25.621 -11.373
  193XTA     C815179  -7.991  25.729 -11.467
  193XTA     C915180  -8.068  25.843 -11.448
  193XTA    C1015181  -8.170  25.842 -11.346
  193XTA    CN315182  -8.378  25.620 -11.161
  193XTA    C1115183  -8.507  25.632 -11.208
  193XTA    C1215184  -8.596  25.526 -11.187
  193XTA    C1315185  -8.562  25.414 -11.108
  193XTA    C1415186  -8.433  25.417 -11.049
  193XTA    C1515187  -8.332  25.515 -11.079
  193XTA     H115188  -8.211  25.764 -10.926
  193XTA     H215189  -8.216  25.969 -10.794
  193XTA     H315190  -8.442  26.151 -11.122
  193XTA     H415191  -8.442  25.941 -11.248
  193XTA     H515192  -8.118  25.527 -11.226
  193XTA     H615193  -7.951  25.531 -11.385
  193XTA     H715194  -8.058  25.934 -11.500
  193XTA     H815195  -8.218  25.932 -11.327
  193XTA     H915196  -8.561  25.725 -11.251
  193XTA    H1015197  -8.702  25.530 -11.218
  193XTA    H1115198  -8.425  25.331 -10.983
  193XTA    H1215199  -8.234  25.512 -11.028
  193XTA    OA115200  -8.332  26.202 -10.892
  193XTA    CO115201  -8.262  26.210 -10.764
  193XTA    OA215202  -7.899  25.717 -11.573
  193XTA    CO215203  -7.941  25.791 -11.688
  193XTA    CL115204  -7.952  25.703 -11.813
  193XTA    CL215205  -8.023  25.566 -11.799
  193XTA    CL315206  -8.165  25.579 -11.747
  193XTA    CL415207  -8.199  25.429 -11.709
  193XTA    CO315208  -8.336  25.412 -11.644
  193XTA    OA315209  -8.423  25.503 -11.710
  193XTA    CO415210  -8.536  25.535 -11.630
  193XTA    CT115211  -8.608  25.648 -11.701
  193XTA    CL515212  -8.518  25.761 -11.744
  193XTA    CL615213  -8.446  25.836 -11.636
  193XTA    OA415214  -8.650  25.321 -11.076
  193XTA    CO515215  -8.757  25.383 -11.000
  193XTA    HL115216  -8.802  25.463 -11.058
  193XTA    HL215217  -8.322  26.150 -10.694
  193XTA    HL315218  -8.164  26.166 -10.769
  193XTA    HL415219  -8.259  26.311 -10.730
  193XTA    HL515220  -8.026  25.864 -11.690
  193XTA    HL615221  -7.853  25.852 -11.695
  193XTA    HL715222  -7.852  25.685 -11.848
  193XTA    HL815223  -7.988  25.761 -11.904
  193XTA    HL915224  -7.977  25.509 -11.722
  193XTA   HL1015225  -8.022  25.508 -11.891
  193XTA   HL1115226  -8.165  25.634 -11.656
  193XTA   HL1215227  -8.230  25.639 -11.819
  193XTA   HL1315228  -8.116  25.394 -11.642
  193XTA   HL1415229  -8.211  25.363 -11.797
  193XTA   HL1515230  -8.374  25.309 -11.656
  193XTA   HL1615231  -8.329  25.443 -11.540
  193XTA   HL1715232  -8.591  25.438 -11.633
  193XTA   HL1815233  -8.498  25.556 -11.529
  193XTA   HL1915234  -8.574  25.836 -11.795
  193XTA   HL2015235  -8.432  25.727 -11.801
  193XTA   HL2115236  -8.360  25.771 -11.608
  193XTA   HL2215237  -8.504  25.860 -11.546
  193XTA   HL2315238  -8.391  25.920 -11.681
  193XTA   HL2415239  -8.706  25.412 -10.907
  193XTA   HL2515240  -8.834  25.313 -10.982
  193XTA    CO615241  -8.723  25.702 -11.609
  193XTA    CO715242  -8.671  25.599 -11.839
  193XTA    OA515243  -8.786  25.621 -11.573
  193XTA   HL2615244  -8.794  25.760 -11.659
  193XTA   HL2715245  -8.677  25.757 -11.529
  193XTA   HL2815246  -8.581  25.519 -11.916
  193XTA   HL2915247  -8.750  25.529 -11.805
  194XTA     NT15248  -8.095  27.338  -9.224
  194XTA    CN115249  -8.131  27.460  -9.182
  194XTA     C115250  -8.193  27.476  -9.056
  194XTA     C215251  -8.226  27.604  -9.011
  194XTA     C315252  -8.185  27.711  -9.088
  194XTA     C415253  -8.130  27.701  -9.216
  194XTA     C515254  -8.096  27.573  -9.258
  194XTA    CN215255  -8.193  27.258  -9.266
  194XTA     C615256  -8.273  27.293  -9.376
  194XTA     C715257  -8.377  27.205  -9.419
  194XTA     C815258  -8.403  27.087  -9.347
  194XTA     C915259  -8.321  27.055  -9.239
  194XTA    C1015260  -8.211  27.133  -9.195
  194XTA    CN315261  -7.963  27.310  -9.248
  194XTA    C1115262  -7.931  27.285  -9.379
  194XTA    C1215263  -7.796  27.252  -9.412
  194XTA    C1315264  -7.692  27.245  -9.319
  194XTA    C1415265  -7.727  27.284  -9.186
  194XTA    C1515266  -7.862  27.311  -9.147
  194XTA     H115267  -8.196  27.389  -8.996
  194XTA     H215268  -8.280  27.616  -8.921
  194XTA     H315269  -8.096  27.791  -9.266
  194XTA     H415270  -8.032  27.560  -9.350
  194XTA     H515271  -8.256  27.382  -9.427
  194XTA     H615272  -8.443  27.230  -9.498
  194XTA     H715273  -8.335  26.962  -9.188
  194XTA     H815274  -8.142  27.115  -9.106
  194XTA     H915275  -8.007  27.304  -9.453
  194XTA    H1015276  -7.759  27.238  -9.513
  194XTA    H1115277  -7.651  27.303  -9.106
  194XTA    H1215278  -7.882  27.337  -9.046
  194XTA    OA115279  -8.212  27.842  -9.054
  194XTA    CO115280  -8.240  27.867  -8.923
  194XTA    OA215281  -8.512  27.001  -9.376
  194XTA    CO215282  -8.542  26.989  -9.514
  194XTA    CL115283  -8.641  26.869  -9.546
  194XTA    CL215284  -8.581  26.732  -9.525
  194XTA    CL315285  -8.679  26.617  -9.564
  194XTA    CL415286  -8.650  26.474  -9.518
  194XTA    CO315287  -8.517  26.422  -9.583
  194XTA    OA315288  -8.535  26.280  -9.587
  194XTA    CO415289  -8.427  26.200  -9.641
  194XTA    CT115290  -8.479  26.080  -9.720
  194XTA    CL515291  -8.529  26.133  -9.859
  194XTA    CL615292  -8.413  26.176  -9.955
  194XTA    OA415293  -7.567  27.221  -9.365
  194XTA    CO515294  -7.468  27.204  -9.265
  194XTA    HL115295  -7.455  27.300  -9.220
  194XTA    HL215296  -8.237  27.977  -8.902
  194XTA    HL315297  -8.347  27.829  -8.908
  194XTA    HL415298  -8.170  27.817  -8.858
  194XTA    HL515299  -8.583  27.082  -9.555
  194XTA    HL615300  -8.447  26.964  -9.564
  194XTA    HL715301  -8.675  26.867  -9.647
  194XTA    HL815302  -8.739  26.884  -9.496
  194XTA    HL915303  -8.528  26.728  -9.433
  194XTA   HL1015304  -8.494  26.711  -9.590
  194XTA   HL1115305  -8.776  26.654  -9.517
  194XTA   HL1215306  -8.693  26.617  -9.670
  194XTA   HL1315307  -8.736  26.419  -9.551
  194XTA   HL1415308  -8.645  26.471  -9.412
  194XTA   HL1515309  -8.487  26.474  -9.677
  194XTA   HL1615310  -8.439  26.449  -9.510
  194XTA   HL1715311  -8.354  26.264  -9.692
  194XTA   HL1815312  -8.369  26.165  -9.550
  194XTA   HL1915313  -8.595  26.217  -9.843
  194XTA   HL2015314  -8.584  26.048  -9.907
  194XTA   HL2115315  -8.340  26.228  -9.891
  194XTA   HL2215316  -8.463  26.230 -10.035
  194XTA   HL2315317  -8.366  26.086 -10.002
  194XTA   HL2415318  -7.386  27.181  -9.319
  194XTA   HL2515319  -7.489  27.128  -9.189
  194XTA    CO615320  -8.596  26.013  -9.643
  194XTA    CO715321  -8.370  25.964  -9.716
  194XTA    OA515322  -8.661  25.904  -9.717
  194XTA   HL2615323  -8.665  26.099  -9.627
  194XTA   HL2715324  -8.559  25.979  -9.549
  194XTA   HL2815325  -8.355  25.922  -9.614
  194XTA   HL2915326  -8.412  25.879  -9.766
  195XTA     NT15327  -3.114  26.593  -5.481
  195XTA    CN115328  -3.221  26.530  -5.533
  195XTA     C115329  -3.304  26.595  -5.623
  195XTA     C215330  -3.418  26.534  -5.672
  195XTA     C315331  -3.448  26.399  -5.630
  195XTA     C415332  -3.358  26.334  -5.547
  195XTA     C515333  -3.251  26.402  -5.490
  195XTA    CN215334  -3.123  26.679  -5.373
  195XTA     C615335  -3.133  26.626  -5.239
  195XTA     C715336  -3.146  26.717  -5.133
  195XTA     C815337  -3.138  26.860  -5.152
  195XTA     C915338  -3.134  26.916  -5.284
  195XTA    C1015339  -3.136  26.823  -5.393
  195XTA    CN315340  -2.993  26.579  -5.542
  195XTA    C1115341  -2.890  26.515  -5.475
  195XTA    C1215342  -2.765  26.485  -5.534
  195XTA    C1315343  -2.744  26.522  -5.667
  195XTA    C1415344  -2.850  26.579  -5.741
  195XTA    C1515345  -2.978  26.601  -5.680
  195XTA     H115346  -3.284  26.692  -5.662
  195XTA     H215347  -3.483  26.582  -5.742
  195XTA     H315348  -3.376  26.238  -5.507
  195XTA     H415349  -3.188  26.349  -5.417
  195XTA     H515350  -3.128  26.518  -5.217
  195XTA     H615351  -3.143  26.680  -5.029
  195XTA     H715352  -3.138  27.025  -5.298
  195XTA     H815353  -3.138  26.858  -5.502
  195XTA     H915354  -2.892  26.474  -5.370
  195XTA    H1015355  -2.688  26.438  -5.482
  195XTA    H1115356  -2.841  26.600  -5.848
  195XTA    H1215357  -3.058  26.645  -5.735
  195XTA    OA115358  -3.560  26.327  -5.669
  195XTA    CO115359  -3.659  26.395  -5.758
  195XTA    OA215360  -3.147  26.948  -5.047
  195XTA    CO215361  -3.019  26.969  -4.983
  195XTA    CL115362  -2.938  27.070  -5.059
  195XTA    CL215363  -2.792  27.095  -5.004
  195XTA    CL315364  -2.691  27.150  -5.105
  195XTA    CL415365  -2.714  27.299  -5.148
  195XTA    CO315366  -2.595  27.340  -5.233
  195XTA    OA315367  -2.486  27.354  -5.147
  195XTA    CO415368  -2.366  27.380  -5.215
  195XTA    CT115369  -2.248  27.375  -5.122
  195XTA    CL515370  -2.235  27.231  -5.070
  195XTA    CL615371  -2.224  27.115  -5.171
  195XTA    OA415372  -2.629  26.510  -5.739
  195XTA    CO515373  -2.551  26.396  -5.704
  195XTA    HL115374  -2.522  26.417  -5.602
  195XTA    HL215375  -3.717  26.470  -5.705
  195XTA    HL315376  -3.613  26.442  -5.845
  195XTA    HL415377  -3.738  26.327  -5.784
  195XTA    HL515378  -3.044  27.000  -4.881
  195XTA    HL615379  -2.968  26.878  -4.978
  195XTA    HL715380  -2.986  27.162  -5.074
  195XTA    HL815381  -2.928  27.026  -5.154
  195XTA    HL915382  -2.761  26.995  -4.959
  195XTA   HL1015383  -2.800  27.165  -4.913
  195XTA   HL1115384  -2.591  27.131  -5.068
  195XTA   HL1215385  -2.702  27.094  -5.198
  195XTA   HL1315386  -2.722  27.367  -5.061
  195XTA   HL1415387  -2.811  27.307  -5.208
  195XTA   HL1515388  -2.566  27.274  -5.313
  195XTA   HL1615389  -2.635  27.431  -5.270
  195XTA   HL1715390  -2.358  27.303  -5.294
  195XTA   HL1815391  -2.371  27.483  -5.254
  195XTA   HL1915392  -2.321  27.200  -5.011
  195XTA   HL2015393  -2.149  27.228  -5.003
  195XTA   HL2115394  -2.300  27.102  -5.245
  195XTA   HL2215395  -2.196  27.021  -5.109
  195XTA   HL2315396  -2.136  27.127  -5.226
  195XTA   HL2415397  -2.461  26.412  -5.774
  195XTA   HL2515398  -2.592  26.299  -5.724
  195XTA    CO615399  -2.283  27.471  -5.010
  195XTA    CO715400  -2.117  27.425  -5.192
  195XTA    OA515401  -2.094  27.360  -5.279
  195XTA   HL2615402  -2.309  27.564  -5.054
  195XTA   HL2715403  -2.391  27.426  -4.924
  195XTA   HL2815404  -2.030  27.413  -5.123
  195XTA   HL2915405  -2.124  27.529  -5.218
  196XTA     NT15406  -9.000  28.942  -9.426
  196XTA    CN115407  -8.988  29.015  -9.539
  196XTA     C115408  -9.098  29.074  -9.597
  196XTA     C215409  -9.093  29.159  -9.710
  196XTA     C315410  -8.973  29.178  -9.773
  196XTA     C415411  -8.856  29.117  -9.724
  196XTA     C515412  -8.862  29.048  -9.607
  196XTA    CN215413  -8.958  28.814  -9.418
  196XTA     C615414  -8.822  28.778  -9.415
  196XTA     C715415  -8.786  28.643  -9.410
  196XTA     C815416  -8.876  28.536  -9.401
  196XTA     C915417  -9.014  28.570  -9.407
  196XTA    C1015418  -9.050  28.707  -9.417
  196XTA    CN315419  -9.035  29.006  -9.316
  196XTA    C1115420  -8.949  29.105  -9.256
  196XTA    C1215421  -8.983  29.164  -9.132
  196XTA    C1315422  -9.114  29.150  -9.080
  196XTA    C1415423  -9.200  29.055  -9.143
  196XTA    C1515424  -9.166  28.987  -9.266
  196XTA     H115425  -9.191  29.049  -9.544
  196XTA     H215426  -9.185  29.184  -9.758
  196XTA     H315427  -8.760  29.123  -9.769
  196XTA     H415428  -8.771  29.014  -9.569
  196XTA     H515429  -8.740  28.840  -9.426
  196XTA     H615430  -8.684  28.608  -9.404
  196XTA     H715431  -9.096  28.499  -9.402
  196XTA     H815432  -9.156  28.724  -9.418
  196XTA     H915433  -8.855  29.123  -9.296
  196XTA    H1015434  -8.904  29.205  -9.073
  196XTA    H1115435  -9.303  29.041  -9.104
  196XTA    H1215436  -9.234  28.919  -9.320
  196XTA    OA115437  -8.968  29.253  -9.881
  196XTA    CO115438  -8.922  29.384  -9.848
  196XTA    OA215439  -8.828  28.410  -9.374
  196XTA    CO215440  -8.725  28.395  -9.282
  196XTA    CL115441  -8.733  28.255  -9.228
  196XTA    CL215442  -8.627  28.219  -9.129
  196XTA    CL315443  -8.613  28.311  -9.009
  196XTA    CL415444  -8.516  28.259  -8.903
  196XTA    CO315445  -8.497  28.364  -8.792
  196XTA    OA315446  -8.397  28.451  -8.843
  196XTA    CO415447  -8.358  28.559  -8.756
  196XTA    CT115448  -8.229  28.635  -8.788
  196XTA    CL515449  -8.247  28.694  -8.934
  196XTA    CL615450  -8.126  28.765  -8.996
  196XTA    OA415451  -9.154  29.231  -8.979
  196XTA    CO515452  -9.298  29.242  -8.963
  196XTA    HL115453  -9.321  29.299  -9.050
  196XTA    HL215454  -8.818  29.385  -9.808
  196XTA    HL315455  -8.935  29.452  -9.938
  196XTA    HL415456  -8.974  29.432  -9.760
  196XTA    HL515457  -8.623  28.415  -9.331
  196XTA    HL615458  -8.741  28.480  -9.210
  196XTA    HL715459  -8.717  28.189  -9.317
  196XTA    HL815460  -8.833  28.234  -9.189
  196XTA    HL915461  -8.541  28.197  -9.192
  196XTA   HL1015462  -8.631  28.124  -9.089
  196XTA   HL1115463  -8.601  28.418  -9.041
  196XTA   HL1215464  -8.706  28.323  -8.959
  196XTA   HL1315465  -8.422  28.244  -8.942
  196XTA   HL1415466  -8.561  28.170  -8.861
  196XTA   HL1515467  -8.586  28.408  -8.748
  196XTA   HL1615468  -8.436  28.317  -8.712
  196XTA   HL1715469  -8.438  28.631  -8.738
  196XTA   HL1815470  -8.339  28.514  -8.656
  196XTA   HL1915471  -8.336  28.755  -8.940
  196XTA   HL2015472  -8.263  28.607  -8.998
  196XTA   HL2115473  -8.085  28.842  -8.934
  196XTA   HL2215474  -8.159  28.818  -9.084
  196XTA   HL2315475  -8.044  28.699  -9.032
  196XTA   HL2415476  -9.320  29.314  -8.876
  196XTA   HL2515477  -9.346  29.145  -8.936
  196XTA    CO615478  -8.100  28.553  -8.793
  196XTA    CO715479  -8.199  28.740  -8.685
  196XTA    OA515480  -8.205  28.704  -8.577
  196XTA   HL2615481  -8.088  28.495  -8.710
  196XTA   HL2715482  -8.123  28.456  -8.894
  196XTA   HL2815483  -8.266  28.825  -8.699
  196XTA   HL2915484  -8.092  28.771  -8.692
  197XTA     NT15485  -5.434  28.199  -8.315
  197XTA    CN115486  -5.497  28.313  -8.301
  197XTA     C115487  -5.485  28.387  -8.190
  197XTA     C215488  -5.537  28.514  -8.178
  197XTA     C315489  -5.600  28.570  -8.294
  197XTA     C415490  -5.631  28.490  -8.403
  197XTA     C515491  -5.566  28.371  -8.409
  197XTA    CN215492  -5.496  28.077  -8.294
  197XTA     C615493  -5.448  27.998  -8.185
  197XTA     C715494  -5.502  27.866  -8.164
  197XTA     C815495  -5.594  27.807  -8.251
  197XTA     C915496  -5.640  27.877  -8.361
  197XTA    C1015497  -5.588  28.010  -8.383
  197XTA    CN315498  -5.305  28.188  -8.355
  197XTA    C1115499  -5.270  28.142  -8.485
  197XTA    C1215500  -5.136  28.114  -8.524
  197XTA    C1315501  -5.035  28.153  -8.436
  197XTA    C1415502  -5.068  28.213  -8.311
  197XTA    C1515503  -5.201  28.225  -8.267
  197XTA     H115504  -5.427  28.340  -8.111
  197XTA     H215505  -5.522  28.575  -8.091
  197XTA     H315506  -5.698  28.535  -8.479
  197XTA     H415507  -5.588  28.314  -8.501
  197XTA     H515508  -5.374  28.026  -8.113
  197XTA     H615509  -5.465  27.825  -8.074
  197XTA     H715510  -5.712  27.828  -8.423
  197XTA     H815511  -5.617  28.056  -8.472
  197XTA     H915512  -5.354  28.114  -8.543
  197XTA    H1015513  -5.111  28.053  -8.608
  197XTA    H1115514  -4.989  28.251  -8.257
  197XTA    H1215515  -5.212  28.252  -8.166
  197XTA    OA115516  -5.644  28.696  -8.284
  197XTA    CO115517  -5.710  28.764  -8.389
  197XTA    OA215518  -5.631  27.673  -8.243
  197XTA    CO215519  -5.587  27.604  -8.129
  197XTA    CL115520  -5.646  27.468  -8.110
  197XTA    CL215521  -5.800  27.465  -8.082
  197XTA    CL315522  -5.836  27.325  -8.033
  197XTA    CL415523  -5.897  27.243  -8.152
  197XTA    CO315524  -5.992  27.126  -8.106
  197XTA    OA315525  -6.070  27.076  -8.211
  197XTA    CO415526  -5.996  27.013  -8.309
  197XTA    CT115527  -6.065  26.941  -8.423
  197XTA    CL515528  -6.169  26.837  -8.377
  197XTA    CL615529  -6.110  26.718  -8.293
  197XTA    OA415530  -4.901  28.155  -8.466
  197XTA    CO515531  -4.863  28.116  -8.596
  197XTA    HL115532  -4.901  28.014  -8.616
  197XTA    HL215533  -5.765  28.857  -8.357
  197XTA    HL315534  -5.632  28.791  -8.465
  197XTA    HL415535  -5.797  28.704  -8.420
  197XTA    HL515536  -5.479  27.583  -8.139
  197XTA    HL615537  -5.602  27.666  -8.040
  197XTA    HL715538  -5.593  27.421  -8.022
  197XTA    HL815539  -5.627  27.416  -8.207
  197XTA    HL915540  -5.847  27.489  -8.173
  197XTA   HL1015541  -5.823  27.528  -7.997
  197XTA   HL1115542  -5.764  27.270  -7.983
  197XTA   HL1215543  -5.909  27.341  -7.959
  197XTA   HL1315544  -5.820  27.200  -8.211
  197XTA   HL1415545  -5.957  27.306  -8.212
  197XTA   HL1515546  -5.943  27.046  -8.041
  197XTA   HL1615547  -6.070  27.159  -8.033
  197XTA   HL1715548  -5.930  27.080  -8.359
  197XTA   HL1815549  -5.920  26.949  -8.264
  197XTA   HL1915550  -6.216  26.808  -8.472
  197XTA   HL2015551  -6.259  26.889  -8.321
  197XTA   HL2115552  -6.019  26.672  -8.330
  197XTA   HL2215553  -6.175  26.632  -8.274
  197XTA   HL2315554  -6.087  26.753  -8.193
  197XTA   HL2415555  -4.757  28.112  -8.609
  197XTA   HL2515556  -4.905  28.172  -8.680
  197XTA    CO615557  -5.959  26.874  -8.509
  197XTA    CO715558  -6.143  27.054  -8.503
  197XTA    OA515559  -6.231  27.088  -8.443
  197XTA   HL2615560  -6.014  26.817  -8.580
  197XTA   HL2715561  -5.888  26.784  -8.427
  197XTA   HL2815562  -6.182  27.005  -8.593
  197XTA   HL2915563  -6.083  27.144  -8.532
  198XTA     NT15564  -1.936  28.377  -3.882
  198XTA    CN115565  -1.806  28.411  -3.894
  198XTA     C115566  -1.726  28.361  -4.002
  198XTA     C215567  -1.596  28.411  -4.018
  198XTA     C315568  -1.547  28.506  -3.934
  198XTA     C415569  -1.628  28.561  -3.836
  198XTA     C515570  -1.758  28.513  -3.807
  198XTA    CN215571  -1.972  28.272  -3.807
  198XTA     C615572  -1.967  28.284  -3.668
  198XTA     C715573  -2.000  28.172  -3.583
  198XTA     C815574  -2.048  28.053  -3.635
  198XTA     C915575  -2.055  28.044  -3.779
  198XTA    C1015576  -2.011  28.148  -3.865
  198XTA    CN315577  -2.028  28.438  -3.960
  198XTA    C1115578  -2.121  28.530  -3.904
  198XTA    C1215579  -2.215  28.588  -3.992
  198XTA    C1315580  -2.199  28.572  -4.132
  198XTA    C1415581  -2.106  28.480  -4.180
  198XTA    C1515582  -2.021  28.402  -4.094
  198XTA     H115583  -1.766  28.292  -4.076
  198XTA     H215584  -1.535  28.387  -4.102
  198XTA     H315585  -1.589  28.645  -3.776
  198XTA     H415586  -1.812  28.566  -3.730
  198XTA     H515587  -1.953  28.375  -3.626
  198XTA     H615588  -2.003  28.184  -3.479
  198XTA     H715589  -2.094  27.951  -3.824
  198XTA     H815590  -2.026  28.133  -3.968
  198XTA     H915591  -2.130  28.556  -3.795
  198XTA    H1015592  -2.293  28.661  -3.965
  198XTA    H1115593  -2.099  28.451  -4.285
  198XTA    H1215594  -1.948  28.327  -4.128
  198XTA    OA115595  -1.423  28.563  -3.941
  198XTA    CO115596  -1.396  28.628  -4.065
  198XTA    OA215597  -2.100  27.963  -3.546
  198XTA    CO215598  -2.236  27.969  -3.539
  198XTA    CL115599  -2.281  27.847  -3.454
  198XTA    CL215600  -2.435  27.838  -3.434
  198XTA    CL315601  -2.481  27.947  -3.351
  198XTA    CL415602  -2.630  27.935  -3.314
  198XTA    CO315603  -2.664  28.035  -3.204
  198XTA    OA315604  -2.611  28.161  -3.232
  198XTA    CO415605  -2.569  28.217  -3.107
  198XTA    CT115606  -2.496  28.348  -3.118
  198XTA    CL515607  -2.482  28.422  -2.977
  198XTA    CL615608  -2.384  28.350  -2.880
  198XTA    OA415609  -2.285  28.642  -4.211
  198XTA    CO515610  -2.265  28.638  -4.351
  198XTA    HL115611  -2.159  28.662  -4.375
  198XTA    HL215612  -1.484  28.690  -4.099
  198XTA    HL315613  -1.307  28.692  -4.059
  198XTA    HL415614  -1.374  28.559  -4.141
  198XTA    HL515615  -2.268  28.062  -3.488
  198XTA    HL615616  -2.286  27.962  -3.637
  198XTA    HL715617  -2.225  27.860  -3.362
  198XTA    HL815618  -2.240  27.755  -3.498
  198XTA    HL915619  -2.463  27.736  -3.397
  198XTA   HL1015620  -2.488  27.854  -3.528
  198XTA   HL1115621  -2.419  27.949  -3.265
  198XTA   HL1215622  -2.469  28.044  -3.409
  198XTA   HL1315623  -2.638  27.830  -3.276
  198XTA   HL1415624  -2.684  27.937  -3.402
  198XTA   HL1515625  -2.768  28.043  -3.200
  198XTA   HL1615626  -2.630  27.997  -3.106
  198XTA   HL1715627  -2.670  28.216  -3.056
  198XTA   HL1815628  -2.495  28.153  -3.060
  198XTA   HL1915629  -2.584  28.443  -2.944
  198XTA   HL2015630  -2.438  28.514  -3.011
  198XTA   HL2115631  -2.386  28.246  -2.884
  198XTA   HL2215632  -2.410  28.380  -2.780
  198XTA   HL2315633  -2.277  28.387  -2.892
  198XTA   HL2415634  -2.342  28.693  -4.408
  198XTA   HL2515635  -2.270  28.533  -4.378
  198XTA    CO615636  -2.571  28.448  -3.207
  198XTA    CO715637  -2.352  28.336  -3.176
  198XTA    OA515638  -2.567  28.416  -3.306
  198XTA   HL2615639  -2.524  28.549  -3.197
  198XTA   HL2715640  -2.670  28.464  -3.173
  198XTA   HL2815641  -2.360  28.319  -3.316
  198XTA   HL2915642  -2.315  28.241  -3.145
  199XTA     NT15643  -3.884  23.661  -7.290
  199XTA    CN115644  -3.968  23.596  -7.384
  199XTA     C115645  -4.050  23.670  -7.468
  199XTA     C215646  -4.133  23.608  -7.562
  199XTA     C315647  -4.154  23.472  -7.561
  199XTA     C415648  -4.076  23.397  -7.471
  199XTA     C515649  -3.970  23.456  -7.394
  199XTA    CN215650  -3.938  23.687  -7.171
  199XTA     C615651  -3.976  23.821  -7.146
  199XTA     C715652  -4.021  23.858  -7.011
  199XTA     C815653  -4.020  23.766  -6.908
  199XTA     C915654  -3.983  23.633  -6.940
  199XTA    C1015655  -3.940  23.596  -7.068
  199XTA    CN315656  -3.778  23.737  -7.322
  199XTA    C1115657  -3.769  23.809  -7.443
  199XTA    C1215658  -3.657  23.888  -7.471
  199XTA    C1315659  -3.564  23.914  -7.369
  199XTA    C1415660  -3.574  23.841  -7.250
  199XTA    C1515661  -3.673  23.744  -7.229
  199XTA     H115662  -4.049  23.772  -7.459
  199XTA     H215663  -4.200  23.676  -7.618
  199XTA     H315664  -4.089  23.290  -7.452
  199XTA     H415665  -3.901  23.392  -7.338
  199XTA     H515666  -3.969  23.900  -7.212
  199XTA     H615667  -4.047  23.957  -6.995
  199XTA     H715668  -3.991  23.555  -6.863
  199XTA     H815669  -3.900  23.500  -7.096
  199XTA     H915670  -3.842  23.785  -7.513
  199XTA    H1015671  -3.654  23.938  -7.566
  199XTA    H1115672  -3.505  23.861  -7.168
  199XTA    H1215673  -3.683  23.691  -7.134
  199XTA    OA115674  -4.254  23.421  -7.645
  199XTA    CO115675  -4.282  23.284  -7.633
  199XTA    OA215676  -4.082  23.807  -6.793
  199XTA    CO215677  -4.225  23.803  -6.803
  199XTA    CL115678  -4.302  23.760  -6.670
  199XTA    CL215679  -4.340  23.616  -6.673
  199XTA    CL315680  -4.467  23.588  -6.758
  199XTA    CL415681  -4.513  23.445  -6.737
  199XTA    CO315682  -4.662  23.426  -6.769
  199XTA    OA315683  -4.696  23.293  -6.722
  199XTA    CO415684  -4.838  23.281  -6.723
  199XTA    CT115685  -4.880  23.178  -6.619
  199XTA    CL515686  -5.037  23.160  -6.614
  199XTA    CL615687  -5.100  23.122  -6.743
  199XTA    OA415688  -3.471  24.017  -7.396
  199XTA    CO515689  -3.345  23.974  -7.348
  199XTA    HL115690  -3.351  23.997  -7.244
  199XTA    HL215691  -4.370  23.261  -7.695
  199XTA    HL315692  -4.201  23.216  -7.662
  199XTA    HL415693  -4.318  23.264  -7.531
  199XTA    HL515694  -4.242  23.905  -6.838
  199XTA    HL615695  -4.256  23.726  -6.879
  199XTA    HL715696  -4.388  23.815  -6.643
  199XTA    HL815697  -4.239  23.763  -6.584
  199XTA    HL915698  -4.367  23.579  -6.570
  199XTA   HL1015699  -4.250  23.557  -6.704
  199XTA   HL1115700  -4.548  23.653  -6.721
  199XTA   HL1215701  -4.457  23.610  -6.859
  199XTA   HL1315702  -4.489  23.429  -6.628
  199XTA   HL1415703  -4.458  23.371  -6.800
  199XTA   HL1515704  -4.707  23.502  -6.698
  199XTA   HL1615705  -4.685  23.444  -6.869
  199XTA   HL1715706  -4.876  23.383  -6.706
  199XTA   HL1815707  -4.867  23.241  -6.821
  199XTA   HL1915708  -5.076  23.259  -6.575
  199XTA   HL2015709  -5.078  23.080  -6.555
  199XTA   HL2115710  -5.207  23.128  -6.730
  199XTA   HL2215711  -5.079  23.025  -6.777
  199XTA   HL2315712  -5.070  23.199  -6.813
  199XTA   HL2415713  -3.273  24.041  -7.404
  199XTA   HL2515714  -3.314  23.876  -7.379
  199XTA    CO615715  -4.843  23.242  -6.487
  199XTA    CO715716  -4.819  23.041  -6.640
  199XTA    OA515717  -4.895  23.374  -6.472
  199XTA   HL2615718  -4.734  23.242  -6.474
  199XTA   HL2715719  -4.879  23.172  -6.408
  199XTA   HL2815720  -4.839  22.971  -6.563
  199XTA   HL2915721  -4.708  23.055  -6.629
  200XTA     NT15722  -2.030  27.459 -11.268
  200XTA    CN115723  -1.935  27.544 -11.314
  200XTA     C115724  -1.868  27.515 -11.433
  200XTA     C215725  -1.767  27.602 -11.484
  200XTA     C315726  -1.751  27.727 -11.422
  200XTA     C415727  -1.818  27.764 -11.303
  200XTA     C515728  -1.898  27.661 -11.240
  200XTA    CN215729  -2.162  27.498 -11.256
  200XTA     C615730  -2.262  27.413 -11.315
  200XTA     C715731  -2.399  27.439 -11.299
  200XTA     C815732  -2.436  27.556 -11.239
  200XTA     C915733  -2.341  27.647 -11.186
  200XTA    C1015734  -2.206  27.618 -11.191
  200XTA    CN315735  -1.986  27.347 -11.205
  200XTA    C1115736  -1.921  27.359 -11.074
  200XTA    C1215737  -1.908  27.235 -10.996
  200XTA    C1315738  -1.930  27.109 -11.061
  200XTA    C1415739  -1.987  27.103 -11.187
  200XTA    C1515740  -2.011  27.219 -11.256
  200XTA     H115741  -1.889  27.425 -11.476
  200XTA     H215742  -1.699  27.577 -11.566
  200XTA     H315743  -1.790  27.861 -11.268
  200XTA     H415744  -1.938  27.680 -11.141
  200XTA     H515745  -2.241  27.313 -11.359
  200XTA     H615746  -2.469  27.372 -11.329
  200XTA     H715747  -2.371  27.745 -11.150
  200XTA     H815748  -2.141  27.694 -11.144
  200XTA     H915749  -1.909  27.464 -11.042
  200XTA    H1015750  -1.870  27.235 -10.897
  200XTA    H1115751  -2.007  27.008 -11.233
  200XTA    H1215752  -2.040  27.204 -11.363
  200XTA    OA115753  -1.662  27.812 -11.489
  200XTA    CO115754  -1.617  27.927 -11.427
  200XTA    OA215755  -2.577  27.573 -11.241
  200XTA    CO215756  -2.626  27.689 -11.186
  200XTA    CL115757  -2.783  27.695 -11.198
  200XTA    CL215758  -2.819  27.697 -11.348
  200XTA    CL315759  -2.765  27.824 -11.417
  200XTA    CL415760  -2.826  27.840 -11.563
  200XTA    CO315761  -2.778  27.744 -11.667
  200XTA    OA315762  -2.645  27.750 -11.688
  200XTA    CO415763  -2.565  27.663 -11.607
  200XTA    CT115764  -2.418  27.667 -11.656
  200XTA    CL515765  -2.329  27.778 -11.609
  200XTA    CL615766  -2.382  27.916 -11.614
  200XTA    OA415767  -1.907  26.992 -10.997
  200XTA    CO515768  -1.862  26.992 -10.870
  200XTA    HL115769  -1.874  26.889 -10.850
  200XTA    HL215770  -1.521  27.969 -11.469
  200XTA    HL315771  -1.683  28.011 -11.431
  200XTA    HL415772  -1.588  27.911 -11.324
  200XTA    HL515773  -2.588  27.714 -11.091
  200XTA    HL615774  -2.585  27.769 -11.249
  200XTA    HL715775  -2.822  27.778 -11.144
  200XTA    HL815776  -2.814  27.604 -11.142
  200XTA    HL915777  -2.930  27.701 -11.352
  200XTA   HL1015778  -2.802  27.611 -11.406
  200XTA   HL1115779  -2.788  27.909 -11.355
  200XTA   HL1215780  -2.658  27.825 -11.426
  200XTA   HL1315781  -2.789  27.937 -11.592
  200XTA   HL1415782  -2.930  27.848 -11.561
  200XTA   HL1515783  -2.814  27.652 -11.627
  200XTA   HL1615784  -2.843  27.761 -11.756
  200XTA   HL1715785  -2.561  27.671 -11.498
  200XTA   HL1815786  -2.604  27.564 -11.624
  200XTA   HL1915787  -2.226  27.770 -11.648
  200XTA   HL2015788  -2.308  27.754 -11.505
  200XTA   HL2115789  -2.306  27.984 -11.577
  200XTA   HL2215790  -2.462  27.926 -11.546
  200XTA   HL2315791  -2.416  27.942 -11.712
  200XTA   HL2415792  -1.930  27.043 -10.802
  200XTA   HL2515793  -1.756  27.027 -10.865
  200XTA    CO615794  -2.416  27.658 -11.799
  200XTA    CO715795  -2.358  27.529 -11.659
  200XTA    OA515796  -2.383  27.550 -11.800
  200XTA   HL2615797  -2.343  27.726 -11.838
  200XTA   HL2715798  -2.514  27.676 -11.848
  200XTA   HL2815799  -2.435  27.415 -11.621
  200XTA   HL2915800  -2.262  27.537 -11.614
  201XTA     NT15801  -6.542  26.887  -9.372
  201XTA    CN115802  -6.409  26.885  -9.368
  201XTA     C115803  -6.334  26.882  -9.248
  201XTA     C215804  -6.200  26.847  -9.252
  201XTA     C315805  -6.133  26.831  -9.375
  201XTA     C415806  -6.207  26.848  -9.496
  201XTA     C515807  -6.343  26.859  -9.489
  201XTA    CN215808  -6.616  26.788  -9.310
  201XTA     C615809  -6.662  26.680  -9.392
  201XTA     C715810  -6.717  26.563  -9.333
  201XTA     C815811  -6.720  26.553  -9.193
  201XTA     C915812  -6.685  26.669  -9.118
  201XTA    C1015813  -6.623  26.781  -9.172
  201XTA    CN315814  -6.601  26.997  -9.421
  201XTA    C1115815  -6.627  27.003  -9.560
  201XTA    C1215816  -6.681  27.122  -9.615
  201XTA    C1315817  -6.721  27.226  -9.532
  201XTA    C1415818  -6.705  27.206  -9.393
  201XTA    C1515819  -6.650  27.093  -9.336
  201XTA     H115820  -6.387  26.896  -9.157
  201XTA     H215821  -6.149  26.831  -9.155
  201XTA     H315822  -6.154  26.848  -9.590
  201XTA     H415823  -6.391  26.860  -9.591
  201XTA     H515824  -6.661  26.691  -9.502
  201XTA     H615825  -6.756  26.487  -9.395
  201XTA     H715826  -6.688  26.664  -9.009
  201XTA     H815827  -6.588  26.860  -9.099
  201XTA     H915828  -6.589  26.925  -9.620
  201XTA    H1015829  -6.671  27.137  -9.720
  201XTA    H1115830  -6.741  27.281  -9.325
  201XTA    H1215831  -6.645  27.090  -9.229
  201XTA    OA115832  -6.004  26.782  -9.384
  201XTA    CO115833  -5.955  26.714  -9.269
  201XTA    OA215834  -6.772  26.445  -9.127
  201XTA    CO215835  -6.882  26.378  -9.178
  201XTA    CL115836  -6.947  26.283  -9.084
  201XTA    CL215837  -6.987  26.342  -8.950
  201XTA    CL315838  -6.914  26.278  -8.836
  201XTA    CL415839  -6.759  26.287  -8.844
  201XTA    CO315840  -6.706  26.224  -8.710
  201XTA    OA315841  -6.713  26.084  -8.710
  201XTA    CO415842  -6.710  26.022  -8.585
  201XTA    CT115843  -6.724  25.868  -8.602
  201XTA    CL515844  -6.741  25.813  -8.459
  201XTA    CL615845  -6.798  25.673  -8.453
  201XTA    OA415846  -6.752  27.353  -9.572
  201XTA    CO515847  -6.674  27.399  -9.675
  201XTA    HL115848  -6.672  27.336  -9.760
  201XTA    HL215849  -6.008  26.622  -9.236
  201XTA    HL315850  -5.855  26.685  -9.292
  201XTA    HL415851  -5.943  26.767  -9.175
  201XTA    HL515852  -6.942  26.453  -9.215
  201XTA    HL615853  -6.843  26.316  -9.257
  201XTA    HL715854  -6.886  26.201  -9.068
  201XTA    HL815855  -7.039  26.241  -9.127
  201XTA    HL915856  -7.092  26.346  -8.927
  201XTA   HL1015857  -6.969  26.452  -8.967
  201XTA   HL1115858  -6.947  26.329  -8.752
  201XTA   HL1215859  -6.950  26.176  -8.822
  201XTA   HL1315860  -6.713  26.389  -8.858
  201XTA   HL1415861  -6.720  26.239  -8.935
  201XTA   HL1515862  -6.606  26.246  -8.678
  201XTA   HL1615863  -6.767  26.253  -8.622
  201XTA   HL1715864  -6.630  26.057  -8.527
  201XTA   HL1815865  -6.798  26.066  -8.542
  201XTA   HL1915866  -6.802  25.873  -8.392
  201XTA   HL2015867  -6.645  25.825  -8.409
  201XTA   HL2115868  -6.903  25.672  -8.488
  201XTA   HL2215869  -6.786  25.637  -8.350
  201XTA   HL2315870  -6.745  25.593  -8.514
  201XTA   HL2415871  -6.571  27.430  -9.644
  201XTA   HL2515872  -6.709  27.499  -9.707
  201XTA    CO615873  -6.604  25.813  -8.677
  201XTA    CO715874  -6.850  25.854  -8.696
  201XTA    OA515875  -6.532  25.733  -8.584
  201XTA   HL2615876  -6.544  25.891  -8.720
  201XTA   HL2715877  -6.642  25.738  -8.753
  201XTA   HL2815878  -6.863  25.752  -8.734
  201XTA   HL2915879  -6.838  25.914  -8.788
  202XTA     NT15880  -6.757  24.959 -11.610
  202XTA    CN115881  -6.863  24.904 -11.670
  202XTA     C115882  -6.847  24.828 -11.782
  202XTA     C215883  -6.959  24.787 -11.859
  202XTA     C315884  -7.087  24.819 -11.807
  202XTA     C415885  -7.098  24.891 -11.689
  202XTA     C515886  -6.988  24.943 -11.625
  202XTA    CN215887  -6.697  25.075 -11.654
  202XTA     C615888  -6.737  25.198 -11.598
  202XTA     C715889  -6.668  25.312 -11.643
  202XTA     C815890  -6.545  25.312 -11.721
  202XTA     C915891  -6.511  25.181 -11.774
  202XTA    C1015892  -6.585  25.070 -11.736
  202XTA    CN315893  -6.712  24.894 -11.498
  202XTA    C1115894  -6.763  24.930 -11.369
  202XTA    C1215895  -6.726  24.851 -11.255
  202XTA    C1315896  -6.625  24.754 -11.266
  202XTA    C1415897  -6.572  24.727 -11.392
  202XTA    C1515898  -6.623  24.791 -11.509
  202XTA     H115899  -6.749  24.803 -11.823
  202XTA     H215900  -6.951  24.731 -11.950
  202XTA     H315901  -7.196  24.902 -11.641
  202XTA     H415902  -6.992  25.002 -11.534
  202XTA     H515903  -6.819  25.203 -11.532
  202XTA     H615904  -6.701  25.403 -11.607
  202XTA     H715905  -6.423  25.176 -11.841
  202XTA     H815906  -6.540  24.974 -11.766
  202XTA     H915907  -6.834  25.009 -11.354
  202XTA    H1015908  -6.775  24.878 -11.162
  202XTA    H1115909  -6.504  24.648 -11.412
  202XTA    H1215910  -6.590  24.770 -11.608
  202XTA    OA115911  -7.204  24.778 -11.868
  202XTA    CO115912  -7.195  24.650 -11.932
  202XTA    OA215913  -6.472  25.431 -11.746
  202XTA    CO215914  -6.392  25.444 -11.865
  202XTA    CL115915  -6.476  25.500 -11.980
  202XTA    CL215916  -6.551  25.396 -12.068
  202XTA    CL315917  -6.622  25.453 -12.187
  202XTA    CL415918  -6.642  25.339 -12.291
  202XTA    CO315919  -6.753  25.386 -12.392
  202XTA    OA315920  -6.700  25.486 -12.468
  202XTA    CO415921  -6.786  25.520 -12.570
  202XTA    CT115922  -6.723  25.631 -12.650
  202XTA    CL515923  -6.805  25.664 -12.776
  202XTA    CL615924  -6.959  25.705 -12.749
  202XTA    OA415925  -6.582  24.696 -11.146
  202XTA    CO515926  -6.521  24.568 -11.155
  202XTA    HL115927  -6.522  24.518 -11.055
  202XTA    HL215928  -7.142  24.657 -12.030
  202XTA    HL315929  -7.141  24.578 -11.868
  202XTA    HL415930  -7.288  24.606 -11.968
  202XTA    HL515931  -6.314  25.521 -11.851
  202XTA    HL615932  -6.331  25.358 -11.896
  202XTA    HL715933  -6.414  25.558 -12.037
  202XTA    HL815934  -6.538  25.582 -11.938
  202XTA    HL915935  -6.621  25.347 -11.998
  202XTA   HL1015936  -6.487  25.314 -12.093
  202XTA   HL1115937  -6.715  25.499 -12.153
  202XTA   HL1215938  -6.561  25.531 -12.229
  202XTA   HL1315939  -6.666  25.250 -12.237
  202XTA   HL1415940  -6.546  25.315 -12.334
  202XTA   HL1515941  -6.784  25.303 -12.452
  202XTA   HL1615942  -6.847  25.410 -12.343
  202XTA   HL1715943  -6.804  25.433 -12.634
  202XTA   HL1815944  -6.884  25.546 -12.527
  202XTA   HL1915945  -6.814  25.570 -12.842
  202XTA   HL2015946  -6.755  25.748 -12.828
  202XTA   HL2115947  -6.970  25.783 -12.679
  202XTA   HL2215948  -7.006  25.615 -12.712
  202XTA   HL2315949  -7.000  25.741 -12.842
  202XTA   HL2415950  -6.416  24.563 -11.192
  202XTA   HL2515951  -6.582  24.503 -11.215
  202XTA    CO615952  -6.582  25.586 -12.700
  202XTA    CO715953  -6.718  25.758 -12.574
  202XTA    OA515954  -6.645  25.855 -12.635
  202XTA   HL2615955  -6.523  25.680 -12.704
  202XTA   HL2715956  -6.523  25.539 -12.618
  202XTA   HL2815957  -6.683  25.740 -12.468
  202XTA   HL2915958  -6.811  25.809 -12.560
  203XTA     NT15959  -8.493  24.778  -8.408
  203XTA    CN115960  -8.518  24.697  -8.512
  203XTA     C115961  -8.427  24.688  -8.621
  203XTA     C215962  -8.453  24.601  -8.728
  203XTA     C315963  -8.566  24.516  -8.723
  203XTA     C415964  -8.655  24.524  -8.618
  203XTA     C515965  -8.633  24.621  -8.518
  203XTA    CN215966  -8.379  24.751  -8.342
  203XTA     C615967  -8.361  24.627  -8.272
  203XTA     C715968  -8.240  24.605  -8.198
  203XTA     C815969  -8.136  24.695  -8.203
  203XTA     C915970  -8.146  24.810  -8.286
  203XTA    C1015971  -8.267  24.839  -8.349
  203XTA    CN315972  -8.576  24.880  -8.378
  203XTA    C1115973  -8.627  24.970  -8.472
  203XTA    C1215974  -8.718  25.065  -8.433
  203XTA    C1315975  -8.773  25.066  -8.304
  203XTA    C1415976  -8.718  24.971  -8.210
  203XTA    C1515977  -8.615  24.889  -8.243
  203XTA     H115978  -8.334  24.749  -8.623
  203XTA     H215979  -8.377  24.588  -8.810
  203XTA     H315980  -8.749  24.473  -8.614
  203XTA     H415981  -8.705  24.636  -8.443
  203XTA     H515982  -8.432  24.542  -8.277
  203XTA     H615983  -8.230  24.514  -8.148
  203XTA     H715984  -8.055  24.867  -8.289
  203XTA     H815985  -8.287  24.932  -8.397
  203XTA     H915986  -8.589  24.974  -8.574
  203XTA    H1015987  -8.755  25.135  -8.500
  203XTA    H1115988  -8.763  24.962  -8.111
  203XTA    H1215989  -8.566  24.817  -8.180
  203XTA    OA115990  -8.596  24.430  -8.830
  203XTA    CO115991  -8.534  24.463  -8.960
  203XTA    OA215992  -8.010  24.663  -8.149
  203XTA    CO215993  -8.007  24.570  -8.047
  203XTA    CL115994  -7.865  24.572  -7.996
  203XTA    CL215995  -7.772  24.520  -8.103
  203XTA    CL315996  -7.630  24.505  -8.029
  203XTA    CL415997  -7.619  24.383  -7.933
  203XTA    CO315998  -7.483  24.393  -7.857
  203XTA    OA315999  -7.389  24.368  -7.958
  203XTA    CO416000  -7.263  24.389  -7.922
  203XTA    CT116001  -7.165  24.338  -8.028
  203XTA    CL516002  -7.014  24.352  -7.987
  203XTA    CL616003  -6.985  24.490  -7.921
  203XTA    OA416004  -8.869  25.156  -8.269
  203XTA    CO516005  -8.926  25.245  -8.367
  203XTA    HL116006  -8.984  25.321  -8.314
  203XTA    HL216007  -8.430  24.442  -8.959
  203XTA    HL316008  -8.581  24.402  -9.029
  203XTA    HL416009  -8.549  24.568  -8.985
  203XTA    HL516010  -8.071  24.603  -7.964
  203XTA    HL616011  -8.050  24.473  -8.083
  203XTA    HL716012  -7.841  24.523  -7.907
  203XTA    HL816013  -7.836  24.679  -7.979
  203XTA    HL916014  -7.757  24.578  -8.193
  203XTA   HL1016015  -7.808  24.425  -8.146
  203XTA   HL1116016  -7.546  24.515  -8.094
  203XTA   HL1216017  -7.614  24.589  -7.968
  203XTA   HL1316018  -7.614  24.285  -7.983
  203XTA   HL1416019  -7.708  24.374  -7.868
  203XTA   HL1516020  -7.474  24.493  -7.815
  203XTA   HL1616021  -7.480  24.336  -7.768
  203XTA   HL1716022  -7.242  24.498  -7.914
  203XTA   HL1816023  -7.244  24.343  -7.824
  203XTA   HL1916024  -6.949  24.324  -8.073
  203XTA   HL2016025  -6.994  24.285  -7.904
  203XTA   HL2116026  -6.882  24.502  -7.952
  203XTA   HL2216027  -7.004  24.484  -7.811
  203XTA   HL2316028  -7.034  24.570  -7.966
  203XTA   HL2416029  -8.998  25.200  -8.432
  203XTA   HL2516030  -8.846  25.309  -8.411
  203XTA    CO616031  -7.176  24.410  -8.162
  203XTA    CO716032  -7.192  24.195  -8.064
  203XTA    OA516033  -7.134  24.543  -8.160
  203XTA   HL2616034  -7.272  24.414  -8.201
  203XTA   HL2716035  -7.118  24.355  -8.233
  203XTA   HL2816036  -7.298  24.177  -8.050
  203XTA   HL2916037  -7.164  24.134  -7.986
  204XTA     NT16038  -0.946  27.376  -6.688
  204XTA    CN116039  -1.080  27.382  -6.704
  204XTA     C116040  -1.153  27.278  -6.762
  204XTA     C216041  -1.289  27.292  -6.790
  204XTA     C316042  -1.355  27.408  -6.744
  204XTA     C416043  -1.290  27.519  -6.681
  204XTA     C516044  -1.152  27.499  -6.662
  204XTA    CN216045  -0.883  27.343  -6.573
  204XTA     C616046  -0.858  27.443  -6.477
  204XTA     C716047  -0.800  27.407  -6.351
  204XTA     C816048  -0.766  27.276  -6.316
  204XTA     C916049  -0.791  27.174  -6.412
  204XTA    C1016050  -0.844  27.212  -6.541
  204XTA    CN316051  -0.874  27.433  -6.785
  204XTA    C1116052  -0.793  27.355  -6.873
  204XTA    C1216053  -0.722  27.411  -6.981
  204XTA    C1316054  -0.729  27.553  -6.991
  204XTA    C1416055  -0.808  27.625  -6.905
  204XTA    C1516056  -0.879  27.571  -6.801
  204XTA     H116057  -1.100  27.180  -6.795
  204XTA     H216058  -1.350  27.219  -6.838
  204XTA     H316059  -1.344  27.608  -6.646
  204XTA     H416060  -1.096  27.585  -6.613
  204XTA     H516061  -0.896  27.539  -6.508
  204XTA     H616062  -0.784  27.482  -6.271
  204XTA     H716063  -0.772  27.069  -6.385
  204XTA     H816064  -0.871  27.131  -6.604
  204XTA     H916065  -0.792  27.248  -6.866
  204XTA    H1016066  -0.674  27.352  -7.053
  204XTA    H1116067  -0.822  27.730  -6.911
  204XTA    H1216068  -0.917  27.648  -6.735
  204XTA    OA116069  -1.487  27.423  -6.782
  204XTA    CO116070  -1.572  27.451  -6.675
  204XTA    OA216071  -0.742  27.257  -6.182
  204XTA    CO216072  -0.855  27.280  -6.101
  204XTA    CL116073  -0.935  27.146  -6.077
  204XTA    CL216074  -1.073  27.178  -6.025
  204XTA    CL316075  -1.075  27.237  -5.874
  204XTA    CL416076  -1.214  27.232  -5.796
  204XTA    CO316077  -1.210  27.280  -5.652
  204XTA    OA316078  -1.340  27.267  -5.589
  204XTA    CO416079  -1.330  27.316  -5.458
  204XTA    CT116080  -1.472  27.324  -5.398
  204XTA    CL516081  -1.475  27.434  -5.284
  204XTA    CL616082  -1.346  27.449  -5.211
  204XTA    OA416083  -0.675  27.606  -7.106
  204XTA    CO516084  -0.623  27.734  -7.086
  204XTA    HL116085  -0.698  27.804  -7.068
  204XTA    HL216086  -1.540  27.547  -6.634
  204XTA    HL316087  -1.678  27.455  -6.707
  204XTA    HL416088  -1.562  27.382  -6.596
  204XTA    HL516089  -0.821  27.313  -6.006
  204XTA    HL616090  -0.916  27.355  -6.148
  204XTA    HL716091  -0.880  27.075  -6.011
  204XTA    HL816092  -0.931  27.092  -6.169
  204XTA    HL916093  -1.114  27.080  -6.040
  204XTA   HL1016094  -1.129  27.247  -6.086
  204XTA   HL1116095  -0.999  27.185  -5.813
  204XTA   HL1216096  -1.051  27.341  -5.876
  204XTA   HL1316097  -1.248  27.132  -5.796
  204XTA   HL1416098  -1.291  27.289  -5.857
  204XTA   HL1516099  -1.117  27.230  -5.608
  204XTA   HL1616100  -1.182  27.380  -5.643
  204XTA   HL1716101  -1.264  27.255  -5.396
  204XTA   HL1816102  -1.282  27.415  -5.460
  204XTA   HL1916103  -1.557  27.426  -5.214
  204XTA   HL2016104  -1.481  27.528  -5.337
  204XTA   HL2116105  -1.353  27.528  -5.139
  204XTA   HL2216106  -1.268  27.485  -5.278
  204XTA   HL2316107  -1.308  27.357  -5.163
  204XTA   HL2416108  -0.560  27.764  -7.167
  204XTA   HL2516109  -0.546  27.730  -7.008
  204XTA    CO616110  -1.523  27.192  -5.347
  204XTA    CO716111  -1.589  27.364  -5.504
  204XTA    OA516112  -1.422  27.140  -5.254
  204XTA   HL2616113  -1.544  27.127  -5.434
  204XTA   HL2716114  -1.613  27.197  -5.291
  204XTA   HL2816115  -1.567  27.461  -5.553
  204XTA   HL2916116  -1.594  27.285  -5.568
  205XTA     NT16117  -6.007  30.420  -7.151
  205XTA    CN116118  -5.998  30.294  -7.100
  205XTA     C116119  -6.080  30.193  -7.148
  205XTA     C216120  -6.097  30.075  -7.083
  205XTA     C316121  -6.021  30.041  -6.962
  205XTA     C416122  -5.941  30.143  -6.909
  205XTA     C516123  -5.926  30.265  -6.978
  205XTA    CN216124  -6.129  30.466  -7.172
  205XTA     C616125  -6.191  30.458  -7.301
  205XTA     C716126  -6.318  30.505  -7.316
  205XTA     C816127  -6.395  30.546  -7.204
  205XTA     C916128  -6.332  30.566  -7.081
  205XTA    C1016129  -6.198  30.520  -7.061
  205XTA    CN316130  -5.912  30.460  -7.236
  205XTA    C1116131  -5.883  30.388  -7.354
  205XTA    C1216132  -5.785  30.425  -7.442
  205XTA    C1316133  -5.704  30.531  -7.410
  205XTA    C1416134  -5.722  30.606  -7.293
  205XTA    C1516135  -5.826  30.567  -7.207
  205XTA     H116136  -6.131  30.204  -7.248
  205XTA     H216137  -6.168  30.005  -7.125
  205XTA     H316138  -5.900  30.122  -6.809
  205XTA     H416139  -5.876  30.345  -6.918
  205XTA     H516140  -6.140  30.416  -7.387
  205XTA     H616141  -6.363  30.502  -7.408
  205XTA     H716142  -6.387  30.604  -7.004
  205XTA     H816143  -6.159  30.522  -6.959
  205XTA     H916144  -5.936  30.300  -7.389
  205XTA    H1016145  -5.786  30.370  -7.537
  205XTA    H1116146  -5.666  30.695  -7.269
  205XTA    H1216147  -5.847  30.620  -7.112
  205XTA    OA116148  -6.018  29.912  -6.905
  205XTA    CO116149  -6.131  29.832  -6.942
  205XTA    OA216150  -6.532  30.545  -7.206
  205XTA    CO216151  -6.585  30.484  -7.089
  205XTA    CL116152  -6.721  30.435  -7.126
  205XTA    CL216153  -6.707  30.307  -7.219
  205XTA    CL316154  -6.843  30.265  -7.279
  205XTA    CL416155  -6.892  30.342  -7.404
  205XTA    CO316156  -6.823  30.298  -7.530
  205XTA    OA316157  -6.803  30.413  -7.599
  205XTA    CO416158  -6.747  30.389  -7.726
  205XTA    CT116159  -6.711  30.527  -7.777
  205XTA    CL516160  -6.833  30.603  -7.834
  205XTA    CL616161  -6.789  30.724  -7.913
  205XTA    OA416162  -5.598  30.561  -7.488
  205XTA    CO516163  -5.599  30.507  -7.618
  205XTA    HL116164  -5.685  30.522  -7.684
  205XTA    HL216165  -6.231  29.874  -6.901
  205XTA    HL316166  -6.129  29.806  -7.052
  205XTA    HL416167  -6.107  29.736  -6.905
  205XTA    HL516168  -6.528  30.397  -7.059
  205XTA    HL616169  -6.594  30.547  -6.999
  205XTA    HL716170  -6.774  30.524  -7.178
  205XTA    HL816171  -6.785  30.409  -7.046
  205XTA    HL916172  -6.666  30.230  -7.157
  205XTA   HL1016173  -6.636  30.318  -7.304
  205XTA   HL1116174  -6.853  30.159  -7.313
  205XTA   HL1216175  -6.908  30.272  -7.189
  205XTA   HL1316176  -6.881  30.451  -7.393
  205XTA   HL1416177  -7.002  30.321  -7.417
  205XTA   HL1516178  -6.727  30.265  -7.494
  205XTA   HL1616179  -6.861  30.211  -7.573
  205XTA   HL1716180  -6.656  30.326  -7.710
  205XTA   HL1816181  -6.809  30.333  -7.796
  205XTA   HL1916182  -6.896  30.618  -7.749
  205XTA   HL2016183  -6.897  30.536  -7.894
  205XTA   HL2116184  -6.743  30.712  -8.009
  205XTA   HL2216185  -6.725  30.785  -7.839
  205XTA   HL2316186  -6.877  30.782  -7.935
  205XTA   HL2416187  -5.578  30.403  -7.616
  205XTA   HL2516188  -5.512  30.555  -7.667
  205XTA    CO616189  -6.591  30.522  -7.853
  205XTA    CO716190  -6.625  30.598  -7.677
  205XTA    OA516191  -6.537  30.597  -7.799
  205XTA   HL2616192  -6.595  30.544  -7.965
  205XTA   HL2716193  -6.549  30.420  -7.846
  205XTA   HL2816194  -6.576  30.524  -7.569
  205XTA   HL2916195  -6.657  30.698  -7.645
  206XTA     NT16196  -5.103  25.365  -6.040
  206XTA    CN116197  -5.173  25.296  -6.126
  206XTA     C116198  -5.178  25.328  -6.263
  206XTA     C216199  -5.235  25.236  -6.355
  206XTA     C316200  -5.296  25.113  -6.308
  206XTA     C416201  -5.292  25.082  -6.173
  206XTA     C516202  -5.222  25.169  -6.086
  206XTA    CN216203  -4.977  25.337  -6.006
  206XTA     C616204  -4.870  25.412  -6.065
  206XTA     C716205  -4.733  25.386  -6.030
  206XTA     C816206  -4.702  25.285  -5.936
  206XTA     C916207  -4.810  25.210  -5.881
  206XTA    C1016208  -4.945  25.233  -5.913
  206XTA    CN316209  -5.173  25.456  -5.973
  206XTA    C1116210  -5.168  25.589  -6.013
  206XTA    C1216211  -5.219  25.687  -5.921
  206XTA    C1316212  -5.265  25.658  -5.790
  206XTA    C1416213  -5.261  25.521  -5.757
  206XTA    C1516214  -5.216  25.421  -5.847
  206XTA     H116215  -5.133  25.419  -6.299
  206XTA     H216216  -5.243  25.255  -6.460
  206XTA     H316217  -5.337  24.988  -6.136
  206XTA     H416218  -5.211  25.143  -5.982
  206XTA     H516219  -4.894  25.487  -6.137
  206XTA     H616220  -4.652  25.438  -6.079
  206XTA     H716221  -4.782  25.136  -5.801
  206XTA     H816222  -5.026  25.195  -5.855
  206XTA     H916223  -5.121  25.603  -6.107
  206XTA    H1016224  -5.222  25.795  -5.938
  206XTA    H1116225  -5.305  25.485  -5.668
  206XTA    H1216226  -5.226  25.321  -5.822
  206XTA    OA116227  -5.359  25.030  -6.393
  206XTA    CO116228  -5.327  25.042  -6.531
  206XTA    OA216229  -4.572  25.279  -5.899
  206XTA    CO216230  -4.526  25.171  -5.820
  206XTA    CL116231  -4.382  25.198  -5.783
  206XTA    CL216232  -4.289  25.165  -5.906
  206XTA    CL316233  -4.137  25.171  -5.871
  206XTA    CL416234  -4.093  25.060  -5.771
  206XTA    CO316235  -4.130  24.920  -5.811
  206XTA    OA316236  -4.057  24.829  -5.732
  206XTA    CO416237  -4.130  24.777  -5.630
  206XTA    CT116238  -4.042  24.669  -5.565
  206XTA    CL516239  -4.129  24.617  -5.445
  206XTA    CL616240  -4.264  24.542  -5.462
  206XTA    OA416241  -5.323  25.754  -5.716
  206XTA    CO516242  -5.370  25.708  -5.586
  206XTA    HL116243  -5.453  25.636  -5.601
  206XTA    HL216244  -5.362  24.953  -6.592
  206XTA    HL316245  -5.374  25.132  -6.568
  206XTA    HL416246  -5.218  25.045  -6.555
  206XTA    HL516247  -4.580  25.163  -5.729
  206XTA    HL616248  -4.533  25.079  -5.876
  206XTA    HL716249  -4.357  25.133  -5.697
  206XTA    HL816250  -4.360  25.300  -5.746
  206XTA    HL916251  -4.312  25.232  -5.996
  206XTA   HL1016252  -4.319  25.068  -5.954
  206XTA   HL1116253  -4.075  25.167  -5.959
  206XTA   HL1216254  -4.111  25.269  -5.829
  206XTA   HL1316255  -4.136  25.072  -5.672
  206XTA   HL1416256  -3.986  25.061  -5.752
  206XTA   HL1516257  -4.234  24.909  -5.803
  206XTA   HL1616258  -4.091  24.902  -5.913
  206XTA   HL1716259  -4.167  24.852  -5.564
  206XTA   HL1816260  -4.226  24.743  -5.676
  206XTA   HL1916261  -4.152  24.703  -5.377
  206XTA   HL2016262  -4.056  24.561  -5.386
  206XTA   HL2116263  -4.231  24.459  -5.522
  206XTA   HL2216264  -4.328  24.587  -5.532
  206XTA   HL2316265  -4.320  24.506  -5.378
  206XTA   HL2416266  -5.402  25.793  -5.535
  206XTA   HL2516267  -5.285  25.676  -5.522
  206XTA    CO616268  -3.904  24.727  -5.512
  206XTA    CO716269  -4.003  24.556  -5.667
  206XTA    OA516270  -3.927  24.841  -5.427
  206XTA   HL2616271  -3.830  24.754  -5.593
  206XTA   HL2716272  -3.850  24.645  -5.459
  206XTA   HL2816273  -4.087  24.518  -5.730
  206XTA   HL2916274  -3.932  24.599  -5.735
  207XTA     NT16275  -1.676  26.526 -11.131
  207XTA    CN116276  -1.624  26.455 -11.028
  207XTA     C116277  -1.696  26.444 -10.903
  207XTA     C216278  -1.643  26.355 -10.802
  207XTA     C316279  -1.513  26.297 -10.812
  207XTA     C416280  -1.441  26.323 -10.927
  207XTA     C516281  -1.491  26.398 -11.032
  207XTA    CN216282  -1.628  26.651 -11.151
  207XTA     C616283  -1.643  26.754 -11.057
  207XTA     C716284  -1.579  26.878 -11.092
  207XTA     C816285  -1.510  26.908 -11.209
  207XTA     C916286  -1.483  26.798 -11.287
  207XTA    C1016287  -1.553  26.674 -11.265
  207XTA    CN316288  -1.806  26.500 -11.162
  207XTA    C1116289  -1.911  26.588 -11.118
  207XTA    C1216290  -2.044  26.552 -11.146
  207XTA    C1316291  -2.071  26.435 -11.224
  207XTA    C1416292  -1.964  26.353 -11.266
  207XTA    C1516293  -1.838  26.381 -11.228
  207XTA     H116294  -1.797  26.497 -10.888
  207XTA     H216295  -1.706  26.348 -10.714
  207XTA     H316296  -1.346  26.274 -10.934
  207XTA     H416297  -1.429  26.431 -11.112
  207XTA     H516298  -1.700  26.746 -10.964
  207XTA     H616299  -1.576  26.958 -11.027
  207XTA     H716300  -1.418  26.801 -11.375
  207XTA     H816301  -1.545  26.598 -11.336
  207XTA     H916302  -1.893  26.683 -11.071
  207XTA    H1016303  -2.130  26.604 -11.112
  207XTA    H1116304  -1.984  26.274 -11.340
  207XTA    H1216305  -1.766  26.322 -11.278
  207XTA    OA116306  -1.460  26.220 -10.714
  207XTA    CO116307  -1.504  26.085 -10.719
  207XTA    OA216308  -1.471  27.034 -11.249
  207XTA    CO216309  -1.538  27.141 -11.192
  207XTA    CL116310  -1.469  27.270 -11.243
  207XTA    CL216311  -1.559  27.395 -11.219
  207XTA    CL316312  -1.505  27.526 -11.283
  207XTA    CL416313  -1.365  27.565 -11.245
  207XTA    CO316314  -1.342  27.716 -11.234
  207XTA    OA316315  -1.440  27.785 -11.155
  207XTA    CO416316  -1.449  27.735 -11.019
  207XTA    CT116317  -1.490  27.842 -10.917
  207XTA    CL516318  -1.631  27.904 -10.934
  207XTA    CL616319  -1.740  27.807 -10.917
  207XTA    OA416320  -2.205  26.412 -11.251
  207XTA    CO516321  -2.240  26.290 -11.312
  207XTA    HL116322  -2.202  26.193 -11.275
  207XTA    HL216323  -1.444  26.022 -10.777
  207XTA    HL316324  -1.507  26.049 -10.618
  207XTA    HL416325  -1.604  26.076 -10.759
  207XTA    HL516326  -1.634  27.139 -11.237
  207XTA    HL616327  -1.548  27.144 -11.084
  207XTA    HL716328  -1.438  27.261 -11.343
  207XTA    HL816329  -1.386  27.284 -11.175
  207XTA    HL916330  -1.568  27.413 -11.112
  207XTA   HL1016331  -1.648  27.362 -11.268
  207XTA   HL1116332  -1.508  27.511 -11.386
  207XTA   HL1216333  -1.578  27.606 -11.265
  207XTA   HL1316334  -1.268  27.530 -11.302
  207XTA   HL1416335  -1.343  27.519 -11.142
  207XTA   HL1516336  -1.250  27.739 -11.187
  207XTA   HL1616337  -1.352  27.746 -11.337
  207XTA   HL1716338  -1.513  27.656 -11.038
  207XTA   HL1816339  -1.347  27.709 -10.987
  207XTA   HL1916340  -1.636  27.937 -11.035
  207XTA   HL2016341  -1.636  27.993 -10.875
  207XTA   HL2116342  -1.742  27.729 -10.998
  207XTA   HL2216343  -1.837  27.847 -10.913
  207XTA   HL2316344  -1.731  27.752 -10.820
  207XTA   HL2416345  -2.226  26.302 -11.421
  207XTA   HL2516346  -2.345  26.264 -11.295
  207XTA    CO616347  -1.388  27.954 -10.902
  207XTA    CO716348  -1.469  27.804 -10.770
  207XTA    OA516349  -1.389  27.922 -10.761
  207XTA   HL2616350  -1.419  28.054 -10.927
  207XTA   HL2716351  -1.286  27.941 -10.940
  207XTA   HL2816352  -1.408  27.714 -10.744
  207XTA   HL2916353  -1.553  27.805 -10.696
  208XTA     NT16354  -3.587  24.490  -5.166
  208XTA    CN116355  -3.565  24.620  -5.199
  208XTA     C116356  -3.533  24.721  -5.103
  208XTA     C216357  -3.504  24.852  -5.139
  208XTA     C316358  -3.523  24.887  -5.274
  208XTA     C416359  -3.564  24.790  -5.369
  208XTA     C516360  -3.584  24.655  -5.334
  208XTA    CN216361  -3.706  24.457  -5.113
  208XTA     C616362  -3.730  24.445  -4.974
  208XTA     C716363  -3.848  24.398  -4.920
  208XTA     C816364  -3.953  24.353  -5.003
  208XTA     C916365  -3.936  24.371  -5.144
  208XTA    C1016366  -3.816  24.429  -5.199
  208XTA    CN316367  -3.493  24.398  -5.173
  208XTA    C1116368  -3.375  24.417  -5.101
  208XTA    C1216369  -3.266  24.322  -5.112
  208XTA    C1316370  -3.275  24.211  -5.198
  208XTA    C1416371  -3.400  24.184  -5.263
  208XTA    C1516372  -3.509  24.274  -5.247
  208XTA     H116373  -3.536  24.699  -4.993
  208XTA     H216374  -3.474  24.914  -5.058
  208XTA     H316375  -3.601  24.816  -5.466
  208XTA     H416376  -3.620  24.576  -5.407
  208XTA     H516377  -3.649  24.466  -4.906
  208XTA     H616378  -3.862  24.393  -4.816
  208XTA     H716379  -4.010  24.354  -5.217
  208XTA     H816380  -3.816  24.446  -5.299
  208XTA     H916381  -3.354  24.508  -5.050
  208XTA    H1016382  -3.176  24.331  -5.052
  208XTA    H1116383  -3.420  24.090  -5.313
  208XTA    H1216384  -3.606  24.255  -5.299
  208XTA    OA116385  -3.520  25.018  -5.316
  208XTA    CO116386  -3.468  25.106  -5.226
  208XTA    OA216387  -4.074  24.302  -4.959
  208XTA    CO216388  -4.086  24.255  -4.824
  208XTA    CL116389  -4.026  24.114  -4.804
  208XTA    CL216390  -3.871  24.107  -4.836
  208XTA    CL316391  -3.805  23.976  -4.795
  208XTA    CL416392  -3.669  23.950  -4.875
  208XTA    CO316393  -3.588  24.078  -4.901
  208XTA    OA316394  -3.549  24.132  -4.775
  208XTA    CO416395  -3.464  24.246  -4.781
  208XTA    CT116396  -3.381  24.231  -4.651
  208XTA    CL516397  -3.318  24.088  -4.649
  208XTA    CL616398  -3.242  24.022  -4.770
  208XTA    OA416399  -3.183  24.109  -5.213
  208XTA    CO516400  -3.087  24.105  -5.113
  208XTA    HL116401  -3.021  24.022  -5.126
  208XTA    HL216402  -3.461  25.209  -5.277
  208XTA    HL316403  -3.522  25.117  -5.138
  208XTA    HL416404  -3.370  25.071  -5.197
  208XTA    HL516405  -4.042  24.338  -4.769
  208XTA    HL616406  -4.187  24.250  -4.796
  208XTA    HL716407  -4.086  24.045  -4.861
  208XTA    HL816408  -4.033  24.090  -4.698
  208XTA    HL916409  -3.810  24.194  -4.806
  208XTA   HL1016410  -3.872  24.105  -4.944
  208XTA   HL1116411  -3.792  23.985  -4.690
  208XTA   HL1216412  -3.873  23.894  -4.817
  208XTA   HL1316413  -3.686  23.915  -4.980
  208XTA   HL1416414  -3.605  23.870  -4.831
  208XTA   HL1516415  -3.498  24.047  -4.960
  208XTA   HL1616416  -3.650  24.152  -4.955
  208XTA   HL1716417  -3.398  24.239  -4.872
  208XTA   HL1816418  -3.518  24.339  -4.772
  208XTA   HL1916419  -3.392  24.019  -4.614
  208XTA   HL2016420  -3.247  24.083  -4.572
  208XTA   HL2116421  -3.202  23.920  -4.753
  208XTA   HL2216422  -3.140  24.068  -4.789
  208XTA   HL2316423  -3.298  24.032  -4.859
  208XTA   HL2416424  -3.134  24.101  -5.014
  208XTA   HL2516425  -3.029  24.199  -5.115
  208XTA    CO616426  -3.466  24.251  -4.525
  208XTA    CO716427  -3.263  24.324  -4.652
  208XTA    OA516428  -3.409  24.221  -4.435
  208XTA   HL2616429  -3.556  24.190  -4.539
  208XTA   HL2716430  -3.503  24.356  -4.522
  208XTA   HL2816431  -3.150  24.281  -4.726
  208XTA   HL2916432  -3.222  24.326  -4.552
  209XTA     NT16433  -2.508  26.609  -9.545
  209XTA    CN116434  -2.486  26.644  -9.422
  209XTA     C116435  -2.411  26.763  -9.396
  209XTA     C216436  -2.378  26.797  -9.262
  209XTA     C316437  -2.416  26.720  -9.151
  209XTA     C416438  -2.495  26.609  -9.178
  209XTA     C516439  -2.525  26.565  -9.311
  209XTA    CN216440  -2.596  26.680  -9.610
  209XTA     C616441  -2.555  26.775  -9.705
  209XTA     C716442  -2.644  26.866  -9.768
  209XTA     C816443  -2.782  26.858  -9.736
  209XTA     C916444  -2.827  26.747  -9.654
  209XTA    C1016445  -2.738  26.663  -9.583
  209XTA    CN316446  -2.461  26.493  -9.591
  209XTA    C1116447  -2.333  26.486  -9.649
  209XTA    C1216448  -2.292  26.360  -9.700
  209XTA    C1316449  -2.368  26.245  -9.695
  209XTA    C1416450  -2.499  26.254  -9.648
  209XTA    C1516451  -2.541  26.379  -9.587
  209XTA     H116452  -2.369  26.823  -9.478
  209XTA     H216453  -2.310  26.879  -9.258
  209XTA     H316454  -2.523  26.549  -9.093
  209XTA     H416455  -2.574  26.470  -9.327
  209XTA     H516456  -2.449  26.777  -9.727
  209XTA     H616457  -2.597  26.928  -9.840
  209XTA     H716458  -2.930  26.737  -9.634
  209XTA     H816459  -2.767  26.578  -9.529
  209XTA     H916460  -2.268  26.569  -9.652
  209XTA    H1016461  -2.184  26.348  -9.730
  209XTA    H1116462  -2.566  26.167  -9.637
  209XTA    H1216463  -2.637  26.379  -9.541
  209XTA    OA116464  -2.388  26.756  -9.020
  209XTA    CO116465  -2.313  26.877  -8.997
  209XTA    OA216466  -2.869  26.948  -9.793
  209XTA    CO216467  -3.010  26.930  -9.789
  209XTA    CL116468  -3.053  26.798  -9.867
  209XTA    CL216469  -3.203  26.771  -9.852
  209XTA    CL316470  -3.242  26.719  -9.714
  209XTA    CL416471  -3.203  26.577  -9.691
  209XTA    CO316472  -3.218  26.547  -9.545
  209XTA    OA316473  -3.172  26.419  -9.520
  209XTA    CO416474  -3.242  26.309  -9.563
  209XTA    CT116475  -3.146  26.203  -9.620
  209XTA    CL516476  -3.057  26.132  -9.514
  209XTA    CL616477  -2.959  26.223  -9.446
  209XTA    OA416478  -2.318  26.133  -9.757
  209XTA    CO516479  -2.366  26.010  -9.695
  209XTA    HL116480  -2.371  26.021  -9.590
  209XTA    HL216481  -2.347  26.966  -9.042
  209XTA    HL316482  -2.313  26.895  -8.885
  209XTA    HL416483  -2.206  26.868  -9.025
  209XTA    HL516484  -3.029  26.923  -9.683
  209XTA    HL616485  -3.058  27.018  -9.820
  209XTA    HL716486  -3.001  26.720  -9.810
  209XTA    HL816487  -3.008  26.809  -9.963
  209XTA    HL916488  -3.232  26.691  -9.915
  209XTA   HL1016489  -3.264  26.859  -9.881
  209XTA   HL1116490  -3.185  26.781  -9.647
  209XTA   HL1216491  -3.352  26.724  -9.685
  209XTA   HL1316492  -3.102  26.563  -9.717
  209XTA   HL1416493  -3.264  26.516  -9.745
  209XTA   HL1516494  -3.156  26.612  -9.488
  209XTA   HL1616495  -3.325  26.562  -9.514
  209XTA   HL1716496  -3.310  26.271  -9.489
  209XTA   HL1816497  -3.302  26.327  -9.642
  209XTA   HL1916498  -3.002  26.053  -9.560
  209XTA   HL2016499  -3.129  26.080  -9.444
  209XTA   HL2116500  -2.910  26.173  -9.360
  209XTA   HL2216501  -3.007  26.304  -9.399
  209XTA   HL2316502  -2.887  26.269  -9.517
  209XTA   HL2416503  -2.302  25.921  -9.719
  209XTA   HL2516504  -2.465  25.973  -9.724
  209XTA    CO616505  -3.052  26.263  -9.728
  209XTA    CO716506  -3.214  26.083  -9.683
  209XTA    OA516507  -3.314  26.026  -9.604
  209XTA   HL2616508  -3.124  26.307  -9.801
  209XTA   HL2716509  -2.996  26.348  -9.690
  209XTA   HL2816510  -3.142  26.020  -9.735
  209XTA   HL2916511  -3.272  26.114  -9.770
  210XTA     NT16512  -3.111  27.995  -9.808
  210XTA    CN116513  -3.195  27.946  -9.720
  210XTA     C116514  -3.161  27.902  -9.591
  210XTA     C216515  -3.263  27.876  -9.496
  210XTA     C316516  -3.399  27.872  -9.537
  210XTA     C416517  -3.431  27.903  -9.669
  210XTA     C516518  -3.331  27.945  -9.756
  210XTA    CN216519  -3.080  28.127  -9.812
  210XTA     C616520  -3.137  28.213  -9.906
  210XTA     C716521  -3.126  28.347  -9.907
  210XTA     C816522  -3.030  28.408  -9.823
  210XTA     C916523  -2.946  28.326  -9.753
  210XTA    C1016524  -2.978  28.190  -9.737
  210XTA    CN316525  -3.064  27.912  -9.901
  210XTA    C1116526  -3.145  27.847  -9.987
  210XTA    C1216527  -3.096  27.745 -10.067
  210XTA    C1316528  -2.957  27.720 -10.082
  210XTA    C1416529  -2.872  27.795  -9.996
  210XTA    C1516530  -2.925  27.886  -9.903
  210XTA     H116531  -3.056  27.889  -9.565
  210XTA     H216532  -3.230  27.848  -9.394
  210XTA     H316533  -3.533  27.899  -9.709
  210XTA     H416534  -3.353  27.983  -9.854
  210XTA     H516535  -3.209  28.166  -9.980
  210XTA     H616536  -3.183  28.410  -9.968
  210XTA     H716537  -2.869  28.368  -9.699
  210XTA     H816538  -2.935  28.127  -9.672
  210XTA     H916539  -3.254  27.867  -9.989
  210XTA    H1016540  -3.165  27.692 -10.138
  210XTA    H1116541  -2.764  27.783 -10.002
  210XTA    H1216542  -2.860  27.938  -9.835
  210XTA    OA116543  -3.494  27.824  -9.439
  210XTA    CO116544  -3.625  27.792  -9.473
  210XTA    OA216545  -3.006  28.547  -9.832
  210XTA    CO216546  -3.121  28.628  -9.864
  210XTA    CL116547  -3.080  28.777  -9.837
  210XTA    CL216548  -3.204  28.868  -9.864
  210XTA    CL316549  -3.239  28.872 -10.006
  210XTA    CL416550  -3.367  28.791 -10.039
  210XTA    CO316551  -3.389  28.736 -10.178
  210XTA    OA316552  -3.525  28.695 -10.194
  210XTA    CO416553  -3.532  28.637 -10.327
  210XTA    CT116554  -3.677  28.574 -10.354
  210XTA    CL516555  -3.669  28.505 -10.490
  210XTA    CL616556  -3.581  28.377 -10.497
  210XTA    OA416557  -2.906  27.637 -10.184
  210XTA    CO516558  -2.769  27.596 -10.179
  210XTA    HL116559  -2.752  27.519 -10.253
  210XTA    HL216560  -3.619  27.711  -9.538
  210XTA    HL316561  -3.678  27.768  -9.387
  210XTA    HL416562  -3.684  27.870  -9.526
  210XTA    HL516563  -3.148  28.611  -9.975
  210XTA    HL616564  -3.203  28.602  -9.796
  210XTA    HL716565  -2.985  28.799  -9.890
  210XTA    HL816566  -3.059  28.791  -9.729
  210XTA    HL916567  -3.163  28.966  -9.840
  210XTA   HL1016568  -3.294  28.850  -9.796
  210XTA   HL1116569  -3.261  28.975 -10.042
  210XTA   HL1216570  -3.161  28.837 -10.071
  210XTA   HL1316571  -3.447  28.856 -10.013
  210XTA   HL1416572  -3.374  28.709  -9.973
  210XTA   HL1516573  -3.359  28.814 -10.250
  210XTA   HL1616574  -3.320  28.649 -10.192
  210XTA   HL1716575  -3.509  28.704 -10.410
  210XTA   HL1816576  -3.458  28.555 -10.325
  210XTA   HL1916577  -3.622  28.572 -10.561
  210XTA   HL2016578  -3.771  28.468 -10.514
  210XTA   HL2116579  -3.615  28.308 -10.424
  210XTA   HL2216580  -3.478  28.405 -10.494
  210XTA   HL2316581  -3.611  28.322 -10.590
  210XTA   HL2416582  -2.753  27.558 -10.076
  210XTA   HL2516583  -2.706  27.678 -10.207
  210XTA    CO616584  -3.789  28.683 -10.378
  210XTA    CO716585  -3.722  28.470 -10.248
  210XTA    OA516586  -3.636  28.413 -10.193
  210XTA   HL2616587  -3.771  28.739 -10.463
  210XTA   HL2716588  -3.921  28.633 -10.372
  210XTA   HL2816589  -3.793  28.412 -10.308
  210XTA   HL2916590  -3.772  28.522 -10.175
  211XTA     NT16591  -5.181  23.391 -10.701
  211XTA    CN116592  -5.153  23.269 -10.763
  211XTA     C116593  -5.018  23.216 -10.759
  211XTA     C216594  -4.990  23.086 -10.800
  211XTA     C316595  -5.083  23.004 -10.857
  211XTA     C416596  -5.217  23.054 -10.869
  211XTA     C516597  -5.248  23.185 -10.817
  211XTA    CN216598  -5.229  23.385 -10.579
  211XTA     C616599  -5.368  23.376 -10.568
  211XTA     C716600  -5.423  23.361 -10.443
  211XTA     C816601  -5.347  23.372 -10.327
  211XTA     C916602  -5.210  23.372 -10.338
  211XTA    C1016603  -5.147  23.372 -10.464
  211XTA    CN316604  -5.176  23.509 -10.767
  211XTA    C1116605  -5.280  23.561 -10.843
  211XTA    C1216606  -5.267  23.691 -10.894
  211XTA    C1316607  -5.146  23.763 -10.899
  211XTA    C1416608  -5.036  23.697 -10.843
  211XTA    C1516609  -5.051  23.580 -10.766
  211XTA     H116610  -4.931  23.278 -10.729
  211XTA     H216611  -4.890  23.058 -10.787
  211XTA     H316612  -5.293  22.992 -10.909
  211XTA     H416613  -5.351  23.228 -10.824
  211XTA     H516614  -5.433  23.373 -10.655
  211XTA     H616615  -5.531  23.373 -10.433
  211XTA     H716616  -5.139  23.367 -10.252
  211XTA     H816617  -5.040  23.362 -10.469
  211XTA     H916618  -5.373  23.507 -10.853
  211XTA    H1016619  -5.342  23.735 -10.947
  211XTA    H1116620  -4.940  23.743 -10.848
  211XTA    H1216621  -4.962  23.544 -10.713
  211XTA    OA116622  -5.064  22.872 -10.906
  211XTA    CO116623  -4.937  22.817 -10.886
  211XTA    OA216624  -5.417  23.391 -10.212
  211XTA    CO216625  -5.346  23.414 -10.095
  211XTA    CL116626  -5.295  23.556 -10.077
  211XTA    CL216627  -5.176  23.569  -9.988
  211XTA    CL316628  -5.161  23.714  -9.949
  211XTA    CL416629  -5.044  23.740  -9.856
  211XTA    CO316630  -5.055  23.862  -9.772
  211XTA    OA316631  -5.125  23.831  -9.652
  211XTA    CO416632  -5.123  23.930  -9.555
  211XTA    CT116633  -5.194  23.894  -9.422
  211XTA    CL516634  -5.137  23.761  -9.362
  211XTA    CL616635  -5.001  23.751  -9.307
  211XTA    OA416636  -5.129  23.881 -10.961
  211XTA    CO516637  -5.227  23.911 -11.055
  211XTA    HL116638  -5.195  24.005 -11.101
  211XTA    HL216639  -4.913  22.844 -10.786
  211XTA    HL316640  -4.923  22.709 -10.892
  211XTA    HL416641  -4.859  22.858 -10.948
  211XTA    HL516642  -5.419  23.407 -10.012
  211XTA    HL616643  -5.268  23.346 -10.069
  211XTA    HL716644  -5.379  23.619 -10.038
  211XTA    HL816645  -5.277  23.597 -10.178
  211XTA    HL916646  -5.084  23.547 -10.042
  211XTA   HL1016647  -5.186  23.510  -9.895
  211XTA   HL1116648  -5.144  23.779 -10.038
  211XTA   HL1216649  -5.255  23.758  -9.905
  211XTA   HL1316650  -4.943  23.742  -9.903
  211XTA   HL1416651  -5.031  23.659  -9.786
  211XTA   HL1516652  -4.957  23.897  -9.749
  211XTA   HL1616653  -5.105  23.943  -9.832
  211XTA   HL1716654  -5.026  23.947  -9.533
  211XTA   HL1816655  -5.166  24.018  -9.606
  211XTA   HL1916656  -5.120  23.691  -9.443
  211XTA   HL2016657  -5.212  23.717  -9.302
  211XTA   HL2116658  -4.990  23.658  -9.251
  211XTA   HL2216659  -4.990  23.832  -9.240
  211XTA   HL2316660  -4.931  23.759  -9.385
  211XTA   HL2416661  -5.321  23.934 -11.008
  211XTA   HL2516662  -5.241  23.833 -11.132
  211XTA    CO616663  -5.349  23.876  -9.448
  211XTA    CO716664  -5.188  24.000  -9.308
  211XTA    OA516665  -5.286  24.100  -9.329
  211XTA   HL2616666  -5.377  23.964  -9.507
  211XTA   HL2716667  -5.358  23.794  -9.519
  211XTA   HL2816668  -5.096  24.050  -9.313
  211XTA   HL2916669  -5.208  23.959  -9.214
  212XTA     NT16670  -3.114  25.416 -10.890
  212XTA    CN116671  -2.992  25.407 -10.941
  212XTA     C116672  -2.927  25.514 -11.007
  212XTA     C216673  -2.796  25.491 -11.057
  212XTA     C316674  -2.727  25.374 -11.025
  212XTA     C416675  -2.790  25.278 -10.948
  212XTA     C516676  -2.919  25.290 -10.908
  212XTA    CN216677  -3.127  25.489 -10.776
  212XTA     C616678  -3.034  25.471 -10.668
  212XTA     C716679  -3.063  25.533 -10.544
  212XTA     C816680  -3.175  25.619 -10.529
  212XTA     C916681  -3.263  25.638 -10.640
  212XTA    C1016682  -3.243  25.577 -10.764
  212XTA    CN316683  -3.209  25.326 -10.922
  212XTA    C1116684  -3.249  25.304 -11.058
  212XTA    C1216685  -3.357  25.207 -11.085
  212XTA    C1316686  -3.413  25.134 -10.983
  212XTA    C1416687  -3.374  25.153 -10.851
  212XTA    C1516688  -3.268  25.250 -10.823
  212XTA     H116689  -2.985  25.603 -11.035
  212XTA     H216690  -2.741  25.567 -11.110
  212XTA     H316691  -2.728  25.196 -10.921
  212XTA     H416692  -2.966  25.213 -10.849
  212XTA     H516693  -2.950  25.405 -10.686
  212XTA     H616694  -2.994  25.507 -10.465
  212XTA     H716695  -3.334  25.708 -10.622
  212XTA     H816696  -3.319  25.587 -10.842
  212XTA     H916697  -3.197  25.362 -11.133
  212XTA    H1016698  -3.394  25.202 -11.184
  212XTA    H1116699  -3.428  25.102 -10.778
  212XTA    H1216700  -3.237  25.251 -10.724
  212XTA    OA116701  -2.596  25.362 -11.064
  212XTA    CO116702  -2.509  25.353 -10.957
  212XTA    OA216703  -3.210  25.677 -10.406
  212XTA    CO216704  -3.118  25.644 -10.300
  212XTA    CL116705  -3.185  25.663 -10.170
  212XTA    CL216706  -3.086  25.619 -10.059
  212XTA    CL316707  -3.151  25.638  -9.922
  212XTA    CL416708  -3.228  25.518  -9.869
  212XTA    CO316709  -3.267  25.555  -9.726
  212XTA    OA316710  -3.343  25.679  -9.736
  212XTA    CO416711  -3.369  25.717  -9.604
  212XTA    CT116712  -3.479  25.832  -9.606
  212XTA    CL516713  -3.600  25.777  -9.690
  212XTA    CL616714  -3.723  25.866  -9.706
  212XTA    OA416715  -3.511  25.040 -11.018
  212XTA    CO516716  -3.557  24.949 -10.918
  212XTA    HL116717  -3.486  24.900 -10.853
  212XTA    HL216718  -2.548  25.295 -10.872
  212XTA    HL316719  -2.408  25.313 -10.986
  212XTA    HL416720  -2.492  25.455 -10.910
  212XTA    HL516721  -3.089  25.536 -10.305
  212XTA    HL616722  -3.024  25.689 -10.312
  212XTA    HL716723  -3.281  25.620 -10.162
  212XTA    HL816724  -3.197  25.774 -10.159
  212XTA    HL916725  -2.993  25.667 -10.065
  212XTA   HL1016726  -3.064  25.515 -10.072
  212XTA   HL1116727  -3.066  25.649  -9.856
  212XTA   HL1216728  -3.218  25.725  -9.917
  212XTA   HL1316729  -3.164  25.432  -9.871
  212XTA   HL1416730  -3.320  25.507  -9.928
  212XTA   HL1516731  -3.329  25.472  -9.687
  212XTA   HL1616732  -3.176  25.568  -9.667
  212XTA   HL1716733  -3.398  25.648  -9.523
  212XTA   HL1816734  -3.276  25.764  -9.571
  212XTA   HL1916735  -3.640  25.688  -9.642
  212XTA   HL2016736  -3.569  25.761  -9.799
  212XTA   HL2116737  -3.767  25.885  -9.608
  212XTA   HL2216738  -3.795  25.825  -9.773
  212XTA   HL2316739  -3.683  25.957  -9.759
  212XTA   HL2416740  -3.620  24.878 -10.967
  212XTA   HL2516741  -3.626  24.992 -10.851
  212XTA    CO616742  -3.413  25.951  -9.667
  212XTA    CO716743  -3.511  25.854  -9.468
  212XTA    OA516744  -3.582  25.782  -9.425
  212XTA   HL2616745  -3.489  26.024  -9.692
  212XTA   HL2716746  -3.357  25.915  -9.791
  212XTA   HL2816747  -3.569  25.949  -9.465
  212XTA   HL2916748  -3.415  25.866  -9.418
  213XTA     NT16749  -6.093  25.117  -8.098
  213XTA    CN116750  -6.128  24.991  -8.061
  213XTA     C116751  -6.261  24.943  -8.087
  213XTA     C216752  -6.294  24.808  -8.059
  213XTA     C316753  -6.204  24.725  -7.993
  213XTA     C416754  -6.076  24.774  -7.965
  213XTA     C516755  -6.038  24.907  -7.995
  213XTA    CN216756  -6.105  25.215  -8.007
  213XTA     C616757  -6.216  25.301  -8.026
  213XTA     C716758  -6.220  25.414  -7.941
  213XTA     C816759  -6.117  25.446  -7.849
  213XTA     C916760  -6.013  25.351  -7.830
  213XTA    C1016761  -6.018  25.230  -7.901
  213XTA    CN316762  -6.026  25.137  -8.214
  213XTA    C1116763  -5.881  25.127  -8.216
  213XTA    C1216764  -5.805  25.151  -8.335
  213XTA    C1316765  -5.873  25.170  -8.452
  213XTA    C1416766  -6.016  25.163  -8.456
  213XTA    C1516767  -6.091  25.150  -8.342
  213XTA     H116768  -6.332  25.003  -8.139
  213XTA     H216769  -6.396  24.768  -8.070
  213XTA     H316770  -5.998  24.713  -7.924
  213XTA     H416771  -5.931  24.940  -7.983
  213XTA     H516772  -6.289  25.285  -8.105
  213XTA     H616773  -6.297  25.483  -7.960
  213XTA     H716774  -5.941  25.363  -7.758
  213XTA     H816775  -5.935  25.162  -7.878
  213XTA     H916776  -5.831  25.119  -8.120
  213XTA    H1016777  -5.699  25.144  -8.344
  213XTA    H1116778  -6.058  25.182  -8.552
  213XTA    H1216779  -6.204  25.139  -8.342
  213XTA    OA116780  -6.246  24.599  -7.962
  213XTA    CO116781  -6.148  24.505  -7.963
  213XTA    OA216782  -6.119  25.558  -7.772
  213XTA    CO216783  -6.179  25.670  -7.824
  213XTA    CL116784  -6.138  25.786  -7.740
  213XTA    CL216785  -6.213  25.915  -7.779
  213XTA    CL316786  -6.163  25.970  -7.917
  213XTA    CL416787  -6.013  25.992  -7.924
  213XTA    CO316788  -5.964  26.049  -8.064
  213XTA    OA316789  -6.018  25.970  -8.174
  213XTA    CO416790  -5.970  25.836  -8.188
  213XTA    CT116791  -6.018  25.785  -8.327
  213XTA    CL516792  -5.953  25.649  -8.356
  213XTA    CL616793  -5.985  25.531  -8.264
  213XTA    OA416794  -5.804  25.206  -8.566
  213XTA    CO516795  -5.793  25.349  -8.564
  213XTA    HL116796  -5.756  25.394  -8.657
  213XTA    HL216797  -6.083  24.507  -7.873
  213XTA    HL316798  -6.199  24.408  -7.959
  213XTA    HL416799  -6.098  24.509  -8.058
  213XTA    HL516800  -6.153  25.686  -7.926
  213XTA    HL616801  -6.292  25.667  -7.815
  213XTA    HL716802  -6.031  25.806  -7.762
  213XTA    HL816803  -6.151  25.758  -7.636
  213XTA    HL916804  -6.190  25.991  -7.706
  213XTA   HL1016805  -6.317  25.897  -7.794
  213XTA   HL1116806  -6.188  25.892  -7.983
  213XTA   HL1216807  -6.223  26.058  -7.946
  213XTA   HL1316808  -5.961  25.896  -7.905
  213XTA   HL1416809  -6.003  26.054  -7.829
  213XTA   HL1516810  -6.011  26.153  -8.069
  213XTA   HL1616811  -5.856  26.058  -8.053
  213XTA   HL1716812  -5.859  25.830  -8.195
  213XTA   HL1816813  -6.004  25.788  -8.093
  213XTA   HL1916814  -5.846  25.675  -8.343
  213XTA   HL2016815  -5.955  25.616  -8.461
  213XTA   HL2116816  -6.011  25.550  -8.162
  213XTA   HL2216817  -5.902  25.461  -8.263
  213XTA   HL2316818  -6.077  25.486  -8.306
  213XTA   HL2416819  -5.742  25.383  -8.475
  213XTA   HL2516820  -5.891  25.392  -8.553
  213XTA    CO616821  -5.974  25.890  -8.439
  213XTA    CO716822  -6.174  25.778  -8.327
  213XTA    OA516823  -5.994  25.850  -8.539
  213XTA   HL2616824  -5.863  25.890  -8.427
  213XTA   HL2716825  -6.017  25.988  -8.429
  213XTA   HL2816826  -6.214  25.703  -8.213
  213XTA   HL2916827  -6.210  25.882  -8.324
  214XTA     NT16828  -7.548  24.634  -6.661
  214XTA    CN116829  -7.490  24.744  -6.722
  214XTA     C116830  -7.382  24.809  -6.663
  214XTA     C216831  -7.314  24.915  -6.731
  214XTA     C316832  -7.363  24.955  -6.857
  214XTA     C416833  -7.486  24.912  -6.907
  214XTA     C516834  -7.549  24.801  -6.845
  214XTA    CN216835  -7.620  24.655  -6.549
  214XTA     C616836  -7.561  24.663  -6.422
  214XTA     C716837  -7.635  24.673  -6.305
  214XTA     C816838  -7.777  24.677  -6.305
  214XTA     C916839  -7.834  24.677  -6.436
  214XTA    C1016840  -7.755  24.661  -6.551
  214XTA    CN316841  -7.531  24.515  -6.714
  214XTA    C1116842  -7.401  24.456  -6.711
  214XTA    C1216843  -7.372  24.335  -6.775
  214XTA    C1316844  -7.480  24.263  -6.827
  214XTA    C1416845  -7.608  24.313  -6.827
  214XTA    C1516846  -7.634  24.441  -6.773
  214XTA     H116847  -7.336  24.768  -6.580
  214XTA     H216848  -7.226  24.957  -6.685
  214XTA     H316849  -7.539  24.956  -6.990
  214XTA     H416850  -7.642  24.760  -6.886
  214XTA     H516851  -7.454  24.657  -6.409
  214XTA     H616852  -7.583  24.646  -6.205
  214XTA     H716853  -7.937  24.676  -6.437
  214XTA     H816854  -7.807  24.663  -6.645
  214XTA     H916855  -7.313  24.500  -6.665
  214XTA    H1016856  -7.271  24.287  -6.762
  214XTA    H1116857  -7.691  24.255  -6.862
  214XTA    H1216858  -7.728  24.485  -6.780
  214XTA    OA116859  -7.300  25.058  -6.916
  214XTA    CO116860  -7.318  25.071  -7.052
  214XTA    OA216861  -7.847  24.669  -6.194
  214XTA    CO216862  -7.983  24.715  -6.200
  214XTA    CL116863  -8.041  24.742  -6.061
  214XTA    CL216864  -7.932  24.782  -5.967
  214XTA    CL316865  -7.861  24.917  -5.986
  214XTA    CL416866  -7.957  25.037  -5.981
  214XTA    CO316867  -7.899  25.157  -6.052
  214XTA    OA316868  -7.890  25.135  -6.189
  214XTA    CO416869  -7.840  25.248  -6.256
  214XTA    CT116870  -7.845  25.221  -6.408
  214XTA    CL516871  -7.761  25.089  -6.432
  214XTA    CL616872  -7.605  25.109  -6.434
  214XTA    OA416873  -7.461  24.136  -6.869
  214XTA    CO516874  -7.452  24.037  -6.766
  214XTA    HL116875  -7.542  24.040  -6.711
  214XTA    HL216876  -7.333  24.977  -7.102
  214XTA    HL316877  -7.396  25.142  -7.069
  214XTA    HL416878  -7.229  25.115  -7.094
  214XTA    HL516879  -7.991  24.810  -6.258
  214XTA    HL616880  -8.038  24.638  -6.254
  214XTA    HL716881  -8.081  24.646  -6.024
  214XTA    HL816882  -8.131  24.818  -6.056
  214XTA    HL916883  -7.843  24.712  -5.960
  214XTA   HL1016884  -7.975  24.777  -5.868
  214XTA   HL1116885  -7.785  24.927  -5.906
  214XTA   HL1216886  -7.811  24.915  -6.079
  214XTA   HL1316887  -7.987  25.060  -5.878
  214XTA   HL1416888  -8.051  25.018  -6.026
  214XTA   HL1516889  -7.956  25.240  -6.036
  214XTA   HL1616890  -7.804  25.174  -6.007
  214XTA   HL1716891  -7.908  25.336  -6.236
  214XTA   HL1816892  -7.732  25.273  -6.231
  214XTA   HL1916893  -7.787  25.048  -6.534
  214XTA   HL2016894  -7.780  25.017  -6.362
  214XTA   HL2116895  -7.570  25.143  -6.338
  214XTA   HL2216896  -7.582  25.176  -6.512
  214XTA   HL2316897  -7.550  25.013  -6.442
  214XTA   HL2416898  -7.361  24.037  -6.707
  214XTA   HL2516899  -7.469  23.939  -6.817
  214XTA    CO616900  -7.789  25.340  -6.491
  214XTA    CO716901  -7.991  25.197  -6.457
  214XTA    OA516902  -7.757  25.316  -6.592
  214XTA   HL2616903  -7.704  25.385  -6.428
  214XTA   HL2716904  -7.863  25.417  -6.492
  214XTA   HL2816905  -8.044  25.097  -6.363
  214XTA   HL2916906  -7.986  25.152  -6.552
  215XTA     NT16907  -5.586  28.637  -4.921
  215XTA    CN116908  -5.504  28.707  -5.006
  215XTA     C116909  -5.550  28.805  -5.096
  215XTA     C216910  -5.473  28.874  -5.185
  215XTA     C316911  -5.339  28.826  -5.207
  215XTA     C416912  -5.287  28.730  -5.119
  215XTA     C516913  -5.366  28.669  -5.020
  215XTA    CN216914  -5.601  28.504  -4.936
  215XTA     C616915  -5.542  28.415  -4.844
  215XTA     C716916  -5.579  28.277  -4.858
  215XTA     C816917  -5.662  28.231  -4.964
  215XTA     C916918  -5.714  28.319  -5.056
  215XTA    C1016919  -5.680  28.457  -5.042
  215XTA    CN316920  -5.631  28.696  -4.803
  215XTA    C1116921  -5.767  28.675  -4.764
  215XTA    C1216922  -5.808  28.720  -4.639
  215XTA    C1316923  -5.716  28.785  -4.558
  215XTA    C1416924  -5.589  28.821  -4.599
  215XTA    C1516925  -5.545  28.765  -4.720
  215XTA     H116926  -5.651  28.848  -5.078
  215XTA     H216927  -5.509  28.954  -5.246
  215XTA     H316928  -5.188  28.691  -5.124
  215XTA     H416929  -5.334  28.584  -4.964
  215XTA     H516930  -5.483  28.443  -4.759
  215XTA     H616931  -5.540  28.205  -4.788
  215XTA     H716932  -5.782  28.279  -5.130
  215XTA     H816933  -5.713  28.540  -5.109
  215XTA     H916934  -5.850  28.642  -4.825
  215XTA    H1016935  -5.911  28.716  -4.615
  215XTA    H1116936  -5.526  28.874  -4.534
  215XTA    H1216937  -5.437  28.764  -4.741
  215XTA    OA116938  -5.253  28.874  -5.302
  215XTA    CO116939  -5.297  28.948  -5.406
  215XTA    OA216940  -5.703  28.099  -4.972
  215XTA    CO216941  -5.611  27.997  -4.923
  215XTA    CL116942  -5.480  27.997  -5.003
  215XTA    CL216943  -5.516  27.994  -5.149
  215XTA    CL316944  -5.397  27.972  -5.241
  215XTA    CL416945  -5.341  28.101  -5.293
  215XTA    CO316946  -5.233  28.066  -5.399
  215XTA    OA316947  -5.117  28.013  -5.346
  215XTA    CO416948  -5.013  27.965  -5.433
  215XTA    CT116949  -4.881  27.942  -5.353
  215XTA    CL516950  -4.834  28.073  -5.275
  215XTA    CL616951  -4.795  28.196  -5.366
  215XTA    OA416952  -5.770  28.844  -4.441
  215XTA    CO516953  -5.699  28.952  -4.377
  215XTA    HL116954  -5.608  28.916  -4.342
  215XTA    HL216955  -5.202  28.998  -5.435
  215XTA    HL316956  -5.343  28.897  -5.500
  215XTA    HL416957  -5.373  29.019  -5.370
  215XTA    HL516958  -5.597  28.016  -4.813
  215XTA    HL616959  -5.661  27.902  -4.928
  215XTA    HL716960  -5.419  27.917  -4.972
  215XTA    HL816961  -5.425  28.090  -4.980
  215XTA    HL916962  -5.580  28.074  -5.187
  215XTA   HL1016963  -5.572  27.901  -5.161
  215XTA   HL1116964  -5.325  27.917  -5.186
  215XTA   HL1216965  -5.434  27.913  -5.317
  215XTA   HL1316966  -5.297  28.154  -5.213
  215XTA   HL1416967  -5.400  28.184  -5.327
  215XTA   HL1516968  -5.278  28.008  -5.478
  215XTA   HL1616969  -5.200  28.162  -5.449
  215XTA   HL1716970  -5.049  27.875  -5.471
  215XTA   HL1816971  -4.996  28.034  -5.518
  215XTA   HL1916972  -4.749  28.055  -5.209
  215XTA   HL2016973  -4.922  28.107  -5.225
  215XTA   HL2116974  -4.857  28.187  -5.452
  215XTA   HL2216975  -4.690  28.189  -5.396
  215XTA   HL2316976  -4.810  28.295  -5.316
  215XTA   HL2416977  -5.767  28.981  -4.294
  215XTA   HL2516978  -5.694  29.035  -4.448
  215XTA    CO616979  -4.776  27.901  -5.459
  215XTA    CO716980  -4.904  27.824  -5.259
  215XTA    OA516981  -4.795  27.805  -5.509
  215XTA   HL2616982  -4.684  27.877  -5.403
  215XTA   HL2716983  -4.748  27.974  -5.532
  215XTA   HL2816984  -4.995  27.861  -5.159
  215XTA   HL2916985  -4.957  27.744  -5.306
  216XTA     NT16986  -3.955  26.338  -4.879
  216XTA    CN116987  -3.828  26.297  -4.876
  216XTA     C116988  -3.743  26.319  -4.769
  216XTA     C216989  -3.617  26.258  -4.763
  216XTA     C316990  -3.579  26.166  -4.857
  216XTA     C416991  -3.659  26.148  -4.974
  216XTA     C516992  -3.782  26.221  -4.984
  216XTA    CN216993  -3.995  26.426  -4.975
  216XTA     C616994  -3.935  26.554  -4.996
  216XTA     C716995  -3.986  26.644  -5.092
  216XTA     C816996  -4.095  26.602  -5.172
  216XTA     C916997  -4.149  26.471  -5.157
  216XTA    C1016998  -4.096  26.383  -5.064
  216XTA    CN316999  -4.044  26.284  -4.794
  216XTA    C1117000  -4.086  26.155  -4.800
  216XTA    C1217001  -4.185  26.113  -4.704
  216XTA    C1317002  -4.248  26.206  -4.615
  216XTA    C1417003  -4.198  26.340  -4.613
  216XTA    C1517004  -4.097  26.377  -4.705
  216XTA     H117005  -3.778  26.392  -4.697
  216XTA     H217006  -3.555  26.278  -4.677
  216XTA     H317007  -3.630  26.083  -5.055
  216XTA     H417008  -3.856  26.199  -5.064
  216XTA     H517009  -3.853  26.598  -4.928
  216XTA     H617010  -3.941  26.744  -5.105
  216XTA     H717011  -4.229  26.434  -5.216
  216XTA     H817012  -4.136  26.282  -5.043
  216XTA     H917013  -4.043  26.093  -4.877
  216XTA    H1017014  -4.216  26.011  -4.695
  216XTA    H1117015  -4.231  26.413  -4.541
  216XTA    H1217016  -4.067  26.480  -4.705
  216XTA    OA117017  -3.460  26.092  -4.843
  216XTA    CO117018  -3.468  25.949  -4.882
  216XTA    OA217019  -4.135  26.676  -5.279
  216XTA    CO217020  -4.210  26.619  -5.381
  216XTA    CL117021  -4.230  26.712  -5.497
  216XTA    CL217022  -4.107  26.732  -5.580
  216XTA    CL317023  -4.060  26.877  -5.572
  216XTA    CL417024  -3.996  26.909  -5.436
  216XTA    CO317025  -3.976  27.056  -5.403
  216XTA    OA317026  -3.887  27.060  -5.291
  216XTA    CO417027  -3.751  27.029  -5.322
  216XTA    CT117028  -3.669  27.163  -5.313
  216XTA    CL517029  -3.518  27.127  -5.311
  216XTA    CL617030  -3.473  27.026  -5.208
  216XTA    OA417031  -4.340  26.159  -4.533
  216XTA    CO517032  -4.372  26.253  -4.435
  216XTA    HL117033  -4.413  26.338  -4.487
  216XTA    HL217034  -3.485  25.926  -4.988
  216XTA    HL317035  -3.377  25.895  -4.854
  216XTA    HL417036  -3.555  25.906  -4.825
  216XTA    HL517037  -4.158  26.526  -5.405
  216XTA    HL617038  -4.302  26.595  -5.336
  216XTA    HL717039  -4.262  26.810  -5.461
  216XTA    HL817040  -4.310  26.667  -5.560
  216XTA    HL917041  -4.145  26.715  -5.686
  216XTA   HL1017042  -4.022  26.667  -5.560
  216XTA   HL1117043  -3.985  26.900  -5.646
  216XTA   HL1217044  -4.142  26.950  -5.584
  216XTA   HL1317045  -3.908  26.845  -5.417
  216XTA   HL1417046  -4.064  26.864  -5.359
  216XTA   HL1517047  -3.935  27.102  -5.494
  216XTA   HL1617048  -4.073  27.094  -5.369
  216XTA   HL1717049  -3.715  26.948  -5.259
  216XTA   HL1817050  -3.741  27.001  -5.428
  216XTA   HL1917051  -3.466  27.219  -5.292
  216XTA   HL2017052  -3.472  27.092  -5.406
  216XTA   HL2117053  -3.516  26.926  -5.217
  216XTA   HL2217054  -3.497  27.057  -5.110
  216XTA   HL2317055  -3.359  27.012  -5.210
  216XTA   HL2417056  -4.290  26.291  -4.364
  216XTA   HL2517057  -4.455  26.216  -4.380
  216XTA    CO617058  -3.708  27.239  -5.187
  216XTA    CO717059  -3.690  27.254  -5.439
  216XTA    OA517060  -3.797  27.279  -5.457
  216XTA   HL2617061  -3.623  27.305  -5.155
  216XTA   HL2717062  -3.813  27.330  -5.204
  216XTA   HL2817063  -3.655  27.212  -5.536
  216XTA   HL2917064  -3.646  27.358  -5.438
  217XTA     NT17065  -7.622  26.631 -11.881
  217XTA    CN117066  -7.754  26.619 -11.917
  217XTA     C117067  -7.838  26.729 -11.883
  217XTA     C217068  -7.973  26.726 -11.926
  217XTA     C317069  -8.028  26.617 -11.997
  217XTA     C417070  -7.943  26.515 -12.033
  217XTA     C517071  -7.808  26.513 -11.990
  217XTA    CN217072  -7.550  26.522 -11.842
  217XTA     C617073  -7.501  26.429 -11.938
  217XTA     C717074  -7.445  26.308 -11.890
  217XTA     C817075  -7.428  26.285 -11.751
  217XTA     C917076  -7.470  26.388 -11.659
  217XTA    C1017077  -7.534  26.504 -11.702
  217XTA    CN317078  -7.560  26.734 -11.935
  217XTA    C1117079  -7.530  26.745 -12.075
  217XTA    C1217080  -7.457  26.858 -12.129
  217XTA    C1317081  -7.406  26.960 -12.041
  217XTA    C1417082  -7.438  26.951 -11.903
  217XTA    C1517083  -7.514  26.840 -11.855
  217XTA     H117084  -7.799  26.813 -11.831
  217XTA     H217085  -8.037  26.809 -11.904
  217XTA     H317086  -7.967  26.435 -12.102
  217XTA     H417087  -7.753  26.421 -12.014
  217XTA     H517088  -7.527  26.454 -12.042
  217XTA     H617089  -7.435  26.242 -11.971
  217XTA     H717090  -7.458  26.372 -11.552
  217XTA     H817091  -7.572  26.585 -11.638
  217XTA     H917092  -7.560  26.662 -12.131
  217XTA    H1017093  -7.438  26.859 -12.236
  217XTA    H1117094  -7.396  27.025 -11.834
  217XTA    H1217095  -7.524  26.826 -11.747
  217XTA    OA117096  -8.160  26.625 -12.037
  217XTA    CO117097  -8.233  26.526 -11.964
  217XTA    OA217098  -7.380  26.167 -11.696
  217XTA    CO217099  -7.300  26.091 -11.781
  217XTA    CL117100  -7.235  25.973 -11.700
  217XTA    CL217101  -7.083  25.965 -11.737
  217XTA    CL317102  -6.984  26.023 -11.631
  217XTA    CL417103  -6.987  26.177 -11.604
  217XTA    CO317104  -6.905  26.217 -11.483
  217XTA    OA317105  -6.988  26.217 -11.369
  217XTA    CO417106  -6.922  26.264 -11.251
  217XTA    CT117107  -7.027  26.250 -11.137
  217XTA    CL517108  -7.156  26.344 -11.155
  217XTA    CL617109  -7.119  26.487 -11.187
  217XTA    OA417110  -7.321  27.063 -12.090
  217XTA    CO517111  -7.250  27.027 -12.209
  217XTA    HL117112  -7.214  26.922 -12.201
  217XTA    HL217113  -8.228  26.561 -11.863
  217XTA    HL317114  -8.340  26.508 -11.983
  217XTA    HL417115  -8.180  26.428 -11.947
  217XTA    HL517116  -7.356  26.055 -11.873
  217XTA    HL617117  -7.225  26.158 -11.819
  217XTA    HL717118  -7.294  25.878 -11.734
  217XTA    HL817119  -7.243  25.991 -11.593
  217XTA    HL917120  -7.063  26.012 -11.836
  217XTA   HL1017121  -7.062  25.862 -11.759
  217XTA   HL1117122  -7.008  25.966 -11.538
  217XTA   HL1217123  -6.880  26.010 -11.664
  217XTA   HL1317124  -7.091  26.204 -11.579
  217XTA   HL1417125  -6.953  26.232 -11.689
  217XTA   HL1517126  -6.825  26.158 -11.445
  217XTA   HL1617127  -6.885  26.317 -11.493
  217XTA   HL1717128  -6.838  26.201 -11.226
  217XTA   HL1817129  -6.881  26.366 -11.259
  217XTA   HL1917130  -7.212  26.345 -11.063
  217XTA   HL2017131  -7.220  26.294 -11.232
  217XTA   HL2117132  -7.219  26.539 -11.178
  217XTA   HL2217133  -7.079  26.506 -11.291
  217XTA   HL2317134  -7.050  26.536 -11.119
  217XTA   HL2417135  -7.171  27.095 -12.237
  217XTA   HL2517136  -7.319  27.026 -12.294
  217XTA    CO617137  -6.945  26.279 -11.008
  217XTA    CO717138  -7.064  26.101 -11.121
  217XTA    OA517139  -7.177  26.089 -11.029
  217XTA   HL2617140  -6.862  26.207 -10.999
  217XTA   HL2717141  -7.007  26.245 -10.920
  217XTA   HL2817142  -6.986  26.026 -11.083
  217XTA   HL2917143  -7.094  26.055 -11.209
  218XTA     NT17144  -5.921  26.496  -5.667
  218XTA    CN117145  -5.809  26.469  -5.590
  218XTA     C117146  -5.712  26.570  -5.561
  218XTA     C217147  -5.597  26.537  -5.491
  218XTA     C317148  -5.582  26.412  -5.427
  218XTA     C417149  -5.675  26.316  -5.457
  218XTA     C517150  -5.784  26.345  -5.535
  218XTA    CN217151  -5.997  26.601  -5.630
  218XTA     C617152  -6.116  26.572  -5.555
  218XTA     C717153  -6.198  26.677  -5.509
  218XTA     C817154  -6.161  26.812  -5.527
  218XTA     C917155  -6.050  26.839  -5.608
  218XTA    C1017156  -5.970  26.738  -5.658
  218XTA    CN317157  -5.921  26.457  -5.796
  218XTA    C1117158  -5.861  26.531  -5.898
  218XTA    C1217159  -5.850  26.487  -6.027
  218XTA    C1317160  -5.915  26.365  -6.059
  218XTA    C1417161  -5.982  26.290  -5.961
  218XTA    C1517162  -5.978  26.336  -5.831
  218XTA     H117163  -5.719  26.672  -5.593
  218XTA     H217164  -5.527  26.616  -5.493
  218XTA     H317165  -5.671  26.218  -5.411
  218XTA     H417166  -5.850  26.264  -5.571
  218XTA     H517167  -6.140  26.469  -5.537
  218XTA     H617168  -6.287  26.649  -5.454
  218XTA     H717169  -6.022  26.943  -5.635
  218XTA     H817170  -5.876  26.758  -5.698
  218XTA     H917171  -5.819  26.626  -5.876
  218XTA    H1017172  -5.814  26.563  -6.101
  218XTA    H1117173  -6.044  26.203  -5.991
  218XTA    H1217174  -6.023  26.280  -5.746
  218XTA    OA117175  -5.483  26.375  -5.344
  218XTA    CO117176  -5.371  26.458  -5.336
  218XTA    OA217177  -6.238  26.908  -5.465
  218XTA    CO217178  -6.201  27.046  -5.499
  218XTA    CL117179  -6.303  27.138  -5.422
  218XTA    CL217180  -6.279  27.287  -5.458
  218XTA    CL317181  -6.398  27.366  -5.414
  218XTA    CL417182  -6.413  27.369  -5.263
  218XTA    CO317183  -6.527  27.458  -5.211
  218XTA    OA317184  -6.571  27.411  -5.082
  218XTA    CO417185  -6.677  27.313  -5.085
  218XTA    CT117186  -6.723  27.278  -4.941
  218XTA    CL517187  -6.601  27.243  -4.849
  218XTA    CL617188  -6.502  27.135  -4.894
  218XTA    OA417189  -5.922  26.319  -6.184
  218XTA    CO517190  -5.802  26.320  -6.258
  218XTA    HL117191  -5.730  26.239  -6.232
  218XTA    HL217192  -5.378  26.526  -5.250
  218XTA    HL317193  -5.295  26.382  -5.312
  218XTA    HL417194  -5.354  26.508  -5.426
  218XTA    HL517195  -6.098  27.054  -5.463
  218XTA    HL617196  -6.210  27.074  -5.608
  218XTA    HL717197  -6.293  27.120  -5.313
  218XTA    HL817198  -6.408  27.112  -5.441
  218XTA    HL917199  -6.277  27.291  -5.567
  218XTA   HL1017200  -6.184  27.329  -5.416
  218XTA   HL1117201  -6.383  27.472  -5.445
  218XTA   HL1217202  -6.494  27.323  -5.443
  218XTA   HL1317203  -6.316  27.398  -5.216
  218XTA   HL1417204  -6.442  27.277  -5.222
  218XTA   HL1517205  -6.494  27.557  -5.211
  218XTA   HL1617206  -6.612  27.459  -5.274
  218XTA   HL1717207  -6.761  27.364  -5.139
  218XTA   HL1817208  -6.653  27.229  -5.151
  218XTA   HL1917209  -6.636  27.208  -4.750
  218XTA   HL2017210  -6.556  27.341  -4.836
  218XTA   HL2117211  -6.409  27.138  -4.843
  218XTA   HL2217212  -6.478  27.140  -4.998
  218XTA   HL2317213  -6.554  27.035  -4.884
  218XTA   HL2417214  -5.749  26.418  -6.247
  218XTA   HL2517215  -5.831  26.312  -6.364
  218XTA    CO617216  -6.807  27.147  -4.951
  218XTA    CO717217  -6.818  27.383  -4.879
  218XTA    OA517218  -6.909  27.187  -5.043
  218XTA   HL2617219  -6.873  27.130  -4.863
  218XTA   HL2717220  -6.741  27.066  -4.984
  218XTA   HL2817221  -6.911  27.394  -4.934
  218XTA   HL2917222  -6.857  27.370  -4.778
  219XTA     NT17223  -6.559  29.717 -11.596
  219XTA    CN117224  -6.643  29.802 -11.657
  219XTA     C117225  -6.702  29.910 -11.584
  219XTA     C217226  -6.781  30.004 -11.655
  219XTA     C317227  -6.794  30.002 -11.796
  219XTA     C417228  -6.734  29.895 -11.865
  219XTA     C517229  -6.655  29.798 -11.798
  219XTA    CN217230  -6.456  29.765 -11.523
  219XTA     C617231  -6.430  29.719 -11.394
  219XTA     C717232  -6.346  29.795 -11.314
  219XTA     C817233  -6.283  29.919 -11.354
  219XTA     C917234  -6.303  29.956 -11.483
  219XTA    C1017235  -6.386  29.884 -11.566
  219XTA    CN317236  -6.559  29.588 -11.622
  219XTA    C1117237  -6.672  29.518 -11.586
  219XTA    C1217238  -6.680  29.379 -11.596
  219XTA    C1317239  -6.571  29.307 -11.647
  219XTA    C1417240  -6.461  29.379 -11.701
  219XTA    C1517241  -6.455  29.520 -11.685
  219XTA     H117242  -6.676  29.919 -11.484
  219XTA     H217243  -6.812  30.098 -11.601
  219XTA     H317244  -6.738  29.890 -11.975
  219XTA     H417245  -6.603  29.727 -11.865
  219XTA     H517246  -6.461  29.628 -11.352
  219XTA     H617247  -6.334  29.759 -11.213
  219XTA     H717248  -6.252  30.049 -11.508
  219XTA     H817249  -6.402  29.923 -11.667
  219XTA     H917250  -6.756  29.567 -11.539
  219XTA    H1017251  -6.762  29.325 -11.547
  219XTA    H1117252  -6.379  29.327 -11.752
  219XTA    H1217253  -6.369  29.575 -11.718
  219XTA    OA117254  -6.866  30.093 -11.867
  219XTA    CO117255  -6.886  30.219 -11.806
  219XTA    OA217256  -6.195  29.990 -11.274
  219XTA    CO217257  -6.167  29.931 -11.152
  219XTA    CL117258  -6.063  30.013 -11.078
  219XTA    CL217259  -6.049  29.966 -10.931
  219XTA    CL317260  -5.934  30.032 -10.854
  219XTA    CL417261  -5.940  29.997 -10.705
  219XTA    CO317262  -5.816  30.045 -10.622
  219XTA    OA317263  -5.806  30.182 -10.638
  219XTA    CO417264  -5.677  30.234 -10.604
  219XTA    CT117265  -5.662  30.374 -10.669
  219XTA    CL517266  -5.512  30.404 -10.661
  219XTA    CL617267  -5.467  30.422 -10.519
  219XTA    OA417268  -6.584  29.167 -11.664
  219XTA    CO517269  -6.486  29.113 -11.745
  219XTA    HL117270  -6.501  29.137 -11.851
  219XTA    HL217271  -6.923  30.292 -11.886
  219XTA    HL317272  -6.956  30.206 -11.724
  219XTA    HL417273  -6.797  30.258 -11.762
  219XTA    HL517274  -6.257  29.942 -11.097
  219XTA    HL617275  -6.138  29.830 -11.154
  219XTA    HL717276  -6.085  30.121 -11.078
  219XTA    HL817277  -5.970  30.005 -11.132
  219XTA    HL917278  -6.035  29.856 -10.919
  219XTA   HL1017279  -6.135  29.993 -10.873
  219XTA   HL1117280  -5.836  30.002 -10.891
  219XTA   HL1217281  -5.929  30.143 -10.868
  219XTA   HL1317282  -5.956  29.893 -10.684
  219XTA   HL1417283  -6.024  30.046 -10.655
  219XTA   HL1517284  -5.815  30.020 -10.514
  219XTA   HL1617285  -5.729  29.994 -10.661
  219XTA   HL1717286  -5.655  30.227 -10.500
  219XTA   HL1817287  -5.613  30.166 -10.653
  219XTA   HL1917288  -5.482  30.493 -10.712
  219XTA   HL2017289  -5.449  30.334 -10.716
  219XTA   HL2117290  -5.454  30.326 -10.465
  219XTA   HL2217291  -5.531  30.484 -10.455
  219XTA   HL2317292  -5.372  30.477 -10.521
  219XTA   HL2417293  -6.477  29.008 -11.722
  219XTA   HL2517294  -6.386  29.144 -11.706
  219XTA    CO617295  -5.749  30.482 -10.608
  219XTA    CO717296  -5.697  30.377 -10.825
  219XTA    OA517297  -5.679  30.499 -10.889
  219XTA   HL2617298  -5.742  30.488 -10.491
  219XTA   HL2717299  -5.711  30.581 -10.650
  219XTA   HL2817300  -5.800  30.349 -10.840
  219XTA   HL2917301  -5.644  30.287 -10.869
  220XTA     NT17302   0.112  30.435 -10.200
  220XTA    CN117303   0.141  30.414 -10.069
  220XTA     C117304   0.268  30.372 -10.035
  220XTA     C217305   0.304  30.342  -9.903
  220XTA     C317306   0.214  30.353  -9.798
  220XTA     C417307   0.085  30.404  -9.830
  220XTA     C517308   0.048  30.433  -9.966
  220XTA    CN217309   0.025  30.362 -10.267
  220XTA     C617310  -0.105  30.417 -10.293
  220XTA     C717311  -0.197  30.338 -10.361
  220XTA     C817312  -0.163  30.210 -10.411
  220XTA     C917313  -0.041  30.150 -10.381
  220XTA    C1017314   0.054  30.226 -10.307
  220XTA    CN317315   0.171  30.536 -10.273
  220XTA    C1117316   0.136  30.675 -10.253
  220XTA    C1217317   0.204  30.769 -10.336
  220XTA    C1317318   0.314  30.731 -10.415
  220XTA    C1417319   0.358  30.596 -10.419
  220XTA    C1517320   0.288  30.502 -10.344
  220XTA     H117321   0.345  30.366 -10.105
  220XTA     H217322   0.400  30.292  -9.888
  220XTA     H317323   0.017  30.404  -9.745
  220XTA     H417324  -0.054  30.456  -9.993
  220XTA     H517325  -0.146  30.508 -10.250
  220XTA     H617326  -0.304  30.373 -10.374
  220XTA     H717327  -0.013  30.051 -10.409
  220XTA     H817328   0.155  30.180 -10.278
  220XTA     H917329   0.062  30.699 -10.175
  220XTA    H1017330   0.170  30.866 -10.327
  220XTA    H1117331   0.442  30.569 -10.486
  220XTA    H1217332   0.322  30.401 -10.356
  220XTA    OA117333   0.240  30.291  -9.676
  220XTA    CO117334   0.159  30.319  -9.562
  220XTA    OA217335  -0.254  30.149 -10.492
  220XTA    CO217336  -0.236  30.012 -10.519
  220XTA    CL117337  -0.339  29.967 -10.624
  220XTA    CL217338  -0.477  30.004 -10.595
  220XTA    CL317339  -0.544  29.908 -10.491
  220XTA    CL417340  -0.702  29.911 -10.497
  220XTA    CO317341  -0.768  29.809 -10.402
  220XTA    OA317342  -0.750  29.681 -10.454
  220XTA    CO417343  -0.763  29.572 -10.364
  220XTA    CT117344  -0.719  29.442 -10.430
  220XTA    CL517345  -0.579  29.452 -10.493
  220XTA    CL617346  -0.471  29.496 -10.390
  220XTA    OA417347   0.379  30.829 -10.488
  220XTA    CO517348   0.520  30.816 -10.495
  220XTA    HL117349   0.540  30.735 -10.567
  220XTA    HL217350   0.149  30.427  -9.543
  220XTA    HL317351   0.059  30.285  -9.578
  220XTA    HL417352   0.177  30.261  -9.468
  220XTA    HL517353  -0.135  29.994 -10.561
  220XTA    HL617354  -0.248  29.962 -10.425
  220XTA    HL717355  -0.319  29.862 -10.634
  220XTA    HL817356  -0.321  30.001 -10.724
  220XTA    HL917357  -0.534  30.007 -10.687
  220XTA   HL1017358  -0.489  30.102 -10.544
  220XTA   HL1117359  -0.509  29.811 -10.520
  220XTA   HL1217360  -0.510  29.921 -10.384
  220XTA   HL1317361  -0.731  29.881 -10.597
  220XTA   HL1417362  -0.732  30.017 -10.481
  220XTA   HL1517363  -0.705  29.822 -10.319
  220XTA   HL1617364  -0.872  29.820 -10.390
  220XTA   HL1717365  -0.700  29.606 -10.279
  220XTA   HL1817366  -0.863  29.565 -10.328
  220XTA   HL1917367  -0.589  29.526 -10.575
  220XTA   HL2017368  -0.534  29.358 -10.532
  220XTA   HL2117369  -0.467  29.426 -10.306
  220XTA   HL2217370  -0.486  29.595 -10.346
  220XTA   HL2317371  -0.379  29.496 -10.446
  220XTA   HL2417372   0.552  30.793 -10.393
  220XTA   HL2517373   0.563  30.907 -10.528
  220XTA    CO617374  -0.814  29.412 -10.546
  220XTA    CO717375  -0.730  29.320 -10.341
  220XTA    OA517376  -0.767  29.339 -10.615
  220XTA   HL2617377  -0.823  29.502 -10.614
  220XTA   HL2717378  -0.906  29.383 -10.493
  220XTA   HL2817379  -0.704  29.201 -10.417
  220XTA   HL2917380  -0.645  29.330 -10.267
  221XTA     NT17381  -5.554  25.848 -10.019
  221XTA    CN117382  -5.632  25.802 -10.125
  221XTA     C117383  -5.724  25.710 -10.090
  221XTA     C217384  -5.824  25.673 -10.180
  221XTA     C317385  -5.823  25.730 -10.305
  221XTA     C417386  -5.728  25.827 -10.342
  221XTA     C517387  -5.629  25.865 -10.248
  221XTA    CN217388  -5.562  25.980  -9.992
  221XTA     C617389  -5.450  26.058  -9.994
  221XTA     C717390  -5.456  26.198  -9.965
  221XTA     C817391  -5.583  26.256  -9.929
  221XTA     C917392  -5.698  26.169  -9.944
  221XTA    C1017393  -5.689  26.033  -9.971
  221XTA    CN317394  -5.463  25.765  -9.955
  221XTA    C1117395  -5.494  25.679  -9.853
  221XTA    C1217396  -5.398  25.596  -9.791
  221XTA    C1317397  -5.271  25.591  -9.848
  221XTA    C1417398  -5.234  25.676  -9.948
  221XTA    C1517399  -5.335  25.756 -10.013
  221XTA     H117400  -5.733  25.676  -9.988
  221XTA     H217401  -5.894  25.596 -10.150
  221XTA     H317402  -5.725  25.875 -10.439
  221XTA     H417403  -5.555  25.934 -10.276
  221XTA     H517404  -5.349  26.030 -10.016
  221XTA     H617405  -5.375  26.264  -9.978
  221XTA     H717406  -5.789  26.212  -9.898
  221XTA     H817407  -5.773  25.967  -9.967
  221XTA     H917408  -5.597  25.682  -9.819
  221XTA    H1017409  -5.419  25.521  -9.712
  221XTA    H1117410  -5.129  25.678  -9.976
  221XTA    H1217411  -5.323  25.822 -10.098
  221XTA    OA117412  -5.925  25.699 -10.393
  221XTA    CO117413  -5.949  25.795 -10.493
  221XTA    OA217414  -5.606  26.385  -9.899
  221XTA    CO217415  -5.505  26.476  -9.914
  221XTA    CL117416  -5.469  26.501 -10.071
  221XTA    CL217417  -5.370  26.606 -10.108
  221XTA    CL317418  -5.224  26.589 -10.054
  221XTA    CL417419  -5.158  26.469 -10.112
  221XTA    CO317420  -5.010  26.444 -10.059
  221XTA    OA317421  -4.999  26.416  -9.913
  221XTA    CO417422  -5.059  26.293  -9.878
  221XTA    CT117423  -5.045  26.257  -9.726
  221XTA    CL517424  -5.146  26.166  -9.667
  221XTA    CL617425  -5.292  26.229  -9.661
  221XTA    OA417426  -5.176  25.505  -9.803
  221XTA    CO517427  -5.133  25.530  -9.678
  221XTA    HL117428  -5.064  25.444  -9.650
  221XTA    HL217429  -6.043  25.775 -10.539
  221XTA    HL317430  -5.957  25.890 -10.440
  221XTA    HL417431  -5.867  25.798 -10.558
  221XTA    HL517432  -5.536  26.573  -9.870
  221XTA    HL617433  -5.423  26.440  -9.867
  221XTA    HL717434  -5.557  26.537 -10.136
  221XTA    HL817435  -5.430  26.408 -10.113
  221XTA    HL917436  -5.420  26.708 -10.084
  221XTA   HL1017437  -5.355  26.593 -10.219
  221XTA   HL1117438  -5.164  26.671 -10.092
  221XTA   HL1217439  -5.214  26.584  -9.947
  221XTA   HL1317440  -5.151  26.477 -10.222
  221XTA   HL1417441  -5.214  26.377 -10.087
  221XTA   HL1517442  -4.953  26.372 -10.121
  221XTA   HL1617443  -4.962  26.547 -10.069
  221XTA   HL1717444  -5.160  26.300  -9.917
  221XTA   HL1817445  -5.009  26.208  -9.934
  221XTA   HL1917446  -5.119  26.117  -9.579
  221XTA   HL2017447  -5.158  26.084  -9.738
  221XTA   HL2117448  -5.302  26.308  -9.591
  221XTA   HL2217449  -5.365  26.150  -9.634
  221XTA   HL2317450  -5.318  26.262  -9.766
  221XTA   HL2417451  -5.216  25.515  -9.607
  221XTA   HL2517452  -5.078  25.629  -9.680
  221XTA    CO617453  -5.018  26.367  -9.643
  221XTA    CO717454  -4.905  26.220  -9.706
  221XTA    OA517455  -4.906  26.354  -9.635
  221XTA   HL2617456  -5.070  26.348  -9.551
  221XTA   HL2717457  -5.053  26.460  -9.684
  221XTA   HL2817458  -4.820  26.212  -9.818
  221XTA   HL2917459  -4.897  26.131  -9.646
  222XTA     NT17460  -4.611  29.171  -8.366
  222XTA    CN117461  -4.499  29.186  -8.429
  222XTA     C117462  -4.449  29.073  -8.499
  222XTA     C217463  -4.325  29.081  -8.563
  222XTA     C317464  -4.268  29.213  -8.576
  222XTA     C417465  -4.326  29.330  -8.521
  222XTA     C517466  -4.440  29.311  -8.443
  222XTA    CN217467  -4.616  29.140  -8.233
  222XTA     C617468  -4.690  29.219  -8.145
  222XTA     C717469  -4.689  29.196  -8.004
  222XTA     C817470  -4.607  29.098  -7.953
  222XTA     C917471  -4.531  29.018  -8.041
  222XTA    C1017472  -4.533  29.042  -8.177
  222XTA    CN317473  -4.722  29.148  -8.439
  222XTA    C1117474  -4.756  29.009  -8.460
  222XTA    C1217475  -4.866  28.978  -8.543
  222XTA    C1317476  -4.949  29.079  -8.599
  222XTA    C1417477  -4.916  29.213  -8.568
  222XTA    C1517478  -4.798  29.244  -8.501
  222XTA     H117479  -4.497  28.979  -8.492
  222XTA     H217480  -4.269  28.992  -8.598
  222XTA     H317481  -4.280  29.427  -8.551
  222XTA     H417482  -4.475  29.394  -8.388
  222XTA     H517483  -4.743  29.303  -8.189
  222XTA     H617484  -4.736  29.266  -7.941
  222XTA     H717485  -4.461  28.951  -8.013
  222XTA     H817486  -4.466  28.992  -8.241
  222XTA     H917487  -4.707  28.927  -8.408
  222XTA    H1017488  -4.893  28.874  -8.550
  222XTA    H1117489  -4.977  29.298  -8.595
  222XTA    H1217490  -4.781  29.358  -8.490
  222XTA    OA117491  -4.159  29.218  -8.650
  222XTA    CO117492  -4.069  29.330  -8.635
  222XTA    OA217493  -4.584  29.092  -7.820
  222XTA    CO217494  -4.573  28.956  -7.778
  222XTA    CL117495  -4.539  28.955  -7.636
  222XTA    CL217496  -4.644  29.025  -7.552
  222XTA    CL317497  -4.774  28.948  -7.538
  222XTA    CL417498  -4.899  29.035  -7.509
  222XTA    CO317499  -5.023  28.941  -7.486
  222XTA    OA317500  -5.138  29.004  -7.440
  222XTA    CO417501  -5.170  29.116  -7.523
  222XTA    CT117502  -5.321  29.145  -7.514
  222XTA    CL517503  -5.378  29.140  -7.371
  222XTA    CL617504  -5.387  29.007  -7.297
  222XTA    OA417505  -5.074  29.038  -8.635
  222XTA    CO517506  -5.105  28.905  -8.654
  222XTA    HL117507  -5.122  28.849  -8.563
  222XTA    HL217508  -3.967  29.320  -8.675
  222XTA    HL317509  -4.110  29.408  -8.703
  222XTA    HL417510  -4.066  29.374  -8.534
  222XTA    HL517511  -4.660  28.894  -7.778
  222XTA    HL617512  -4.493  28.898  -7.815
  222XTA    HL717513  -4.446  29.005  -7.622
  222XTA    HL817514  -4.522  28.857  -7.592
  222XTA    HL917515  -4.661  29.128  -7.594
  222XTA   HL1017516  -4.597  29.050  -7.453
  222XTA   HL1117517  -4.786  28.879  -7.624
  222XTA   HL1217518  -4.764  28.887  -7.455
  222XTA   HL1317519  -4.917  29.105  -7.595
  222XTA   HL1417520  -4.891  29.101  -7.425
  222XTA   HL1517521  -5.059  28.898  -7.579
  222XTA   HL1617522  -5.000  28.861  -7.409
  222XTA   HL1717523  -5.123  29.193  -7.466
  222XTA   HL1817524  -5.125  29.108  -7.622
  222XTA   HL1917525  -5.474  29.178  -7.371
  222XTA   HL2017526  -5.321  29.209  -7.312
  222XTA   HL2117527  -5.290  28.982  -7.266
  222XTA   HL2217528  -5.420  28.922  -7.352
  222XTA   HL2317529  -5.437  29.007  -7.202
  222XTA   HL2417530  -5.035  28.848  -8.718
  222XTA   HL2517531  -5.198  28.895  -8.709
  222XTA    CO617532  -5.413  29.043  -7.593
  222XTA    CO717533  -5.347  29.290  -7.565
  222XTA    OA517534  -5.290  29.374  -7.520
  222XTA   HL2617535  -5.508  29.080  -7.572
  222XTA   HL2717536  -5.386  28.915  -7.538
  222XTA   HL2817537  -5.449  29.318  -7.549
  222XTA   HL2917538  -5.331  29.303  -7.672
  223XTA     NT17539  -5.745  31.022  -7.574
  223XTA    CN117540  -5.787  30.995  -7.698
  223XTA     C117541  -5.731  30.884  -7.761
  223XTA     C217542  -5.771  30.843  -7.886
  223XTA     C317543  -5.865  30.915  -7.955
  223XTA     C417544  -5.926  31.025  -7.892
  223XTA     C517545  -5.890  31.071  -7.764
  223XTA    CN217546  -5.835  31.019  -7.477
  223XTA     C617547  -5.876  30.901  -7.421
  223XTA     C717548  -5.975  30.895  -7.323
  223XTA     C817549  -6.034  31.015  -7.273
  223XTA     C917550  -5.989  31.135  -7.329
  223XTA    C1017551  -5.898  31.139  -7.438
  223XTA    CN317552  -5.613  31.039  -7.556
  223XTA    C1117553  -5.555  31.158  -7.595
  223XTA    C1217554  -5.419  31.172  -7.581
  223XTA    C1317555  -5.338  31.068  -7.527
  223XTA    C1417556  -5.396  30.944  -7.488
  223XTA    C1517557  -5.533  30.935  -7.506
  223XTA     H117558  -5.654  30.825  -7.719
  223XTA     H217559  -5.728  30.759  -7.935
  223XTA     H317560  -5.991  31.083  -7.953
  223XTA     H417561  -5.934  31.160  -7.720
  223XTA     H517562  -5.834  30.809  -7.449
  223XTA     H617563  -6.006  30.799  -7.283
  223XTA     H717564  -6.028  31.224  -7.293
  223XTA     H817565  -5.860  31.232  -7.483
  223XTA     H917566  -5.616  31.244  -7.619
  223XTA    H1017567  -5.370  31.269  -7.607
  223XTA    H1117568  -5.343  30.858  -7.453
  223XTA    H1217569  -5.574  30.845  -7.467
  223XTA    OA117570  -5.905  30.865  -8.077
  223XTA    CO117571  -6.025  30.911  -8.136
  223XTA    OA217572  -6.128  31.019  -7.174
  223XTA    CO217573  -6.235  30.916  -7.187
  223XTA    CL117574  -6.352  30.967  -7.103
  223XTA    CL217575  -6.491  30.909  -7.132
  223XTA    CL317576  -6.612  30.953  -7.048
  223XTA    CL417577  -6.736  30.875  -7.097
  223XTA    CO317578  -6.841  30.894  -6.984
  223XTA    OA317579  -6.946  30.801  -7.000
  223XTA    CO417580  -7.049  30.813  -6.909
  223XTA    CT117581  -7.109  30.675  -6.889
  223XTA    CL517582  -7.190  30.665  -6.760
  223XTA    CL617583  -7.107  30.690  -6.627
  223XTA    OA417584  -5.206  31.098  -7.515
  223XTA    CO517585  -5.133  31.012  -7.438
  223XTA    HL117586  -5.115  30.914  -7.482
  223XTA    HL217587  -6.111  30.912  -8.072
  223XTA    HL317588  -6.008  31.006  -8.182
  223XTA    HL417589  -6.066  30.856  -8.222
  223XTA    HL517590  -6.272  30.929  -7.290
  223XTA    HL617591  -6.203  30.808  -7.165
  223XTA    HL717592  -6.357  31.078  -7.115
  223XTA    HL817593  -6.318  30.946  -7.005
  223XTA    HL917594  -6.496  30.803  -7.138
  223XTA   HL1017595  -6.508  30.944  -7.234
  223XTA   HL1117596  -6.600  30.920  -6.948
  223XTA   HL1217597  -6.618  31.063  -7.042
  223XTA   HL1317598  -6.693  30.780  -7.092
  223XTA   HL1417599  -6.768  30.901  -7.195
  223XTA   HL1517600  -6.789  30.857  -6.897
  223XTA   HL1617601  -6.871  31.004  -6.991
  223XTA   HL1717602  -6.998  30.840  -6.815
  223XTA   HL1817603  -7.113  30.887  -6.940
  223XTA   HL1917604  -7.238  30.570  -6.759
  223XTA   HL2017605  -7.267  30.742  -6.771
  223XTA   HL2117606  -7.083  30.794  -6.616
  223XTA   HL2217607  -7.013  30.633  -6.627
  223XTA   HL2317608  -7.171  30.660  -6.544
  223XTA   HL2417609  -5.187  31.002  -7.349
  223XTA   HL2517610  -5.046  31.065  -7.405
  223XTA    CO617611  -6.999  30.565  -6.882
  223XTA    CO717612  -7.203  30.647  -7.012
  223XTA    OA517613  -7.063  30.447  -6.837
  223XTA   HL2617614  -6.914  30.604  -6.827
  223XTA   HL2717615  -6.968  30.554  -6.990
  223XTA   HL2817616  -7.254  30.558  -7.003
  223XTA   HL2917617  -7.134  30.636  -7.100
  224XTA     NT17618  -2.950  27.743  -6.268
  224XTA    CN117619  -3.011  27.644  -6.196
  224XTA     C117620  -3.148  27.611  -6.221
  224XTA     C217621  -3.207  27.498  -6.156
  224XTA     C317622  -3.129  27.415  -6.066
  224XTA     C417623  -2.997  27.456  -6.041
  224XTA     C517624  -2.935  27.554  -6.116
  224XTA    CN217625  -3.009  27.793  -6.376
  224XTA     C617626  -3.083  27.907  -6.370
  224XTA     C717627  -3.156  27.960  -6.479
  224XTA     C817628  -3.155  27.890  -6.600
  224XTA     C917629  -3.087  27.767  -6.612
  224XTA    C1017630  -3.012  27.715  -6.496
  224XTA    CN317631  -2.837  27.805  -6.220
  224XTA    C1117632  -2.822  27.853  -6.089
  224XTA    C1217633  -2.693  27.898  -6.046
  224XTA    C1317634  -2.579  27.900  -6.126
  224XTA    C1417635  -2.593  27.850  -6.262
  224XTA    C1517636  -2.720  27.797  -6.298
  224XTA     H117637  -3.212  27.669  -6.296
  224XTA     H217638  -3.310  27.470  -6.167
  224XTA     H317639  -2.936  27.394  -5.969
  224XTA     H417640  -2.832  27.563  -6.103
  224XTA     H517641  -3.087  27.963  -6.278
  224XTA     H617642  -3.212  28.050  -6.468
  224XTA     H717643  -3.090  27.705  -6.705
  224XTA     H817644  -2.964  27.624  -6.489
  224XTA     H917645  -2.905  27.852  -6.021
  224XTA    H1017646  -2.681  27.936  -5.943
  224XTA    H1117647  -2.513  27.854  -6.333
  224XTA    H1217648  -2.725  27.740  -6.389
  224XTA    OA117649  -3.169  27.303  -6.011
  224XTA    CO117650  -3.310  27.280  -6.007
  224XTA    OA217651  -3.224  27.948  -6.697
  224XTA    CO217652  -3.237  27.890  -6.818
  224XTA    CL117653  -3.307  27.989  -6.915
  224XTA    CL217654  -3.273  28.140  -6.894
  224XTA    CL317655  -3.345  28.236  -6.991
  224XTA    CL417656  -3.460  28.314  -6.923
  224XTA    CO317657  -3.537  28.409  -7.021
  224XTA    OA317658  -3.607  28.507  -6.956
  224XTA    CO417659  -3.516  28.600  -6.891
  224XTA    CT117660  -3.587  28.727  -6.843
  224XTA    CL517661  -3.710  28.686  -6.756
  224XTA    CL617662  -3.684  28.570  -6.656
  224XTA    OA417663  -2.459  27.952  -6.074
  224XTA    CO517664  -2.344  27.936  -6.148
  224XTA    HL117665  -2.261  27.979  -6.097
  224XTA    HL217666  -3.353  27.358  -5.955
  224XTA    HL317667  -3.366  27.269  -6.101
  224XTA    HL417668  -3.334  27.188  -5.955
  224XTA    HL517669  -3.138  27.867  -6.853
  224XTA    HL617670  -3.285  27.798  -6.823
  224XTA    HL717671  -3.413  27.960  -6.904
  224XTA    HL817672  -3.308  27.957  -7.019
  224XTA    HL917673  -3.166  28.175  -6.905
  224XTA   HL1017674  -3.295  28.169  -6.788
  224XTA   HL1117675  -3.271  28.308  -7.021
  224XTA   HL1217676  -3.382  28.190  -7.081
  224XTA   HL1317677  -3.420  28.359  -6.834
  224XTA   HL1417678  -3.529  28.236  -6.887
  224XTA   HL1517679  -3.471  28.452  -7.094
  224XTA   HL1617680  -3.610  28.362  -7.076
  224XTA   HL1717681  -3.476  28.558  -6.803
  224XTA   HL1817682  -3.434  28.637  -6.955
  224XTA   HL1917683  -3.788  28.658  -6.827
  224XTA   HL2017684  -3.744  28.775  -6.700
  224XTA   HL2117685  -3.757  28.571  -6.573
  224XTA   HL2217686  -3.580  28.587  -6.609
  224XTA   HL2317687  -3.693  28.471  -6.704
  224XTA   HL2417688  -2.342  27.965  -6.250
  224XTA   HL2517689  -2.315  27.832  -6.139
  224XTA    CO617690  -3.625  28.799  -6.973
  224XTA    CO717691  -3.481  28.806  -6.760
  224XTA    OA517692  -3.520  28.799  -7.069
  224XTA   HL2617693  -3.655  28.903  -6.957
  224XTA   HL2717694  -3.714  28.762  -7.016
  224XTA   HL2817695  -3.497  28.914  -6.753
  224XTA   HL2917696  -3.492  28.773  -6.654
  225XTA     NT17697  -2.014  31.594 -10.437
  225XTA    CN117698  -2.067  31.539 -10.325
  225XTA     C117699  -2.165  31.439 -10.339
  225XTA     C217700  -2.222  31.376 -10.231
  225XTA     C317701  -2.181  31.413 -10.103
  225XTA     C417702  -2.099  31.523 -10.088
  225XTA     C517703  -2.036  31.584 -10.195
  225XTA    CN217704  -1.907  31.532 -10.495
  225XTA     C617705  -1.804  31.474 -10.422
  225XTA     C717706  -1.706  31.395 -10.488
  225XTA     C817707  -1.704  31.385 -10.627
  225XTA     C917708  -1.804  31.449 -10.704
  225XTA    C1017709  -1.900  31.526 -10.641
  225XTA    CN317710  -2.052  31.722 -10.463
  225XTA    C1117711  -2.184  31.743 -10.510
  225XTA    C1217712  -2.229  31.873 -10.536
  225XTA    C1317713  -2.144  31.989 -10.522
  225XTA    C1417714  -2.010  31.961 -10.466
  225XTA    C1517715  -1.968  31.832 -10.439
  225XTA     H117716  -2.204  31.413 -10.438
  225XTA     H217717  -2.291  31.298 -10.249
  225XTA     H317718  -2.071  31.559  -9.992
  225XTA     H417719  -1.959  31.666 -10.181
  225XTA     H517720  -1.796  31.493 -10.316
  225XTA     H617721  -1.630  31.358 -10.427
  225XTA     H717722  -1.800  31.445 -10.815
  225XTA     H817723  -1.962  31.579 -10.706
  225XTA     H917724  -2.251  31.661 -10.537
  225XTA    H1017725  -2.328  31.895 -10.568
  225XTA    H1117726  -1.953  32.051 -10.439
  225XTA    H1217727  -1.872  31.814 -10.398
  225XTA    OA117728  -2.235  31.353  -9.996
  225XTA    CO117729  -2.238  31.423  -9.873
  225XTA    OA217730  -1.612  31.302 -10.700
  225XTA    CO217731  -1.544  31.198 -10.633
  225XTA    CL117732  -1.512  31.095 -10.734
  225XTA    CL217733  -1.435  30.976 -10.680
  225XTA    CL317734  -1.352  30.904 -10.790
  225XTA    CL417735  -1.447  30.832 -10.884
  225XTA    CO317736  -1.362  30.757 -10.987
  225XTA    OA317737  -1.442  30.697 -11.090
  225XTA    CO417738  -1.510  30.587 -11.048
  225XTA    CT117739  -1.630  30.567 -11.147
  225XTA    CL517740  -1.721  30.450 -11.105
  225XTA    CL617741  -1.837  30.421 -11.197
  225XTA    OA417742  -2.201  32.107 -10.542
  225XTA    CO517743  -2.125  32.213 -10.596
  225XTA    HL117744  -2.051  32.250 -10.527
  225XTA    HL217745  -2.279  31.518  -9.890
  225XTA    HL317746  -2.306  31.383  -9.801
  225XTA    HL417747  -2.150  31.414  -9.821
  225XTA    HL517748  -1.452  31.236 -10.586
  225XTA    HL617749  -1.600  31.147 -10.552
  225XTA    HL717750  -1.452  31.153 -10.808
  225XTA    HL817751  -1.598  31.048 -10.784
  225XTA    HL917752  -1.491  30.901 -10.620
  225XTA   HL1017753  -1.356  31.022 -10.612
  225XTA   HL1117754  -1.278  30.970 -10.842
  225XTA   HL1217755  -1.291  30.819 -10.756
  225XTA   HL1317756  -1.517  30.899 -10.938
  225XTA   HL1417757  -1.513  30.763 -10.837
  225XTA   HL1517758  -1.298  30.826 -11.037
  225XTA   HL1617759  -1.295  30.686 -10.932
  225XTA   HL1717760  -1.450  30.500 -11.036
  225XTA   HL1817761  -1.553  30.608 -10.955
  225XTA   HL1917762  -1.755  30.479 -11.007
  225XTA   HL2017763  -1.660  30.361 -11.085
  225XTA   HL2117764  -1.893  30.328 -11.170
  225XTA   HL2217765  -1.794  30.411 -11.296
  225XTA   HL2317766  -1.917  30.502 -11.206
  225XTA   HL2417767  -2.189  32.298 -10.624
  225XTA   HL2517768  -2.069  32.193 -10.686
  225XTA    CO617769  -1.568  30.563 -11.290
  225XTA    CO717770  -1.710  30.701 -11.136
  225XTA    OA517771  -1.772  30.706 -11.011
  225XTA   HL2617772  -1.479  30.618 -11.319
  225XTA   HL2717773  -1.646  30.590 -11.365
  225XTA   HL2817774  -1.772  30.707 -11.223
  225XTA   HL2917775  -1.648  30.789 -11.138
  226XTA     NT17776  -8.467  28.460  -7.059
  226XTA    CN117777  -8.465  28.378  -7.167
  226XTA     C117778  -8.591  28.346  -7.222
  226XTA     C217779  -8.603  28.265  -7.337
  226XTA     C317780  -8.488  28.198  -7.380
  226XTA     C417781  -8.363  28.217  -7.313
  226XTA     C517782  -8.347  28.306  -7.205
  226XTA    CN217783  -8.457  28.592  -7.073
  226XTA     C617784  -8.559  28.678  -7.120
  226XTA     C717785  -8.539  28.814  -7.132
  226XTA     C817786  -8.409  28.867  -7.097
  226XTA     C917787  -8.307  28.783  -7.061
  226XTA    C1017788  -8.336  28.646  -7.049
  226XTA    CN317789  -8.454  28.414  -6.934
  226XTA    C1117790  -8.566  28.397  -6.849
  226XTA    C1217791  -8.553  28.350  -6.721
  226XTA    C1317792  -8.429  28.308  -6.670
  226XTA    C1417793  -8.312  28.326  -6.748
  226XTA    C1517794  -8.332  28.368  -6.883
  226XTA     H117795  -8.682  28.399  -7.186
  226XTA     H217796  -8.708  28.252  -7.377
  226XTA     H317797  -8.274  28.172  -7.340
  226XTA     H417798  -8.252  28.323  -7.153
  226XTA     H517799  -8.651  28.629  -7.144
  226XTA     H617800  -8.614  28.883  -7.175
  226XTA     H717801  -8.211  28.824  -7.028
  226XTA     H817802  -8.248  28.585  -7.014
  226XTA     H917803  -8.664  28.433  -6.889
  226XTA    H1017804  -8.641  28.351  -6.663
  226XTA    H1117805  -8.215  28.286  -6.710
  226XTA    H1217806  -8.246  28.374  -6.951
  226XTA    OA117807  -8.485  28.117  -7.490
  226XTA    CO117808  -8.608  28.055  -7.526
  226XTA    OA217809  -8.381  29.002  -7.101
  226XTA    CO217810  -8.488  29.085  -7.133
  226XTA    CL117811  -8.431  29.223  -7.152
  226XTA    CL217812  -8.322  29.241  -7.256
  226XTA    CL317813  -8.287  29.386  -7.286
  226XTA    CL417814  -8.160  29.397  -7.378
  226XTA    CO317815  -8.179  29.334  -7.523
  226XTA    OA317816  -8.057  29.292  -7.586
  226XTA    CO417817  -7.967  29.221  -7.501
  226XTA    CT117818  -7.862  29.164  -7.597
  226XTA    CL517819  -7.920  29.056  -7.695
  226XTA    CL617820  -7.983  28.938  -7.631
  226XTA    OA417821  -8.415  28.256  -6.545
  226XTA    CO517822  -8.527  28.257  -6.454
  226XTA    HL117823  -8.586  28.350  -6.468
  226XTA    HL217824  -8.703  28.106  -7.534
  226XTA    HL317825  -8.585  28.001  -7.619
  226XTA    HL417826  -8.629  27.982  -7.443
  226XTA    HL517827  -8.545  29.057  -7.217
  226XTA    HL617828  -8.568  29.087  -7.057
  226XTA    HL717829  -8.388  29.258  -7.053
  226XTA    HL817830  -8.519  29.289  -7.170
  226XTA    HL917831  -8.360  29.192  -7.343
  226XTA   HL1017832  -8.239  29.174  -7.237
  226XTA   HL1117833  -8.367  29.454  -7.313
  226XTA   HL1217834  -8.260  29.436  -7.191
  226XTA   HL1317835  -8.087  29.342  -7.320
  226XTA   HL1417836  -8.125  29.500  -7.384
  226XTA   HL1517837  -8.242  29.246  -7.522
  226XTA   HL1617838  -8.226  29.408  -7.586
  226XTA   HL1717839  -7.919  29.284  -7.425
  226XTA   HL1817840  -8.026  29.147  -7.455
  226XTA   HL1917841  -7.839  29.031  -7.765
  226XTA   HL2017842  -7.997  29.110  -7.743
  226XTA   HL2117843  -8.076  28.964  -7.581
  226XTA   HL2217844  -7.916  28.898  -7.556
  226XTA   HL2317845  -7.993  28.861  -7.712
  226XTA   HL2417846  -8.483  28.246  -6.354
  226XTA   HL2517847  -8.606  28.179  -6.469
  226XTA    CO617848  -7.746  29.101  -7.516
  226XTA    CO717849  -7.797  29.283  -7.678
  226XTA    OA517850  -7.673  29.017  -7.600
  226XTA   HL2617851  -7.788  29.044  -7.433
  226XTA   HL2717852  -7.679  29.180  -7.478
  226XTA   HL2817853  -7.872  29.338  -7.729
  226XTA   HL2917854  -7.756  29.361  -7.604
  227XTA     NT17855  -5.607  28.667 -11.454
  227XTA    CN117856  -5.662  28.541 -11.440
  227XTA     C117857  -5.574  28.436 -11.419
  227XTA     C217858  -5.631  28.307 -11.410
  227XTA     C317859  -5.764  28.284 -11.449
  227XTA     C417860  -5.848  28.392 -11.471
  227XTA     C517861  -5.794  28.517 -11.477
  227XTA    CN217862  -5.516  28.689 -11.548
  227XTA     C617863  -5.394  28.740 -11.502
  227XTA     C717864  -5.301  28.772 -11.600
  227XTA     C817865  -5.317  28.726 -11.731
  227XTA     C917866  -5.429  28.652 -11.763
  227XTA    C1017867  -5.534  28.632 -11.672
  227XTA    CN317868  -5.657  28.772 -11.392
  227XTA    C1117869  -5.762  28.852 -11.445
  227XTA    C1217870  -5.816  28.954 -11.370
  227XTA    C1317871  -5.773  28.986 -11.240
  227XTA    C1417872  -5.676  28.901 -11.186
  227XTA    C1517873  -5.619  28.793 -11.254
  227XTA     H117874  -5.471  28.455 -11.398
  227XTA     H217875  -5.558  28.226 -11.378
  227XTA     H317876  -5.948  28.372 -11.500
  227XTA     H417877  -5.863  28.603 -11.498
  227XTA     H517878  -5.385  28.774 -11.399
  227XTA     H617879  -5.204  28.823 -11.579
  227XTA     H717880  -5.441  28.602 -11.863
  227XTA     H817881  -5.623  28.577 -11.697
  227XTA     H917882  -5.794  28.823 -11.546
  227XTA    H1017883  -5.897  29.007 -11.418
  227XTA    H1117884  -5.660  28.910 -11.087
  227XTA    H1217885  -5.542  28.731 -11.208
  227XTA    OA117886  -5.809  28.155 -11.441
  227XTA    CO117887  -5.726  28.059 -11.501
  227XTA    OA217888  -5.223  28.765 -11.820
  227XTA    CO217889  -5.248  28.735 -11.958
  227XTA    CL117890  -5.130  28.789 -12.033
  227XTA    CL217891  -5.126  28.714 -12.169
  227XTA    CL317892  -4.996  28.745 -12.250
  227XTA    CL417893  -4.971  28.645 -12.368
  227XTA    CO317894  -4.881  28.521 -12.342
  227XTA    OA317895  -4.752  28.574 -12.286
  227XTA    CO417896  -4.673  28.466 -12.240
  227XTA    CT117897  -4.527  28.511 -12.188
  227XTA    CL517898  -4.471  28.598 -12.303
  227XTA    CL617899  -4.328  28.650 -12.264
  227XTA    OA417900  -5.834  29.081 -11.177
  227XTA    CO517901  -5.851  29.068 -11.038
  227XTA    HL117902  -5.891  29.161 -10.992
  227XTA    HL217903  -5.704  28.088 -11.601
  227XTA    HL317904  -5.643  28.039 -11.437
  227XTA    HL417905  -5.787  27.973 -11.522
  227XTA    HL517906  -5.260  28.626 -11.954
  227XTA    HL617907  -5.328  28.800 -11.989
  227XTA    HL717908  -5.031  28.785 -11.981
  227XTA    HL817909  -5.136  28.895 -12.043
  227XTA    HL917910  -5.208  28.732 -12.236
  227XTA   HL1017911  -5.136  28.605 -12.148
  227XTA   HL1117912  -4.996  28.838 -12.296
  227XTA   HL1217913  -4.914  28.739 -12.175
  227XTA   HL1317914  -4.924  28.700 -12.456
  227XTA   HL1417915  -5.067  28.592 -12.396
  227XTA   HL1517916  -4.924  28.450 -12.276
  227XTA   HL1617917  -4.853  28.472 -12.441
  227XTA   HL1717918  -4.730  28.418 -12.159
  227XTA   HL1817919  -4.667  28.397 -12.325
  227XTA   HL1917920  -4.535  28.686 -12.319
  227XTA   HL2017921  -4.469  28.547 -12.399
  227XTA   HL2117922  -4.299  28.727 -12.344
  227XTA   HL2217923  -4.257  28.569 -12.261
  227XTA   HL2317924  -4.321  28.695 -12.160
  227XTA   HL2417925  -5.767  29.043 -10.974
  227XTA   HL2517926  -5.928  28.994 -11.019
  227XTA    CO617927  -4.439  28.384 -12.175
  227XTA    CO717928  -4.546  28.581 -12.059
  227XTA    OA517929  -4.425  28.333 -12.307
  227XTA   HL2617930  -4.487  28.306 -12.113
  227XTA   HL2717931  -4.339  28.416 -12.143
  227XTA   HL2817932  -4.448  28.609 -12.013
  227XTA   HL2917933  -4.605  28.671 -12.070
  228XTA     NT17934  -5.008  30.217  -8.185
  228XTA    CN117935  -4.974  30.128  -8.090
  228XTA     C117936  -4.869  30.159  -7.999
  228XTA     C217937  -4.842  30.070  -7.894
  228XTA     C317938  -4.912  29.951  -7.872
  228XTA     C417939  -5.026  29.926  -7.956
  228XTA     C517940  -5.051  30.012  -8.069
  228XTA    CN217941  -5.082  30.324  -8.150
  228XTA     C617942  -5.213  30.332  -8.205
  228XTA     C717943  -5.294  30.442  -8.172
  228XTA     C817944  -5.249  30.541  -8.089
  228XTA     C917945  -5.120  30.530  -8.024
  228XTA    C1017946  -5.035  30.423  -8.066
  228XTA    CN317947  -4.942  30.219  -8.306
  228XTA    C1117948  -4.865  30.330  -8.349
  228XTA    C1217949  -4.816  30.339  -8.485
  228XTA    C1317950  -4.837  30.230  -8.576
  228XTA    C1417951  -4.904  30.115  -8.529
  228XTA    C1517952  -4.947  30.110  -8.394
  228XTA     H117953  -4.811  30.245  -8.016
  228XTA     H217954  -4.753  30.099  -7.828
  228XTA     H317955  -5.069  29.836  -7.922
  228XTA     H417956  -5.135  30.005  -8.140
  228XTA     H517957  -5.252  30.259  -8.281
  228XTA     H617958  -5.393  30.454  -8.214
  228XTA     H717959  -5.097  30.593  -7.943
  228XTA     H817960  -4.940  30.405  -8.030
  228XTA     H917961  -4.862  30.411  -8.277
  228XTA    H1017962  -4.765  30.433  -8.515
  228XTA    H1117963  -4.926  30.031  -8.599
  228XTA    H1217964  -4.988  30.015  -8.364
  228XTA    OA117965  -4.887  29.856  -7.777
  228XTA    CO117966  -4.776  29.880  -7.685
  228XTA    OA217967  -5.335  30.638  -8.045
  228XTA    CO217968  -5.323  30.765  -8.123
  228XTA    CL117969  -5.396  30.756  -8.261
  228XTA    CL217970  -5.383  30.878  -8.355
  228XTA    CL317971  -5.502  30.883  -8.459
  228XTA    CL417972  -5.506  30.758  -8.550
  228XTA    CO317973  -5.573  30.785  -8.675
  228XTA    OA317974  -5.609  30.664  -8.737
  228XTA    CO417975  -5.703  30.688  -8.840
  228XTA    CT117976  -5.734  30.567  -8.930
  228XTA    CL517977  -5.623  30.527  -9.028
  228XTA    CL617978  -5.642  30.436  -9.149
  228XTA    OA417979  -4.793  30.231  -8.707
  228XTA    CO517980  -4.728  30.353  -8.747
  228XTA    HL117981  -4.649  30.390  -8.676
  228XTA    HL217982  -4.793  29.982  -7.644
  228XTA    HL317983  -4.786  29.811  -7.605
  228XTA    HL417984  -4.675  29.871  -7.716
  228XTA    HL517985  -5.367  30.849  -8.071
  228XTA    HL617986  -5.221  30.782  -8.145
  228XTA    HL717987  -5.499  30.746  -8.236
  228XTA    HL817988  -5.366  30.666  -8.316
  228XTA    HL917989  -5.294  30.861  -8.409
  228XTA   HL1017990  -5.367  30.980  -8.316
  228XTA   HL1117991  -5.595  30.883  -8.403
  228XTA   HL1217992  -5.501  30.978  -8.514
  228XTA   HL1317993  -5.552  30.675  -8.505
  228XTA   HL1417994  -5.406  30.735  -8.566
  228XTA   HL1517995  -5.669  30.832  -8.653
  228XTA   HL1617996  -5.519  30.848  -8.740
  228XTA   HL1717997  -5.792  30.724  -8.797
  228XTA   HL1817998  -5.665  30.774  -8.908
  228XTA   HL1917999  -5.541  30.492  -8.962
  228XTA   HL2018000  -5.586  30.628  -9.055
  228XTA   HL2118001  -5.569  30.438  -9.228
  228XTA   HL2218002  -5.733  30.461  -9.194
  228XTA   HL2318003  -5.646  30.329  -9.114
  228XTA   HL2418004  -4.798  30.441  -8.747
  228XTA   HL2518005  -4.675  30.346  -8.845
  228XTA    CO618006  -5.869  30.601  -8.997
  228XTA    CO718007  -5.758  30.449  -8.841
  228XTA    OA518008  -5.854  30.691  -9.065
  228XTA   HL2618009  -5.944  30.633  -8.927
  228XTA   HL2718010  -5.917  30.520  -9.039
  228XTA   HL2818011  -5.847  30.493  -8.740
  228XTA   HL2918012  -5.663  30.430  -8.794
  229XTA     NT18013  -9.129  25.133  -5.771
  229XTA    CN118014  -9.080  25.040  -5.683
  229XTA     C118015  -9.174  24.952  -5.619
  229XTA     C218016  -9.120  24.874  -5.515
  229XTA     C318017  -8.983  24.865  -5.486
  229XTA     C418018  -8.893  24.944  -5.561
  229XTA     C518019  -8.944  25.029  -5.663
  229XTA    CN218020  -9.167  25.091  -5.891
  229XTA     C618021  -9.066  25.044  -5.975
  229XTA     C718022  -9.102  24.977  -6.093
  229XTA     C818023  -9.237  24.953  -6.131
  229XTA     C918024  -9.337  25.000  -6.040
  229XTA    C1018025  -9.301  25.080  -5.929
  229XTA    CN318026  -9.128  25.263  -5.738
  229XTA    C1118027  -9.212  25.303  -5.632
  229XTA    C1218028  -9.218  25.438  -5.594
  229XTA    C1318029  -9.137  25.533  -5.664
  229XTA    C1418030  -9.055  25.498  -5.772
  229XTA    C1518031  -9.055  25.358  -5.813
  229XTA     H118032  -9.275  24.967  -5.635
  229XTA     H218033  -9.190  24.813  -5.457
  229XTA     H318034  -8.781  24.952  -5.542
  229XTA     H418035  -8.870  25.091  -5.716
  229XTA     H518036  -8.962  25.053  -5.953
  229XTA     H618037  -9.018  24.940  -6.156
  229XTA     H718038  -9.447  24.983  -6.055
  229XTA     H818039  -9.384  25.107  -5.864
  229XTA     H918040  -9.276  25.243  -5.571
  229XTA    H1018041  -9.281  25.473  -5.511
  229XTA    H1118042  -8.998  25.577  -5.821
  229XTA    H1218043  -8.992  25.327  -5.897
  229XTA    OA118044  -8.949  24.781  -5.393
  229XTA    CO118045  -8.827  24.808  -5.330
  229XTA    OA218046  -9.270  24.896  -6.253
  229XTA    CO218047  -9.411  24.886  -6.280
  229XTA    CL118048  -9.425  24.845  -6.428
  229XTA    CL218049  -9.374  24.935  -6.538
  229XTA    CL318050  -9.458  24.934  -6.657
  229XTA    CL418051  -9.610  24.968  -6.632
  229XTA    CO318052  -9.699  24.998  -6.755
  229XTA    OA318053  -9.782  25.120  -6.735
  229XTA    CO418054  -9.864  25.113  -6.620
  229XTA    CT118055  -9.946  25.243  -6.612
  229XTA    CL518056 -10.050  25.272  -6.722
  229XTA    CL618057  -9.988  25.283  -6.864
  229XTA    OA418058  -9.137  25.671  -5.635
  229XTA    CO518059  -9.264  25.716  -5.587
  229XTA    HL118060  -9.258  25.823  -5.608
  229XTA    HL218061  -8.824  24.905  -5.294
  229XTA    HL318062  -8.813  24.754  -5.231
  229XTA    HL418063  -8.743  24.788  -5.396
  229XTA    HL518064  -9.447  24.820  -6.210
  229XTA    HL618065  -9.446  24.989  -6.272
  229XTA    HL718066  -9.528  24.815  -6.444
  229XTA    HL818067  -9.361  24.750  -6.441
  229XTA    HL918068  -9.272  24.904  -6.562
  229XTA   HL1018069  -9.378  25.039  -6.499
  229XTA   HL1118070  -9.410  25.016  -6.725
  229XTA   HL1218071  -9.448  24.841  -6.702
  229XTA   HL1318072  -9.605  25.059  -6.571
  229XTA   HL1418073  -9.666  24.899  -6.578
  229XTA   HL1518074  -9.654  25.022  -6.845
  229XTA   HL1618075  -9.754  24.905  -6.773
  229XTA   HL1718076  -9.926  25.023  -6.642
  229XTA   HL1818077  -9.802  25.115  -6.532
  229XTA   HL1918078 -10.097  25.370  -6.703
  229XTA   HL2018079 -10.132  25.194  -6.721
  229XTA   HL2118080 -10.006  25.372  -6.921
  229XTA   HL2218081 -10.020  25.200  -6.927
  229XTA   HL2318082  -9.882  25.271  -6.865
  229XTA   HL2418083  -9.283  25.700  -5.486
  229XTA   HL2518084  -9.340  25.675  -5.653
  229XTA    CO618085  -9.854  25.368  -6.589
  229XTA    CO718086 -10.029  25.241  -6.491
  229XTA    OA518087  -9.736  25.326  -6.526
  229XTA   HL2618088  -9.909  25.445  -6.537
  229XTA   HL2718089  -9.846  25.420  -6.686
  229XTA   HL2818090  -9.958  25.226  -6.401
  229XTA   HL2918091 -10.090  25.333  -6.468
  230XTA     NT18092  -6.690  27.400 -11.167
  230XTA    CN118093  -6.620  27.373 -11.281
  230XTA     C118094  -6.591  27.478 -11.381
  230XTA     C218095  -6.512  27.455 -11.486
  230XTA     C318096  -6.450  27.331 -11.508
  230XTA     C418097  -6.469  27.229 -11.417
  230XTA     C518098  -6.556  27.245 -11.302
  230XTA    CN218099  -6.654  27.516 -11.108
  230XTA     C618100  -6.522  27.534 -11.068
  230XTA     C718101  -6.489  27.654 -10.992
  230XTA     C818102  -6.583  27.752 -10.966
  230XTA     C918103  -6.715  27.736 -11.015
  230XTA    C1018104  -6.751  27.621 -11.087
  230XTA    CN318105  -6.752  27.301 -11.098
  230XTA    C1118106  -6.848  27.228 -11.156
  230XTA    C1218107  -6.899  27.119 -11.079
  230XTA    C1318108  -6.852  27.095 -10.944
  230XTA    C1418109  -6.757  27.180 -10.886
  230XTA    C1518110  -6.706  27.273 -10.971
  230XTA     H118111  -6.631  27.575 -11.379
  230XTA     H218112  -6.495  27.532 -11.556
  230XTA     H318113  -6.429  27.130 -11.428
  230XTA     H418114  -6.573  27.174 -11.227
  230XTA     H518115  -6.455  27.462 -11.085
  230XTA     H618116  -6.384  27.661 -10.951
  230XTA     H718117  -6.792  27.808 -10.994
  230XTA     H818118  -6.856  27.618 -11.115
  230XTA     H918119  -6.871  27.240 -11.263
  230XTA    H1018120  -6.963  27.058 -11.137
  230XTA    H1118121  -6.717  27.158 -10.789
  230XTA    H1218122  -6.628  27.328 -10.917
  230XTA    OA118123  -6.371  27.312 -11.624
  230XTA    CO118124  -6.290  27.192 -11.637
  230XTA    OA218125  -6.529  27.869 -10.919
  230XTA    CO218126  -6.594  27.983 -10.941
  230XTA    CL118127  -6.495  28.096 -10.919
  230XTA    CL218128  -6.560  28.224 -10.876
  230XTA    CL318129  -6.583  28.323 -10.988
  230XTA    CL418130  -6.643  28.449 -10.940
  230XTA    CO318131  -6.783  28.434 -10.882
  230XTA    OA318132  -6.767  28.404 -10.742
  230XTA    CO418133  -6.887  28.408 -10.667
  230XTA    CT118134  -6.851  28.402 -10.515
  230XTA    CL518135  -6.972  28.360 -10.427
  230XTA    CL618136  -7.059  28.249 -10.482
  230XTA    OA418137  -6.908  26.995 -10.877
  230XTA    CO518138  -6.914  27.004 -10.736
  230XTA    HL118139  -6.945  26.907 -10.694
  230XTA    HL218140  -6.223  27.209 -11.726
  230XTA    HL318141  -6.233  27.176 -11.543
  230XTA    HL418142  -6.348  27.102 -11.671
  230XTA    HL518143  -6.625  27.984 -11.046
  230XTA    HL618144  -6.684  27.997 -10.875
  230XTA    HL718145  -6.428  28.106 -11.008
  230XTA    HL818146  -6.413  28.071 -10.851
  230XTA    HL918147  -6.496  28.276 -10.800
  230XTA   HL1018148  -6.641  28.196 -10.816
  230XTA   HL1118149  -6.489  28.345 -11.028
  230XTA   HL1218150  -6.646  28.289 -11.068
  230XTA   HL1318151  -6.649  28.517 -11.028
  230XTA   HL1418152  -6.584  28.498 -10.861
  230XTA   HL1518153  -6.833  28.526 -10.902
  230XTA   HL1618154  -6.840  28.353 -10.937
  230XTA   HL1718155  -6.941  28.503 -10.703
  230XTA   HL1818156  -6.949  28.325 -10.699
  230XTA   HL1918157  -7.037  28.445 -10.398
  230XTA   HL2018158  -6.939  28.333 -10.325
  230XTA   HL2118159  -7.134  28.224 -10.407
  230XTA   HL2218160  -6.998  28.159 -10.516
  230XTA   HL2318161  -7.113  28.282 -10.570
  230XTA   HL2418162  -6.987  27.076 -10.698
  230XTA   HL2518163  -6.815  27.039 -10.694
  230XTA    CO618164  -6.791  28.537 -10.478
  230XTA    CO718165  -6.748  28.299 -10.486
  230XTA    OA518166  -6.863  28.618 -10.498
  230XTA   HL2618167  -6.698  28.552 -10.535
  230XTA   HL2718168  -6.762  28.534 -10.377
  230XTA   HL2818169  -6.770  28.175 -10.532
  230XTA   HL2918170  -6.662  28.331 -10.541
  231XTA     NT18171  -5.595  29.273 -12.274
  231XTA    CN118172  -5.474  29.221 -12.235
  231XTA     C118173  -5.376  29.209 -12.335
  231XTA     C218174  -5.245  29.172 -12.305
  231XTA     C318175  -5.220  29.119 -12.175
  231XTA     C418176  -5.322  29.111 -12.082
  231XTA     C518177  -5.447  29.171 -12.106
  231XTA    CN218178  -5.703  29.184 -12.267
  231XTA     C618179  -5.792  29.198 -12.158
  231XTA     C718180  -5.902  29.113 -12.157
  231XTA     C818181  -5.922  29.017 -12.258
  231XTA     C918182  -5.831  28.997 -12.358
  231XTA    C1018183  -5.720  29.086 -12.368
  231XTA    CN318184  -5.619  29.401 -12.282
  231XTA    C1118185  -5.698  29.444 -12.390
  231XTA    C1218186  -5.735  29.577 -12.397
  231XTA    C1318187  -5.696  29.671 -12.300
  231XTA    C1418188  -5.616  29.628 -12.191
  231XTA    C1518189  -5.580  29.490 -12.176
  231XTA     H118190  -5.404  29.233 -12.440
  231XTA     H218191  -5.174  29.153 -12.384
  231XTA     H318192  -5.311  29.070 -11.983
  231XTA     H418193  -5.522  29.185 -12.035
  231XTA     H518194  -5.780  29.263 -12.070
  231XTA     H618195  -5.966  29.125 -12.069
  231XTA     H718196  -5.842  28.917 -12.431
  231XTA     H818197  -5.639  29.079 -12.434
  231XTA     H918198  -5.729  29.372 -12.467
  231XTA    H1018199  -5.786  29.611 -12.489
  231XTA    H1118200  -5.588  29.699 -12.115
  231XTA    H1218201  -5.519  29.464 -12.089
  231XTA    OA118202  -5.100  29.074 -12.144
  231XTA    CO118203  -5.019  29.180 -12.094
  231XTA    OA218204  -6.030  28.933 -12.259
  231XTA    CO218205  -6.120  28.946 -12.149
  231XTA    CL118206  -6.209  28.827 -12.139
  231XTA    CL218207  -6.257  28.816 -11.993
  231XTA    CL318208  -6.148  28.732 -11.905
  231XTA    CL418209  -6.174  28.731 -11.754
  231XTA    CO318210  -6.049  28.695 -11.670
  231XTA    OA318211  -6.058  28.724 -11.532
  231XTA    CO418212  -6.177  28.666 -11.471
  231XTA    CT118213  -6.167  28.680 -11.321
  231XTA    CL518214  -6.301  28.628 -11.254
  231XTA    CL618215  -6.321  28.477 -11.255
  231XTA    OA418216  -5.734  29.801 -12.302
  231XTA    CO518217  -5.779  29.856 -12.424
  231XTA    HL118218  -5.873  29.819 -12.454
  231XTA    HL218219  -5.071  29.247 -12.030
  231XTA    HL318220  -4.939  29.135 -12.041
  231XTA    HL418221  -4.985  29.239 -12.174
  231XTA    HL518222  -6.049  28.940 -12.063
  231XTA    HL618223  -6.173  29.041 -12.143
  231XTA    HL718224  -6.157  28.744 -12.172
  231XTA    HL818225  -6.294  28.836 -12.212
  231XTA    HL918226  -6.358  28.769 -11.986
  231XTA   HL1018227  -6.269  28.914 -11.953
  231XTA   HL1118228  -6.144  28.629 -11.939
  231XTA   HL1218229  -6.048  28.777 -11.916
  231XTA   HL1318230  -6.249  28.652 -11.737
  231XTA   HL1418231  -6.208  28.830 -11.713
  231XTA   HL1518232  -6.015  28.595 -11.684
  231XTA   HL1618233  -5.967  28.762 -11.694
  231XTA   HL1718234  -6.272  28.694 -11.516
  231XTA   HL1818235  -6.170  28.560 -11.492
  231XTA   HL1918236  -6.383  28.677 -11.304
  231XTA   HL2018237  -6.312  28.658 -11.145
  231XTA   HL2118238  -6.406  28.453 -11.193
  231XTA   HL2218239  -6.241  28.414 -11.224
  231XTA   HL2318240  -6.344  28.435 -11.349
  231XTA   HL2418241  -5.718  29.823 -12.512
  231XTA   HL2518242  -5.780  29.963 -12.422
  231XTA    CO618243  -6.157  28.819 -11.275
  231XTA    CO718244  -6.044  28.603 -11.268
  231XTA    OA518245  -6.048  28.593 -11.160
  231XTA   HL2618246  -6.056  28.847 -11.304
  231XTA   HL2718247  -6.132  28.813 -11.139
  231XTA   HL2818248  -5.948  28.647 -11.304
  231XTA   HL2918249  -6.039  28.504 -11.312
  232XTA     NT18250  -3.603  31.028 -10.668
  232XTA    CN118251  -3.696  30.941 -10.711
  232XTA     C118252  -3.827  30.940 -10.658
  232XTA     C218253  -3.922  30.852 -10.714
  232XTA     C318254  -3.885  30.757 -10.813
  232XTA     C418255  -3.753  30.757 -10.860
  232XTA     C518256  -3.657  30.848 -10.816
  232XTA    CN218257  -3.601  31.143 -10.735
  232XTA     C618258  -3.672  31.256 -10.688
  232XTA     C718259  -3.687  31.379 -10.760
  232XTA     C818260  -3.618  31.394 -10.885
  232XTA     C918261  -3.534  31.286 -10.927
  232XTA    C1018262  -3.525  31.160 -10.855
  232XTA    CN318263  -3.530  31.030 -10.559
  232XTA    C1118264  -3.591  30.997 -10.436
  232XTA    C1218265  -3.517  31.000 -10.311
  232XTA    C1318266  -3.378  31.022 -10.310
  232XTA    C1418267  -3.321  31.044 -10.432
  232XTA    C1518268  -3.391  31.064 -10.550
  232XTA     H118269  -3.855  31.013 -10.584
  232XTA     H218270  -4.021  30.849 -10.679
  232XTA     H318271  -3.722  30.688 -10.935
  232XTA     H418272  -3.557  30.851 -10.853
  232XTA     H518273  -3.748  31.235 -10.616
  232XTA     H618274  -3.752  31.457 -10.728
  232XTA     H718275  -3.479  31.280 -11.020
  232XTA     H818276  -3.473  31.070 -10.888
  232XTA     H918277  -3.698  30.982 -10.440
  232XTA    H1018278  -3.567  30.979 -10.218
  232XTA    H1118279  -3.218  31.072 -10.441
  232XTA    H1218280  -3.341  31.084 -10.645
  232XTA    OA118281  -3.974  30.667 -10.854
  232XTA    CO118282  -3.926  30.554 -10.922
  232XTA    OA218283  -3.632  31.515 -10.942
  232XTA    CO218284  -3.597  31.537 -11.071
  232XTA    CL118285  -3.676  31.661 -11.104
  232XTA    CL218286  -3.632  31.776 -11.013
  232XTA    CL318287  -3.719  31.900 -11.028
  232XTA    CL418288  -3.686  31.990 -10.906
  232XTA    CO318289  -3.787  32.104 -10.905
  232XTA    OA318290  -3.766  32.208 -10.797
  232XTA    CO418291  -3.800  32.158 -10.672
  232XTA    CT118292  -3.771  32.265 -10.565
  232XTA    CL518293  -3.620  32.288 -10.534
  232XTA    CL618294  -3.532  32.175 -10.471
  232XTA    OA418295  -3.319  31.016 -10.188
  232XTA    CO518296  -3.182  31.053 -10.181
  232XTA    HL118297  -3.165  31.144 -10.237
  232XTA    HL218298  -3.907  30.586 -11.024
  232XTA    HL318299  -3.835  30.509 -10.875
  232XTA    HL418300  -4.003  30.485 -10.934
  232XTA    HL518301  -3.490  31.550 -11.085
  232XTA    HL618302  -3.644  31.455 -11.118
  232XTA    HL718303  -3.783  31.648 -11.094
  232XTA    HL818304  -3.663  31.690 -11.208
  232XTA    HL918305  -3.535  31.808 -11.023
  232XTA   HL1018306  -3.639  31.749 -10.910
  232XTA   HL1118307  -3.694  31.963 -11.112
  232XTA   HL1218308  -3.824  31.870 -11.021
  232XTA   HL1318309  -3.584  32.026 -10.921
  232XTA   HL1418310  -3.705  31.937 -10.817
  232XTA   HL1518311  -3.788  32.165 -10.995
  232XTA   HL1618312  -3.883  32.065 -10.883
  232XTA   HL1718313  -3.908  32.139 -10.678
  232XTA   HL1818314  -3.737  32.072 -10.655
  232XTA   HL1918315  -3.607  32.384 -10.476
  232XTA   HL2018316  -3.571  32.318 -10.627
  232XTA   HL2118317  -3.563  32.134 -10.375
  232XTA   HL2218318  -3.431  32.209 -10.463
  232XTA   HL2318319  -3.524  32.091 -10.543
  232XTA   HL2418320  -3.113  30.973 -10.206
  232XTA   HL2518321  -3.159  31.076 -10.077
  232XTA    CO618322  -3.840  32.228 -10.429
  232XTA    CO718323  -3.842  32.398 -10.610
  232XTA    OA518324  -3.955  32.228 -10.432
  232XTA   HL2618325  -3.816  32.304 -10.352
  232XTA   HL2718326  -3.787  32.136 -10.393
  232XTA   HL2818327  -3.824  32.434 -10.741
  232XTA   HL2918328  -3.948  32.364 -10.618
  233XTA     NT18329  -8.457  27.607  -8.499
  233XTA    CN118330  -8.497  27.533  -8.601
  233XTA     C118331  -8.413  27.473  -8.698
  233XTA     C218332  -8.463  27.398  -8.810
  233XTA     C318333  -8.601  27.373  -8.819
  233XTA     C418334  -8.689  27.433  -8.720
  233XTA     C518335  -8.633  27.509  -8.616
  233XTA    CN218336  -8.430  27.739  -8.519
  233XTA     C618337  -8.302  27.786  -8.546
  233XTA     C718338  -8.272  27.924  -8.544
  233XTA     C818339  -8.379  28.013  -8.513
  233XTA     C918340  -8.509  27.966  -8.491
  233XTA    C1018341  -8.535  27.825  -8.493
  233XTA    CN318342  -8.416  27.557  -8.378
  233XTA    C1118343  -8.305  27.475  -8.375
  233XTA    C1218344  -8.261  27.428  -8.250
  233XTA    C1318345  -8.321  27.471  -8.131
  233XTA    C1418346  -8.426  27.557  -8.134
  233XTA    C1518347  -8.477  27.603  -8.256
  233XTA     H118348  -8.304  27.477  -8.678
  233XTA     H218349  -8.390  27.364  -8.881
  233XTA     H318350  -8.798  27.416  -8.724
  233XTA     H418351  -8.694  27.548  -8.534
  233XTA     H518352  -8.231  27.708  -8.572
  233XTA     H618353  -8.175  27.955  -8.564
  233XTA     H718354  -8.588  28.028  -8.465
  233XTA     H818355  -8.635  27.777  -8.479
  233XTA     H918356  -8.263  27.432  -8.464
  233XTA    H1018357  -8.177  27.359  -8.253
  233XTA    H1118358  -8.469  27.589  -8.042
  233XTA    H1218359  -8.554  27.680  -8.257
  233XTA    OA118360  -8.658  27.288  -8.917
  233XTA    CO118361  -8.564  27.211  -8.990
  233XTA    OA218362  -8.363  28.151  -8.511
  233XTA    CO218363  -8.230  28.208  -8.534
  233XTA    CL118364  -8.187  28.249  -8.387
  233XTA    CL218365  -8.053  28.330  -8.379
  233XTA    CL318366  -8.043  28.383  -8.234
  233XTA    CL418367  -7.969  28.515  -8.215
  233XTA    CO318368  -7.950  28.552  -8.073
  233XTA    OA318369  -7.886  28.679  -8.056
  233XTA    CO418370  -7.984  28.783  -8.071
  233XTA    CT118371  -7.918  28.908  -8.124
  233XTA    CL518372  -7.862  28.870  -8.266
  233XTA    CL618373  -7.800  28.987  -8.343
  233XTA    OA418374  -8.282  27.432  -8.005
  233XTA    CO518375  -8.198  27.317  -7.997
  233XTA    HL118376  -8.236  27.223  -8.030
  233XTA    HL218377  -8.618  27.130  -9.038
  233XTA    HL318378  -8.508  27.275  -9.061
  233XTA    HL418379  -8.489  27.164  -8.920
  233XTA    HL518380  -8.169  28.143  -8.595
  233XTA    HL618381  -8.226  28.297  -8.606
  233XTA    HL718382  -8.199  28.167  -8.317
  233XTA    HL818383  -8.269  28.315  -8.352
  233XTA    HL918384  -8.029  28.412  -8.449
  233XTA   HL1018385  -7.977  28.249  -8.386
  233XTA   HL1118386  -8.144  28.387  -8.192
  233XTA   HL1218387  -7.992  28.308  -8.187
  233XTA   HL1318388  -8.023  28.594  -8.270
  233XTA   HL1418389  -7.873  28.499  -8.271
  233XTA   HL1518390  -8.048  28.558  -8.036
  233XTA   HL1618391  -7.892  28.475  -8.012
  233XTA   HL1718392  -8.069  28.749  -8.130
  233XTA   HL1818393  -8.015  28.804  -7.966
  233XTA   HL1918394  -7.942  28.843  -8.330
  233XTA   HL2018395  -7.784  28.791  -8.267
  233XTA   HL2118396  -7.751  28.952  -8.432
  233XTA   HL2218397  -7.726  29.047  -8.283
  233XTA   HL2318398  -7.885  29.039  -8.379
  233XTA   HL2418399  -8.181  27.298  -7.890
  233XTA   HL2518400  -8.111  27.332  -8.050
  233XTA    CO618401  -7.802  28.945  -8.030
  233XTA    CO718402  -8.027  29.024  -8.128
  233XTA    OA518403  -7.758  29.074  -8.042
  233XTA   HL2618404  -7.713  28.883  -8.053
  233XTA   HL2718405  -7.832  28.918  -7.931
  233XTA   HL2818406  -7.989  29.116  -8.186
  233XTA   HL2918407  -8.048  29.062  -8.029
  234XTA     NT18408  -7.082  29.978 -11.316
  234XTA    CN118409  -7.149  29.914 -11.219
  234XTA     C118410  -7.162  29.983 -11.097
  234XTA     C218411  -7.247  29.930 -10.994
  234XTA     C318412  -7.315  29.809 -11.017
  234XTA     C418413  -7.297  29.733 -11.138
  234XTA     C518414  -7.208  29.788 -11.238
  234XTA    CN218415  -7.137  29.995 -11.433
  234XTA     C618416  -7.081  29.935 -11.544
  234XTA     C718417  -7.133  29.957 -11.678
  234XTA     C818418  -7.254  30.029 -11.696
  234XTA     C918419  -7.305  30.103 -11.581
  234XTA    C1018420  -7.247  30.078 -11.453
  234XTA    CN318421  -6.951  30.009 -11.297
  234XTA    C1118422  -6.868  29.904 -11.263
  234XTA    C1218423  -6.732  29.932 -11.234
  234XTA    C1318424  -6.682  30.059 -11.235
  234XTA    C1418425  -6.770  30.169 -11.257
  234XTA    C1518426  -6.905  30.145 -11.294
  234XTA     H118427  -7.125  30.080 -11.092
  234XTA     H218428  -7.262  29.981 -10.899
  234XTA     H318429  -7.351  29.645 -11.163
  234XTA     H418430  -7.189  29.737 -11.331
  234XTA     H518431  -6.992  29.869 -11.518
  234XTA     H618432  -7.075  29.917 -11.759
  234XTA     H718433  -7.386  30.171 -11.591
  234XTA     H818434  -7.301  30.121 -11.369
  234XTA     H918435  -6.909  29.810 -11.264
  234XTA    H1018436  -6.655  29.854 -11.211
  234XTA    H1118437  -6.727  30.268 -11.265
  234XTA    H1218438  -6.975  30.228 -11.316
  234XTA    OA118439  -7.395  29.752 -10.916
  234XTA    CO118440  -7.452  29.626 -10.938
  234XTA    OA218441  -7.325  30.029 -11.814
  234XTA    CO218442  -7.248  30.080 -11.924
  234XTA    CL118443  -7.207  29.968 -12.010
  234XTA    CL218444  -7.144  30.015 -12.139
  234XTA    CL318445  -7.110  29.904 -12.232
  234XTA    CL418446  -6.965  29.855 -12.220
  234XTA    CO318447  -6.947  29.725 -12.300
  234XTA    OA318448  -6.833  29.654 -12.265
  234XTA    CO418449  -6.813  29.535 -12.340
  234XTA    CT118450  -6.799  29.415 -12.246
  234XTA    CL518451  -6.697  29.431 -12.136
  234XTA    CL618452  -6.671  29.305 -12.049
  234XTA    OA418453  -6.555  30.069 -11.207
  234XTA    CO518454  -6.491  30.194 -11.226
  234XTA    HL118455  -6.493  30.229 -11.332
  234XTA    HL218456  -7.382  29.545 -10.964
  234XTA    HL318457  -7.494  29.597 -10.847
  234XTA    HL418458  -7.529  29.620 -11.013
  234XTA    HL518459  -7.313  30.141 -11.987
  234XTA    HL618460  -7.158  30.135 -11.891
  234XTA    HL718461  -7.293  29.915 -12.040
  234XTA    HL818462  -7.145  29.883 -11.969
  234XTA    HL918463  -7.051  30.065 -12.111
  234XTA   HL1018464  -7.205  30.094 -12.187
  234XTA   HL1118465  -7.174  29.818 -12.198
  234XTA   HL1218466  -7.125  29.922 -12.342
  234XTA   HL1318467  -6.937  29.837 -12.115
  234XTA   HL1418468  -6.902  29.936 -12.256
  234XTA   HL1518469  -7.040  29.665 -12.289
  234XTA   HL1618470  -6.936  29.745 -12.406
  234XTA   HL1718471  -6.897  29.511 -12.404
  234XTA   HL1818472  -6.723  29.555 -12.394
  234XTA   HL1918473  -6.713  29.519 -12.070
  234XTA   HL2018474  -6.601  29.446 -12.177
  234XTA   HL2118475  -6.609  29.326 -11.964
  234XTA   HL2218476  -6.628  29.221 -12.105
  234XTA   HL2318477  -6.765  29.269 -12.015
  234XTA   HL2418478  -6.381  30.192 -11.207
  234XTA   HL2518479  -6.527  30.271 -11.155
  234XTA    CO618480  -6.758  29.297 -12.335
  234XTA    CO718481  -6.948  29.383 -12.189
  234XTA    OA518482  -6.818  29.272 -12.428
  234XTA   HL2618483  -6.746  29.206 -12.281
  234XTA   HL2718484  -6.653  29.326 -12.369
  234XTA   HL2818485  -7.031  29.327 -12.283
  234XTA   HL2918486  -6.939  29.311 -12.111
  235XTA     NT18487  -6.343  27.932  -8.108
  235XTA    CN118488  -6.260  27.958  -8.212
  235XTA     C118489  -6.266  28.076  -8.290
  235XTA     C218490  -6.187  28.105  -8.399
  235XTA     C318491  -6.074  28.014  -8.428
  235XTA     C418492  -6.057  27.903  -8.339
  235XTA     C518493  -6.146  27.873  -8.232
  235XTA    CN218494  -6.295  27.934  -7.980
  235XTA     C618495  -6.203  28.036  -7.941
  235XTA     C718496  -6.145  28.031  -7.815
  235XTA     C818497  -6.182  27.932  -7.721
  235XTA     C918498  -6.272  27.826  -7.762
  235XTA    C1018499  -6.318  27.825  -7.891
  235XTA    CN318500  -6.466  27.873  -8.130
  235XTA    C1118501  -6.463  27.741  -8.191
  235XTA    C1218502  -6.583  27.681  -8.218
  235XTA    C1318503  -6.711  27.740  -8.181
  235XTA    C1418504  -6.704  27.858  -8.108
  235XTA    C1518505  -6.589  27.932  -8.094
  235XTA     H118506  -6.338  28.150  -8.268
  235XTA     H218507  -6.211  28.197  -8.459
  235XTA     H318508  -5.975  27.839  -8.351
  235XTA     H418509  -6.126  27.791  -8.165
  235XTA     H518510  -6.180  28.112  -8.017
  235XTA     H618511  -6.068  28.104  -7.800
  235XTA     H718512  -6.288  27.739  -7.691
  235XTA     H818513  -6.388  27.743  -7.912
  235XTA     H918514  -6.373  27.690  -8.214
  235XTA    H1018515  -6.579  27.582  -8.260
  235XTA    H1118516  -6.795  27.900  -8.079
  235XTA    H1218517  -6.583  28.029  -8.047
  235XTA    OA118518  -5.990  28.030  -8.534
  235XTA    CO118519  -6.053  28.092  -8.645
  235XTA    OA218520  -6.127  27.928  -7.595
  235XTA    CO218521  -6.002  27.992  -7.578
  235XTA    CL118522  -5.924  27.946  -7.453
  235XTA    CL218523  -5.842  27.825  -7.477
  235XTA    CL318524  -5.734  27.819  -7.364
  235XTA    CL418525  -5.612  27.739  -7.401
  235XTA    CO318526  -5.498  27.720  -7.306
  235XTA    OA318527  -5.414  27.643  -7.383
  235XTA    CO418528  -5.286  27.617  -7.321
  235XTA    CT118529  -5.216  27.501  -7.387
  235XTA    CL518530  -5.157  27.539  -7.531
  235XTA    CL618531  -5.250  27.572  -7.645
  235XTA    OA418532  -6.831  27.676  -8.184
  235XTA    CO518533  -6.829  27.546  -8.246
  235XTA    HL118534  -6.799  27.555  -8.347
  235XTA    HL218535  -6.074  28.196  -8.630
  235XTA    HL318536  -5.977  28.071  -8.722
  235XTA    HL418537  -6.145  28.043  -8.678
  235XTA    HL518538  -5.941  27.974  -7.670
  235XTA    HL618539  -6.020  28.097  -7.575
  235XTA    HL718540  -5.996  27.936  -7.373
  235XTA    HL818541  -5.858  28.031  -7.417
  235XTA    HL918542  -5.788  27.833  -7.572
  235XTA   HL1018543  -5.907  27.739  -7.493
  235XTA   HL1118544  -5.696  27.922  -7.365
  235XTA   HL1218545  -5.775  27.785  -7.266
  235XTA   HL1318546  -5.584  27.774  -7.502
  235XTA   HL1418547  -5.657  27.640  -7.424
  235XTA   HL1518548  -5.471  27.820  -7.277
  235XTA   HL1618549  -5.528  27.657  -7.215
  235XTA   HL1718550  -5.227  27.708  -7.347
  235XTA   HL1818551  -5.291  27.601  -7.212
  235XTA   HL1918552  -5.104  27.461  -7.567
  235XTA   HL2018553  -5.090  27.629  -7.525
  235XTA   HL2118554  -5.194  27.617  -7.728
  235XTA   HL2218555  -5.314  27.650  -7.609
  235XTA   HL2318556  -5.321  27.491  -7.672
  235XTA   HL2418557  -6.937  27.519  -8.238
  235XTA   HL2518558  -6.773  27.482  -8.177
  235XTA    CO618559  -5.310  27.381  -7.398
  235XTA    CO718560  -5.092  27.461  -7.313
  235XTA    OA518561  -5.267  27.291  -7.444
  235XTA   HL2618562  -5.404  27.405  -7.447
  235XTA   HL2718563  -5.325  27.368  -7.293
  235XTA   HL2818564  -5.127  27.408  -7.184
  235XTA   HL2918565  -5.050  27.372  -7.362
  236XTA     NT18566  -0.448  29.422 -11.596
  236XTA    CN118567  -0.443  29.463 -11.724
  236XTA     C118568  -0.341  29.422 -11.814
  236XTA     C218569  -0.334  29.474 -11.942
  236XTA     C318570  -0.424  29.569 -11.988
  236XTA     C418571  -0.527  29.610 -11.899
  236XTA     C518572  -0.544  29.548 -11.770
  236XTA    CN218573  -0.491  29.508 -11.496
  236XTA     C618574  -0.628  29.524 -11.466
  236XTA     C718575  -0.676  29.619 -11.383
  236XTA     C818576  -0.585  29.713 -11.318
  236XTA     C918577  -0.444  29.693 -11.333
  236XTA    C1018578  -0.399  29.585 -11.419
  236XTA    CN318579  -0.451  29.290 -11.564
  236XTA    C1118580  -0.512  29.190 -11.643
  236XTA    C1218581  -0.508  29.057 -11.612
  236XTA    C1318582  -0.426  29.012 -11.508
  236XTA    C1418583  -0.362  29.105 -11.425
  236XTA    C1518584  -0.375  29.248 -11.452
  236XTA     H118585  -0.271  29.346 -11.779
  236XTA     H218586  -0.259  29.441 -12.013
  236XTA     H318587  -0.588  29.690 -11.923
  236XTA     H418588  -0.625  29.586 -11.716
  236XTA     H518589  -0.696  29.449 -11.514
  236XTA     H618590  -0.774  29.647 -11.364
  236XTA     H718591  -0.371  29.758 -11.288
  236XTA     H818592  -0.288  29.571 -11.439
  236XTA     H918593  -0.579  29.227 -11.723
  236XTA    H1018594  -0.561  28.989 -11.669
  236XTA    H1118595  -0.313  29.082 -11.332
  236XTA    H1218596  -0.331  29.322 -11.387
  236XTA    OA118597  -0.399  29.620 -12.113
  236XTA    CO118598  -0.501  29.699 -12.172
  236XTA    OA218599  -0.633  29.818 -11.240
  236XTA    CO218600  -0.542  29.936 -11.225
  236XTA    CL118601  -0.534  30.012 -11.359
  236XTA    CL218602  -0.676  30.037 -11.419
  236XTA    CL318603  -0.684  30.063 -11.572
  236XTA    CL418604  -0.835  30.068 -11.617
  236XTA    CO318605  -0.912  30.183 -11.552
  236XTA    OA318606  -0.971  30.119 -11.443
  236XTA    CO418607  -0.973  30.207 -11.334
  236XTA    CT118608  -1.038  30.130 -11.219
  236XTA    CL518609  -1.036  30.224 -11.087
  236XTA    CL618610  -0.904  30.270 -11.038
  236XTA    OA418611  -0.425  28.878 -11.475
  236XTA    CO518612  -0.313  28.819 -11.415
  236XTA    HL118613  -0.320  28.856 -11.310
  236XTA    HL218614  -0.595  29.646 -12.170
  236XTA    HL318615  -0.508  29.794 -12.116
  236XTA    HL418616  -0.480  29.727 -12.275
  236XTA    HL518617  -0.596  29.999 -11.152
  236XTA    HL618618  -0.438  29.915 -11.189
  236XTA    HL718619  -0.465  29.966 -11.429
  236XTA    HL818620  -0.488  30.111 -11.365
  236XTA    HL918621  -0.717  30.120 -11.366
  236XTA   HL1018622  -0.723  29.939 -11.411
  236XTA   HL1118623  -0.638  30.159 -11.598
  236XTA   HL1218624  -0.625  29.992 -11.632
  236XTA   HL1318625  -0.871  29.968 -11.592
  236XTA   HL1418626  -0.857  30.081 -11.715
  236XTA   HL1518627  -0.841  30.262 -11.524
  236XTA   HL1618628  -0.994  30.227 -11.615
  236XTA   HL1718629  -0.879  30.252 -11.302
  236XTA   HL1818630  -1.039  30.298 -11.349
  236XTA   HL1918631  -1.089  30.181 -10.997
  236XTA   HL2018632  -1.094  30.314 -11.115
  236XTA   HL2118633  -0.849  30.189 -10.992
  236XTA   HL2218634  -0.909  30.359 -10.970
  236XTA   HL2318635  -0.848  30.306 -11.125
  236XTA   HL2418636  -0.223  28.846 -11.472
  236XTA   HL2518637  -0.332  28.710 -11.402
  236XTA    CO618638  -0.959  29.998 -11.192
  236XTA    CO718639  -1.179  30.091 -11.251
  236XTA    OA518640  -1.265  30.205 -11.257
  236XTA   HL2618641  -0.968  29.920 -11.272
  236XTA   HL2718642  -0.849  30.022 -11.184
  236XTA   HL2818643  -1.225  30.034 -11.168
  236XTA   HL2918644  -1.176  30.036 -11.351
  237XTA     NT18645  -5.301  31.451  -6.022
  237XTA    CN118646  -5.223  31.511  -6.120
  237XTA     C118647  -5.261  31.523  -6.256
  237XTA     C218648  -5.168  31.549  -6.361
  237XTA     C318649  -5.036  31.572  -6.334
  237XTA     C418650  -4.999  31.566  -6.199
  237XTA     C518651  -5.082  31.534  -6.093
  237XTA    CN218652  -5.281  31.328  -5.985
  237XTA     C618653  -5.367  31.222  -6.029
  237XTA     C718654  -5.345  31.091  -5.980
  237XTA     C818655  -5.244  31.062  -5.883
  237XTA     C918656  -5.162  31.173  -5.838
  237XTA    C1018657  -5.178  31.308  -5.887
  237XTA    CN318658  -5.388  31.527  -5.953
  237XTA    C1118659  -5.340  31.614  -5.856
  237XTA    C1218660  -5.428  31.696  -5.783
  237XTA    C1318661  -5.562  31.666  -5.789
  237XTA    C1418662  -5.618  31.579  -5.882
  237XTA    C1518663  -5.528  31.502  -5.962
  237XTA     H118664  -5.360  31.485  -6.294
  237XTA     H218665  -5.207  31.557  -6.460
  237XTA     H318666  -4.893  31.586  -6.174
  237XTA     H418667  -5.056  31.538  -5.990
  237XTA     H518668  -5.464  31.248  -6.077
  237XTA     H618669  -5.415  31.013  -6.020
  237XTA     H718670  -5.096  31.144  -5.756
  237XTA     H818671  -5.124  31.397  -5.859
  237XTA     H918672  -5.235  31.641  -5.836
  237XTA    H1018673  -5.385  31.773  -5.721
  237XTA    H1118674  -5.719  31.546  -5.878
  237XTA    H1218675  -5.574  31.428  -6.027
  237XTA    OA118676  -4.947  31.597  -6.436
  237XTA    CO118677  -4.816  31.556  -6.413
  237XTA    OA218678  -5.225  30.939  -5.823
  237XTA    CO218679  -5.332  30.911  -5.733
  237XTA    CL118680  -5.300  30.796  -5.639
  237XTA    CL218681  -5.307  30.660  -5.701
  237XTA    CL318682  -5.203  30.621  -5.802
  237XTA    CL418683  -5.185  30.469  -5.819
  237XTA    CO318684  -5.080  30.425  -5.928
  237XTA    OA318685  -5.061  30.284  -5.918
  237XTA    CO418686  -4.965  30.244  -5.827
  237XTA    CT118687  -4.963  30.093  -5.792
  237XTA    CL518688  -4.936  30.026  -5.930
  237XTA    CL618689  -5.040  30.045  -6.043
  237XTA    OA418690  -5.636  31.730  -5.700
  237XTA    CO518691  -5.772  31.710  -5.708
  237XTA    HL118692  -5.798  31.604  -5.696
  237XTA    HL218693  -4.745  31.570  -6.495
  237XTA    HL318694  -4.770  31.594  -6.321
  237XTA    HL418695  -4.813  31.450  -6.409
  237XTA    HL518696  -5.351  30.992  -5.667
  237XTA    HL618697  -5.424  30.886  -5.788
  237XTA    HL718698  -5.378  30.800  -5.567
  237XTA    HL818699  -5.217  30.826  -5.578
  237XTA    HL918700  -5.404  30.646  -5.743
  237XTA   HL1018701  -5.311  30.594  -5.608
  237XTA   HL1118702  -5.235  30.667  -5.901
  237XTA   HL1218703  -5.104  30.667  -5.773
  237XTA   HL1318704  -5.280  30.438  -5.861
  237XTA   HL1418705  -5.164  30.423  -5.726
  237XTA   HL1518706  -5.109  30.455  -6.025
  237XTA   HL1618707  -4.984  30.473  -5.904
  237XTA   HL1718708  -4.865  30.275  -5.873
  237XTA   HL1818709  -4.977  30.297  -5.739
  237XTA   HL1918710  -4.921  29.920  -5.906
  237XTA   HL2018711  -4.838  30.051  -5.957
  237XTA   HL2118712  -5.137  30.072  -6.004
  237XTA   HL2218713  -5.048  29.957  -6.104
  237XTA   HL2318714  -5.015  30.119  -6.115
  237XTA   HL2418715  -5.815  31.736  -5.803
  237XTA   HL2518716  -5.829  31.756  -5.625
  237XTA    CO618717  -5.100  30.035  -5.744
  237XTA    CO718718  -4.855  30.067  -5.688
  237XTA    OA518719  -5.117  30.074  -5.640
  237XTA   HL2618720  -5.103  29.924  -5.749
  237XTA   HL2718721  -5.181  30.062  -5.811
  237XTA   HL2818722  -4.884  30.139  -5.571
  237XTA   HL2918723  -4.861  29.961  -5.664
  238XTA     NT18724  -3.587  27.770  -6.438
  238XTA    CN118725  -3.621  27.855  -6.533
  238XTA     C118726  -3.530  27.941  -6.592
  238XTA     C218727  -3.572  28.048  -6.674
  238XTA     C318728  -3.705  28.057  -6.715
  238XTA     C418729  -3.796  27.960  -6.661
  238XTA     C518730  -3.754  27.869  -6.572
  238XTA    CN218731  -3.568  27.812  -6.317
  238XTA     C618732  -3.436  27.814  -6.269
  238XTA     C718733  -3.405  27.865  -6.144
  238XTA     C818734  -3.518  27.915  -6.065
  238XTA     C918735  -3.648  27.906  -6.108
  238XTA    C1018736  -3.676  27.857  -6.239
  238XTA    CN318737  -3.603  27.634  -6.458
  238XTA    C1118738  -3.703  27.560  -6.400
  238XTA    C1218739  -3.710  27.426  -6.427
  238XTA    C1318740  -3.607  27.354  -6.494
  238XTA    C1418741  -3.503  27.428  -6.555
  238XTA    C1518742  -3.509  27.571  -6.541
  238XTA     H118743  -3.427  27.948  -6.571
  238XTA     H218744  -3.494  28.117  -6.703
  238XTA     H318745  -3.898  27.962  -6.697
  238XTA     H418746  -3.828  27.796  -6.527
  238XTA     H518747  -3.365  27.781  -6.341
  238XTA     H618748  -3.304  27.867  -6.114
  238XTA     H718749  -3.733  27.930  -6.039
  238XTA     H818750  -3.774  27.841  -6.277
  238XTA     H918751  -3.775  27.606  -6.332
  238XTA    H1018752  -3.795  27.379  -6.381
  238XTA    H1118753  -3.428  27.385  -6.614
  238XTA    H1218754  -3.430  27.635  -6.574
  238XTA    OA118755  -3.734  28.163  -6.796
  238XTA    CO118756  -3.864  28.212  -6.807
  238XTA    OA218757  -3.481  27.946  -5.931
  238XTA    CO218758  -3.572  28.025  -5.855
  238XTA    CL118759  -3.618  27.932  -5.743
  238XTA    CL218760  -3.682  27.997  -5.618
  238XTA    CL318761  -3.745  27.887  -5.534
  238XTA    CL418762  -3.627  27.807  -5.460
  238XTA    CO318763  -3.692  27.695  -5.374
  238XTA    OA318764  -3.784  27.632  -5.468
  238XTA    CO418765  -3.897  27.565  -5.405
  238XTA    CT118766  -3.960  27.457  -5.500
  238XTA    CL518767  -4.042  27.514  -5.618
  238XTA    CL618768  -3.972  27.595  -5.726
  238XTA    OA418769  -3.605  27.219  -6.524
  238XTA    CO518770  -3.672  27.137  -6.430
  238XTA    HL118771  -3.625  27.035  -6.438
  238XTA    HL218772  -3.907  28.206  -6.712
  238XTA    HL318773  -3.867  28.317  -6.837
  238XTA    HL418774  -3.924  28.148  -6.873
  238XTA    HL518775  -3.513  28.103  -5.805
  238XTA    HL618776  -3.657  28.071  -5.902
  238XTA    HL718777  -3.545  27.857  -5.716
  238XTA    HL818778  -3.697  27.866  -5.788
  238XTA    HL918779  -3.761  28.063  -5.652
  238XTA   HL1018780  -3.615  28.061  -5.564
  238XTA   HL1118781  -3.810  27.932  -5.456
  238XTA   HL1218782  -3.809  27.814  -5.595
  238XTA   HL1318783  -3.565  27.878  -5.395
  238XTA   HL1418784  -3.564  27.757  -5.530
  238XTA   HL1518785  -3.621  27.616  -5.353
  238XTA   HL1618786  -3.744  27.740  -5.290
  238XTA   HL1718787  -3.859  27.531  -5.306
  238XTA   HL1818788  -3.971  27.642  -5.391
  238XTA   HL1918789  -4.122  27.580  -5.586
  238XTA   HL2018790  -4.084  27.426  -5.667
  238XTA   HL2118791  -4.020  27.605  -5.822
  238XTA   HL2218792  -3.865  27.582  -5.738
  238XTA   HL2318793  -3.976  27.693  -5.682
  238XTA   HL2418794  -3.780  27.134  -6.452
  238XTA   HL2518795  -3.656  27.177  -6.327
  238XTA    CO618796  -4.057  27.366  -5.410
  238XTA    CO718797  -3.845  27.367  -5.556
  238XTA    OA518798  -4.141  27.428  -5.374
  238XTA   HL2618799  -3.993  27.324  -5.332
  238XTA   HL2718800  -4.084  27.282  -5.476
  238XTA   HL2818801  -3.880  27.288  -5.669
  238XTA   HL2918802  -3.757  27.421  -5.591
  239XTA     NT18803  -5.236  26.762  -4.229
  239XTA    CN118804  -5.267  26.725  -4.102
  239XTA     C118805  -5.170  26.722  -3.999
  239XTA     C218806  -5.207  26.684  -3.872
  239XTA     C318807  -5.327  26.618  -3.850
  239XTA     C418808  -5.417  26.596  -3.953
  239XTA     C518809  -5.393  26.663  -4.072
  239XTA    CN218810  -5.207  26.893  -4.259
  239XTA     C618811  -5.081  26.926  -4.314
  239XTA     C718812  -5.054  27.059  -4.353
  239XTA     C818813  -5.151  27.154  -4.329
  239XTA     C918814  -5.280  27.123  -4.285
  239XTA    C1018815  -5.304  26.997  -4.250
  239XTA    CN318816  -5.218  26.664  -4.322
  239XTA    C1118817  -5.292  26.663  -4.444
  239XTA    C1218818  -5.288  26.547  -4.526
  239XTA    C1318819  -5.214  26.435  -4.486
  239XTA    C1418820  -5.135  26.442  -4.367
  239XTA    C1518821  -5.140  26.554  -4.283
  239XTA     H118822  -5.071  26.752  -4.014
  239XTA     H218823  -5.142  26.700  -3.787
  239XTA     H318824  -5.511  26.542  -3.945
  239XTA     H418825  -5.461  26.658  -4.159
  239XTA     H518826  -5.000  26.861  -4.322
  239XTA     H618827  -4.965  27.091  -4.406
  239XTA     H718828  -5.363  27.188  -4.279
  239XTA     H818829  -5.398  26.978  -4.210
  239XTA     H918830  -5.359  26.752  -4.456
  239XTA    H1018831  -5.363  26.545  -4.602
  239XTA    H1118832  -5.061  26.367  -4.339
  239XTA    H1218833  -5.078  26.550  -4.192
  239XTA    OA118834  -5.346  26.562  -3.722
  239XTA    CO118835  -5.484  26.555  -3.682
  239XTA    OA218836  -5.127  27.290  -4.355
  239XTA    CO218837  -4.996  27.335  -4.402
  239XTA    CL118838  -4.989  27.481  -4.368
  239XTA    CL218839  -4.870  27.552  -4.432
  239XTA    CL318840  -4.855  27.517  -4.584
  239XTA    CL418841  -4.755  27.612  -4.657
  239XTA    CO318842  -4.704  27.553  -4.790
  239XTA    OA318843  -4.658  27.652  -4.880
  239XTA    CO418844  -4.609  27.584  -5.000
  239XTA    CT118845  -4.633  27.662  -5.128
  239XTA    CL518846  -4.524  27.775  -5.148
  239XTA    CL618847  -4.498  27.872  -5.034
  239XTA    OA418848  -5.213  26.331  -4.580
  239XTA    CO518849  -5.175  26.204  -4.531
  239XTA    HL118850  -5.228  26.193  -4.439
  239XTA    HL218851  -5.497  26.511  -3.580
  239XTA    HL318852  -5.535  26.653  -3.683
  239XTA    HL418853  -5.538  26.483  -3.748
  239XTA    HL518854  -4.923  27.279  -4.342
  239XTA    HL618855  -4.988  27.305  -4.515
  239XTA    HL718856  -4.979  27.492  -4.265
  239XTA    HL818857  -5.081  27.538  -4.389
  239XTA    HL918858  -4.769  27.533  -4.394
  239XTA   HL1018859  -4.886  27.663  -4.418
  239XTA   HL1118860  -4.819  27.413  -4.594
  239XTA   HL1218861  -4.953  27.534  -4.641
  239XTA   HL1318862  -4.660  27.630  -4.601
  239XTA   HL1418863  -4.789  27.712  -4.671
  239XTA   HL1518864  -4.615  27.485  -4.773
  239XTA   HL1618865  -4.785  27.491  -4.833
  239XTA   HL1718866  -4.505  27.559  -4.992
  239XTA   HL1818867  -4.655  27.489  -5.020
  239XTA   HL1918868  -4.556  27.834  -5.233
  239XTA   HL2018869  -4.433  27.739  -5.187
  239XTA   HL2118870  -4.458  27.811  -4.952
  239XTA   HL2218871  -4.587  27.920  -4.991
  239XTA   HL2318872  -4.433  27.956  -5.060
  239XTA   HL2418873  -5.065  26.196  -4.509
  239XTA   HL2518874  -5.206  26.114  -4.587
  239XTA    CO618875  -4.780  27.716  -5.128
  239XTA    CO718876  -4.614  27.568  -5.246
  239XTA    OA518877  -4.775  27.775  -5.218
  239XTA   HL2618878  -4.814  27.768  -5.041
  239XTA   HL2718879  -4.838  27.630  -5.165
  239XTA   HL2818880  -4.724  27.475  -5.253
  239XTA   HL2918881  -4.642  27.630  -5.332
  240XTA     NT18882  -5.240  27.729  -9.772
  240XTA    CN118883  -5.195  27.809  -9.670
  240XTA     C118884  -5.162  27.943  -9.703
  240XTA     C218885  -5.103  28.023  -9.608
  240XTA     C318886  -5.062  27.962  -9.485
  240XTA     C418887  -5.093  27.833  -9.455
  240XTA     C518888  -5.169  27.754  -9.542
  240XTA    CN218889  -5.159  27.688  -9.867
  240XTA     C618890  -5.053  27.601  -9.835
  240XTA     C718891  -4.960  27.562  -9.934
  240XTA     C818892  -4.976  27.592 -10.068
  240XTA     C918893  -5.094  27.664 -10.106
  240XTA    C1018894  -5.184  27.707 -10.006
  240XTA    CN318895  -5.374  27.716  -9.796
  240XTA    C1118896  -5.463  27.827  -9.822
  240XTA    C1218897  -5.599  27.804  -9.818
  240XTA    C1318898  -5.654  27.671  -9.792
  240XTA    C1418899  -5.563  27.565  -9.772
  240XTA    C1518900  -5.423  27.586  -9.772
  240XTA     H118901  -5.194  27.983  -9.797
  240XTA     H218902  -5.075  28.126  -9.637
  240XTA     H318903  -5.068  27.790  -9.358
  240XTA     H418904  -5.200  27.651  -9.528
  240XTA     H518905  -5.026  27.577  -9.738
  240XTA     H618906  -4.883  27.493  -9.902
  240XTA     H718907  -5.115  27.685 -10.211
  240XTA     H818908  -5.271  27.771 -10.028
  240XTA     H918909  -5.414  27.917  -9.848
  240XTA    H1018910  -5.669  27.887  -9.835
  240XTA    H1118911  -5.598  27.465  -9.760
  240XTA    H1218912  -5.350  27.507  -9.761
  240XTA    OA118913  -4.991  28.025  -9.386
  240XTA    CO118914  -5.008  28.164  -9.377
  240XTA    OA218915  -4.884  27.564 -10.170
  240XTA    CO218916  -4.744  27.557 -10.127
  240XTA    CL118917  -4.666  27.525 -10.261
  240XTA    CL218918  -4.699  27.389 -10.329
  240XTA    CL318919  -4.608  27.278 -10.277
  240XTA    CL418920  -4.660  27.138 -10.293
  240XTA    CO318921  -4.558  27.029 -10.265
  240XTA    OA318922  -4.612  26.901 -10.263
  240XTA    CO418923  -4.502  26.811 -10.221
  240XTA    CT118924  -4.556  26.671 -10.197
  240XTA    CL518925  -4.429  26.586 -10.190
  240XTA    CL618926  -4.451  26.436 -10.183
  240XTA    OA418927  -5.791  27.662  -9.804
  240XTA    CO518928  -5.850  27.563  -9.728
  240XTA    HL118929  -5.800  27.466  -9.743
  240XTA    HL218930  -4.929  28.206  -9.312
  240XTA    HL318931  -5.003  28.218  -9.472
  240XTA    HL418932  -5.105  28.195  -9.334
  240XTA    HL518933  -4.705  27.648 -10.081
  240XTA    HL618934  -4.729  27.475 -10.066
  240XTA    HL718935  -4.561  27.525 -10.242
  240XTA    HL818936  -4.692  27.604 -10.328
  240XTA    HL918937  -4.671  27.407 -10.440
  240XTA   HL1018938  -4.806  27.374 -10.316
  240XTA   HL1118939  -4.519  27.294 -10.333
  240XTA   HL1218940  -4.583  27.294 -10.175
  240XTA   HL1318941  -4.678  27.109 -10.400
  240XTA   HL1418942  -4.749  27.119 -10.228
  240XTA   HL1518943  -4.468  27.048 -10.324
  240XTA   HL1618944  -4.524  27.048 -10.159
  240XTA   HL1718945  -4.438  26.811 -10.311
  240XTA   HL1818946  -4.457  26.847 -10.131
  240XTA   HL1918947  -4.356  26.619 -10.119
  240XTA   HL2018948  -4.376  26.612 -10.282
  240XTA   HL2118949  -4.542  26.408 -10.227
  240XTA   HL2218950  -4.435  26.394 -10.081
  240XTA   HL2318951  -4.380  26.384 -10.238
  240XTA   HL2418952  -5.965  27.567  -9.747
  240XTA   HL2518953  -5.850  27.581  -9.618
  240XTA    CO618954  -4.641  26.626 -10.316
  240XTA    CO718955  -4.636  26.657 -10.069
  240XTA    OA518956  -4.566  26.585 -10.430
  240XTA   HL2618957  -4.715  26.707 -10.339
  240XTA   HL2718958  -4.700  26.546 -10.290
  240XTA   HL2818959  -4.727  26.710 -10.077
  240XTA   HL2918960  -4.666  26.554 -10.056
  241XTA     NT18961  -8.567  28.152 -11.883
  241XTA    CN118962  -8.595  28.279 -11.852
  241XTA     C118963  -8.506  28.364 -11.786
  241XTA     C218964  -8.537  28.497 -11.762
  241XTA     C318965  -8.644  28.557 -11.815
  241XTA     C418966  -8.734  28.477 -11.885
  241XTA     C518967  -8.716  28.336 -11.900
  241XTA    CN218968  -8.494  28.118 -11.995
  241XTA     C618969  -8.542  28.024 -12.092
  241XTA     C718970  -8.468  28.002 -12.206
  241XTA     C818971  -8.335  28.052 -12.220
  241XTA     C918972  -8.278  28.129 -12.115
  241XTA    C1018973  -8.358  28.164 -12.005
  241XTA    CN318974  -8.615  28.052 -11.812
  241XTA    C1118975  -8.531  27.938 -11.786
  241XTA    C1218976  -8.583  27.832 -11.719
  241XTA    C1318977  -8.711  27.829 -11.664
  241XTA    C1418978  -8.791  27.940 -11.690
  241XTA    C1518979  -8.749  28.045 -11.766
  241XTA     H118980  -8.417  28.320 -11.744
  241XTA     H218981  -8.470  28.552 -11.688
  241XTA     H318982  -8.824  28.518 -11.936
  241XTA     H418983  -8.785  28.283 -11.953
  241XTA     H518984  -8.641  27.988 -12.086
  241XTA     H618985  -8.510  27.937 -12.287
  241XTA     H718986  -8.187  28.171 -12.127
  241XTA     H818987  -8.328  28.229 -11.931
  241XTA     H918988  -8.427  27.917 -11.809
  241XTA    H1018989  -8.521  27.740 -11.703
  241XTA    H1118990  -8.894  27.947 -11.651
  241XTA    H1218991  -8.813  28.132 -11.793
  241XTA    OA118992  -8.655  28.694 -11.790
  241XTA    CO118993  -8.770  28.749 -11.840
  241XTA    OA218994  -8.252  28.023 -12.327
  241XTA    CO218995  -8.295  27.930 -12.421
  241XTA    CL118996  -8.180  27.907 -12.517
  241XTA    CL218997  -8.048  27.866 -12.457
  241XTA    CL318998  -7.931  27.851 -12.548
  241XTA    CL418999  -7.797  27.883 -12.480
  241XTA    CO319000  -7.731  27.765 -12.406
  241XTA    OA319001  -7.814  27.721 -12.294
  241XTA    CO419002  -7.802  27.583 -12.264
  241XTA    CT119003  -7.865  27.548 -12.129
  241XTA    CL519004  -7.874  27.395 -12.115
  241XTA    CL619005  -7.961  27.321 -12.210
  241XTA    OA419006  -8.755  27.730 -11.582
  241XTA    CO519007  -8.867  27.664 -11.638
  241XTA    HL119008  -8.894  27.578 -11.575
  241XTA    HL219009  -8.857  28.693 -11.799
  241XTA    HL319010  -8.795  28.852 -11.808
  241XTA    HL419011  -8.763  28.744 -11.945
  241XTA    HL519012  -8.343  27.836 -12.377
  241XTA    HL619013  -8.374  27.982 -12.485
  241XTA    HL719014  -8.176  27.987 -12.588
  241XTA    HL819015  -8.212  27.829 -12.586
  241XTA    HL919016  -8.069  27.765 -12.403
  241XTA   HL1019017  -8.018  27.932 -12.376
  241XTA   HL1119018  -7.918  27.752 -12.584
  241XTA   HL1219019  -7.946  27.923 -12.634
  241XTA   HL1319020  -7.818  27.973 -12.422
  241XTA   HL1419021  -7.727  27.916 -12.554
  241XTA   HL1519022  -7.707  27.690 -12.475
  241XTA   HL1619023  -7.646  27.801 -12.359
  241XTA   HL1719024  -7.861  27.540 -12.347
  241XTA   HL1819025  -7.697  27.548 -12.270
  241XTA   HL1919026  -7.883  27.369 -12.011
  241XTA   HL2019027  -7.774  27.367 -12.141
  241XTA   HL2119028  -7.935  27.341 -12.314
  241XTA   HL2219029  -8.065  27.353 -12.203
  241XTA   HL2319030  -7.965  27.212 -12.196
  241XTA   HL2419031  -8.844  27.615 -11.732
  241XTA   HL2519032  -8.949  27.735 -11.650
  241XTA    CO619033  -8.007  27.612 -12.114
  241XTA    CO719034  -7.768  27.605 -12.016
  241XTA    OA519035  -7.641  27.555 -12.048
  241XTA   HL2619036  -8.000  27.714 -12.156
  241XTA   HL2719037  -8.073  27.559 -12.185
  241XTA   HL2819038  -7.797  27.577 -11.916
  241XTA   HL2919039  -7.761  27.712 -12.030
  242XTA     NT19040  -4.594  31.012 -10.200
  242XTA    CN119041  -4.708  31.037 -10.272
  242XTA     C119042  -4.701  31.049 -10.412
  242XTA     C219043  -4.810  31.099 -10.489
  242XTA     C319044  -4.930  31.130 -10.431
  242XTA     C419045  -4.945  31.090 -10.294
  242XTA     C519046  -4.839  31.045 -10.213
  242XTA    CN219047  -4.591  31.077 -10.084
  242XTA     C619048  -4.575  31.215 -10.084
  242XTA     C719049  -4.589  31.286  -9.956
  242XTA     C819050  -4.601  31.213  -9.836
  242XTA     C919051  -4.604  31.073  -9.841
  242XTA    C1019052  -4.608  31.009  -9.962
  242XTA    CN319053  -4.535  30.892 -10.214
  242XTA    C1119054  -4.601  30.770 -10.192
  242XTA    C1219055  -4.545  30.656 -10.243
  242XTA    C1319056  -4.421  30.650 -10.306
  242XTA    C1419057  -4.353  30.768 -10.320
  242XTA    C1519058  -4.405  30.888 -10.272
  242XTA     H119059  -4.611  31.025 -10.456
  242XTA     H219060  -4.803  31.135 -10.591
  242XTA     H319061  -5.042  31.103 -10.244
  242XTA     H419062  -4.859  31.032 -10.107
  242XTA     H519063  -4.573  31.270 -10.179
  242XTA     H619064  -4.576  31.386  -9.956
  242XTA     H719065  -4.615  31.006  -9.748
  242XTA     H819066  -4.610  30.899  -9.968
  242XTA     H919067  -4.703  30.765 -10.155
  242XTA    H1019068  -4.599  30.571 -10.231
  242XTA    H1119069  -4.254  30.776 -10.365
  242XTA    H1219070  -4.357  30.983 -10.298
  242XTA    OA119071  -5.018  31.193 -10.507
  242XTA    CO119072  -5.149  31.193 -10.450
  242XTA    OA219073  -4.619  31.270  -9.718
  242XTA    CO219074  -4.654  31.404  -9.704
  242XTA    CL119075  -4.694  31.449  -9.567
  242XTA    CL219076  -4.736  31.594  -9.561
  242XTA    CL319077  -4.800  31.639  -9.426
  242XTA    CL419078  -4.839  31.790  -9.431
  242XTA    CO319079  -4.907  31.839  -9.310
  242XTA    OA319080  -5.028  31.760  -9.281
  242XTA    CO419081  -5.132  31.772  -9.379
  242XTA    CT119082  -5.266  31.782  -9.287
  242XTA    CL519083  -5.381  31.829  -9.375
  242XTA    CL619084  -5.421  31.752  -9.496
  242XTA    OA419085  -4.357  30.539 -10.354
  242XTA    CO519086  -4.434  30.417 -10.379
  242XTA    HL119087  -4.516  30.425 -10.454
  242XTA    HL219088  -5.201  31.274 -10.508
  242XTA    HL319089  -5.193  31.098 -10.465
  242XTA    HL419090  -5.159  31.229 -10.351
  242XTA    HL519091  -4.583  31.467  -9.752
  242XTA    HL619092  -4.747  31.422  -9.766
  242XTA    HL719093  -4.619  31.418  -9.501
  242XTA    HL819094  -4.775  31.388  -9.545
  242XTA    HL919095  -4.811  31.608  -9.636
  242XTA   HL1019096  -4.665  31.673  -9.579
  242XTA   HL1119097  -4.883  31.573  -9.416
  242XTA   HL1219098  -4.733  31.617  -9.347
  242XTA   HL1319099  -4.903  31.816  -9.515
  242XTA   HL1419100  -4.747  31.854  -9.438
  242XTA   HL1519101  -4.841  31.844  -9.227
  242XTA   HL1619102  -4.936  31.941  -9.317
  242XTA   HL1719103  -5.115  31.861  -9.440
  242XTA   HL1819104  -5.139  31.694  -9.456
  242XTA   HL1919105  -5.369  31.932  -9.393
  242XTA   HL2019106  -5.478  31.841  -9.324
  242XTA   HL2119107  -5.501  31.798  -9.561
  242XTA   HL2219108  -5.461  31.652  -9.460
  242XTA   HL2319109  -5.330  31.741  -9.567
  242XTA   HL2419110  -4.477  30.382 -10.291
  242XTA   HL2519111  -4.365  30.345 -10.414
  242XTA    CO619112  -5.248  31.880  -9.176
  242XTA    CO719113  -5.295  31.644  -9.228
  242XTA    OA519114  -5.240  31.988  -9.207
  242XTA   HL2619115  -5.166  31.854  -9.114
  242XTA   HL2719116  -5.338  31.863  -9.119
  242XTA   HL2819117  -5.201  31.620  -9.122
  242XTA   HL2919118  -5.390  31.638  -9.187
  243XTA     NT19119  -6.271  30.701  -5.335
  243XTA    CN119120  -6.400  30.732  -5.363
  243XTA     C119121  -6.457  30.859  -5.346
  243XTA     C219122  -6.590  30.891  -5.387
  243XTA     C319123  -6.672  30.785  -5.428
  243XTA     C419124  -6.624  30.652  -5.435
  243XTA     C519125  -6.486  30.629  -5.408
  243XTA    CN219126  -6.192  30.686  -5.439
  243XTA     C619127  -6.153  30.557  -5.482
  243XTA     C719128  -6.079  30.543  -5.595
  243XTA     C819129  -6.043  30.660  -5.671
  243XTA     C919130  -6.071  30.789  -5.622
  243XTA    C1019131  -6.150  30.797  -5.505
  243XTA    CN319132  -6.234  30.681  -5.211
  243XTA    C1119133  -6.115  30.742  -5.159
  243XTA    C1219134  -6.078  30.703  -5.031
  243XTA    C1319135  -6.155  30.616  -4.952
  243XTA    C1419136  -6.272  30.549  -5.005
  243XTA    C1519137  -6.307  30.585  -5.138
  243XTA     H119138  -6.389  30.940  -5.325
  243XTA     H219139  -6.614  30.999  -5.375
  243XTA     H319140  -6.686  30.571  -5.456
  243XTA     H419141  -6.455  30.532  -5.419
  243XTA     H519142  -6.168  30.464  -5.419
  243XTA     H619143  -6.053  30.443  -5.635
  243XTA     H719144  -6.026  30.876  -5.667
  243XTA     H819145  -6.190  30.897  -5.473
  243XTA     H919146  -6.052  30.815  -5.213
  243XTA    H1019147  -5.993  30.752  -4.990
  243XTA    H1119148  -6.326  30.466  -4.954
  243XTA    H1219149  -6.395  30.542  -5.183
  243XTA    OA119150  -6.808  30.817  -5.442
  243XTA    CO119151  -6.899  30.714  -5.448
  243XTA    OA219152  -5.963  30.636  -5.780
  243XTA    CO219153  -5.926  30.741  -5.868
  243XTA    CL119154  -6.053  30.782  -5.945
  243XTA    CL219155  -6.085  30.706  -6.077
  243XTA    CL319156  -6.205  30.758  -6.156
  243XTA    CL419157  -6.332  30.746  -6.068
  243XTA    CO319158  -6.454  30.770  -6.150
  243XTA    OA319159  -6.540  30.849  -6.074
  243XTA    CO419160  -6.608  30.765  -5.985
  243XTA    CT119161  -6.635  30.840  -5.857
  243XTA    CL519162  -6.516  30.874  -5.765
  243XTA    CL619163  -6.436  30.758  -5.721
  243XTA    OA419164  -6.113  30.558  -4.837
  243XTA    CO519165  -6.002  30.615  -4.773
  243XTA    HL119166  -5.911  30.597  -4.826
  243XTA    HL219167  -6.899  30.667  -5.351
  243XTA    HL319168  -6.999  30.740  -5.485
  243XTA    HL419169  -6.868  30.639  -5.523
  243XTA    HL519170  -5.872  30.820  -5.810
  243XTA    HL619171  -5.858  30.719  -5.944
  243XTA    HL719172  -6.031  30.886  -5.984
  243XTA    HL819173  -6.141  30.779  -5.889
  243XTA    HL919174  -6.103  30.600  -6.049
  243XTA   HL1019175  -5.989  30.703  -6.133
  243XTA   HL1119176  -6.188  30.861  -6.191
  243XTA   HL1219177  -6.220  30.697  -6.241
  243XTA   HL1319178  -6.332  30.826  -5.995
  243XTA   HL1419179  -6.341  30.654  -6.012
  243XTA   HL1519180  -6.429  30.801  -6.251
  243XTA   HL1619181  -6.494  30.665  -6.167
  243XTA   HL1719182  -6.708  30.722  -6.021
  243XTA   HL1819183  -6.552  30.669  -5.964
  243XTA   HL1919184  -6.559  30.920  -5.676
  243XTA   HL2019185  -6.448  30.946  -5.814
  243XTA   HL2119186  -6.370  30.717  -5.802
  243XTA   HL2219187  -6.497  30.677  -5.683
  243XTA   HL2319188  -6.372  30.801  -5.648
  243XTA   HL2419189  -5.990  30.555  -4.683
  243XTA   HL2519190  -6.023  30.721  -4.752
  243XTA    CO619191  -6.754  30.779  -5.786
  243XTA    CO719192  -6.725  30.962  -5.885
  243XTA    OA519193  -6.811  30.914  -5.787
  243XTA   HL2619194  -6.731  30.755  -5.682
  243XTA   HL2719195  -6.791  30.693  -5.839
  243XTA   HL2819196  -6.761  30.961  -5.989
  243XTA   HL2919197  -6.680  31.057  -5.865
  244XTA     NT19198  -5.534  25.303  -7.076
  244XTA    CN119199  -5.654  25.242  -7.049
  244XTA     C119200  -5.741  25.296  -6.955
  244XTA     C219201  -5.862  25.228  -6.930
  244XTA     C319202  -5.900  25.115  -6.998
  244XTA     C419203  -5.813  25.068  -7.100
  244XTA     C519204  -5.692  25.130  -7.119
  244XTA    CN219205  -5.545  25.413  -7.158
  244XTA     C619206  -5.556  25.387  -7.295
  244XTA     C719207  -5.574  25.491  -7.388
  244XTA     C819208  -5.586  25.624  -7.346
  244XTA     C919209  -5.575  25.650  -7.211
  244XTA    C1019210  -5.550  25.552  -7.119
  244XTA    CN319211  -5.413  25.251  -7.045
  244XTA    C1119212  -5.383  25.211  -6.913
  244XTA    C1219213  -5.264  25.145  -6.880
  244XTA    C1319214  -5.167  25.119  -6.985
  244XTA    C1419215  -5.200  25.150  -7.118
  244XTA    C1519216  -5.316  25.217  -7.145
  244XTA     H119217  -5.730  25.397  -6.912
  244XTA     H219218  -5.929  25.281  -6.866
  244XTA     H319219  -5.826  24.972  -7.153
  244XTA     H419220  -5.623  25.098  -7.194
  244XTA     H519221  -5.551  25.293  -7.336
  244XTA     H619222  -5.588  25.458  -7.489
  244XTA     H719223  -5.594  25.752  -7.175
  244XTA     H819224  -5.539  25.588  -7.017
  244XTA     H919225  -5.446  25.241  -6.832
  244XTA    H1019226  -5.244  25.118  -6.778
  244XTA    H1119227  -5.139  25.115  -7.205
  244XTA    H1219228  -5.337  25.246  -7.255
  244XTA    OA119229  -6.024  25.065  -6.960
  244XTA    CO119230  -6.090  24.985  -7.055
  244XTA    OA219231  -5.613  25.726  -7.432
  244XTA    CO219232  -5.610  25.701  -7.569
  244XTA    CL119233  -5.614  25.830  -7.658
  244XTA    CL219234  -5.544  25.801  -7.786
  244XTA    CL319235  -5.516  25.929  -7.860
  244XTA    CL419236  -5.399  25.908  -7.964
  244XTA    CO319237  -5.377  26.043  -8.043
  244XTA    OA319238  -5.327  26.161  -7.973
  244XTA    CO419239  -5.199  26.146  -7.906
  244XTA    CT119240  -5.110  26.272  -7.885
  244XTA    CL519241  -4.994  26.259  -7.778
  244XTA    CL619242  -4.908  26.138  -7.798
  244XTA    OA419243  -5.050  25.063  -6.947
  244XTA    CO519244  -4.979  25.003  -7.051
  244XTA    HL119245  -5.038  24.919  -7.085
  244XTA    HL219246  -6.188  24.954  -7.030
  244XTA    HL319247  -6.105  25.047  -7.144
  244XTA    HL419248  -6.024  24.898  -7.085
  244XTA    HL519249  -5.542  25.622  -7.596
  244XTA    HL619250  -5.705  25.648  -7.586
  244XTA    HL719251  -5.566  25.912  -7.609
  244XTA    HL819252  -5.723  25.852  -7.676
  244XTA    HL919253  -5.605  25.739  -7.848
  244XTA   HL1019254  -5.454  25.754  -7.752
  244XTA   HL1119255  -5.604  25.960  -7.921
  244XTA   HL1219256  -5.505  26.016  -7.793
  244XTA   HL1319257  -5.424  25.829  -8.031
  244XTA   HL1419258  -5.307  25.884  -7.919
  244XTA   HL1519259  -5.321  26.017  -8.139
  244XTA   HL1619260  -5.476  26.071  -8.071
  244XTA   HL1719261  -5.218  26.106  -7.807
  244XTA   HL1819262  -5.136  26.070  -7.960
  244XTA   HL1919263  -5.033  26.243  -7.681
  244XTA   HL2019264  -4.932  26.346  -7.766
  244XTA   HL2119265  -4.960  26.046  -7.788
  244XTA   HL2219266  -4.827  26.130  -7.732
  244XTA   HL2319267  -4.867  26.139  -7.898
  244XTA   HL2419268  -4.885  24.962  -7.010
  244XTA   HL2519269  -4.957  25.072  -7.129
  244XTA    CO619270  -5.207  26.384  -7.840
  244XTA    CO719271  -5.050  26.311  -8.020
  244XTA    OA519272  -5.132  26.338  -8.086
  244XTA   HL2619273  -5.155  26.479  -7.846
  244XTA   HL2719274  -5.312  26.388  -7.931
  244XTA   HL2819275  -5.005  26.223  -8.057
  244XTA   HL2919276  -4.986  26.391  -8.005
  245XTA     NT19277  -4.775  25.235  -6.556
  245XTA    CN119278  -4.845  25.123  -6.524
  245XTA     C119279  -4.912  25.121  -6.401
  245XTA     C219280  -4.989  25.008  -6.368
  245XTA     C319281  -4.992  24.895  -6.454
  245XTA     C419282  -4.931  24.903  -6.581
  245XTA     C519283  -4.858  25.012  -6.613
  245XTA    CN219284  -4.647  25.232  -6.514
  245XTA     C619285  -4.537  25.260  -6.604
  245XTA     C719286  -4.406  25.271  -6.557
  245XTA     C819287  -4.380  25.260  -6.422
  245XTA     C919288  -4.487  25.241  -6.335
  245XTA    C1019289  -4.618  25.220  -6.379
  245XTA    CN319290  -4.826  25.351  -6.595
  245XTA    C1119291  -4.814  25.467  -6.510
  245XTA    C1219292  -4.865  25.588  -6.561
  245XTA    C1319293  -4.914  25.598  -6.688
  245XTA    C1419294  -4.924  25.484  -6.771
  245XTA    C1519295  -4.881  25.355  -6.718
  245XTA     H119296  -4.910  25.207  -6.328
  245XTA     H219297  -5.028  25.000  -6.269
  245XTA     H319298  -4.956  24.818  -6.641
  245XTA     H419299  -4.808  25.020  -6.711
  245XTA     H519300  -4.561  25.268  -6.708
  245XTA     H619301  -4.330  25.295  -6.620
  245XTA     H719302  -4.461  25.243  -6.227
  245XTA     H819303  -4.690  25.208  -6.310
  245XTA     H919304  -4.763  25.464  -6.418
  245XTA    H1019305  -4.855  25.674  -6.502
  245XTA    H1119306  -4.946  25.491  -6.877
  245XTA    H1219307  -4.880  25.269  -6.781
  245XTA    OA119308  -5.070  24.784  -6.436
  245XTA    CO119309  -5.121  24.759  -6.308
  245XTA    OA219310  -4.257  25.289  -6.365
  245XTA    CO219311  -4.143  25.277  -6.447
  245XTA    CL119312  -4.025  25.357  -6.395
  245XTA    CL219313  -3.966  25.322  -6.251
  245XTA    CL319314  -3.836  25.396  -6.217
  245XTA    CL419315  -3.785  25.406  -6.075
  245XTA    CO319316  -3.684  25.296  -6.038
  245XTA    OA319317  -3.637  25.307  -5.907
  245XTA    CO419318  -3.741  25.293  -5.805
  245XTA    CT119319  -3.744  25.404  -5.696
  245XTA    CL519320  -3.610  25.408  -5.629
  245XTA    CL619321  -3.564  25.284  -5.563
  245XTA    OA419322  -4.934  25.725  -6.739
  245XTA    CO519323  -4.974  25.733  -6.878
  245XTA    HL119324  -4.997  25.834  -6.902
  245XTA    HL219325  -5.134  24.647  -6.310
  245XTA    HL319326  -5.037  24.760  -6.237
  245XTA    HL419327  -5.207  24.810  -6.272
  245XTA    HL519328  -4.120  25.175  -6.474
  245XTA    HL619329  -4.168  25.332  -6.540
  245XTA    HL719330  -4.054  25.458  -6.381
  245XTA    HL819331  -3.950  25.359  -6.467
  245XTA    HL919332  -3.957  25.219  -6.243
  245XTA   HL1019333  -4.038  25.341  -6.176
  245XTA   HL1119334  -3.763  25.373  -6.291
  245XTA   HL1219335  -3.864  25.495  -6.235
  245XTA   HL1319336  -3.872  25.413  -6.011
  245XTA   HL1419337  -3.733  25.503  -6.053
  245XTA   HL1519338  -3.722  25.196  -6.055
  245XTA   HL1619339  -3.594  25.309  -6.097
  245XTA   HL1719340  -3.840  25.286  -5.848
  245XTA   HL1819341  -3.720  25.200  -5.754
  245XTA   HL1919342  -3.608  25.486  -5.552
  245XTA   HL2019343  -3.534  25.448  -5.703
  245XTA   HL2119344  -3.468  25.295  -5.518
  245XTA   HL2219345  -3.553  25.207  -5.644
  245XTA   HL2319346  -3.639  25.255  -5.490
  245XTA   HL2419347  -5.057  25.663  -6.890
  245XTA   HL2519348  -4.895  25.702  -6.948
  245XTA    CO619349  -3.853  25.368  -5.594
  245XTA    CO719350  -3.784  25.534  -5.758
  245XTA    OA519351  -3.793  25.618  -5.689
  245XTA   HL2619352  -3.851  25.446  -5.514
  245XTA   HL2719353  -3.976  25.383  -5.663
  245XTA   HL2819354  -3.879  25.516  -5.818
  245XTA   HL2919355  -3.712  25.558  -5.834
  246XTA     NT19356  -1.197  30.152  -7.703
  246XTA    CN119357  -1.263  30.187  -7.819
  246XTA     C119358  -1.397  30.207  -7.804
  246XTA     C219359  -1.475  30.263  -7.905
  246XTA     C319360  -1.415  30.291  -8.025
  246XTA     C419361  -1.277  30.255  -8.052
  246XTA     C519362  -1.196  30.207  -7.945
  246XTA    CN219363  -1.141  30.249  -7.633
  246XTA     C619364  -1.011  30.290  -7.663
  246XTA     C719365  -0.952  30.410  -7.608
  246XTA     C819366  -1.027  30.486  -7.521
  246XTA     C919367  -1.149  30.437  -7.473
  246XTA    C1019368  -1.208  30.320  -7.531
  246XTA    CN319369  -1.171  30.021  -7.674
  246XTA    C1119370  -1.077  29.956  -7.751
  246XTA    C1219371  -1.053  29.821  -7.744
  246XTA    C1319372  -1.137  29.745  -7.655
  246XTA    C1419373  -1.238  29.814  -7.580
  246XTA    C1519374  -1.263  29.951  -7.589
  246XTA     H119375  -1.448  30.197  -7.715
  246XTA     H219376  -1.576  30.289  -7.889
  246XTA     H319377  -1.217  30.278  -8.142
  246XTA     H419378  -1.091  30.190  -7.940
  246XTA     H519379  -0.955  30.234  -7.733
  246XTA     H619380  -0.854  30.441  -7.637
  246XTA     H719381  -1.208  30.500  -7.400
  246XTA     H819382  -1.304  30.297  -7.491
  246XTA     H919383  -1.024  30.006  -7.829
  246XTA    H1019384  -0.979  29.776  -7.800
  246XTA    H1119385  -1.294  29.748  -7.515
  246XTA    H1219386  -1.342  29.999  -7.539
  246XTA    OA119387  -1.494  30.343  -8.128
  246XTA    CO119388  -1.552  30.461  -8.089
  246XTA    OA219389  -0.967  30.597  -7.467
  246XTA    CO219390  -1.043  30.707  -7.493
  246XTA    CL119391  -0.958  30.827  -7.463
  246XTA    CL219392  -1.042  30.959  -7.489
  246XTA    CL319393  -0.969  31.095  -7.496
  246XTA    CL419394  -1.067  31.214  -7.472
  246XTA    CO319395  -0.979  31.340  -7.479
  246XTA    OA319396  -1.059  31.458  -7.469
  246XTA    CO419397  -1.111  31.501  -7.598
  246XTA    CT119398  -1.204  31.628  -7.578
  246XTA    CL519399  -1.320  31.577  -7.492
  246XTA    CL619400  -1.449  31.662  -7.479
  246XTA    OA419401  -1.108  29.614  -7.642
  246XTA    CO519402  -1.180  29.550  -7.536
  246XTA    HL119403  -1.175  29.605  -7.439
  246XTA    HL219404  -1.584  30.503  -8.184
  246XTA    HL319405  -1.639  30.437  -8.031
  246XTA    HL419406  -1.487  30.528  -8.040
  246XTA    HL519407  -1.081  30.720  -7.597
  246XTA    HL619408  -1.140  30.703  -7.437
  246XTA    HL719409  -0.878  30.827  -7.533
  246XTA    HL819410  -0.911  30.829  -7.364
  246XTA    HL919411  -1.120  30.963  -7.413
  246XTA   HL1019412  -1.087  30.946  -7.591
  246XTA   HL1119413  -0.894  31.109  -7.421
  246XTA   HL1219414  -0.894  31.117  -7.579
  246XTA   HL1319415  -1.113  31.208  -7.370
  246XTA   HL1419416  -1.144  31.211  -7.547
  246XTA   HL1519417  -0.913  31.345  -7.393
  246XTA   HL1619418  -0.906  31.333  -7.568
  246XTA   HL1719419  -1.021  31.530  -7.662
  246XTA   HL1819420  -1.156  31.420  -7.653
  246XTA   HL1919421  -1.275  31.569  -7.392
  246XTA   HL2019422  -1.349  31.473  -7.518
  246XTA   HL2119423  -1.497  31.663  -7.577
  246XTA   HL2219424  -1.426  31.757  -7.445
  246XTA   HL2319425  -1.522  31.618  -7.411
  246XTA   HL2419426  -1.145  29.454  -7.522
  246XTA   HL2519427  -1.288  29.539  -7.553
  246XTA    CO619428  -1.251  31.665  -7.722
  246XTA    CO719429  -1.131  31.744  -7.515
  246XTA    OA519430  -1.167  31.700  -7.772
  246XTA   HL2619431  -1.321  31.744  -7.724
  246XTA   HL2719432  -1.311  31.586  -7.771
  246XTA   HL2819433  -1.086  31.706  -7.389
  246XTA   HL2919434  -1.054  31.765  -7.585
  247XTA     NT19435  -6.452  26.074 -10.976
  247XTA    CN119436  -6.332  26.021 -10.937
  247XTA     C119437  -6.321  25.974 -10.806
  247XTA     C219438  -6.208  25.902 -10.759
  247XTA     C319439  -6.099  25.889 -10.844
  247XTA     C419440  -6.108  25.943 -10.970
  247XTA     C519441  -6.221  26.007 -11.021
  247XTA    CN219442  -6.570  26.009 -10.943
  247XTA     C619443  -6.605  25.883 -11.004
  247XTA     C719444  -6.715  25.809 -10.958
  247XTA     C819445  -6.791  25.861 -10.850
  247XTA     C919446  -6.760  25.988 -10.796
  247XTA    C1019447  -6.658  26.066 -10.850
  247XTA    CN319448  -6.465  26.189 -11.049
  247XTA    C1119449  -6.461  26.312 -10.986
  247XTA    C1219450  -6.496  26.432 -11.059
  247XTA    C1319451  -6.527  26.427 -11.196
  247XTA    C1419452  -6.533  26.299 -11.258
  247XTA    C1519453  -6.501  26.184 -11.183
  247XTA     H119454  -6.400  25.986 -10.739
  247XTA     H219455  -6.214  25.859 -10.664
  247XTA     H319456  -6.026  25.936 -11.029
  247XTA     H419457  -6.238  26.042 -11.122
  247XTA     H519458  -6.538  25.850 -11.079
  247XTA     H619459  -6.751  25.720 -11.000
  247XTA     H719460  -6.819  26.024 -10.713
  247XTA     H819461  -6.641  26.159 -10.803
  247XTA     H919462  -6.460  26.322 -10.880
  247XTA    H1019463  -6.488  26.521 -11.008
  247XTA    H1119464  -6.561  26.290 -11.364
  247XTA    H1219465  -6.514  26.085 -11.232
  247XTA    OA119466  -5.980  25.839 -10.795
  247XTA    CO119467  -5.955  25.703 -10.841
  247XTA    OA219468  -6.905  25.806 -10.807
  247XTA    CO219469  -6.904  25.667 -10.797
  247XTA    CL119470  -7.033  25.633 -10.714
  247XTA    CL219471  -7.010  25.521 -10.614
  247XTA    CL319472  -7.024  25.383 -10.681
  247XTA    CL419473  -6.986  25.264 -10.587
  247XTA    CO319474  -7.090  25.230 -10.479
  247XTA    OA319475  -7.214  25.203 -10.530
  247XTA    CO419476  -7.308  25.301 -10.518
  247XTA    CT119477  -7.421  25.276 -10.621
  247XTA    CL519478  -7.525  25.396 -10.618
  247XTA    CL619479  -7.475  25.528 -10.669
  247XTA    OA419480  -6.562  26.544 -11.264
  247XTA    CO519481  -6.608  26.538 -11.401
  247XTA    HL119482  -6.687  26.469 -11.409
  247XTA    HL219483  -5.875  25.650 -10.790
  247XTA    HL319484  -6.041  25.638 -10.840
  247XTA    HL419485  -5.921  25.702 -10.941
  247XTA    HL519486  -6.912  25.634 -10.904
  247XTA    HL619487  -6.813  25.632 -10.747
  247XTA    HL719488  -7.113  25.606 -10.786
  247XTA    HL819489  -7.059  25.724 -10.670
  247XTA    HL919490  -7.086  25.526 -10.536
  247XTA   HL1019491  -6.925  25.540 -10.557
  247XTA   HL1119492  -7.123  25.365 -10.729
  247XTA   HL1219493  -6.961  25.384 -10.765
  247XTA   HL1319494  -6.890  25.278 -10.534
  247XTA   HL1419495  -6.973  25.172 -10.643
  247XTA   HL1519496  -7.052  25.151 -10.416
  247XTA   HL1619497  -7.093  25.319 -10.417
  247XTA   HL1719498  -7.343  25.305 -10.419
  247XTA   HL1819499  -7.271  25.407 -10.526
  247XTA   HL1919500  -7.561  25.407 -10.516
  247XTA   HL2019501  -7.619  25.368 -10.670
  247XTA   HL2119502  -7.560  25.600 -10.676
  247XTA   HL2219503  -7.413  25.506 -10.760
  247XTA   HL2319504  -7.424  25.581 -10.586
  247XTA   HL2419505  -6.527  26.516 -11.469
  247XTA   HL2519506  -6.643  26.637 -11.436
  247XTA    CO619507  -7.492  25.141 -10.625
  247XTA    CO719508  -7.379  25.232 -10.768
  247XTA    OA519509  -7.459  25.114 -10.761
  247XTA   HL2619510  -7.602  25.149 -10.609
  247XTA   HL2719511  -7.434  25.083 -10.557
  247XTA   HL2819512  -7.271  25.215 -10.784
  247XTA   HL2919513  -7.420  25.300 -10.849
  248XTA     NT19514  -5.461  27.418  -4.650
  248XTA    CN119515  -5.422  27.289  -4.646
  248XTA     C119516  -5.288  27.255  -4.629
  248XTA     C219517  -5.242  27.127  -4.654
  248XTA     C319518  -5.329  27.025  -4.692
  248XTA     C419519  -5.469  27.063  -4.701
  248XTA     C519520  -5.516  27.192  -4.673
  248XTA    CN219521  -5.416  27.507  -4.745
  248XTA     C619522  -5.284  27.555  -4.740
  248XTA     C719523  -5.229  27.619  -4.856
  248XTA     C819524  -5.302  27.645  -4.973
  248XTA     C919525  -5.438  27.611  -4.971
  248XTA    C1019526  -5.491  27.539  -4.866
  248XTA    CN319527  -5.520  27.464  -4.544
  248XTA    C1119528  -5.662  27.487  -4.537
  248XTA    C1219529  -5.715  27.538  -4.419
  248XTA    C1319530  -5.631  27.578  -4.312
  248XTA    C1419531  -5.494  27.558  -4.323
  248XTA    C1519532  -5.439  27.499  -4.435
  248XTA     H119533  -5.207  27.322  -4.603
  248XTA     H219534  -5.127  27.115  -4.653
  248XTA     H319535  -5.547  26.994  -4.724
  248XTA     H419536  -5.620  27.209  -4.690
  248XTA     H519537  -5.225  27.538  -4.647
  248XTA     H619538  -5.117  27.634  -4.863
  248XTA     H719539  -5.506  27.623  -5.056
  248XTA     H819540  -5.587  27.500  -4.874
  248XTA     H919541  -5.725  27.462  -4.613
  248XTA    H1019542  -5.824  27.559  -4.411
  248XTA    H1119543  -5.437  27.583  -4.233
  248XTA    H1219544  -5.339  27.478  -4.437
  248XTA    OA119545  -5.281  26.894  -4.716
  248XTA    CO119546  -5.161  26.862  -4.663
  248XTA    OA219547  -5.243  27.689  -5.090
  248XTA    CO219548  -5.305  27.637  -5.204
  248XTA    CL119549  -5.205  27.640  -5.313
  248XTA    CL219550  -5.251  27.579  -5.445
  248XTA    CL319551  -5.359  27.681  -5.509
  248XTA    CL419552  -5.434  27.612  -5.618
  248XTA    CO319553  -5.553  27.693  -5.654
  248XTA    OA319554  -5.528  27.828  -5.696
  248XTA    CO419555  -5.511  27.841  -5.836
  248XTA    CT119556  -5.451  27.980  -5.865
  248XTA    CL519557  -5.328  28.009  -5.781
  248XTA    CL619558  -5.217  27.904  -5.782
  248XTA    OA419559  -5.673  27.646  -4.202
  248XTA    CO519560  -5.817  27.668  -4.189
  248XTA    HL119561  -5.864  27.735  -4.257
  248XTA    HL219562  -5.084  26.932  -4.691
  248XTA    HL319563  -5.169  26.836  -4.556
  248XTA    HL419564  -5.120  26.762  -4.696
  248XTA    HL519565  -5.346  27.534  -5.204
  248XTA    HL619566  -5.393  27.704  -5.233
  248XTA    HL719567  -5.124  27.581  -5.268
  248XTA    HL819568  -5.166  27.737  -5.328
  248XTA    HL919569  -5.287  27.477  -5.433
  248XTA   HL1019570  -5.169  27.582  -5.519
  248XTA   HL1119571  -5.441  27.713  -5.438
  248XTA   HL1219572  -5.318  27.773  -5.538
  248XTA   HL1319573  -5.459  27.513  -5.590
  248XTA   HL1419574  -5.369  27.601  -5.701
  248XTA   HL1519575  -5.623  27.657  -5.726
  248XTA   HL1619576  -5.597  27.709  -5.553
  248XTA   HL1719577  -5.442  27.760  -5.850
  248XTA   HL1819578  -5.605  27.814  -5.894
  248XTA   HL1919579  -5.360  28.038  -5.684
  248XTA   HL2019580  -5.295  28.111  -5.812
  248XTA   HL2119581  -5.251  27.811  -5.745
  248XTA   HL2219582  -5.155  27.942  -5.706
  248XTA   HL2319583  -5.156  27.895  -5.871
  248XTA   HL2419584  -5.843  27.696  -4.093
  248XTA   HL2519585  -5.866  27.570  -4.196
  248XTA    CO619586  -5.568  28.072  -5.842
  248XTA    CO719587  -5.410  27.998  -6.019
  248XTA    OA519588  -5.537  28.213  -5.852
  248XTA   HL2619589  -5.606  28.059  -5.741
  248XTA   HL2719590  -5.642  28.050  -5.926
  248XTA   HL2819591  -5.483  27.977  -6.088
  248XTA   HL2919592  -5.339  27.920  -6.051
  249XTA     NT19593  -3.087  27.082  -6.463
  249XTA    CN119594  -3.117  27.180  -6.552
  249XTA     C119595  -3.161  27.306  -6.515
  249XTA     C219596  -3.173  27.408  -6.614
  249XTA     C319597  -3.159  27.388  -6.756
  249XTA     C419598  -3.118  27.257  -6.792
  249XTA     C519599  -3.097  27.158  -6.693
  249XTA    CN219600  -3.171  26.971  -6.459
  249XTA     C619601  -3.303  26.990  -6.415
  249XTA     C719602  -3.386  26.874  -6.387
  249XTA     C819603  -3.330  26.744  -6.405
  249XTA     C919604  -3.200  26.730  -6.450
  249XTA    C1019605  -3.116  26.839  -6.468
  249XTA    CN319606  -2.996  27.107  -6.370
  249XTA    C1119607  -2.859  27.133  -6.403
  249XTA    C1219608  -2.762  27.149  -6.301
  249XTA    C1319609  -2.803  27.138  -6.170
  249XTA    C1419610  -2.940  27.121  -6.135
  249XTA    C1519611  -3.033  27.117  -6.236
  249XTA     H119612  -3.178  27.333  -6.412
  249XTA     H219613  -3.205  27.507  -6.583
  249XTA     H319614  -3.100  27.229  -6.892
  249XTA     H419615  -3.058  27.063  -6.706
  249XTA     H519616  -3.339  27.089  -6.402
  249XTA     H619617  -3.488  26.890  -6.352
  249XTA     H719618  -3.160  26.636  -6.465
  249XTA     H819619  -3.008  26.826  -6.492
  249XTA     H919620  -2.836  27.130  -6.505
  249XTA    H1019621  -2.651  27.159  -6.314
  249XTA    H1119622  -2.956  27.114  -6.029
  249XTA    H1219623  -3.130  27.108  -6.202
  249XTA    OA119624  -3.171  27.498  -6.837
  249XTA    CO119625  -3.250  27.463  -6.949
  249XTA    OA219626  -3.400  26.633  -6.380
  249XTA    CO219627  -3.451  26.630  -6.245
  249XTA    CL119628  -3.501  26.491  -6.205
  249XTA    CL219629  -3.454  26.463  -6.065
  249XTA    CL319630  -3.306  26.459  -6.038
  249XTA    CL419631  -3.233  26.349  -6.126
  249XTA    CO319632  -3.081  26.373  -6.143
  249XTA    OA319633  -3.026  26.320  -6.260
  249XTA    CO419634  -3.030  26.177  -6.279
  249XTA    CT119635  -2.902  26.136  -6.351
  249XTA    CL519636  -2.783  26.177  -6.267
  249XTA    CL619637  -2.765  26.122  -6.124
  249XTA    OA419638  -2.706  27.148  -6.079
  249XTA    CO519639  -2.702  27.061  -5.973
  249XTA    HL119640  -2.672  26.962  -6.011
  249XTA    HL219641  -3.352  27.441  -6.923
  249XTA    HL319642  -3.251  27.546  -7.024
  249XTA    HL419643  -3.215  27.381  -7.005
  249XTA    HL519644  -3.380  26.675  -6.176
  249XTA    HL619645  -3.541  26.695  -6.242
  249XTA    HL719646  -3.469  26.417  -6.277
  249XTA    HL819647  -3.609  26.497  -6.213
  249XTA    HL919648  -3.501  26.372  -6.043
  249XTA   HL1019649  -3.500  26.542  -6.005
  249XTA   HL1119650  -3.255  26.553  -6.057
  249XTA   HL1219651  -3.285  26.424  -5.937
  249XTA   HL1319652  -3.277  26.338  -6.223
  249XTA   HL1419653  -3.246  26.259  -6.067
  249XTA   HL1519654  -3.058  26.480  -6.135
  249XTA   HL1619655  -3.043  26.319  -6.051
  249XTA   HL1719656  -3.050  26.119  -6.195
  249XTA   HL1819657  -3.121  26.160  -6.337
  249XTA   HL1919658  -2.781  26.286  -6.249
  249XTA   HL2019659  -2.687  26.155  -6.320
  249XTA   HL2119660  -2.744  26.015  -6.120
  249XTA   HL2219661  -2.855  26.142  -6.078
  249XTA   HL2319662  -2.686  26.179  -6.086
  249XTA   HL2419663  -2.790  27.032  -5.923
  249XTA   HL2519664  -2.618  27.089  -5.911
  249XTA    CO619665  -2.902  26.208  -6.483
  249XTA    CO719666  -2.892  25.985  -6.367
  249XTA    OA519667  -2.986  25.944  -6.403
  249XTA   HL2619668  -2.919  26.312  -6.460
  249XTA   HL2719669  -3.012  26.171  -6.559
  249XTA   HL2819670  -2.875  25.936  -6.269
  249XTA   HL2919671  -2.808  25.951  -6.425
  250XTA     NT19672  -7.099  29.505  -6.269
  250XTA    CN119673  -7.065  29.434  -6.378
  250XTA     C119674  -6.961  29.339  -6.372
  250XTA     C219675  -6.923  29.267  -6.485
  250XTA     C319676  -6.982  29.294  -6.612
  250XTA     C419677  -7.083  29.390  -6.620
  250XTA     C519678  -7.121  29.465  -6.502
  250XTA    CN219679  -7.011  29.575  -6.194
  250XTA     C619680  -6.905  29.657  -6.247
  250XTA     C719681  -6.806  29.708  -6.163
  250XTA     C819682  -6.817  29.696  -6.025
  250XTA     C919683  -6.930  29.636  -5.967
  250XTA    C1019684  -7.019  29.565  -6.050
  250XTA    CN319685  -7.235  29.503  -6.231
  250XTA    C1119686  -7.276  29.380  -6.191
  250XTA    C1219687  -7.408  29.355  -6.143
  250XTA    C1319688  -7.493  29.463  -6.131
  250XTA    C1419689  -7.454  29.588  -6.186
  250XTA    C1519690  -7.325  29.612  -6.232
  250XTA     H119691  -6.919  29.328  -6.277
  250XTA     H219692  -6.850  29.187  -6.490
  250XTA     H319693  -7.127  29.416  -6.714
  250XTA     H419694  -7.201  29.534  -6.520
  250XTA     H519695  -6.886  29.654  -6.352
  250XTA     H619696  -6.717  29.748  -6.202
  250XTA     H719697  -6.919  29.614  -5.857
  250XTA     H819698  -7.093  29.495  -6.015
  250XTA     H919699  -7.208  29.296  -6.202
  250XTA    H1019700  -7.437  29.248  -6.134
  250XTA    H1119701  -7.518  29.673  -6.188
  250XTA    H1219702  -7.293  29.707  -6.275
  250XTA    OA119703  -6.958  29.216  -6.721
  250XTA    CO119704  -7.042  29.225  -6.834
  250XTA    OA219705  -6.730  29.754  -5.940
  250XTA    CO219706  -6.616  29.821  -5.993
  250XTA    CL119707  -6.553  29.880  -5.870
  250XTA    CL219708  -6.435  29.961  -5.902
  250XTA    CL319709  -6.371  30.033  -5.781
  250XTA    CL419710  -6.234  30.096  -5.803
  250XTA    CO319711  -6.234  30.228  -5.894
  250XTA    OA319712  -6.255  30.197  -6.031
  250XTA    CO419713  -6.265  30.321  -6.105
  250XTA    CT119714  -6.351  30.306  -6.225
  250XTA    CL519715  -6.293  30.180  -6.303
  250XTA    CL619716  -6.374  30.145  -6.430
  250XTA    OA419717  -7.624  29.447  -6.092
  250XTA    CO519718  -7.659  29.317  -6.040
  250XTA    HL119719  -7.650  29.254  -6.128
  250XTA    HL219720  -7.018  29.149  -6.903
  250XTA    HL319721  -7.145  29.231  -6.807
  250XTA    HL419722  -7.019  29.317  -6.889
  250XTA    HL519723  -6.537  29.762  -6.042
  250XTA    HL619724  -6.651  29.897  -6.056
  250XTA    HL719725  -6.519  29.791  -5.820
  250XTA    HL819726  -6.626  29.944  -5.820
  250XTA    HL919727  -6.459  30.035  -5.975
  250XTA   HL1019728  -6.359  29.899  -5.951
  250XTA   HL1119729  -6.439  30.116  -5.755
  250XTA   HL1219730  -6.363  29.971  -5.699
  250XTA   HL1319731  -6.158  30.023  -5.831
  250XTA   HL1419732  -6.206  30.125  -5.700
  250XTA   HL1519733  -6.309  30.305  -5.858
  250XTA   HL1619734  -6.131  30.262  -5.893
  250XTA   HL1719735  -6.307  30.401  -6.047
  250XTA   HL1819736  -6.160  30.354  -6.133
  250XTA   HL1919737  -6.300  30.087  -6.236
  250XTA   HL2019738  -6.184  30.181  -6.323
  250XTA   HL2119739  -6.479  30.123  -6.398
  250XTA   HL2219740  -6.339  30.048  -6.466
  250XTA   HL2319741  -6.370  30.223  -6.499
  250XTA   HL2419742  -7.758  29.309  -6.002
  250XTA   HL2519743  -7.592  29.295  -5.963
  250XTA    CO619744  -6.331  30.427  -6.320
  250XTA    CO719745  -6.497  30.299  -6.186
  250XTA    OA519746  -6.408  30.445  -6.394
  250XTA   HL2619747  -6.225  30.413  -6.361
  250XTA   HL2719748  -6.322  30.515  -6.257
  250XTA   HL2819749  -6.563  30.280  -6.300
  250XTA   HL2919750  -6.508  30.198  -6.151
  251XTA     NT19751  -2.293  30.804 -12.488
  251XTA    CN119752  -2.272  30.675 -12.537
  251XTA     C119753  -2.293  30.563 -12.454
  251XTA     C219754  -2.278  30.429 -12.501
  251XTA     C319755  -2.236  30.411 -12.631
  251XTA     C419756  -2.227  30.518 -12.717
  251XTA     C519757  -2.237  30.650 -12.677
  251XTA    CN219758  -2.372  30.825 -12.379
  251XTA     C619759  -2.322  30.840 -12.244
  251XTA     C719760  -2.408  30.865 -12.138
  251XTA     C819761  -2.550  30.852 -12.154
  251XTA     C919762  -2.602  30.832 -12.286
  251XTA    C1019763  -2.516  30.807 -12.394
  251XTA    CN319764  -2.199  30.895 -12.524
  251XTA    C1119765  -2.061  30.867 -12.504
  251XTA    C1219766  -1.960  30.955 -12.552
  251XTA    C1319767  -2.000  31.052 -12.654
  251XTA    C1419768  -2.137  31.080 -12.666
  251XTA    C1519769  -2.239  31.002 -12.605
  251XTA     H119770  -2.325  30.568 -12.350
  251XTA     H219771  -2.298  30.353 -12.436
  251XTA     H319772  -2.209  30.496 -12.823
  251XTA     H419773  -2.213  30.729 -12.743
  251XTA     H519774  -2.220  30.827 -12.215
  251XTA     H619775  -2.365  30.860 -12.039
  251XTA     H719776  -2.713  30.824 -12.293
  251XTA     H819777  -2.547  30.774 -12.493
  251XTA     H919778  -2.035  30.785 -12.445
  251XTA    H1019779  -1.858  30.926 -12.536
  251XTA    H1119780  -2.178  31.157 -12.728
  251XTA    H1219781  -2.351  31.016 -12.616
  251XTA    OA119782  -2.225  30.276 -12.675
  251XTA    CO119783  -2.184  30.251 -12.809
  251XTA    OA219784  -2.646  30.857 -12.060
  251XTA    CO219785  -2.588  30.855 -11.928
  251XTA    CL119786  -2.691  30.859 -11.820
  251XTA    CL219787  -2.630  30.891 -11.677
  251XTA    CL319788  -2.533  30.776 -11.638
  251XTA    CL419789  -2.474  30.791 -11.497
  251XTA    CO319790  -2.346  30.707 -11.465
  251XTA    OA319791  -2.370  30.576 -11.513
  251XTA    CO419792  -2.259  30.490 -11.499
  251XTA    CT119793  -2.286  30.337 -11.517
  251XTA    CL519794  -2.420  30.292 -11.447
  251XTA    CL619795  -2.451  30.342 -11.305
  251XTA    OA419796  -1.906  31.135 -12.716
  251XTA    CO519797  -1.769  31.105 -12.699
  251XTA    HL119798  -1.714  31.188 -12.748
  251XTA    HL219799  -2.085  30.306 -12.835
  251XTA    HL319800  -2.162  30.138 -12.821
  251XTA    HL419801  -2.260  30.279 -12.880
  251XTA    HL519802  -2.523  30.767 -11.909
  251XTA    HL619803  -2.525  30.947 -11.920
  251XTA    HL719804  -2.748  30.764 -11.816
  251XTA    HL819805  -2.769  30.936 -11.838
  251XTA    HL919806  -2.711  30.893 -11.610
  251XTA   HL1019807  -2.572  30.985 -11.676
  251XTA   HL1119808  -2.596  30.686 -11.661
  251XTA   HL1219809  -2.452  30.762 -11.707
  251XTA   HL1319810  -2.547  30.757 -11.425
  251XTA   HL1419811  -2.460  30.891 -11.464
  251XTA   HL1519812  -2.254  30.747 -11.497
  251XTA   HL1619813  -2.339  30.689 -11.356
  251XTA   HL1719814  -2.189  30.528 -11.579
  251XTA   HL1819815  -2.204  30.509 -11.404
  251XTA   HL1919816  -2.438  30.178 -11.465
  251XTA   HL2019817  -2.505  30.314 -11.505
  251XTA   HL2119818  -2.536  30.289 -11.253
  251XTA   HL2219819  -2.472  30.444 -11.314
  251XTA   HL2319820  -2.359  30.333 -11.241
  251XTA   HL2419821  -1.769  31.017 -12.758
  251XTA   HL2519822  -1.740  31.098 -12.588
  251XTA    CO619823  -2.181  30.242 -11.439
  251XTA    CO719824  -2.283  30.286 -11.673
  251XTA    OA519825  -2.060  30.251 -11.511
  251XTA   HL2619826  -2.218  30.144 -11.434
  251XTA   HL2719827  -2.164  30.267 -11.334
  251XTA   HL2819828  -2.189  30.333 -11.714
  251XTA   HL2919829  -2.280  30.177 -11.681
  252XTH     NT19830  -8.376  30.280  -8.257
  252XTH    CN119831  -8.404  30.345  -8.374
  252XTH     C119832  -8.534  30.380  -8.423
  252XTH     C219833  -8.555  30.456  -8.537
  252XTH     C319834  -8.444  30.498  -8.616
  252XTH     C419835  -8.312  30.471  -8.569
  252XTH     C519836  -8.294  30.388  -8.450
  252XTH    CN219837  -8.341  30.346  -8.144
  252XTH     C619838  -8.399  30.473  -8.114
  252XTH     C719839  -8.361  30.545  -7.998
  252XTH     C819840  -8.255  30.500  -7.921
  252XTH     C919841  -8.196  30.373  -7.946
  252XTH    C1019842  -8.246  30.292  -8.045
  252XTH    CN319843  -8.375  30.147  -8.256
  252XTH    C1119844  -8.260  30.072  -8.269
  252XTH    C1219845  -8.261  29.933  -8.253
  252XTH    C1319846  -8.376  29.865  -8.227
  252XTH    C1419847  -8.498  29.933  -8.232
  252XTH    C1519848  -8.497  30.072  -8.255
  252XTH     H119849  -8.622  30.363  -8.362
  252XTH     H219850  -8.660  30.480  -8.572
  252XTH     H319851  -8.230  30.499  -8.634
  252XTH     H419852  -8.199  30.372  -8.407
  252XTH     H519853  -8.467  30.520  -8.185
  252XTH     H619854  -8.416  30.632  -7.977
  252XTH     H719855  -8.128  30.339  -7.878
  252XTH     H819856  -8.200  30.192  -8.060
  252XTH     H919857  -8.160  30.117  -8.299
  252XTH    H1019858  -8.170  29.872  -8.256
  252XTH    H1119859  -8.599  29.896  -8.213
  252XTH    H1219860  -8.595  30.124  -8.251
  252XTH    OA119861  -8.459  30.567  -8.729
  252XTH    CO119862  -8.579  30.540  -8.796
  252XTH    OA219863  -8.201  30.579  -7.821
  252XTH    CO219864  -8.260  30.706  -7.802
  252XTH    CL119865  -8.201  30.803  -7.902
  252XTH    CL219866  -8.194  30.943  -7.854
  252XTH    CL319867  -8.132  31.040  -7.955
  252XTH    CL419868  -8.233  31.062  -8.061
  252XTH    CO319869  -8.181  31.129  -8.186
  252XTH    OA319870  -8.166  31.270  -8.161
  252XTH    CO419871  -8.156  31.343  -8.279
  252XTH    CT119872  -8.163  31.486  -8.233
  252XTH    CL519873  -8.172  31.579  -8.355
  252XTH    CL619874  -8.307  31.584  -8.426
  252XTH    OA419875  -8.371  29.732  -8.213
  252XTH    CO519876  -8.486  29.664  -8.167
  252XTH    HL119877  -8.573  29.669  -8.239
  252XTH    HL219878  -8.570  30.570  -8.896
  252XTH    HL319879  -8.592  30.435  -8.802
  252XTH    HL419880  -8.661  30.595  -8.741
  252XTH    HL519881  -8.372  30.714  -7.802
  252XTH    HL619882  -8.219  30.733  -7.704
  252XTH    HL719883  -8.258  30.784  -7.997
  252XTH    HL819884  -8.099  30.768  -7.929
  252XTH    HL919885  -8.138  30.943  -7.762
  252XTH   HL1019886  -8.287  30.981  -7.830
  252XTH   HL1119887  -8.121  31.135  -7.910
  252XTH   HL1219888  -8.039  30.998  -8.002
  252XTH   HL1319889  -8.327  31.118  -8.029
  252XTH   HL1419890  -8.259  30.956  -8.088
  252XTH   HL1519891  -8.088  31.087  -8.223
  252XTH   HL1619892  -8.255  31.114  -8.260
  252XTH   HL1719893  -8.058  31.333  -8.336
  252XTH   HL1819894  -8.229  31.319  -8.358
  252XTH   HL1919895  -8.088  31.574  -8.423
  252XTH   HL2019896  -8.147  31.675  -8.321
  252XTH   HL2119897  -8.308  31.653  -8.509
  252XTH   HL2219898  -8.379  31.633  -8.355
  252XTH   HL2319899  -8.341  31.488  -8.459
  252XTH   HL2419900  -8.525  29.713  -8.082
  252XTH   HL2519901  -8.472  29.559  -8.145
  252XTH    CO619902  -8.035  31.513  -8.151
  252XTH    CO719903  -8.288  31.516  -8.137
  252XTH    OA519904  -7.950  31.514  -8.222
  252XTH   HL2619905  -8.027  31.423  -8.077
  252XTH   HL2719906  -8.039  31.610  -8.107
  252XTH   HL2819907  -8.404  31.475  -8.197
  252XTH   HL2919908  -8.270  31.449  -8.054
  253XTA     NT19909  -4.165  24.222  -3.665
  253XTA    CN119910  -4.154  24.308  -3.773
  253XTA     C119911  -4.032  24.379  -3.810
  253XTA     C219912  -4.036  24.471  -3.910
  253XTA     C319913  -4.157  24.515  -3.975
  253XTA     C419914  -4.277  24.448  -3.938
  253XTA     C519915  -4.276  24.343  -3.845
  253XTA    CN219916  -4.195  24.095  -3.695
  253XTA     C619917  -4.327  24.043  -3.676
  253XTA     C719918  -4.357  23.912  -3.701
  253XTA     C819919  -4.256  23.823  -3.742
  253XTA     C919920  -4.120  23.866  -3.756
  253XTA    C1019921  -4.091  24.004  -3.731
  253XTA    CN319922  -4.128  24.248  -3.539
  253XTA    C1119923  -4.015  24.186  -3.484
  253XTA    C1219924  -3.979  24.217  -3.351
  253XTA    C1319925  -4.049  24.313  -3.275
  253XTA    C1419926  -4.155  24.383  -3.335
  253XTA    C1519927  -4.199  24.341  -3.465
  253XTA     H119928  -3.938  24.360  -3.761
  253XTA     H219929  -3.942  24.516  -3.939
  253XTA     H319930  -4.369  24.467  -3.989
  253XTA     H419931  -4.371  24.294  -3.824
  253XTA     H519932  -4.410  24.108  -3.651
  253XTA     H619933  -4.463  23.886  -3.692
  253XTA     H719934  -4.044  23.791  -3.782
  253XTA     H819935  -3.995  24.049  -3.751
  253XTA     H919936  -3.952  24.114  -3.530
  253XTA    H1019937  -3.894  24.163  -3.306
  253XTA    H1119938  -4.200  24.463  -3.280
  253XTA    H1219939  -4.274  24.385  -3.512
  253XTA    OA119940  -4.146  24.614  -4.070
  253XTA    CO119941  -4.263  24.634  -4.148
  253XTA    OA219942  -4.295  23.697  -3.762
  253XTA    CO219943  -4.226  23.635  -3.873
  253XTA    CL119944  -4.286  23.495  -3.879
  253XTA    CL219945  -4.228  23.415  -3.981
  253XTA    CL319946  -4.283  23.274  -3.988
  253XTA    CL419947  -4.436  23.260  -4.010
  253XTA    CO319948  -4.456  23.244  -4.165
  253XTA    OA319949  -4.419  23.355  -4.244
  253XTA    CO419950  -4.513  23.463  -4.234
  253XTA    CT119951  -4.478  23.570  -4.338
  253XTA    CL519952  -4.538  23.706  -4.315
  253XTA    CL619953  -4.504  23.780  -4.186
  253XTA    OA419954  -3.988  24.344  -3.156
  253XTA    CO519955  -4.057  24.426  -3.068
  253XTA    HL119956  -3.999  24.415  -2.974
  253XTA    HL219957  -4.310  24.544  -4.201
  253XTA    HL319958  -4.344  24.681  -4.090
  253XTA    HL419959  -4.242  24.700  -4.230
  253XTA    HL519960  -4.241  23.690  -3.964
  253XTA    HL619961  -4.124  23.632  -3.856
  253XTA    HL719962  -4.392  23.504  -3.881
  253XTA    HL819963  -4.264  23.441  -3.785
  253XTA    HL919964  -4.118  23.401  -3.964
  253XTA   HL1019965  -4.225  23.457  -4.077
  253XTA   HL1119966  -4.233  23.213  -4.062
  253XTA   HL1219967  -4.255  23.215  -3.902
  253XTA   HL1319968  -4.492  23.341  -3.966
  253XTA   HL1419969  -4.477  23.173  -3.962
  253XTA   HL1519970  -4.399  23.154  -4.198
  253XTA   HL1619971  -4.559  23.208  -4.196
  253XTA   HL1719972  -4.616  23.436  -4.258
  253XTA   HL1819973  -4.520  23.502  -4.134
  253XTA   HL1919974  -4.653  23.706  -4.327
  253XTA   HL2019975  -4.495  23.763  -4.401
  253XTA   HL2119976  -4.552  23.740  -4.099
  253XTA   HL2219977  -4.532  23.887  -4.187
  253XTA   HL2319978  -4.392  23.767  -4.168
  253XTA   HL2419979  -4.151  24.380  -3.040
  253XTA   HL2519980  -4.075  24.527  -3.099
  253XTA    CO619981  -4.524  23.501  -4.473
  253XTA    CO719982  -4.327  23.580  -4.349
  253XTA    OA519983  -4.454  23.559  -4.587
  253XTA   HL2619984  -4.627  23.491  -4.473
  253XTA   HL2719985  -4.491  23.399  -4.479
  253XTA   HL2819986  -4.286  23.483  -4.360
  253XTA   HL2919987  -4.287  23.600  -4.254
  254XTA     NT19988  -2.295  30.667  -9.239
  254XTA    CN119989  -2.202  30.616  -9.322
  254XTA     C119990  -2.123  30.514  -9.275
  254XTA     C219991  -2.017  30.472  -9.349
  254XTA     C319992  -1.987  30.525  -9.478
  254XTA     C419993  -2.076  30.626  -9.529
  254XTA     C519994  -2.181  30.671  -9.454
  254XTA    CN219995  -2.386  30.586  -9.184
  254XTA     C619996  -2.468  30.512  -9.275
  254XTA     C719997  -2.566  30.425  -9.225
  254XTA     C819998  -2.581  30.408  -9.085
  254XTA     C919999  -2.493  30.475  -8.990
  254XTA    C1020000  -2.390  30.555  -9.044
  254XTA    CN320001  -2.290  30.795  -9.196
  254XTA    C1120002  -2.196  30.825  -9.092
  254XTA    C1220003  -2.187  30.959  -9.038
  254XTA    C1320004  -2.286  31.051  -9.079
  254XTA    C1420005  -2.383  31.016  -9.173
  254XTA    C1520006  -2.392  30.887  -9.227
  254XTA     H120007  -2.148  30.470  -9.183
  254XTA     H220008  -1.957  30.392  -9.302
  254XTA     H320009  -2.076  30.656  -9.627
  254XTA     H420010  -2.252  30.737  -9.497
  254XTA     H520011  -2.455  30.527  -9.384
  254XTA     H620012  -2.633  30.359  -9.287
  254XTA     H720013  -2.509  30.467  -8.884
  254XTA     H820014  -2.323  30.605  -8.974
  254XTA     H920015  -2.128  30.751  -9.061
  254XTA    H1020016  -2.113  30.978  -8.967
  254XTA    H1120017  -2.452  31.095  -9.200
  254XTA    H1220018  -2.467  30.855  -9.291
  254XTA    OA120019  -1.877  30.489  -9.546
  254XTA    CO120020  -1.775  30.435  -9.467
  254XTA    OA220021  -2.682  30.324  -9.045
  254XTA    CO220022  -2.658  30.257  -8.921
  254XTA    CL120023  -2.721  30.323  -8.791
  254XTA    CL220024  -2.650  30.278  -8.667
  254XTA    CL320025  -2.537  30.369  -8.624
  254XTA    CL420026  -2.561  30.453  -8.495
  254XTA    CO320027  -2.681  30.546  -8.500
  254XTA    OA320028  -2.647  30.637  -8.601
  254XTA    CO420029  -2.753  30.729  -8.636
  254XTA    CT120030  -2.729  30.814  -8.763
  254XTA    CL520031  -2.687  30.716  -8.877
  254XTA    CL620032  -2.698  30.768  -9.018
  254XTA    OA420033  -2.291  31.179  -9.033
  254XTA    CO520034  -2.255  31.187  -8.892
  254XTA    HL120035  -2.147  31.170  -8.878
  254XTA    HL220036  -1.672  30.440  -9.523
  254XTA    HL320037  -1.756  30.491  -9.376
  254XTA    HL420038  -1.796  30.332  -9.427
  254XTA    HL520039  -2.689  30.157  -8.938
  254XTA    HL620040  -2.555  30.229  -8.911
  254XTA    HL720041  -2.828  30.292  -8.774
  254XTA    HL820042  -2.728  30.430  -8.796
  254XTA    HL920043  -2.615  30.172  -8.685
  254XTA   HL1020044  -2.717  30.264  -8.588
  254XTA   HL1120045  -2.456  30.310  -8.596
  254XTA   HL1220046  -2.527  30.440  -8.702
  254XTA   HL1320047  -2.470  30.513  -8.474
  254XTA   HL1420048  -2.562  30.379  -8.418
  254XTA   HL1520049  -2.771  30.485  -8.526
  254XTA   HL1620050  -2.696  30.598  -8.408
  254XTA   HL1720051  -2.845  30.684  -8.639
  254XTA   HL1820052  -2.762  30.807  -8.559
  254XTA   HL1920053  -2.755  30.627  -8.879
  254XTA   HL2020054  -2.582  30.682  -8.854
  254XTA   HL2120055  -2.692  30.876  -9.029
  254XTA   HL2220056  -2.797  30.734  -9.053
  254XTA   HL2320057  -2.613  30.732  -9.083
  254XTA   HL2420058  -2.304  31.106  -8.835
  254XTA   HL2520059  -2.277  31.286  -8.852
  254XTA    CO620060  -2.622  30.915  -8.735
  254XTA    CO720061  -2.857  30.897  -8.803
  254XTA    OA520062  -2.652  30.988  -8.662
  254XTA   HL2620063  -2.586  30.957  -8.830
  254XTA   HL2720064  -2.534  30.861  -8.694
  254XTA   HL2820065  -2.905  30.962  -8.687
  254XTA   HL2920066  -2.829  30.979  -8.869
  255XTA     NT20067  -2.816  30.027  -6.830
  255XTA    CN120068  -2.874  30.149  -6.828
  255XTA     C120069  -3.004  30.172  -6.780
  255XTA     C220070  -3.053  30.304  -6.767
  255XTA     C320071  -2.972  30.410  -6.807
  255XTA     C420072  -2.841  30.387  -6.852
  255XTA     C520073  -2.794  30.261  -6.856
  255XTA    CN220074  -2.822  29.964  -6.949
  255XTA     C620075  -2.709  29.969  -7.033
  255XTA     C720076  -2.719  29.911  -7.164
  255XTA     C820077  -2.831  29.843  -7.210
  255XTA     C920078  -2.950  29.843  -7.125
  255XTA    C1020079  -2.941  29.906  -6.999
  255XTA    CN320080  -2.787  29.963  -6.716
  255XTA    C1120081  -2.850  29.848  -6.676
  255XTA    C1220082  -2.839  29.789  -6.543
  255XTA    C1320083  -2.758  29.853  -6.449
  255XTA    C1420084  -2.675  29.960  -6.498
  255XTA    C1520085  -2.697  30.018  -6.626
  255XTA     H120086  -3.063  30.085  -6.743
  255XTA     H220087  -3.151  30.312  -6.726
  255XTA     H320088  -2.776  30.469  -6.888
  255XTA     H420089  -2.692  30.242  -6.897
  255XTA     H520090  -2.613  30.011  -7.006
  255XTA     H620091  -2.639  29.902  -7.228
  255XTA     H720092  -3.045  29.800  -7.157
  255XTA     H820093  -3.030  29.917  -6.935
  255XTA     H920094  -2.915  29.810  -6.756
  255XTA    H1020095  -2.897  29.700  -6.521
  255XTA    H1120096  -2.611  30.006  -6.430
  255XTA    H1220097  -2.631  30.094  -6.653
  255XTA    OA120098  -3.009  30.545  -6.809
  255XTA    CO120099  -3.148  30.569  -6.813
  255XTA    OA220100  -2.825  29.776  -7.326
  255XTA    CO220101  -2.944  29.757  -7.403
  255XTA    CL120102  -2.900  29.787  -7.546
  255XTA    CL220103  -2.860  29.657  -7.623
  255XTA    CL320104  -2.758  29.682  -7.731
  255XTA    CL420105  -2.719  29.546  -7.790
  255XTA    CO320106  -2.598  29.560  -7.888
  255XTA    OA320107  -2.567  29.442  -7.968
  255XTA    CO420108  -2.443  29.460  -8.039
  255XTA    CT120109  -2.386  29.324  -8.093
  255XTA    CL520110  -2.485  29.277  -8.206
  255XTA    CL620111  -2.487  29.350  -8.338
  255XTA    OA420112  -2.727  29.801  -6.326
  255XTA    CO520113  -2.834  29.781  -6.243
  255XTA    HL120114  -2.798  29.731  -6.153
  255XTA    HL220115  -3.155  30.677  -6.806
  255XTA    HL320116  -3.181  30.537  -6.918
  255XTA    HL420117  -3.204  30.525  -6.734
  255XTA    HL520118  -2.996  29.659  -7.389
  255XTA    HL620119  -3.022  29.824  -7.366
  255XTA    HL720120  -2.815  29.850  -7.545
  255XTA    HL820121  -2.975  29.840  -7.611
  255XTA    HL920122  -2.953  29.612  -7.659
  255XTA   HL1020123  -2.816  29.590  -7.553
  255XTA   HL1120124  -2.802  29.746  -7.816
  255XTA   HL1220125  -2.676  29.738  -7.683
  255XTA   HL1320126  -2.802  29.502  -7.838
  255XTA   HL1420127  -2.688  29.491  -7.703
  255XTA   HL1520128  -2.616  29.642  -7.964
  255XTA   HL1620129  -2.508  29.592  -7.836
  255XTA   HL1720130  -2.468  29.513  -8.131
  255XTA   HL1820131  -2.373  29.524  -7.984
  255XTA   HL1920132  -2.582  29.260  -8.159
  255XTA   HL2020133  -2.448  29.182  -8.240
  255XTA   HL2120134  -2.558  29.301  -8.405
  255XTA   HL2220135  -2.389  29.343  -8.378
  255XTA   HL2320136  -2.518  29.455  -8.332
  255XTA   HL2420137  -2.911  29.711  -6.284
  255XTA   HL2520138  -2.885  29.869  -6.209
  255XTA    CO620139  -2.385  29.215  -7.981
  255XTA    CO720140  -2.236  29.348  -8.144
  255XTA    OA520141  -2.363  29.088  -8.036
  255XTA   HL2620142  -2.481  29.210  -7.936
  255XTA   HL2720143  -2.317  29.243  -7.903
  255XTA   HL2820144  -2.227  29.403  -8.230
  255XTA   HL2920145  -2.200  29.414  -8.059
  256XTA     NT20146  -6.797  31.108  -4.652
  256XTA    CN120147  -6.668  31.063  -4.661
  256XTA     C120148  -6.577  31.163  -4.692
  256XTA     C220149  -6.444  31.133  -4.723
  256XTA     C320150  -6.407  30.994  -4.721
  256XTA     C420151  -6.500  30.891  -4.684
  256XTA     C520152  -6.629  30.927  -4.648
  256XTA    CN220153  -6.879  31.084  -4.754
  256XTA     C620154  -6.873  31.169  -4.866
  256XTA     C720155  -6.950  31.152  -4.980
  256XTA     C820156  -7.052  31.053  -4.981
  256XTA     C920157  -7.060  30.966  -4.868
  256XTA    C1020158  -6.975  30.982  -4.754
  256XTA    CN320159  -6.825  31.190  -4.547
  256XTA    C1120160  -6.833  31.325  -4.579
  256XTA    C1220161  -6.841  31.421  -4.479
  256XTA    C1320162  -6.857  31.383  -4.347
  256XTA    C1420163  -6.848  31.248  -4.314
  256XTA    C1520164  -6.836  31.147  -4.416
  256XTA     H120165  -6.607  31.268  -4.708
  256XTA     H220166  -6.367  31.206  -4.753
  256XTA     H320167  -6.463  30.791  -4.682
  256XTA     H420168  -6.696  30.843  -4.635
  256XTA     H520169  -6.806  31.251  -4.858
  256XTA     H620170  -6.939  31.229  -5.054
  256XTA     H720171  -7.140  30.897  -4.862
  256XTA     H820172  -6.975  30.913  -4.676
  256XTA     H920173  -6.818  31.350  -4.684
  256XTA    H1020174  -6.834  31.530  -4.493
  256XTA    H1120175  -6.864  31.219  -4.211
  256XTA    H1220176  -6.825  31.042  -4.394
  256XTA    OA120177  -6.285  30.953  -4.767
  256XTA    CO120178  -6.184  31.051  -4.803
  256XTA    OA220179  -7.134  31.041  -5.089
  256XTA    CO220180  -7.203  30.911  -5.103
  256XTA    CL120181  -7.248  30.916  -5.245
  256XTA    CL220182  -7.378  30.842  -5.289
  256XTA    CL320183  -7.384  30.830  -5.439
  256XTA    CL420184  -7.396  30.961  -5.514
  256XTA    CO320185  -7.358  30.955  -5.660
  256XTA    OA320186  -7.221  30.979  -5.672
  256XTA    CO420187  -7.181  31.012  -5.798
  256XTA    CT120188  -7.027  31.042  -5.822
  256XTA    CL520189  -7.011  31.114  -5.959
  256XTA    CL620190  -7.071  31.054  -6.085
  256XTA    OA420191  -6.870  31.473  -4.246
  256XTA    CO520192  -6.924  31.605  -4.271
  256XTA    HL120193  -7.032  31.601  -4.290
  256XTA    HL220194  -6.086  30.995  -4.816
  256XTA    HL320195  -6.225  31.099  -4.901
  256XTA    HL420196  -6.168  31.126  -4.723
  256XTA    HL520197  -7.143  30.823  -5.080
  256XTA    HL620198  -7.279  30.911  -5.028
  256XTA    HL720199  -7.165  30.869  -5.300
  256XTA    HL820200  -7.259  31.018  -5.280
  256XTA    HL920201  -7.475  30.880  -5.258
  256XTA   HL1020202  -7.366  30.746  -5.241
  256XTA   HL1120203  -7.291  30.786  -5.460
  256XTA   HL1220204  -7.461  30.758  -5.469
  256XTA   HL1320205  -7.338  31.040  -5.469
  256XTA   HL1420206  -7.502  31.000  -5.513
  256XTA   HL1520207  -7.383  30.854  -5.695
  256XTA   HL1620208  -7.421  31.022  -5.724
  256XTA   HL1720209  -7.210  30.929  -5.867
  256XTA   HL1820210  -7.244  31.101  -5.834
  256XTA   HL1920211  -6.903  31.137  -5.975
  256XTA   HL2020212  -7.058  31.218  -5.955
  256XTA   HL2120213  -7.176  31.085  -6.097
  256XTA   HL2220214  -7.052  30.949  -6.091
  256XTA   HL2320215  -7.008  31.087  -6.168
  256XTA   HL2420216  -6.865  31.658  -4.346
  256XTA   HL2520217  -6.910  31.670  -4.187
  256XTA    CO620218  -6.946  30.911  -5.815
  256XTA    CO720219  -6.975  31.132  -5.696
  256XTA    OA520220  -7.056  31.244  -5.688
  256XTA   HL2620221  -6.990  30.844  -5.741
  256XTA   HL2720222  -6.960  30.860  -5.909
  256XTA   HL2820223  -6.879  31.171  -5.717
  256XTA   HL2920224  -6.958  31.072  -5.604
  257XTA     NT20225  -9.016  29.916  -8.477
  257XTA    CN120226  -8.967  29.869  -8.360
  257XTA     C120227  -8.958  29.946  -8.244
  257XTA     C220228  -8.903  29.891  -8.129
  257XTA     C320229  -8.844  29.762  -8.127
  257XTA     C420230  -8.847  29.687  -8.243
  257XTA     C520231  -8.915  29.737  -8.357
  257XTA    CN220232  -8.922  29.945  -8.572
  257XTA     C620233  -8.879  29.859  -8.675
  257XTA     C720234  -8.799  29.896  -8.787
  257XTA     C820235  -8.769  30.029  -8.805
  257XTA     C920236  -8.815  30.116  -8.707
  257XTA    C1020237  -8.890  30.076  -8.591
  257XTA    CN320238  -9.149  29.942  -8.488
  257XTA    C1120239  -9.209  30.042  -8.419
  257XTA    C1220240  -9.347  30.056  -8.428
  257XTA    C1320241  -9.429  29.967  -8.497
  257XTA    C1420242  -9.367  29.862  -8.568
  257XTA    C1520243  -9.225  29.847  -8.567
  257XTA     H120244  -8.985  30.050  -8.245
  257XTA     H220245  -8.890  29.961  -8.043
  257XTA     H320246  -8.802  29.591  -8.249
  257XTA     H420247  -8.921  29.669  -8.444
  257XTA     H520248  -8.909  29.758  -8.671
  257XTA     H620249  -8.763  29.818  -8.853
  257XTA     H720250  -8.803  30.222  -8.718
  257XTA     H820251  -8.923  30.156  -8.523
  257XTA     H920252  -9.151  30.103  -8.354
  257XTA    H1020253  -9.394  30.138  -8.379
  257XTA    H1120254  -9.417  29.788  -8.628
  257XTA    H1220255  -9.179  29.771  -8.638
  257XTA    OA120256  -8.786  29.715  -8.011
  257XTA    CO120257  -8.847  29.747  -7.888
  257XTA    OA220258  -8.715  30.076  -8.923
  257XTA    CO220259  -8.674  29.981  -9.022
  257XTA    CL120260  -8.631  30.066  -9.142
  257XTA    CL220261  -8.628  29.995  -9.278
  257XTA    CL320262  -8.564  30.094  -9.377
  257XTA    CL420263  -8.525  30.016  -9.501
  257XTA    CO320264  -8.644  29.987  -9.583
  257XTA    OA320265  -8.596  29.897  -9.677
  257XTA    CO420266  -8.689  29.847  -9.770
  257XTA    CT120267  -8.637  29.720  -9.842
  257XTA    CL520268  -8.747  29.672  -9.943
  257XTA    CL620269  -8.758  29.744 -10.074
  257XTA    OA420270  -9.567  29.973  -8.500
  257XTA    CO520271  -9.631  30.087  -8.452
  257XTA    HL120272  -9.621  30.099  -8.338
  257XTA    HL220273  -8.835  29.665  -7.817
  257XTA    HL320274  -8.795  29.833  -7.857
  257XTA    HL420275  -8.951  29.769  -7.900
  257XTA    HL520276  -8.588  29.920  -8.995
  257XTA    HL620277  -8.756  29.923  -9.050
  257XTA    HL720278  -8.524  30.102  -9.141
  257XTA    HL820279  -8.689  30.156  -9.147
  257XTA    HL920280  -8.730  29.971  -9.308
  257XTA   HL1020281  -8.581  29.898  -9.273
  257XTA   HL1120282  -8.630  30.179  -9.396
  257XTA   HL1220283  -8.479  30.131  -9.334
  257XTA   HL1320284  -8.479  29.915  -9.480
  257XTA   HL1420285  -8.457  30.065  -9.565
  257XTA   HL1520286  -8.735  29.953  -9.541
  257XTA   HL1620287  -8.674  30.074  -9.638
  257XTA   HL1720288  -8.783  29.816  -9.720
  257XTA   HL1820289  -8.719  29.933  -9.828
  257XTA   HL1920290  -8.850  29.659  -9.898
  257XTA   HL2020291  -8.724  29.567  -9.963
  257XTA   HL2120292  -8.837  29.689 -10.126
  257XTA   HL2220293  -8.656  29.749 -10.122
  257XTA   HL2320294  -8.792  29.845 -10.046
  257XTA   HL2420295  -9.735  30.085  -8.487
  257XTA   HL2520296  -9.589  30.180  -8.499
  257XTA    CO620297  -8.607  29.614  -9.731
  257XTA    CO720298  -8.493  29.735  -9.910
  257XTA    OA520299  -8.449  29.637  -9.951
  257XTA   HL2620300  -8.566  29.530  -9.782
  257XTA   HL2720301  -8.502  29.647  -9.645
  257XTA   HL2820302  -8.419  29.781  -9.840
  257XTA   HL2920303  -8.500  29.802  -9.997
  258XTA     NT20304  -5.015  30.387 -10.354
  258XTA    CN120305  -5.079  30.409 -10.240
  258XTA     C120306  -5.216  30.443 -10.240
  258XTA     C220307  -5.278  30.491 -10.123
  258XTA     C320308  -5.204  30.499 -10.004
  258XTA     C420309  -5.069  30.464 -10.004
  258XTA     C520310  -5.008  30.412 -10.122
  258XTA    CN220311  -5.056  30.276 -10.423
  258XTA     C620312  -5.118  30.287 -10.546
  258XTA     C720313  -5.139  30.173 -10.626
  258XTA     C820314  -5.115  30.045 -10.570
  258XTA     C920315  -5.057  30.031 -10.447
  258XTA    C1020316  -5.027  30.147 -10.367
  258XTA    CN320317  -4.926  30.472 -10.417
  258XTA    C1120318  -4.826  30.424 -10.507
  258XTA    C1220319  -4.730  30.505 -10.568
  258XTA    C1320320  -4.735  30.642 -10.544
  258XTA    C1420321  -4.830  30.693 -10.449
  258XTA    C1520322  -4.922  30.606 -10.386
  258XTA     H120323  -5.279  30.440 -10.327
  258XTA     H220324  -5.381  30.514 -10.123
  258XTA     H320325  -5.003  30.475  -9.917
  258XTA     H420326  -4.901  30.404 -10.123
  258XTA     H520327  -5.140  30.392 -10.576
  258XTA     H620328  -5.194  30.192 -10.716
  258XTA     H720329  -5.033  29.940 -10.408
  258XTA     H820330  -4.992  30.131 -10.264
  258XTA     H920331  -4.823  30.316 -10.527
  258XTA    H1020332  -4.664  30.465 -10.643
  258XTA    H1120333  -4.813  30.798 -10.413
  258XTA    H1220334  -4.992  30.643 -10.319
  258XTA    OA120335  -5.265  30.557  -9.894
  258XTA    CO120336  -5.196  30.519  -9.777
  258XTA    OA220337  -5.172  29.931 -10.621
  258XTA    CO220338  -5.162  29.920 -10.760
  258XTA    CL120339  -5.031  29.863 -10.793
  258XTA    CL220340  -5.000  29.871 -10.940
  258XTA    CL320341  -4.860  29.814 -10.968
  258XTA    CL420342  -4.810  29.825 -11.111
  258XTA    CO320343  -4.912  29.755 -11.205
  258XTA    OA320344  -4.899  29.825 -11.334
  258XTA    CO420345  -4.986  29.774 -11.436
  258XTA    CT120346  -4.960  29.836 -11.579
  258XTA    CL520347  -5.073  29.813 -11.677
  258XTA    CL620348  -5.209  29.883 -11.662
  258XTA    OA420349  -4.651  30.736 -10.597
  258XTA    CO520350  -4.529  30.697 -10.657
  258XTA    HL120351  -4.483  30.778 -10.698
  258XTA    HL220352  -5.155  30.416  -9.784
  258XTA    HL320353  -5.116  30.602  -9.768
  258XTA    HL420354  -5.262  30.529  -9.691
  258XTA    HL520355  -5.232  29.839 -10.790
  258XTA    HL620356  -5.194  30.012 -10.816
  258XTA    HL720357  -5.020  29.761 -10.768
  258XTA    HL820358  -4.952  29.921 -10.739
  258XTA    HL920359  -4.999  29.976 -10.973
  258XTA   HL1020360  -5.083  29.811 -10.989
  258XTA   HL1120361  -4.780  29.876 -10.913
  258XTA   HL1220362  -4.857  29.710 -10.936
  258XTA   HL1320363  -4.710  29.779 -11.122
  258XTA   HL1420364  -4.801  29.936 -11.125
  258XTA   HL1520365  -4.886  29.649 -11.205
  258XTA   HL1620366  -5.012  29.769 -11.162
  258XTA   HL1720367  -4.958  29.671 -11.451
  258XTA   HL1820368  -5.086  29.774 -11.411
  258XTA   HL1920369  -5.090  29.710 -11.698
  258XTA   HL2020370  -5.036  29.839 -11.777
  258XTA   HL2120371  -5.249  29.870 -11.560
  258XTA   HL2220372  -5.286  29.850 -11.735
  258XTA   HL2320373  -5.193  29.987 -11.674
  258XTA   HL2420374  -4.533  30.615 -10.728
  258XTA   HL2520375  -4.462  30.662 -10.581
  258XTA    CO620376  -4.831  29.788 -11.646
  258XTA    CO720377  -4.942  29.990 -11.569
  258XTA    OA520378  -4.848  29.654 -11.698
  258XTA   HL2620379  -4.738  29.794 -11.585
  258XTA   HL2720380  -4.811  29.843 -11.737
  258XTA   HL2820381  -4.931  30.026 -11.674
  258XTA   HL2920382  -4.852  30.009 -11.500
  259XTA     NT20383  -4.702  24.285  -5.171
  259XTA    CN120384  -4.645  24.209  -5.074
  259XTA     C120385  -4.517  24.220  -5.019
  259XTA     C220386  -4.488  24.134  -4.907
  259XTA     C320387  -4.573  24.040  -4.854
  259XTA     C420388  -4.696  24.023  -4.914
  259XTA     C520389  -4.735  24.113  -5.016
  259XTA    CN220390  -4.698  24.422  -5.172
  259XTA     C620391  -4.629  24.497  -5.266
  259XTA     C720392  -4.613  24.633  -5.254
  259XTA     C820393  -4.677  24.697  -5.145
  259XTA     C920394  -4.762  24.625  -5.056
  259XTA    C1020395  -4.766  24.484  -5.071
  259XTA    CN320396  -4.763  24.220  -5.272
  259XTA    C1120397  -4.711  24.101  -5.324
  259XTA    C1220398  -4.791  24.022  -5.412
  259XTA    C1320399  -4.925  24.070  -5.444
  259XTA    C1420400  -4.970  24.190  -5.398
  259XTA    C1520401  -4.886  24.268  -5.319
  259XTA     H120402  -4.444  24.297  -5.043
  259XTA     H220403  -4.388  24.146  -4.857
  259XTA     H320404  -4.764  23.941  -4.890
  259XTA     H420405  -4.839  24.111  -5.051
  259XTA     H520406  -4.566  24.439  -5.336
  259XTA     H620407  -4.559  24.683  -5.326
  259XTA     H720408  -4.820  24.675  -4.980
  259XTA     H820409  -4.822  24.422  -5.003
  259XTA     H920410  -4.615  24.071  -5.293
  259XTA    H1020411  -4.744  23.930  -5.448
  259XTA    H1120412  -5.068  24.232  -5.429
  259XTA    H1220413  -4.928  24.359  -5.276
  259XTA    OA120414  -4.525  23.957  -4.754
  259XTA    CO120415  -4.603  23.844  -4.716
  259XTA    OA220416  -4.637  24.824  -5.125
  259XTA    CO220417  -4.634  24.868  -4.988
  259XTA    CL120418  -4.582  25.008  -5.007
  259XTA    CL220419  -4.432  25.012  -5.033
  259XTA    CL320420  -4.372  25.143  -4.977
  259XTA    CL420421  -4.237  25.180  -5.039
  259XTA    CO320422  -4.238  25.204  -5.191
  259XTA    OA320423  -4.110  25.206  -5.243
  259XTA    CO420424  -4.083  25.088  -5.319
  259XTA    CT120425  -3.944  25.095  -5.382
  259XTA    CL520426  -3.836  25.096  -5.275
  259XTA    CL620427  -3.845  25.196  -5.158
  259XTA    OA420428  -5.000  24.006  -5.541
  259XTA    CO520429  -5.144  24.027  -5.544
  259XTA    HL120430  -5.190  24.011  -5.453
  259XTA    HL220431  -4.701  23.872  -4.679
  259XTA    HL320432  -4.611  23.775  -4.797
  259XTA    HL420433  -4.540  23.790  -4.650
  259XTA    HL520434  -4.728  24.854  -4.935
  259XTA    HL620435  -4.562  24.812  -4.935
  259XTA    HL720436  -4.612  25.067  -4.917
  259XTA    HL820437  -4.640  25.045  -5.096
  259XTA    HL920438  -4.425  24.999  -5.140
  259XTA   HL1020439  -4.380  24.922  -4.993
  259XTA   HL1120440  -4.434  25.235  -4.990
  259XTA   HL1220441  -4.351  25.139  -4.872
  259XTA   HL1320442  -4.166  25.101  -5.035
  259XTA   HL1420443  -4.210  25.274  -4.998
  259XTA   HL1520444  -4.312  25.141  -5.240
  259XTA   HL1620445  -4.275  25.305  -5.205
  259XTA   HL1720446  -4.092  25.005  -5.252
  259XTA   HL1820447  -4.162  25.067  -5.395
  259XTA   HL1920448  -3.736  25.106  -5.325
  259XTA   HL2020449  -3.820  24.999  -5.226
  259XTA   HL2120450  -3.749  25.235  -5.117
  259XTA   HL2220451  -3.892  25.153  -5.067
  259XTA   HL2320452  -3.897  25.282  -5.183
  259XTA   HL2420453  -5.189  23.968  -5.622
  259XTA   HL2520454  -5.165  24.131  -5.574
  259XTA    CO620455  -3.944  25.223  -5.467
  259XTA    CO720456  -3.906  24.974  -5.473
  259XTA    OA520457  -3.856  25.245  -5.522
  259XTA   HL2620458  -3.976  25.309  -5.409
  259XTA   HL2720459  -4.034  25.199  -5.530
  259XTA   HL2820460  -3.782  24.993  -5.527
  259XTA   HL2920461  -3.972  24.977  -5.567
  260XTA     NT20462  -4.039  26.294  -8.170
  260XTA    CN120463  -4.028  26.196  -8.078
  260XTA     C120464  -3.907  26.163  -8.015
  260XTA     C220465  -3.888  26.049  -7.936
  260XTA     C320466  -3.999  25.969  -7.913
  260XTA     C420467  -4.124  25.999  -7.972
  260XTA     C520468  -4.136  26.108  -8.057
  260XTA    CN220469  -4.036  26.253  -8.294
  260XTA     C620470  -4.162  26.219  -8.350
  260XTA     C720471  -4.169  26.194  -8.487
  260XTA     C820472  -4.052  26.182  -8.570
  260XTA     C920473  -3.930  26.218  -8.509
  260XTA    C1020474  -3.921  26.265  -8.377
  260XTA    CN320475  -4.068  26.425  -8.146
  260XTA    C1120476  -3.970  26.527  -8.176
  260XTA    C1220477  -4.009  26.662  -8.160
  260XTA    C1320478  -4.137  26.699  -8.110
  260XTA    C1420479  -4.229  26.596  -8.076
  260XTA    C1520480  -4.194  26.459  -8.093
  260XTA     H120481  -3.817  26.224  -8.028
  260XTA     H220482  -3.793  26.020  -7.903
  260XTA     H320483  -4.215  25.940  -7.957
  260XTA     H420484  -4.228  26.126  -8.116
  260XTA     H520485  -4.249  26.224  -8.288
  260XTA     H620486  -4.273  26.179  -8.522
  260XTA     H720487  -3.844  26.205  -8.570
  260XTA     H820488  -3.824  26.289  -8.349
  260XTA     H920489  -3.884  26.490  -8.219
  260XTA    H1020490  -3.932  26.733  -8.176
  260XTA    H1120491  -4.317  26.628  -8.038
  260XTA    H1220492  -4.270  26.376  -8.099
  260XTA    OA120493  -3.978  25.845  -7.853
  260XTA    CO120494  -4.095  25.766  -7.835
  260XTA    OA220495  -4.059  26.136  -8.699
  260XTA    CO220496  -3.944  26.131  -8.782
  260XTA    CL120497  -3.856  26.014  -8.735
  260XTA    CL220498  -3.738  26.007  -8.818
  260XTA    CL320499  -3.622  26.091  -8.766
  260XTA    CL420500  -3.499  26.078  -8.855
  260XTA    CO320501  -3.380  26.146  -8.790
  260XTA    OA320502  -3.325  26.052  -8.698
  260XTA    CO420503  -3.280  26.104  -8.579
  260XTA    CT120504  -3.218  25.989  -8.485
  260XTA    CL520505  -3.327  25.889  -8.437
  260XTA    CL620506  -3.460  25.960  -8.402
  260XTA    OA420507  -4.155  26.833  -8.094
  260XTA    CO520508  -4.293  26.877  -8.084
  260XTA    HL120509  -4.366  26.838  -8.153
  260XTA    HL220510  -4.131  25.751  -7.935
  260XTA    HL320511  -4.077  25.662  -7.790
  260XTA    HL420512  -4.168  25.821  -7.770
  260XTA    HL520513  -3.986  26.122  -8.887
  260XTA    HL620514  -3.892  26.233  -8.787
  260XTA    HL720515  -3.899  25.918  -8.739
  260XTA    HL820516  -3.825  26.019  -8.630
  260XTA    HL920517  -3.758  26.034  -8.922
  260XTA   HL1020518  -3.697  25.902  -8.818
  260XTA   HL1120519  -3.647  26.191  -8.749
  260XTA   HL1220520  -3.595  26.058  -8.661
  260XTA   HL1320521  -3.527  26.130  -8.944
  260XTA   HL1420522  -3.486  25.973  -8.879
  260XTA   HL1520523  -3.315  26.165  -8.870
  260XTA   HL1620524  -3.389  26.250  -8.750
  260XTA   HL1720525  -3.203  26.180  -8.602
  260XTA   HL1820526  -3.359  26.156  -8.527
  260XTA   HL1920527  -3.292  25.812  -8.368
  260XTA   HL2020528  -3.364  25.831  -8.526
  260XTA   HL2120529  -3.521  25.976  -8.485
  260XTA   HL2220530  -3.439  26.061  -8.358
  260XTA   HL2320531  -3.504  25.888  -8.339
  260XTA   HL2420532  -4.284  26.988  -8.099
  260XTA   HL2520533  -4.331  26.865  -7.982
  260XTA    CO620534  -3.140  26.042  -8.367
  260XTA    CO720535  -3.126  25.906  -8.569
  260XTA    OA520536  -3.198  26.097  -8.290
  260XTA   HL2620537  -3.055  26.100  -8.404
  260XTA   HL2720538  -3.108  25.950  -8.319
  260XTA   HL2820539  -3.191  25.855  -8.679
  260XTA   HL2920540  -3.047  25.974  -8.612
  261XTA     NT20541  -7.246  29.629  -8.864
  261XTA    CN120542  -7.167  29.745  -8.837
  261XTA     C120543  -7.213  29.829  -8.731
  261XTA     C220544  -7.144  29.953  -8.721
  261XTA     C320545  -7.025  29.973  -8.791
  261XTA     C420546  -6.964  29.878  -8.876
  261XTA     C520547  -7.043  29.769  -8.908
  261XTA    CN220548  -7.253  29.526  -8.774
  261XTA     C620549  -7.363  29.524  -8.687
  261XTA     C720550  -7.368  29.422  -8.588
  261XTA     C820551  -7.261  29.332  -8.572
  261XTA     C920552  -7.152  29.340  -8.660
  261XTA    C1020553  -7.153  29.430  -8.766
  261XTA    CN320554  -7.315  29.625  -8.977
  261XTA    C1120555  -7.452  29.671  -8.991
  261XTA    C1220556  -7.524  29.660  -9.110
  261XTA    C1320557  -7.456  29.609  -9.224
  261XTA    C1420558  -7.323  29.556  -9.214
  261XTA    C1520559  -7.257  29.557  -9.088
  261XTA     H120560  -7.312  29.810  -8.686
  261XTA     H220561  -7.183  30.019  -8.647
  261XTA     H320562  -6.874  29.894  -8.928
  261XTA     H420563  -7.015  29.691  -8.983
  261XTA     H520564  -7.444  29.597  -8.703
  261XTA     H620565  -7.454  29.421  -8.524
  261XTA     H720566  -7.072  29.271  -8.649
  261XTA     H820567  -7.067  29.434  -8.831
  261XTA     H920568  -7.500  29.721  -8.910
  261XTA    H1020569  -7.631  29.695  -9.115
  261XTA    H1120570  -7.273  29.509  -9.293
  261XTA    H1220571  -7.154  29.528  -9.080
  261XTA    OA120572  -6.958  30.091  -8.785
  261XTA    CO120573  -7.006  30.183  -8.683
  261XTA    OA220574  -7.255  29.234  -8.476
  261XTA    CO220575  -7.371  29.180  -8.413
  261XTA    CL120576  -7.326  29.060  -8.334
  261XTA    CL220577  -7.207  29.098  -8.242
  261XTA    CL320578  -7.166  28.972  -8.162
  261XTA    CL420579  -7.073  29.001  -8.040
  261XTA    CO320580  -7.039  28.879  -7.957
  261XTA    OA320581  -6.978  28.894  -7.824
  261XTA    CO420582  -6.848  28.950  -7.820
  261XTA    CT120583  -6.790  28.954  -7.680
  261XTA    CL520584  -6.652  29.022  -7.691
  261XTA    CL620585  -6.568  29.019  -7.563
  261XTA    OA420586  -7.533  29.598  -9.341
  261XTA    CO520587  -7.469  29.546  -9.452
  261XTA    HL120588  -7.391  29.621  -9.490
  261XTA    HL220589  -6.929  30.258  -8.671
  261XTA    HL320590  -7.104  30.221  -8.706
  261XTA    HL420591  -7.007  30.123  -8.588
  261XTA    HL520592  -7.410  29.254  -8.343
  261XTA    HL620593  -7.442  29.164  -8.490
  261XTA    HL720594  -7.303  28.981  -8.405
  261XTA    HL820595  -7.412  29.019  -8.283
  261XTA    HL920596  -7.240  29.167  -8.171
  261XTA   HL1020597  -7.125  29.131  -8.304
  261XTA   HL1120598  -7.255  28.923  -8.112
  261XTA   HL1220599  -7.129  28.893  -8.222
  261XTA   HL1320600  -7.122  29.070  -7.981
  261XTA   HL1420601  -6.988  29.049  -8.079
  261XTA   HL1520602  -7.135  28.830  -7.935
  261XTA   HL1620603  -6.970  28.806  -8.015
  261XTA   HL1720604  -6.780  28.892  -7.889
  261XTA   HL1820605  -6.847  29.043  -7.873
  261XTA   HL1920606  -6.671  29.121  -7.739
  261XTA   HL2020607  -6.589  28.971  -7.758
  261XTA   HL2120608  -6.561  28.914  -7.531
  261XTA   HL2220609  -6.598  29.085  -7.478
  261XTA   HL2320610  -6.472  29.068  -7.585
  261XTA   HL2420611  -7.540  29.521  -9.533
  261XTA   HL2520612  -7.422  29.449  -9.428
  261XTA    CO620613  -6.787  28.811  -7.624
  261XTA    CO720614  -6.881  29.032  -7.586
  261XTA    OA520615  -6.698  28.722  -7.691
  261XTA   HL2620616  -6.885  28.764  -7.637
  261XTA   HL2720617  -6.774  28.807  -7.510
  261XTA   HL2820618  -6.830  29.024  -7.487
  261XTA   HL2920619  -6.974  28.981  -7.575
  262XTA     NT20620  -5.864  24.827  -9.725
  262XTA    CN120621  -5.750  24.762  -9.738
  262XTA     C120622  -5.664  24.751  -9.626
  262XTA     C220623  -5.533  24.707  -9.641
  262XTA     C320624  -5.482  24.669  -9.766
  262XTA     C420625  -5.560  24.690  -9.881
  262XTA     C520626  -5.692  24.734  -9.868
  262XTA    CN220627  -5.888  24.913  -9.625
  262XTA     C620628  -5.838  25.045  -9.627
  262XTA     C720629  -5.878  25.138  -9.520
  262XTA     C820630  -5.938  25.090  -9.404
  262XTA     C920631  -5.992  24.962  -9.415
  262XTA    C1020632  -5.967  24.873  -9.519
  262XTA    CN320633  -5.969  24.791  -9.800
  262XTA    C1120634  -6.004  24.873  -9.909
  262XTA    C1220635  -6.103  24.833 -10.001
  262XTA    C1320636  -6.177  24.722  -9.978
  262XTA    C1420637  -6.146  24.633  -9.870
  262XTA    C1520638  -6.044  24.673  -9.774
  262XTA     H120639  -5.703  24.780  -9.531
  262XTA     H220640  -5.470  24.701  -9.554
  262XTA     H320641  -5.524  24.671  -9.980
  262XTA     H420642  -5.760  24.746  -9.951
  262XTA     H520643  -5.761  25.074  -9.698
  262XTA     H620644  -5.844  25.240  -9.530
  262XTA     H720645  -6.047  24.929  -9.334
  262XTA     H820646  -6.001  24.769  -9.512
  262XTA     H920647  -5.947  24.958  -9.929
  262XTA    H1020648  -6.128  24.913 -10.076
  262XTA    H1120649  -6.208  24.544  -9.839
  262XTA    H1220650  -6.021  24.617  -9.684
  262XTA    OA120651  -5.359  24.611  -9.792
  262XTA    CO120652  -5.260  24.614  -9.691
  262XTA    OA220653  -5.958  25.168  -9.293
  262XTA    CO220654  -5.847  25.239  -9.245
  262XTA    CL120655  -5.745  25.134  -9.189
  262XTA    CL220656  -5.814  25.039  -9.092
  262XTA    CL320657  -5.737  24.898  -9.092
  262XTA    CL420658  -5.757  24.814  -9.216
  262XTA    CO320659  -5.688  24.675  -9.219
  262XTA    OA320660  -5.556  24.683  -9.171
  262XTA    CO420661  -5.461  24.737  -9.266
  262XTA    CT120662  -5.321  24.759  -9.195
  262XTA    CL520663  -5.215  24.789  -9.301
  262XTA    CL620664  -5.246  24.908  -9.393
  262XTA    OA420665  -6.281  24.698 -10.068
  262XTA    CO520666  -6.389  24.635 -10.010
  262XTA    HL120667  -6.478  24.625 -10.075
  262XTA    HL220668  -5.293  24.577  -9.597
  262XTA    HL320669  -5.180  24.545  -9.722
  262XTA    HL420670  -5.220  24.707  -9.677
  262XTA    HL520671  -5.805  25.312  -9.315
  262XTA    HL620672  -5.889  25.300  -9.164
  262XTA    HL720673  -5.660  25.179  -9.146
  262XTA    HL820674  -5.708  25.072  -9.274
  262XTA    HL920675  -5.914  25.029  -9.129
  262XTA   HL1020676  -5.830  25.083  -8.989
  262XTA   HL1120677  -5.635  24.917  -9.085
  262XTA   HL1220678  -5.774  24.847  -8.997
  262XTA   HL1320679  -5.715  24.869  -9.305
  262XTA   HL1420680  -5.865  24.793  -9.218
  262XTA   HL1520681  -5.738  24.590  -9.164
  262XTA   HL1620682  -5.689  24.643  -9.317
  262XTA   HL1720683  -5.445  24.677  -9.355
  262XTA   HL1820684  -5.495  24.829  -9.311
  262XTA   HL1920685  -5.196  24.699  -9.356
  262XTA   HL2020686  -5.124  24.805  -9.246
  262XTA   HL2120687  -5.337  24.896  -9.443
  262XTA   HL2220688  -5.175  24.912  -9.478
  262XTA   HL2320689  -5.238  25.003  -9.350
  262XTA   HL2420690  -6.417  24.694  -9.925
  262XTA   HL2520691  -6.351  24.533  -9.988
  262XTA    CO620692  -5.281  24.638  -9.114
  262XTA    CO720693  -5.340  24.876  -9.099
  262XTA    OA520694  -5.242  24.918  -9.067
  262XTA   HL2620695  -5.370  24.601  -9.050
  262XTA   HL2720696  -5.179  24.663  -9.020
  262XTA   HL2820697  -5.405  24.848  -9.021
  262XTA   HL2920698  -5.407  24.951  -9.151
  263XTH     NT20699  -3.916  23.275  -8.700
  263XTH    CN120700  -3.992  23.355  -8.768
  263XTH     C120701  -3.943  23.481  -8.804
  263XTH     C220702  -4.027  23.572  -8.872
  263XTH     C320703  -4.156  23.541  -8.900
  263XTH     C420704  -4.196  23.410  -8.884
  263XTH     C520705  -4.117  23.313  -8.819
  263XTH    CN220706  -3.947  23.250  -8.572
  263XTH     C620707  -3.975  23.120  -8.522
  263XTH     C720708  -4.030  23.102  -8.397
  263XTH     C820709  -4.043  23.212  -8.311
  263XTH     C920710  -4.004  23.340  -8.353
  263XTH    C1020711  -3.951  23.361  -8.484
  263XTH    CN320712  -3.815  23.209  -8.756
  263XTH    C1120713  -3.682  23.224  -8.703
  263XTH    C1220714  -3.576  23.139  -8.755
  263XTH    C1320715  -3.598  23.064  -8.869
  263XTH    C1420716  -3.730  23.057  -8.924
  263XTH    C1520717  -3.839  23.124  -8.868
  263XTH     H120718  -3.848  23.505  -8.755
  263XTH     H220719  -3.979  23.665  -8.902
  263XTH     H320720  -4.288  23.373  -8.933
  263XTH     H420721  -4.139  23.216  -8.791
  263XTH     H520722  -3.964  23.034  -8.588
  263XTH     H620723  -4.049  23.002  -8.364
  263XTH     H720724  -4.003  23.425  -8.288
  263XTH     H820725  -3.930  23.452  -8.524
  263XTH     H920726  -3.671  23.288  -8.616
  263XTH    H1020727  -3.484  23.147  -8.704
  263XTH    H1120728  -3.747  23.004  -9.010
  263XTH    H1220729  -3.935  23.109  -8.914
  263XTH    OA120730  -4.240  23.632  -8.962
  263XTH    CO120731  -4.374  23.632  -8.933
  263XTH    OA220732  -4.080  23.201  -8.181
  263XTH    CO220733  -4.097  23.070  -8.125
  263XTH    CL120734  -4.114  23.073  -7.974
  263XTH    CL220735  -3.987  23.107  -7.890
  263XTH    CL320736  -3.891  22.984  -7.860
  263XTH    CL420737  -3.776  23.008  -7.765
  263XTH    CO320738  -3.709  22.875  -7.740
  263XTH    OA320739  -3.595  22.915  -7.663
  263XTH    CO420740  -3.525  22.797  -7.604
  263XTH    CT120741  -3.397  22.770  -7.675
  263XTH    CL520742  -3.307  22.661  -7.597
  263XTH    CL620743  -3.244  22.703  -7.464
  263XTH    OA420744  -3.497  22.993  -8.925
  263XTH    CO520745  -3.426  22.887  -8.855
  263XTH    HL120746  -3.479  22.796  -8.822
  263XTH    HL220747  -4.422  23.583  -9.017
  263XTH    HL320748  -4.403  23.567  -8.842
  263XTH    HL420749  -4.392  23.737  -8.942
  263XTH    HL520750  -4.182  23.016  -8.168
  263XTH    HL620751  -4.010  23.014  -8.149
  263XTH    HL720752  -4.159  22.982  -7.951
  263XTH    HL820753  -4.189  23.149  -7.952
  263XTH    HL920754  -4.036  23.142  -7.799
  263XTH   HL1020755  -3.930  23.188  -7.936
  263XTH   HL1120756  -3.957  22.910  -7.820
  263XTH   HL1220757  -3.842  22.948  -7.948
  263XTH   HL1320758  -3.815  23.054  -7.672
  263XTH   HL1420759  -3.695  23.067  -7.806
  263XTH   HL1520760  -3.780  22.811  -7.689
  263XTH   HL1620761  -3.681  22.834  -7.837
  263XTH   HL1720762  -3.493  22.811  -7.506
  263XTH   HL1820763  -3.589  22.708  -7.602
  263XTH   HL1920764  -3.233  22.644  -7.663
  263XTH   HL2020765  -3.361  22.563  -7.588
  263XTH   HL2120766  -3.316  22.726  -7.388
  263XTH   HL2220767  -3.184  22.794  -7.473
  263XTH   HL2320768  -3.184  22.628  -7.413
  263XTH   HL2420769  -3.384  22.932  -8.760
  263XTH   HL2520770  -3.342  22.854  -8.916
  263XTH    CO620771  -3.317  22.908  -7.699
  263XTH    CO720772  -3.431  22.700  -7.814
  263XTH    OA520773  -3.546  22.614  -7.811
  263XTH   HL2620774  -3.306  22.954  -7.599
  263XTH   HL2720775  -3.370  22.971  -7.774
  263XTH   HL2820776  -3.348  22.633  -7.848
  263XTH   HL2920777  -3.430  22.779  -7.887
  264XTA     NT20778  -6.563  26.203  -7.492
  264XTA    CN120779  -6.611  26.093  -7.545
  264XTA     C120780  -6.575  26.054  -7.675
  264XTA     C220781  -6.606  25.927  -7.731
  264XTA     C320782  -6.674  25.834  -7.653
  264XTA     C420783  -6.712  25.868  -7.524
  264XTA     C520784  -6.683  25.998  -7.466
  264XTA    CN220785  -6.437  26.209  -7.445
  264XTA     C620786  -6.330  26.152  -7.515
  264XTA     C720787  -6.194  26.164  -7.472
  264XTA     C820788  -6.168  26.237  -7.354
  264XTA     C920789  -6.275  26.310  -7.294
  264XTA    C1020790  -6.405  26.298  -7.341
  264XTA    CN320791  -6.630  26.316  -7.518
  264XTA    C1120792  -6.759  26.341  -7.452
  264XTA    C1220793  -6.845  26.444  -7.496
  264XTA    C1320794  -6.794  26.536  -7.592
  264XTA    C1420795  -6.667  26.522  -7.645
  264XTA    C1520796  -6.592  26.404  -7.623
  264XTA     H120797  -6.525  26.125  -7.736
  264XTA     H220798  -6.584  25.905  -7.837
  264XTA     H320799  -6.775  25.806  -7.467
  264XTA     H420800  -6.708  26.017  -7.361
  264XTA     H520801  -6.355  26.082  -7.590
  264XTA     H620802  -6.119  26.108  -7.519
  264XTA     H720803  -6.268  26.377  -7.209
  264XTA     H820804  -6.481  26.352  -7.295
  264XTA     H920805  -6.797  26.283  -7.374
  264XTA    H1020806  -6.935  26.465  -7.444
  264XTA    H1120807  -6.631  26.592  -7.725
  264XTA    H1220808  -6.502  26.375  -7.672
  264XTA    OA120809  -6.699  25.711  -7.705
  264XTA    CO120810  -6.707  25.602  -7.605
  264XTA    OA220811  -6.043  26.256  -7.307
  264XTA    CO220812  -5.928  26.237  -7.390
  264XTA    CL120813  -5.807  26.300  -7.310
  264XTA    CL220814  -5.778  26.232  -7.166
  264XTA    CL320815  -5.631  26.257  -7.122
  264XTA    CL420816  -5.532  26.145  -7.162
  264XTA    CO320817  -5.502  26.137  -7.314
  264XTA    OA320818  -5.462  26.270  -7.351
  264XTA    CO420819  -5.437  26.278  -7.484
  264XTA    CT120820  -5.379  26.419  -7.529
  264XTA    CL520821  -5.473  26.533  -7.503
  264XTA    CL620822  -5.600  26.536  -7.594
  264XTA    OA420823  -6.868  26.648  -7.613
  264XTA    CO520824  -6.791  26.771  -7.614
  264XTA    HL120825  -6.857  26.845  -7.653
  264XTA    HL220826  -6.620  25.595  -7.546
  264XTA    HL320827  -6.797  25.615  -7.545
  264XTA    HL420828  -6.715  25.512  -7.663
  264XTA    HL520829  -5.905  26.138  -7.415
  264XTA    HL620830  -5.923  26.288  -7.486
  264XTA    HL720831  -5.819  26.416  -7.294
  264XTA    HL820832  -5.706  26.283  -7.353
  264XTA    HL920833  -5.811  26.131  -7.155
  264XTA   HL1020834  -5.843  26.274  -7.091
  264XTA   HL1120835  -5.589  26.343  -7.163
  264XTA   HL1220836  -5.635  26.285  -7.018
  264XTA   HL1320837  -5.543  26.047  -7.122
  264XTA   HL1420838  -5.440  26.169  -7.110
  264XTA   HL1520839  -5.425  26.058  -7.331
  264XTA   HL1620840  -5.581  26.098  -7.374
  264XTA   HL1720841  -5.372  26.198  -7.512
  264XTA   HL1820842  -5.524  26.241  -7.539
  264XTA   HL1920843  -5.419  26.623  -7.525
  264XTA   HL2020844  -5.488  26.542  -7.395
  264XTA   HL2120845  -5.692  26.546  -7.536
  264XTA   HL2220846  -5.616  26.442  -7.645
  264XTA   HL2320847  -5.596  26.615  -7.672
  264XTA   HL2420848  -6.704  26.772  -7.684
  264XTA   HL2520849  -6.757  26.807  -7.513
  264XTA    CO620850  -5.355  26.425  -7.678
  264XTA    CO720851  -5.243  26.452  -7.463
  264XTA    OA520852  -5.265  26.367  -7.710
  264XTA   HL2620853  -5.352  26.526  -7.722
  264XTA   HL2720854  -5.432  26.364  -7.729
  264XTA   HL2820855  -5.155  26.343  -7.487
  264XTA   HL2920856  -5.266  26.460  -7.356
  265XTA     NT20857  -5.319  27.964 -11.980
  265XTA    CN120858  -5.459  27.944 -11.976
  265XTA     C120859  -5.510  27.841 -12.053
  265XTA     C220860  -5.651  27.819 -12.050
  265XTA     C320861  -5.731  27.890 -11.960
  265XTA     C420862  -5.674  27.985 -11.876
  265XTA     C520863  -5.545  28.016 -11.882
  265XTA    CN220864  -5.245  27.929 -11.878
  265XTA     C620865  -5.257  27.799 -11.823
  265XTA     C720866  -5.181  27.752 -11.713
  265XTA     C820867  -5.090  27.837 -11.654
  265XTA     C920868  -5.073  27.966 -11.710
  265XTA    C1020869  -5.144  28.012 -11.825
  265XTA    CN320870  -5.269  28.043 -12.083
  265XTA    C1120871  -5.249  28.182 -12.058
  265XTA    C1220872  -5.215  28.261 -12.171
  265XTA    C1320873  -5.185  28.201 -12.299
  265XTA    C1420874  -5.191  28.061 -12.313
  265XTA    C1520875  -5.232  27.980 -12.204
  265XTA     H120876  -5.463  27.774 -12.118
  265XTA     H220877  -5.676  27.730 -12.101
  265XTA     H320878  -5.745  28.045 -11.820
  265XTA     H420879  -5.507  28.101 -11.830
  265XTA     H520880  -5.320  27.729 -11.873
  265XTA     H620881  -5.188  27.650 -11.676
  265XTA     H720882  -4.998  28.029 -11.671
  265XTA     H820883  -5.118  28.102 -11.869
  265XTA     H920884  -5.294  28.229 -11.969
  265XTA    H1020885  -5.223  28.368 -12.167
  265XTA    H1120886  -5.169  28.020 -12.411
  265XTA    H1220887  -5.235  27.867 -12.217
  265XTA    OA120888  -5.866  27.870 -11.944
  265XTA    CO120889  -5.921  27.802 -12.048
  265XTA    OA220890  -5.007  27.808 -11.548
  265XTA    CO220891  -5.042  27.706 -11.456
  265XTA    CL120892  -4.938  27.711 -11.355
  265XTA    CL220893  -4.809  27.643 -11.398
  265XTA    CL320894  -4.704  27.635 -11.282
  265XTA    CL420895  -4.759  27.536 -11.185
  265XTA    CO320896  -4.669  27.518 -11.058
  265XTA    OA320897  -4.617  27.642 -11.006
  265XTA    CO420898  -4.717  27.709 -10.928
  265XTA    CT120899  -4.667  27.826 -10.844
  265XTA    CL520900  -4.560  27.765 -10.739
  265XTA    CL620901  -4.611  27.656 -10.648
  265XTA    OA420902  -5.164  28.286 -12.406
  265XTA    CO520903  -5.062  28.240 -12.494
  265XTA    HL120904  -4.969  28.191 -12.455
  265XTA    HL220905  -6.023  27.794 -12.037
  265XTA    HL320906  -5.897  27.846 -12.139
  265XTA    HL420907  -5.883  27.704 -12.051
  265XTA    HL520908  -5.136  27.720 -11.405
  265XTA    HL620909  -5.054  27.603 -11.489
  265XTA    HL720910  -4.984  27.690 -11.256
  265XTA    HL820911  -4.913  27.817 -11.351
  265XTA    HL920912  -4.763  27.687 -11.487
  265XTA   HL1020913  -4.845  27.545 -11.429
  265XTA   HL1120914  -4.604  27.604 -11.311
  265XTA   HL1220915  -4.706  27.730 -11.234
  265XTA   HL1320916  -4.785  27.438 -11.224
  265XTA   HL1420917  -4.853  27.562 -11.142
  265XTA   HL1520918  -4.723  27.456 -10.987
  265XTA   HL1620919  -4.579  27.471 -11.088
  265XTA   HL1720920  -4.802  27.734 -10.994
  265XTA   HL1820921  -4.757  27.634 -10.862
  265XTA   HL1920922  -4.534  27.854 -10.683
  265XTA   HL2020923  -4.470  27.735 -10.796
  265XTA   HL2120924  -4.707  27.686 -10.609
  265XTA   HL2220925  -4.533  27.629 -10.572
  265XTA   HL2320926  -4.619  27.565 -10.710
  265XTA   HL2420927  -5.035  28.330 -12.551
  265XTA   HL2520928  -5.110  28.177 -12.570
  265XTA    CO620929  -4.783  27.899 -10.767
  265XTA    CO720930  -4.592  27.932 -10.933
  265XTA    OA520931  -4.655  28.016 -10.971
  265XTA   HL2620932  -4.845  27.950 -10.841
  265XTA   HL2720933  -4.742  28.002 -10.680
  265XTA   HL2820934  -4.533  27.880 -11.009
  265XTA   HL2920935  -4.523  27.987 -10.868
  266XTA     NT20936  -3.005  29.470  -6.782
  266XTA    CN120937  -3.117  29.533  -6.824
  266XTA     C120938  -3.213  29.473  -6.910
  266XTA     C220939  -3.330  29.538  -6.937
  266XTA     C320940  -3.349  29.674  -6.897
  266XTA     C420941  -3.256  29.743  -6.812
  266XTA     C520942  -3.144  29.670  -6.780
  266XTA    CN220943  -2.926  29.405  -6.872
  266XTA     C620944  -2.855  29.469  -6.971
  266XTA     C720945  -2.780  29.398  -7.063
  266XTA     C820946  -2.765  29.261  -7.047
  266XTA     C920947  -2.840  29.190  -6.957
  266XTA    C1020948  -2.924  29.268  -6.869
  266XTA    CN320949  -2.952  29.464  -6.656
  266XTA    C1120950  -2.812  29.465  -6.630
  266XTA    C1220951  -2.772  29.445  -6.495
  266XTA    C1320952  -2.871  29.432  -6.395
  266XTA    C1420953  -3.012  29.409  -6.427
  266XTA    C1520954  -3.045  29.428  -6.559
  266XTA     H120955  -3.193  29.371  -6.939
  266XTA     H220956  -3.404  29.493  -6.995
  266XTA     H320957  -3.261  29.837  -6.760
  266XTA     H420958  -3.081  29.710  -6.709
  266XTA     H520959  -2.869  29.576  -6.979
  266XTA     H620960  -2.732  29.440  -7.156
  266XTA     H720961  -2.829  29.084  -6.946
  266XTA     H820962  -2.982  29.214  -6.798
  266XTA     H920963  -2.750  29.489  -6.720
  266XTA    H1020964  -2.670  29.461  -6.471
  266XTA    H1120965  -3.079  29.395  -6.350
  266XTA    H1220966  -3.149  29.424  -6.589
  266XTA    OA120967  -3.475  29.733  -6.919
  266XTA    CO120968  -3.564  29.678  -7.007
  266XTA    OA220969  -2.680  29.191  -7.123
  266XTA    CO220970  -2.610  29.248  -7.235
  266XTA    CL120971  -2.693  29.253  -7.356
  266XTA    CL220972  -2.619  29.279  -7.490
  266XTA    CL320973  -2.552  29.162  -7.564
  266XTA    CL420974  -2.662  29.067  -7.616
  266XTA    CO320975  -2.597  28.957  -7.700
  266XTA    OA320976  -2.688  28.846  -7.709
  266XTA    CO420977  -2.807  28.868  -7.785
  266XTA    CT120978  -2.901  28.746  -7.779
  266XTA    CL520979  -2.840  28.627  -7.852
  266XTA    CL620980  -2.714  28.569  -7.788
  266XTA    OA420981  -2.826  29.442  -6.267
  266XTA    CO520982  -2.902  29.391  -6.164
  266XTA    HL120983  -2.843  29.382  -6.067
  266XTA    HL220984  -3.660  29.741  -6.998
  266XTA    HL320985  -3.534  29.668  -7.111
  266XTA    HL420986  -3.598  29.581  -6.969
  266XTA    HL520987  -2.568  29.343  -7.217
  266XTA    HL620988  -2.524  29.178  -7.257
  266XTA    HL720989  -2.769  29.321  -7.339
  266XTA    HL820990  -2.746  29.160  -7.363
  266XTA    HL920991  -2.539  29.353  -7.470
  266XTA   HL1020992  -2.682  29.330  -7.570
  266XTA   HL1120993  -2.490  29.205  -7.640
  266XTA   HL1220994  -2.483  29.104  -7.505
  266XTA   HL1320995  -2.730  29.127  -7.673
  266XTA   HL1420996  -2.724  29.020  -7.538
  266XTA   HL1520997  -2.585  28.985  -7.806
  266XTA   HL1620998  -2.503  28.923  -7.657
  266XTA   HL1720999  -2.856  28.956  -7.754
  266XTA   HL1821000  -2.773  28.885  -7.889
  266XTA   HL1921001  -2.816  28.650  -7.953
  266XTA   HL2021002  -2.919  28.549  -7.865
  266XTA   HL2121003  -2.629  28.637  -7.794
  266XTA   HL2221004  -2.684  28.482  -7.852
  266XTA   HL2321005  -2.733  28.538  -7.684
  266XTA   HL2421006  -2.946  29.298  -6.191
  266XTA   HL2521007  -2.987  29.460  -6.139
  266XTA    CO621008  -3.032  28.793  -7.833
  266XTA    CO721009  -2.929  28.700  -7.629
  266XTA    OA521010  -2.984  28.604  -7.611
  266XTA   HL2621011  -3.111  28.758  -7.770
  266XTA   HL2721012  -3.046  28.936  -7.834
  266XTA   HL2821013  -2.969  28.778  -7.574
  266XTA   HL2921014  -2.823  28.692  -7.587
  267XTA     NT21015  -7.028  25.101 -12.280
  267XTA    CN121016  -7.150  25.042 -12.278
  267XTA     C121017  -7.165  24.914 -12.218
  267XTA     C221018  -7.289  24.856 -12.189
  267XTA     C321019  -7.404  24.921 -12.235
  267XTA     C421020  -7.396  25.051 -12.309
  267XTA     C521021  -7.269  25.108 -12.330
  267XTA    CN221022  -6.931  25.066 -12.371
  267XTA     C621023  -6.798  25.024 -12.329
  267XTA     C721024  -6.701  25.001 -12.435
  267XTA     C821025  -6.734  25.021 -12.571
  267XTA     C921026  -6.865  25.048 -12.606
  267XTA    C1021027  -6.961  25.081 -12.506
  267XTA    CN321028  -7.006  25.190 -12.182
  267XTA    C1121029  -7.032  25.328 -12.196
  267XTA    C1221030  -7.001  25.421 -12.099
  267XTA    C1321031  -6.942  25.376 -11.978
  267XTA    C1421032  -6.923  25.238 -11.958
  267XTA    C1521033  -6.947  25.141 -12.065
  267XTA     H121034  -7.070  24.866 -12.194
  267XTA     H221035  -7.298  24.766 -12.128
  267XTA     H321036  -7.482  25.101 -12.351
  267XTA     H421037  -7.258  25.205 -12.374
  267XTA     H521038  -6.765  25.005 -12.224
  267XTA     H621039  -6.598  24.980 -12.407
  267XTA     H721040  -6.901  25.051 -12.708
  267XTA     H821041  -7.060  25.114 -12.526
  267XTA     H921042  -7.065  25.370 -12.285
  267XTA    H1021043  -7.010  25.528 -12.120
  267XTA    H1121044  -6.877  25.209 -11.859
  267XTA    H1221045  -6.928  25.031 -12.057
  267XTA    OA121046  -7.523  24.865 -12.219
  267XTA    CO121047  -7.626  24.956 -12.190
  267XTA    OA221048  -6.646  25.010 -12.674
  267XTA    CO221049  -6.551  24.913 -12.648
  267XTA    CL121050  -6.484  24.847 -12.780
  267XTA    CL221051  -6.386  24.731 -12.771
  267XTA    CL321052  -6.333  24.671 -12.901
  267XTA    CL421053  -6.443  24.614 -13.001
  267XTA    CO321054  -6.419  24.642 -13.152
  267XTA    OA321055  -6.408  24.785 -13.174
  267XTA    CO421056  -6.280  24.834 -13.209
  267XTA    CT121057  -6.291  24.990 -13.209
  267XTA    CL521058  -6.367  25.036 -13.336
  267XTA    CL621059  -6.297  25.004 -13.466
  267XTA    OA421060  -6.899  25.457 -11.876
  267XTA    CO521061  -6.875  25.587 -11.909
  267XTA    HL121062  -6.964  25.642 -11.945
  267XTA    HL221063  -7.655  25.027 -12.271
  267XTA    HL321064  -7.708  24.895 -12.158
  267XTA    HL421065  -7.596  25.006 -12.099
  267XTA    HL521066  -6.470  24.954 -12.584
  267XTA    HL621067  -6.581  24.831 -12.581
  267XTA    HL721068  -6.435  24.916 -12.841
  267XTA    HL821069  -6.579  24.804 -12.823
  267XTA    HL921070  -6.427  24.646 -12.719
  267XTA   HL1021071  -6.293  24.753 -12.713
  267XTA   HL1121072  -6.291  24.766 -12.945
  267XTA   HL1221073  -6.252  24.603 -12.885
  267XTA   HL1321074  -6.539  24.637 -12.970
  267XTA   HL1421075  -6.435  24.508 -12.989
  267XTA   HL1521076  -6.335  24.590 -13.193
  267XTA   HL1621077  -6.513  24.614 -13.212
  267XTA   HL1721078  -6.212  24.814 -13.132
  267XTA   HL1821079  -6.247  24.787 -13.297
  267XTA   HL1921080  -6.382  25.150 -13.337
  267XTA   HL2021081  -6.459  24.976 -13.332
  267XTA   HL2121082  -6.341  25.067 -13.545
  267XTA   HL2221083  -6.322  24.896 -13.488
  267XTA   HL2321084  -6.187  25.026 -13.450
  267XTA   HL2421085  -6.783  25.608 -11.967
  267XTA   HL2521086  -6.843  25.634 -11.817
  267XTA    CO621087  -6.156  25.064 -13.201
  267XTA    CO721088  -6.374  25.047 -13.091
  267XTA    OA521089  -6.390  25.183 -13.094
  267XTA   HL2621090  -6.176  25.164 -13.241
  267XTA   HL2721091  -6.083  25.021 -13.267
  267XTA   HL2821092  -6.326  25.024 -12.994
  267XTA   HL2921093  -6.477  25.002 -13.095
  268XTA     NT21094  -7.353  28.249  -7.096
  268XTA    CN121095  -7.449  28.162  -7.057
  268XTA     C121096  -7.496  28.157  -6.923
  268XTA     C221097  -7.591  28.062  -6.889
  268XTA     C321098  -7.648  27.974  -6.988
  268XTA     C421099  -7.605  27.989  -7.123
  268XTA     C521100  -7.500  28.080  -7.156
  268XTA    CN221101  -7.372  28.384  -7.095
  268XTA     C621102  -7.355  28.453  -6.972
  268XTA     C721103  -7.372  28.594  -6.967
  268XTA     C821104  -7.369  28.669  -7.085
  268XTA     C921105  -7.380  28.597  -7.204
  268XTA    C1021106  -7.388  28.460  -7.215
  268XTA    CN321107  -7.229  28.207  -7.113
  268XTA    C1121108  -7.163  28.135  -7.015
  268XTA    C1221109  -7.027  28.097  -7.026
  268XTA    C1321110  -6.961  28.140  -7.146
  268XTA    C1421111  -7.026  28.198  -7.254
  268XTA    C1521112  -7.160  28.226  -7.237
  268XTA     H121113  -7.468  28.221  -6.845
  268XTA     H221114  -7.612  28.061  -6.786
  268XTA     H321115  -7.642  27.925  -7.205
  268XTA     H421116  -7.462  28.098  -7.255
  268XTA     H521117  -7.335  28.406  -6.883
  268XTA     H621118  -7.360  28.636  -6.872
  268XTA     H721119  -7.377  28.657  -7.297
  268XTA     H821120  -7.389  28.415  -7.313
  268XTA     H921121  -7.221  28.117  -6.920
  268XTA    H1021122  -6.979  28.037  -6.949
  268XTA    H1121123  -6.978  28.211  -7.352
  268XTA    H1221124  -7.203  28.273  -7.323
  268XTA    OA121125  -7.751  27.887  -6.966
  268XTA    CO121126  -7.781  27.873  -6.826
  268XTA    OA221127  -7.363  28.806  -7.076
  268XTA    CO221128  -7.356  28.879  -6.951
  268XTA    CL121129  -7.303  29.018  -6.977
  268XTA    CL221130  -7.388  29.086  -7.087
  268XTA    CL321131  -7.320  29.217  -7.136
  268XTA    CL421132  -7.407  29.283  -7.244
  268XTA    CO321133  -7.323  29.392  -7.327
  268XTA    OA321134  -7.218  29.327  -7.396
  268XTA    CO421135  -7.169  29.398  -7.504
  268XTA    CT121136  -7.017  29.370  -7.548
  268XTA    CL521137  -7.003  29.418  -7.690
  268XTA    CL621138  -7.060  29.328  -7.798
  268XTA    OA421139  -6.829  28.111  -7.179
  268XTA    CO521140  -6.755  28.118  -7.058
  268XTA    HL121141  -6.647  28.127  -7.071
  268XTA    HL221142  -7.690  27.844  -6.777
  268XTA    HL321143  -7.812  27.966  -6.781
  268XTA    HL421144  -7.870  27.811  -6.814
  268XTA    HL521145  -7.444  28.880  -6.889
  268XTA    HL621146  -7.277  28.832  -6.892
  268XTA    HL721147  -7.195  29.009  -7.005
  268XTA    HL821148  -7.303  29.084  -6.888
  268XTA    HL921149  -7.487  29.117  -7.033
  268XTA   HL1021150  -7.414  29.015  -7.160
  268XTA   HL1121151  -7.306  29.289  -7.060
  268XTA   HL1221152  -7.218  29.180  -7.167
  268XTA   HL1321153  -7.502  29.318  -7.207
  268XTA   HL1421154  -7.435  29.216  -7.323
  268XTA   HL1521155  -7.388  29.449  -7.400
  268XTA   HL1621156  -7.274  29.468  -7.264
  268XTA   HL1721157  -7.236  29.377  -7.586
  268XTA   HL1821158  -7.172  29.501  -7.482
  268XTA   HL1921159  -6.894  29.418  -7.695
  268XTA   HL2021160  -7.053  29.511  -7.693
  268XTA   HL2121161  -7.160  29.293  -7.759
  268XTA   HL2221162  -6.999  29.236  -7.820
  268XTA   HL2321163  -7.095  29.370  -7.893
  268XTA   HL2421164  -6.764  28.020  -6.997
  268XTA   HL2521165  -6.776  28.202  -6.985
  268XTA    CO621166  -6.991  29.219  -7.532
  268XTA    CO721167  -6.927  29.450  -7.457
  268XTA    OA521168  -6.908  29.179  -7.593
  268XTA   HL2621169  -7.083  29.175  -7.563
  268XTA   HL2721170  -6.983  29.194  -7.426
  268XTA   HL2821171  -6.970  29.586  -7.444
  268XTA   HL2921172  -6.939  29.406  -7.356
  269XTA     NT21173  -2.735  24.388  -6.734
  269XTA    CN121174  -2.768  24.397  -6.866
  269XTA     C121175  -2.857  24.495  -6.911
  269XTA     C221176  -2.898  24.504  -7.047
  269XTA     C321177  -2.865  24.401  -7.133
  269XTA     C421178  -2.775  24.295  -7.096
  269XTA     C521179  -2.724  24.297  -6.960
  269XTA    CN221180  -2.807  24.301  -6.662
  269XTA     C621181  -2.788  24.163  -6.673
  269XTA     C721182  -2.864  24.070  -6.595
  269XTA     C821183  -2.961  24.118  -6.509
  269XTA     C921184  -2.980  24.257  -6.504
  269XTA    C1021185  -2.907  24.345  -6.576
  269XTA    CN321186  -2.628  24.447  -6.684
  269XTA    C1121187  -2.642  24.556  -6.601
  269XTA    C1221188  -2.528  24.622  -6.555
  269XTA    C1321189  -2.396  24.578  -6.593
  269XTA    C1421190  -2.379  24.455  -6.666
  269XTA    C1521191  -2.499  24.397  -6.707
  269XTA     H121192  -2.890  24.568  -6.845
  269XTA     H221193  -2.958  24.591  -7.076
  269XTA     H321194  -2.762  24.214  -7.169
  269XTA     H421195  -2.653  24.226  -6.932
  269XTA     H521196  -2.718  24.114  -6.744
  269XTA     H621197  -2.846  23.968  -6.602
  269XTA     H721198  -3.061  24.296  -6.445
  269XTA     H821199  -2.930  24.452  -6.577
  269XTA     H921200  -2.738  24.605  -6.586
  269XTA    H1021201  -2.531  24.708  -6.489
  269XTA    H1121202  -2.285  24.412  -6.710
  269XTA    H1221203  -2.490  24.312  -6.767
  269XTA    OA121204  -2.927  24.406  -7.255
  269XTA    CO121205  -2.876  24.332  -7.363
  269XTA    OA221206  -3.040  24.028  -6.443
  269XTA    CO221207  -3.117  23.944  -6.526
  269XTA    CL121208  -3.214  23.849  -6.459
  269XTA    CL221209  -3.271  23.734  -6.554
  269XTA    CL321210  -3.172  23.625  -6.602
  269XTA    CL421211  -3.138  23.638  -6.752
  269XTA    CO321212  -3.051  23.512  -6.803
  269XTA    OA321213  -2.928  23.522  -6.729
  269XTA    CO421214  -2.842  23.411  -6.756
  269XTA    CT121215  -2.766  23.369  -6.631
  269XTA    CL521216  -2.676  23.251  -6.674
  269XTA    CL621217  -2.613  23.172  -6.551
  269XTA    OA421218  -2.283  24.652  -6.558
  269XTA    CO521219  -2.160  24.612  -6.618
  269XTA    HL121220  -2.151  24.503  -6.606
  269XTA    HL221221  -2.892  24.223  -7.349
  269XTA    HL321222  -2.919  24.359  -7.453
  269XTA    HL421223  -2.767  24.342  -7.374
  269XTA    HL521224  -3.170  24.011  -6.600
  269XTA    HL621225  -3.046  23.882  -6.582
  269XTA    HL721226  -3.295  23.911  -6.416
  269XTA    HL821227  -3.152  23.800  -6.384
  269XTA    HL921228  -3.338  23.775  -6.635
  269XTA   HL1021229  -3.339  23.684  -6.483
  269XTA   HL1121230  -3.084  23.643  -6.541
  269XTA   HL1221231  -3.218  23.522  -6.575
  269XTA   HL1321232  -3.093  23.737  -6.772
  269XTA   HL1421233  -3.233  23.629  -6.810
  269XTA   HL1521234  -3.105  23.422  -6.771
  269XTA   HL1621235  -3.033  23.521  -6.905
  269XTA   HL1721236  -2.890  23.327  -6.794
  269XTA   HL1821237  -2.769  23.445  -6.832
  269XTA   HL1921238  -2.593  23.274  -6.739
  269XTA   HL2021239  -2.740  23.178  -6.722
  269XTA   HL2121240  -2.562  23.083  -6.590
  269XTA   HL2221241  -2.692  23.146  -6.478
  269XTA   HL2321242  -2.540  23.235  -6.507
  269XTA   HL2421243  -2.066  24.659  -6.597
  269XTA   HL2521244  -2.174  24.635  -6.726
  269XTA    CO621245  -2.876  23.358  -6.516
  269XTA    CO721246  -2.677  23.490  -6.590
  269XTA    OA521247  -2.839  23.328  -6.418
  269XTA   HL2621248  -2.964  23.293  -6.550
  269XTA   HL2721249  -2.919  23.459  -6.497
  269XTA   HL2821250  -2.759  23.609  -6.564
  269XTA   HL2921251  -2.633  23.464  -6.494
  270XTA     NT21252  -6.224  24.786  -8.881
  270XTA    CN121253  -6.284  24.802  -8.765
  270XTA     C121254  -6.375  24.705  -8.724
  270XTA     C221255  -6.432  24.715  -8.596
  270XTA     C321256  -6.392  24.811  -8.500
  270XTA     C421257  -6.301  24.907  -8.540
  270XTA     C521258  -6.243  24.901  -8.669
  270XTA    CN221259  -6.115  24.697  -8.880
  270XTA     C621260  -5.987  24.739  -8.839
  270XTA     C721261  -5.872  24.661  -8.848
  270XTA     C821262  -5.890  24.524  -8.887
  270XTA     C921263  -6.021  24.485  -8.929
  270XTA    C1021264  -6.133  24.569  -8.922
  270XTA    CN321265  -6.264  24.857  -8.992
  270XTA    C1121266  -6.200  24.977  -9.024
  270XTA    C1221267  -6.235  25.052  -9.137
  270XTA    C1321268  -6.335  25.009  -9.229
  270XTA    C1421269  -6.400  24.884  -9.200
  270XTA    C1521270  -6.362  24.810  -9.085
  270XTA     H121271  -6.411  24.630  -8.788
  270XTA     H221272  -6.507  24.645  -8.566
  270XTA     H321273  -6.274  24.984  -8.469
  270XTA     H421274  -6.173  24.978  -8.691
  270XTA     H521275  -5.976  24.846  -8.815
  270XTA     H621276  -5.776  24.709  -8.815
  270XTA     H721277  -6.042  24.390  -8.970
  270XTA     H821278  -6.218  24.536  -8.971
  270XTA     H921279  -6.127  25.009  -8.953
  270XTA    H1021280  -6.179  25.142  -9.154
  270XTA    H1121281  -6.473  24.853  -9.270
  270XTA    H1221282  -6.419  24.724  -9.060
  270XTA    OA121283  -6.445  24.816  -8.373
  270XTA    CO121284  -6.530  24.721  -8.336
  270XTA    OA221285  -5.788  24.433  -8.888
  270XTA    CO221286  -5.681  24.469  -8.808
  270XTA    CL121287  -5.598  24.339  -8.801
  270XTA    CL221288  -5.479  24.352  -8.708
  270XTA    CL321289  -5.373  24.444  -8.766
  270XTA    CL421290  -5.235  24.449  -8.691
  270XTA    CO321291  -5.237  24.493  -8.543
  270XTA    OA321292  -5.288  24.622  -8.531
  270XTA    CO421293  -5.205  24.728  -8.589
  270XTA    CT121294  -5.226  24.858  -8.512
  270XTA    CL521295  -5.380  24.898  -8.510
  270XTA    CL621296  -5.455  24.841  -8.392
  270XTA    OA421297  -6.372  25.077  -9.346
  270XTA    CO521298  -6.287  25.190  -9.365
  270XTA    HL121299  -6.326  25.236  -9.453
  270XTA    HL221300  -6.479  24.621  -8.336
  270XTA    HL321301  -6.562  24.733  -8.232
  270XTA    HL421302  -6.616  24.720  -8.403
  270XTA    HL521303  -5.621  24.551  -8.843
  270XTA    HL621304  -5.707  24.482  -8.700
  270XTA    HL721305  -5.556  24.299  -8.894
  270XTA    HL821306  -5.653  24.260  -8.757
  270XTA    HL921307  -5.431  24.253  -8.702
  270XTA   HL1021308  -5.520  24.383  -8.613
  270XTA   HL1121309  -5.358  24.425  -8.871
  270XTA   HL1221310  -5.400  24.547  -8.784
  270XTA   HL1321311  -5.178  24.525  -8.750
  270XTA   HL1421312  -5.183  24.357  -8.700
  270XTA   HL1521313  -5.292  24.422  -8.492
  270XTA   HL1621314  -5.137  24.494  -8.490
  270XTA   HL1721315  -5.100  24.706  -8.589
  270XTA   HL1821316  -5.231  24.746  -8.690
  270XTA   HL1921317  -5.420  24.851  -8.595
  270XTA   HL2021318  -5.404  25.007  -8.521
  270XTA   HL2121319  -5.560  24.859  -8.408
  270XTA   HL2221320  -5.418  24.886  -8.298
  270XTA   HL2321321  -5.438  24.732  -8.384
  270XTA   HL2421322  -6.183  25.159  -9.378
  270XTA   HL2521323  -6.293  25.255  -9.273
  270XTA    CO621324  -5.145  24.965  -8.591
  270XTA    CO721325  -5.167  24.851  -8.372
  270XTA    OA521326  -5.053  24.833  -8.376
  270XTA   HL2621327  -5.130  25.057  -8.534
  270XTA   HL2721328  -5.012  24.909  -8.601
  270XTA   HL2821329  -5.220  24.760  -8.325
  270XTA   HL2921330  -5.183  24.945  -8.316
  271XTH     NT21331  -3.768  29.507  -4.174
  271XTH    CN121332  -3.686  29.431  -4.254
  271XTH     C121333  -3.734  29.308  -4.313
  271XTH     C221334  -3.660  29.238  -4.406
  271XTH     C321335  -3.524  29.274  -4.434
  271XTH     C421336  -3.472  29.393  -4.378
  271XTH     C521337  -3.558  29.470  -4.294
  271XTH    CN221338  -3.885  29.558  -4.223
  271XTH     C621339  -4.007  29.496  -4.198
  271XTH     C721340  -4.126  29.551  -4.256
  271XTH     C821341  -4.122  29.664  -4.337
  271XTH     C921342  -3.995  29.727  -4.354
  271XTH    C1021343  -3.878  29.671  -4.302
  271XTH    CN321344  -3.753  29.485  -4.044
  271XTH    C1121345  -3.741  29.598  -3.961
  271XTH    C1221346  -3.734  29.585  -3.820
  271XTH    C1321347  -3.740  29.456  -3.762
  271XTH    C1421348  -3.753  29.347  -3.851
  271XTH    C1521349  -3.757  29.358  -3.988
  271XTH     H121350  -3.828  29.262  -4.276
  271XTH     H221351  -3.707  29.151  -4.442
  271XTH     H321352  -3.371  29.417  -4.396
  271XTH     H421353  -3.515  29.559  -4.248
  271XTH     H521354  -4.017  29.406  -4.137
  271XTH     H621355  -4.220  29.495  -4.246
  271XTH     H721356  -3.984  29.814  -4.411
  271XTH     H821357  -3.782  29.710  -4.332
  271XTH     H921358  -3.722  29.694  -4.016
  271XTH    H1021359  -3.716  29.657  -3.746
  271XTH    H1121360  -3.749  29.245  -3.813
  271XTH    H1221361  -3.779  29.271  -4.051
  271XTH    OA121362  -3.456  29.189  -4.521
  271XTH    CO121363  -3.318  29.203  -4.529
  271XTH    OA221364  -4.224  29.705  -4.422
  271XTH    CO221365  -4.358  29.653  -4.407
  271XTH    CL121366  -4.468  29.731  -4.478
  271XTH    CL221367  -4.482  29.875  -4.444
  271XTH    CL321368  -4.592  29.955  -4.512
  271XTH    CL421369  -4.610  30.085  -4.443
  271XTH    CO321370  -4.701  30.180  -4.515
  271XTH    OA321371  -4.830  30.118  -4.528
  271XTH    CO421372  -4.911  30.177  -4.622
  271XTH    CT121373  -5.032  30.090  -4.644
  271XTH    CL521374  -5.100  30.067  -4.508
  271XTH    CL621375  -5.178  30.181  -4.453
  271XTH    OA421376  -3.718  29.447  -3.625
  271XTH    CO521377  -3.691  29.319  -3.571
  271XTH    HL121378  -3.606  29.271  -3.618
  271XTH    HL221379  -3.271  29.187  -4.431
  271XTH    HL321380  -3.269  29.122  -4.584
  271XTH    HL421381  -3.286  29.302  -4.564
  271XTH    HL521382  -4.352  29.551  -4.445
  271XTH    HL621383  -4.375  29.632  -4.305
  271XTH    HL721384  -4.569  29.676  -4.465
  271XTH    HL821385  -4.442  29.734  -4.577
  271XTH    HL921386  -4.395  29.934  -4.463
  271XTH   HL1021387  -4.505  29.880  -4.336
  271XTH   HL1121388  -4.543  29.965  -4.615
  271XTH   HL1221389  -4.685  29.901  -4.526
  271XTH   HL1321390  -4.507  30.123  -4.450
  271XTH   HL1421391  -4.637  30.071  -4.338
  271XTH   HL1521392  -4.709  30.272  -4.462
  271XTH   HL1621393  -4.659  30.206  -4.613
  271XTH   HL1721394  -4.933  30.277  -4.594
  271XTH   HL1821395  -4.848  30.181  -4.707
  271XTH   HL1921396  -5.036  30.031  -4.425
  271XTH   HL2021397  -5.168  29.982  -4.516
  271XTH   HL2121398  -5.216  30.154  -4.355
  271XTH   HL2221399  -5.255  30.224  -4.514
  271XTH   HL2321400  -5.096  30.253  -4.437
  271XTH   HL2421401  -3.782  29.259  -3.577
  271XTH   HL2521402  -3.670  29.337  -3.463
  271XTH    CO621403  -4.977  29.957  -4.721
  271XTH    CO721404  -5.129  30.166  -4.744
  271XTH    OA521405  -5.087  29.895  -4.779
  271XTH   HL2621406  -4.931  29.894  -4.643
  271XTH   HL2721407  -4.899  29.976  -4.799
  271XTH   HL2821408  -5.218  30.110  -4.777
  271XTH   HL2921409  -5.172  30.262  -4.717
  272XTA     NT21410  -2.002  29.676 -10.354
  272XTA    CN121411  -2.032  29.805 -10.355
  272XTA     C121412  -1.982  29.884 -10.248
  272XTA     C221413  -2.011  30.016 -10.242
  272XTA     C321414  -2.088  30.078 -10.345
  272XTA     C421415  -2.148  29.995 -10.444
  272XTA     C521416  -2.122  29.862 -10.449
  272XTA    CN221417  -1.874  29.633 -10.349
  272XTA     C621418  -1.821  29.558 -10.243
  272XTA     C721419  -1.692  29.501 -10.248
  272XTA     C821420  -1.612  29.525 -10.357
  272XTA     C921421  -1.664  29.591 -10.463
  272XTA    C1021422  -1.797  29.637 -10.464
  272XTA    CN321423  -2.106  29.590 -10.353
  272XTA    C1121424  -2.181  29.566 -10.241
  272XTA    C1221425  -2.290  29.475 -10.242
  272XTA    C1321426  -2.316  29.403 -10.361
  272XTA    C1421427  -2.238  29.426 -10.475
  272XTA    C1521428  -2.131  29.522 -10.474
  272XTA     H121429  -1.912  29.844 -10.175
  272XTA     H221430  -1.966  30.077 -10.162
  272XTA     H321431  -2.213  30.040 -10.521
  272XTA     H421432  -2.177  29.803 -10.517
  272XTA     H521433  -1.883  29.545 -10.152
  272XTA     H621434  -1.652  29.450 -10.161
  272XTA     H721435  -1.607  29.613 -10.550
  272XTA     H821436  -1.847  29.684 -10.548
  272XTA     H921437  -2.157  29.621 -10.146
  272XTA    H1021438  -2.339  29.460 -10.148
  272XTA    H1121439  -2.260  29.376 -10.571
  272XTA    H1221440  -2.075  29.547 -10.566
  272XTA    OA121441  -2.097  30.213 -10.346
  272XTA    CO121442  -2.082  30.269 -10.472
  272XTA    OA221443  -1.488  29.464 -10.366
  272XTA    CO221444  -1.475  29.387 -10.486
  272XTA    CL121445  -1.334  29.338 -10.504
  272XTA    CL221446  -1.324  29.279 -10.641
  272XTA    CL321447  -1.227  29.151 -10.660
  272XTA    CL421448  -1.224  29.103 -10.807
  272XTA    CO321449  -1.150  29.194 -10.894
  272XTA    OA321450  -1.017  29.170 -10.884
  272XTA    CO421451  -0.944  29.264 -10.965
  272XTA    CT121452  -0.859  29.359 -10.867
  272XTA    CL521453  -0.724  29.415 -10.925
  272XTA    CL621454  -0.748  29.488 -11.061
  272XTA    OA421455  -2.415  29.311 -10.358
  272XTA    CO521456  -2.427  29.232 -10.471
  272XTA    HL121457  -2.518  29.182 -10.474
  272XTA    HL221458  -2.090  30.380 -10.464
  272XTA    HL321459  -1.974  30.259 -10.507
  272XTA    HL421460  -2.153  30.235 -10.549
  272XTA    HL521461  -1.538  29.305 -10.489
  272XTA    HL621462  -1.488  29.448 -10.576
  272XTA    HL721463  -1.312  29.264 -10.420
  272XTA    HL821464  -1.273  29.422 -10.489
  272XTA    HL921465  -1.286  29.359 -10.708
  272XTA   HL1021466  -1.418  29.239 -10.670
  272XTA   HL1121467  -1.130  29.199 -10.641
  272XTA   HL1221468  -1.256  29.071 -10.594
  272XTA   HL1321469  -1.331  29.105 -10.830
  272XTA   HL1421470  -1.196  29.001 -10.819
  272XTA   HL1521471  -1.173  29.165 -10.999
  272XTA   HL1621472  -1.179  29.300 -10.878
  272XTA   HL1721473  -0.875  29.209 -11.027
  272XTA   HL1821474  -1.015  29.317 -11.032
  272XTA   HL1921475  -0.650  29.335 -10.941
  272XTA   HL2021476  -0.672  29.479 -10.851
  272XTA   HL2121477  -0.814  29.427 -11.115
  272XTA   HL2221478  -0.654  29.492 -11.120
  272XTA   HL2321479  -0.790  29.587 -11.049
  272XTA   HL2421480  -2.350  29.156 -10.479
  272XTA   HL2521481  -2.436  29.290 -10.571
  272XTA    CO621482  -0.839  29.293 -10.735
  272XTA    CO721483  -0.959  29.473 -10.831
  272XTA    OA521484  -1.020  29.535 -10.938
  272XTA   HL2621485  -0.939  29.273 -10.696
  272XTA   HL2721486  -0.794  29.190 -10.752
  272XTA   HL2821487  -0.915  29.558 -10.778
  272XTA   HL2921488  -1.040  29.441 -10.766
  273XTA     NT21489  -8.333  25.835  -9.266
  273XTA    CN121490  -8.320  25.970  -9.284
  273XTA     C121491  -8.439  26.048  -9.277
  273XTA     C221492  -8.424  26.186  -9.275
  273XTA     C321493  -8.298  26.251  -9.279
  273XTA     C421494  -8.180  26.174  -9.288
  273XTA     C521495  -8.188  26.032  -9.295
  273XTA    CN221496  -8.368  25.786  -9.141
  273XTA     C621497  -8.263  25.747  -9.058
  273XTA     C721498  -8.288  25.705  -8.927
  273XTA     C821499  -8.423  25.687  -8.882
  273XTA     C921500  -8.524  25.723  -8.970
  273XTA    C1021501  -8.499  25.777  -9.097
  273XTA    CN321502  -8.361  25.762  -9.376
  273XTA    C1121503  -8.252  25.706  -9.443
  273XTA    C1221504  -8.270  25.625  -9.557
  273XTA    C1321505  -8.399  25.605  -9.599
  273XTA    C1421506  -8.507  25.675  -9.546
  273XTA    C1521507  -8.491  25.745  -9.428
  273XTA     H121508  -8.538  26.016  -9.272
  273XTA     H221509  -8.520  26.243  -9.269
  273XTA     H321510  -8.091  26.234  -9.288
  273XTA     H421511  -8.093  25.979  -9.292
  273XTA     H521512  -8.164  25.754  -9.110
  273XTA     H621513  -8.215  25.667  -8.859
  273XTA     H721514  -8.627  25.705  -8.936
  273XTA     H821515  -8.578  25.807  -9.162
  273XTA     H921516  -8.159  25.716  -9.398
  273XTA    H1021517  -8.189  25.580  -9.613
  273XTA    H1121518  -8.606  25.661  -9.586
  273XTA    H1221519  -8.584  25.774  -9.383
  273XTA    OA121520  -8.298  26.389  -9.267
  273XTA    CO121521  -8.178  26.447  -9.238
  273XTA    OA221522  -8.463  25.635  -8.762
  273XTA    CO221523  -8.361  25.601  -8.665
  273XTA    CL121524  -8.301  25.463  -8.680
  273XTA    CL221525  -8.375  25.354  -8.598
  273XTA    CL321526  -8.315  25.214  -8.617
  273XTA    CL421527  -8.382  25.150  -8.734
  273XTA    CO321528  -8.320  25.015  -8.786
  273XTA    OA321529  -8.406  24.952  -8.877
  273XTA    CO421530  -8.411  25.019  -9.001
  273XTA    CT121531  -8.386  24.923  -9.125
  273XTA    CL521532  -8.501  24.820  -9.141
  273XTA    CL621533  -8.643  24.859  -9.116
  273XTA    OA421534  -8.429  25.502  -9.686
  273XTA    CO521535  -8.328  25.427  -9.738
  273XTA    HL121536  -8.360  25.347  -9.798
  273XTA    HL221537  -8.204  26.551  -9.201
  273XTA    HL321538  -8.136  26.399  -9.156
  273XTA    HL421539  -8.125  26.437  -9.338
  273XTA    HL521540  -8.286  25.676  -8.671
  273XTA    HL621541  -8.395  25.609  -8.567
  273XTA    HL721542  -8.201  25.473  -8.635
  273XTA    HL821543  -8.285  25.445  -8.787
  273XTA    HL921544  -8.478  25.362  -8.623
  273XTA   HL1021545  -8.355  25.382  -8.494
  273XTA   HL1121546  -8.209  25.227  -8.627
  273XTA   HL1221547  -8.317  25.168  -8.518
  273XTA   HL1321548  -8.388  25.214  -8.819
  273XTA   HL1421549  -8.484  25.134  -8.699
  273XTA   HL1521550  -8.214  25.017  -8.816
  273XTA   HL1621551  -8.324  24.949  -8.699
  273XTA   HL1721552  -8.507  25.077  -9.002
  273XTA   HL1821553  -8.327  25.094  -9.010
  273XTA   HL1921554  -8.480  24.735  -9.084
  273XTA   HL2021555  -8.498  24.782  -9.238
  273XTA   HL2121556  -8.687  24.908  -9.192
  273XTA   HL2221557  -8.637  24.920  -9.023
  273XTA   HL2321558  -8.705  24.767  -9.102
  273XTA   HL2421559  -8.262  25.367  -9.667
  273XTA   HL2521560  -8.266  25.496  -9.800
  273XTA    CO621561  -8.253  24.854  -9.129
  273XTA    CO721562  -8.386  25.019  -9.251
  273XTA    OA521563  -8.231  24.782  -9.246
  273XTA   HL2621564  -8.240  24.789  -9.042
  273XTA   HL2721565  -8.175  24.929  -9.121
  273XTA   HL2821566  -8.304  25.092  -9.246
  273XTA   HL2921567  -8.373  24.962  -9.344
  274XTA     NT21568  -5.914  27.344  -7.513
  274XTA    CN121569  -5.839  27.317  -7.405
  274XTA     C121570  -5.818  27.429  -7.320
  274XTA     C221571  -5.739  27.413  -7.204
  274XTA     C321572  -5.680  27.291  -7.169
  274XTA     C421573  -5.707  27.176  -7.248
  274XTA     C521574  -5.778  27.191  -7.367
  274XTA    CN221575  -6.010  27.254  -7.546
  274XTA     C621576  -6.134  27.246  -7.488
  274XTA     C721577  -6.232  27.158  -7.531
  274XTA     C821578  -6.214  27.086  -7.648
  274XTA     C921579  -6.096  27.104  -7.714
  274XTA    C1021580  -5.992  27.183  -7.662
  274XTA    CN321581  -5.880  27.443  -7.600
  274XTA    C1121582  -5.742  27.476  -7.622
  274XTA    C1221583  -5.710  27.577  -7.711
  274XTA    C1321584  -5.809  27.643  -7.781
  274XTA    C1421585  -5.950  27.613  -7.763
  274XTA    C1521586  -5.984  27.515  -7.671
  274XTA     H121587  -5.869  27.523  -7.345
  274XTA     H221588  -5.742  27.501  -7.132
  274XTA     H321589  -5.674  27.075  -7.227
  274XTA     H421590  -5.813  27.111  -7.437
  274XTA     H521591  -6.148  27.308  -7.400
  274XTA     H621592  -6.320  27.142  -7.461
  274XTA     H721593  -6.085  27.051  -7.814
  274XTA     H821594  -5.906  27.216  -7.715
  274XTA     H921595  -5.656  27.436  -7.562
  274XTA    H1021596  -5.605  27.607  -7.731
  274XTA    H1121597  -6.032  27.678  -7.799
  274XTA    H1221598  -6.090  27.489  -7.655
  274XTA    OA121599  -5.607  27.275  -7.055
  274XTA    CO121600  -5.534  27.380  -6.997
  274XTA    OA221601  -6.313  26.995  -7.685
  274XTA    CO221602  -6.292  26.929  -7.802
  274XTA    CL121603  -6.382  26.811  -7.817
  274XTA    CL221604  -6.342  26.725  -7.938
  274XTA    CL321605  -6.394  26.583  -7.944
  274XTA    CL421606  -6.287  26.486  -7.998
  274XTA    CO321607  -6.345  26.350  -7.976
  274XTA    OA321608  -6.458  26.325  -8.057
  274XTA    CO421609  -6.562  26.256  -7.977
  274XTA    CT121610  -6.694  26.244  -8.060
  274XTA    CL521611  -6.680  26.151  -8.175
  274XTA    CL621612  -6.617  26.013  -8.163
  274XTA    OA421613  -5.765  27.749  -7.859
  274XTA    CO521614  -5.864  27.824  -7.918
  274XTA    HL121615  -5.811  27.910  -7.953
  274XTA    HL221616  -5.606  27.444  -6.945
  274XTA    HL321617  -5.465  27.340  -6.922
  274XTA    HL421618  -5.477  27.428  -7.079
  274XTA    HL521619  -6.297  26.996  -7.894
  274XTA    HL621620  -6.190  26.882  -7.796
  274XTA    HL721621  -6.492  26.833  -7.814
  274XTA    HL821622  -6.360  26.745  -7.732
  274XTA    HL921623  -6.233  26.717  -7.923
  274XTA   HL1021624  -6.354  26.781  -8.027
  274XTA   HL1121625  -6.407  26.550  -7.847
  274XTA   HL1221626  -6.487  26.569  -7.992
  274XTA   HL1321627  -6.186  26.509  -7.958
  274XTA   HL1421628  -6.282  26.493  -8.107
  274XTA   HL1521629  -6.267  26.277  -7.995
  274XTA   HL1621630  -6.360  26.331  -7.869
  274XTA   HL1721631  -6.522  26.160  -7.942
  274XTA   HL1821632  -6.592  26.312  -7.890
  274XTA   HL1921633  -6.612  26.204  -8.244
  274XTA   HL2021634  -6.779  26.141  -8.218
  274XTA   HL2121635  -6.505  26.020  -8.164
  274XTA   HL2221636  -6.655  25.947  -8.244
  274XTA   HL2321637  -6.636  25.956  -8.072
  274XTA   HL2421638  -5.932  27.862  -7.839
  274XTA   HL2521639  -5.911  27.772  -7.996
  274XTA    CO621640  -6.734  26.390  -8.109
  274XTA    CO721641  -6.807  26.192  -7.977
  274XTA    OA521642  -6.839  26.259  -7.859
  274XTA   HL2621643  -6.646  26.427  -8.152
  274XTA   HL2721644  -6.755  26.454  -8.022
  274XTA   HL2821645  -6.794  26.086  -7.961
  274XTA   HL2921646  -6.903  26.200  -8.046
  275XTA     NT21647  -6.114  25.390  -9.826
  275XTA    CN121648  -6.002  25.417  -9.754
  275XTA     C121649  -6.008  25.476  -9.620
  275XTA     C221650  -5.888  25.509  -9.555
  275XTA     C321651  -5.764  25.490  -9.616
  275XTA     C421652  -5.755  25.433  -9.742
  275XTA     C521653  -5.872  25.393  -9.810
  275XTA    CN221654  -6.194  25.291  -9.792
  275XTA     C621655  -6.326  25.321  -9.752
  275XTA     C721656  -6.405  25.207  -9.707
  275XTA     C821657  -6.351  25.078  -9.704
  275XTA     C921658  -6.222  25.052  -9.749
  275XTA    C1021659  -6.147  25.162  -9.796
  275XTA    CN321660  -6.156  25.465  -9.935
  275XTA    C1121661  -6.211  25.589  -9.910
  275XTA    C1221662  -6.253  25.672 -10.013
  275XTA    C1321663  -6.253  25.627 -10.146
  275XTA    C1421664  -6.202  25.497 -10.166
  275XTA    C1521665  -6.151  25.419 -10.063
  275XTA     H121666  -6.099  25.482  -9.571
  275XTA     H221667  -5.901  25.553  -9.457
  275XTA     H321668  -5.659  25.430  -9.792
  275XTA     H421669  -5.859  25.358  -9.911
  275XTA     H521670  -6.368  25.414  -9.740
  275XTA     H621671  -6.499  25.220  -9.666
  275XTA     H721672  -6.189  24.950  -9.750
  275XTA     H821673  -6.038  25.147  -9.821
  275XTA     H921674  -6.209  25.625  -9.804
  275XTA    H1021675  -6.283  25.770  -9.987
  275XTA    H1121676  -6.209  25.457 -10.266
  275XTA    H1221677  -6.117  25.327 -10.086
  275XTA    OA121678  -5.647  25.543  -9.568
  275XTA    CO121679  -5.656  25.604  -9.435
  275XTA    OA221680  -6.436  24.981  -9.655
  275XTA    CO221681  -6.374  24.856  -9.624
  275XTA    CL121682  -6.461  24.772  -9.529
  275XTA    CL221683  -6.531  24.656  -9.596
  275XTA    CL321684  -6.618  24.703  -9.714
  275XTA    CL421685  -6.682  24.585  -9.787
  275XTA    CO321686  -6.765  24.623  -9.901
  275XTA    OA321687  -6.693  24.629 -10.029
  275XTA    CO421688  -6.787  24.678 -10.129
  275XTA    CT121689  -6.740  24.652 -10.273
  275XTA    CL521690  -6.855  24.663 -10.375
  275XTA    CL621691  -6.937  24.793 -10.376
  275XTA    OA421692  -6.294  25.699 -10.252
  275XTA    CO521693  -6.314  25.835 -10.235
  275XTA    HL121694  -6.398  25.852 -10.172
  275XTA    HL221695  -5.687  25.527  -9.360
  275XTA    HL321696  -5.554  25.645  -9.403
  275XTA    HL421697  -5.718  25.697  -9.434
  275XTA    HL521698  -6.349  24.805  -9.711
  275XTA    HL621699  -6.288  24.882  -9.559
  275XTA    HL721700  -6.527  24.844  -9.469
  275XTA    HL821701  -6.394  24.714  -9.465
  275XTA    HL921702  -6.574  24.601  -9.509
  275XTA   HL1021703  -6.453  24.593  -9.632
  275XTA   HL1121704  -6.691  24.774  -9.685
  275XTA   HL1221705  -6.555  24.761  -9.786
  275XTA   HL1321706  -6.732  24.524  -9.707
  275XTA   HL1421707  -6.601  24.529  -9.828
  275XTA   HL1521708  -6.833  24.538  -9.908
  275XTA   HL1621709  -6.825  24.711  -9.871
  275XTA   HL1721710  -6.888  24.634 -10.101
  275XTA   HL1821711  -6.807  24.782 -10.121
  275XTA   HL1921712  -6.928  24.578 -10.366
  275XTA   HL2021713  -6.820  24.646 -10.476
  275XTA   HL2121714  -6.880  24.872 -10.403
  275XTA   HL2221715  -6.982  24.811 -10.277
  275XTA   HL2321716  -7.019  24.784 -10.452
  275XTA   HL2421717  -6.338  25.885 -10.329
  275XTA   HL2521718  -6.224  25.877 -10.197
  275XTA    CO621719  -6.671  24.519 -10.293
  275XTA    CO721720  -6.612  24.716 -10.314
  275XTA    OA521721  -6.554  24.587 -10.315
  275XTA   HL2621722  -6.719  24.480 -10.386
  275XTA   HL2721723  -6.690  24.448 -10.213
  275XTA   HL2821724  -6.562  24.772 -10.237
  275XTA   HL2921725  -6.618  24.761 -10.406
  276XTA     NT21726  -1.264  28.687 -10.359
  276XTA    CN121727  -1.347  28.779 -10.311
  276XTA     C121728  -1.465  28.746 -10.247
  276XTA     C221729  -1.544  28.849 -10.185
  276XTA     C321730  -1.509  28.979 -10.192
  276XTA     C421731  -1.394  29.013 -10.266
  276XTA     C521732  -1.311  28.918 -10.325
  276XTA    CN221733  -1.276  28.653 -10.491
  276XTA     C621734  -1.235  28.745 -10.589
  276XTA     C721735  -1.235  28.708 -10.722
  276XTA     C821736  -1.302  28.590 -10.762
  276XTA     C921737  -1.352  28.508 -10.665
  276XTA    C1021738  -1.348  28.536 -10.528
  276XTA    CN321739  -1.151  28.660 -10.293
  276XTA    C1121740  -1.155  28.582 -10.176
  276XTA    C1221741  -1.032  28.547 -10.112
  276XTA    C1321742  -0.911  28.591 -10.165
  276XTA    C1421743  -0.913  28.682 -10.269
  276XTA    C1521744  -1.033  28.718 -10.333
  276XTA     H121745  -1.490  28.641 -10.243
  276XTA     H221746  -1.637  28.836 -10.134
  276XTA     H321747  -1.365  29.117 -10.269
  276XTA     H421748  -1.215  28.957 -10.357
  276XTA     H521749  -1.199  28.840 -10.557
  276XTA     H621750  -1.210  28.783 -10.790
  276XTA     H721751  -1.399  28.417 -10.694
  276XTA     H821752  -1.385  28.466 -10.462
  276XTA     H921753  -1.242  28.540 -10.136
  276XTA    H1021754  -1.030  28.501 -10.015
  276XTA    H1121755  -0.823  28.723 -10.309
  276XTA    H1221756  -1.040  28.787 -10.416
  276XTA    OA121757  -1.584  29.073 -10.135
  276XTA    CO121758  -1.592  29.201 -10.194
  276XTA    OA221759  -1.301  28.538 -10.891
  276XTA    CO221760  -1.243  28.627 -10.998
  276XTA    CL121761  -1.337  28.735 -11.039
  276XTA    CL221762  -1.288  28.811 -11.170
  276XTA    CL321763  -1.368  28.939 -11.189
  276XTA    CL421764  -1.513  28.910 -11.218
  276XTA    CO321765  -1.607  29.024 -11.233
  276XTA    OA321766  -1.731  28.951 -11.228
  276XTA    CO421767  -1.840  29.026 -11.280
  276XTA    CT121768  -1.964  28.940 -11.275
  276XTA    CL521769  -1.940  28.814 -11.352
  276XTA    CL621770  -1.911  28.830 -11.499
  276XTA    OA421771  -0.787  28.557 -10.117
  276XTA    CO521772  -0.779  28.481  -9.999
  276XTA    HL121773  -0.811  28.539  -9.916
  276XTA    HL221774  -1.613  29.203 -10.303
  276XTA    HL321775  -1.674  29.257 -10.157
  276XTA    HL421776  -1.505  29.260 -10.168
  276XTA    HL521777  -1.138  28.665 -10.970
  276XTA    HL621778  -1.232  28.569 -11.085
  276XTA    HL721779  -1.356  28.800 -10.952
  276XTA    HL821780  -1.433  28.694 -11.057
  276XTA    HL921781  -1.297  28.750 -11.257
  276XTA   HL1021782  -1.181  28.831 -11.165
  276XTA   HL1121783  -1.370  28.989 -11.094
  276XTA   HL1221784  -1.319  29.010 -11.257
  276XTA   HL1321785  -1.556  28.852 -11.137
  276XTA   HL1421786  -1.513  28.853 -11.311
  276XTA   HL1521787  -1.584  29.091 -11.151
  276XTA   HL1621788  -1.585  29.070 -11.329
  276XTA   HL1721789  -1.872  29.104 -11.207
  276XTA   HL1821790  -1.821  29.077 -11.372
  276XTA   HL1921791  -2.032  28.754 -11.333
  276XTA   HL2021792  -1.863  28.754 -11.300
  276XTA   HL2121793  -1.811  28.859 -11.524
  276XTA   HL2221794  -1.971  28.911 -11.539
  276XTA   HL2321795  -1.931  28.744 -11.555
  276XTA   HL2421796  -0.674  28.453  -9.975
  276XTA   HL2521797  -0.836  28.387 -10.016
  276XTA    CO621798  -2.087  29.014 -11.323
  276XTA    CO721799  -1.985  28.907 -11.126
  276XTA    OA521800  -2.064  29.110 -11.433
  276XTA   HL2621801  -2.108  29.078 -11.242
  276XTA   HL2721802  -2.173  28.939 -11.336
  276XTA   HL2821803  -1.905  28.847 -11.084
  276XTA   HL2921804  -1.990  28.996 -11.068
  277XTA     NT21805  -5.101  26.241  -9.182
  277XTA    CN121806  -5.097  26.368  -9.231
  277XTA     C121807  -5.201  26.417  -9.319
  277XTA     C221808  -5.205  26.549  -9.363
  277XTA     C321809  -5.114  26.643  -9.309
  277XTA     C421810  -5.010  26.594  -9.222
  277XTA     C521811  -5.004  26.456  -9.177
  277XTA    CN221812  -5.022  26.152  -9.237
  277XTA     C621813  -5.079  26.074  -9.344
  277XTA     C721814  -5.004  25.972  -9.405
  277XTA     C821815  -4.866  25.952  -9.360
  277XTA     C921816  -4.811  26.044  -9.270
  277XTA    C1021817  -4.884  26.148  -9.212
  277XTA    CN321818  -5.162  26.211  -9.066
  277XTA    C1121819  -5.106  26.234  -8.939
  277XTA    C1221820  -5.179  26.198  -8.825
  277XTA    C1321821  -5.310  26.140  -8.830
  277XTA    C1421822  -5.361  26.122  -8.956
  277XTA    C1521823  -5.289  26.154  -9.078
  277XTA     H121824  -5.277  26.350  -9.357
  277XTA     H221825  -5.276  26.564  -9.436
  277XTA     H321826  -4.954  26.671  -9.176
  277XTA     H421827  -4.936  26.421  -9.100
  277XTA     H521828  -5.185  26.080  -9.372
  277XTA     H621829  -5.041  25.903  -9.479
  277XTA     H721830  -4.705  26.028  -9.250
  277XTA     H821831  -4.848  26.215  -9.139
  277XTA     H921832  -5.007  26.280  -8.923
  277XTA    H1021833  -5.152  26.205  -8.718
  277XTA    H1121834  -5.461  26.083  -8.961
  277XTA    H1221835  -5.345  26.134  -9.172
  277XTA    OA121836  -5.142  26.770  -9.341
  277XTA    CO121837  -5.050  26.868  -9.318
  277XTA    OA221838  -4.787  25.854  -9.410
  277XTA    CO221839  -4.771  25.749  -9.311
  277XTA    CL121840  -4.720  25.617  -9.373
  277XTA    CL221841  -4.713  25.495  -9.279
  277XTA    CL321842  -4.781  25.370  -9.326
  277XTA    CL421843  -4.891  25.328  -9.233
  277XTA    CO321844  -4.957  25.196  -9.269
  277XTA    OA321845  -5.065  25.174  -9.186
  277XTA    CO421846  -5.028  25.137  -9.048
  277XTA    CT121847  -5.145  25.125  -8.945
  277XTA    CL521848  -5.177  25.268  -8.896
  277XTA    CL621849  -5.316  25.290  -8.817
  277XTA    OA421850  -5.363  26.095  -8.713
  277XTA    CO521851  -5.468  26.005  -8.725
  277XTA    HL121852  -5.448  25.935  -8.805
  277XTA    HL221853  -5.092  26.961  -9.360
  277XTA    HL321854  -5.028  26.887  -9.217
  277XTA    HL421855  -4.960  26.837  -9.363
  277XTA    HL521856  -4.715  25.785  -9.224
  277XTA    HL621857  -4.874  25.731  -9.269
  277XTA    HL721858  -4.616  25.641  -9.402
  277XTA    HL821859  -4.763  25.597  -9.471
  277XTA    HL921860  -4.722  25.528  -9.170
  277XTA   HL1021861  -4.608  25.479  -9.286
  277XTA   HL1121862  -4.829  25.379  -9.426
  277XTA   HL1221863  -4.701  25.298  -9.318
  277XTA   HL1321864  -4.973  25.398  -9.232
  277XTA   HL1421865  -4.853  25.329  -9.128
  277XTA   HL1521866  -4.988  25.194  -9.373
  277XTA   HL1621867  -4.879  25.117  -9.259
  277XTA   HL1721868  -4.990  25.037  -9.062
  277XTA   HL1821869  -4.947  25.204  -9.007
  277XTA   HL1921870  -5.191  25.324  -8.982
  277XTA   HL2021871  -5.090  25.306  -8.849
  277XTA   HL2121872  -5.347  25.396  -8.809
  277XTA   HL2221873  -5.298  25.253  -8.713
  277XTA   HL2321874  -5.403  25.241  -8.863
  277XTA   HL2421875  -5.555  26.052  -8.753
  277XTA   HL2521876  -5.482  25.945  -8.636
  277XTA    CO621877  -5.101  25.053  -8.816
  277XTA    CO721878  -5.258  25.051  -9.018
  277XTA    OA521879  -5.193  24.999  -8.723
  277XTA   HL2621880  -5.038  25.112  -8.759
  277XTA   HL2721881  -5.027  24.977  -8.840
  277XTA   HL2821882  -5.343  25.056  -8.944
  277XTA   HL2921883  -5.281  25.117  -9.105
  278XTA     NT21884  -3.753  28.541  -5.659
  278XTA    CN121885  -3.677  28.517  -5.549
  278XTA     C121886  -3.558  28.444  -5.562
  278XTA     C221887  -3.473  28.418  -5.455
  278XTA     C321888  -3.515  28.468  -5.326
  278XTA     C421889  -3.635  28.541  -5.314
  278XTA     C521890  -3.719  28.565  -5.426
  278XTA    CN221891  -3.855  28.449  -5.685
  278XTA     C621892  -3.983  28.485  -5.640
  278XTA     C721893  -4.085  28.391  -5.673
  278XTA     C821894  -4.064  28.262  -5.730
  278XTA     C921895  -3.928  28.237  -5.764
  278XTA    C1021896  -3.820  28.329  -5.740
  278XTA    CN321897  -3.717  28.638  -5.744
  278XTA    C1121898  -3.794  28.664  -5.860
  278XTA    C1221899  -3.752  28.763  -5.947
  278XTA    C1321900  -3.630  28.822  -5.941
  278XTA    C1421901  -3.552  28.794  -5.827
  278XTA    C1521902  -3.589  28.696  -5.738
  278XTA     H121903  -3.517  28.405  -5.658
  278XTA     H221904  -3.376  28.367  -5.472
  278XTA     H321905  -3.671  28.589  -5.217
  278XTA     H421906  -3.819  28.617  -5.411
  278XTA     H521907  -4.002  28.567  -5.575
  278XTA     H621908  -4.179  28.411  -5.630
  278XTA     H721909  -3.916  28.147  -5.820
  278XTA     H821910  -3.716  28.301  -5.774
  278XTA     H921911  -3.875  28.607  -5.871
  278XTA    H1021912  -3.820  28.788  -6.030
  278XTA    H1121913  -3.468  28.855  -5.801
  278XTA    H1221914  -3.522  28.680  -5.650
  278XTA    OA121915  -3.446  28.440  -5.204
  278XTA    CO121916  -3.342  28.338  -5.212
  278XTA    OA221917  -4.172  28.177  -5.745
  278XTA    CO221918  -4.148  28.045  -5.783
  278XTA    CL121919  -4.275  27.957  -5.789
  278XTA    CL221920  -4.237  27.808  -5.790
  278XTA    CL321921  -4.359  27.715  -5.790
  278XTA    CL421922  -4.337  27.564  -5.779
  278XTA    CO321923  -4.467  27.485  -5.802
  278XTA    OA321924  -4.575  27.535  -5.728
  278XTA    CO421925  -4.674  27.607  -5.806
  278XTA    CT121926  -4.770  27.675  -5.713
  278XTA    CL521927  -4.850  27.570  -5.625
  278XTA    CL621928  -4.933  27.469  -5.705
  278XTA    OA421929  -3.597  28.922  -6.031
  278XTA    CO521930  -3.473  28.990  -6.024
  278XTA    HL121931  -3.479  29.070  -6.096
  278XTA    HL221932  -3.260  28.365  -5.283
  278XTA    HL321933  -3.307  28.313  -5.114
  278XTA    HL421934  -3.387  28.251  -5.249
  278XTA    HL521935  -4.104  28.039  -5.884
  278XTA    HL621936  -4.072  28.012  -5.708
  278XTA    HL721937  -4.327  27.991  -5.878
  278XTA    HL821938  -4.339  27.984  -5.706
  278XTA    HL921939  -4.179  27.793  -5.692
  278XTA   HL1021940  -4.171  27.790  -5.873
  278XTA   HL1121941  -4.418  27.741  -5.696
  278XTA   HL1221942  -4.427  27.755  -5.867
  278XTA   HL1321943  -4.301  27.539  -5.674
  278XTA   HL1421944  -4.260  27.527  -5.847
  278XTA   HL1521945  -4.495  27.492  -5.911
  278XTA   HL1621946  -4.454  27.378  -5.782
  278XTA   HL1721947  -4.633  27.680  -5.874
  278XTA   HL1821948  -4.725  27.537  -5.870
  278XTA   HL1921949  -4.920  27.632  -5.567
  278XTA   HL2021950  -4.783  27.519  -5.561
  278XTA   HL2121951  -4.872  27.402  -5.764
  278XTA   HL2221952  -5.000  27.514  -5.774
  278XTA   HL2321953  -4.998  27.407  -5.643
  278XTA   HL2421954  -3.396  28.926  -6.058
  278XTA   HL2521955  -3.454  29.044  -5.928
  278XTA    CO621956  -4.861  27.762  -5.798
  278XTA    CO721957  -4.702  27.768  -5.614
  278XTA    OA521958  -4.786  27.843  -5.879
  278XTA   HL2621959  -4.920  27.829  -5.732
  278XTA   HL2721960  -4.929  27.703  -5.862
  278XTA   HL2821961  -4.619  27.716  -5.575
  278XTA   HL2921962  -4.665  27.863  -5.665
  279XTA     NT21963  -4.083  26.093 -10.051
  279XTA    CN121964  -4.105  25.960 -10.043
  279XTA     C121965  -3.999  25.869 -10.031
  279XTA     C221966  -4.017  25.732 -10.027
  279XTA     C321967  -4.148  25.671 -10.036
  279XTA     C421968  -4.257  25.759 -10.065
  279XTA     C521969  -4.232  25.898 -10.065
  279XTA    CN221970  -4.040  26.152 -10.164
  279XTA     C621971  -4.136  26.198 -10.254
  279XTA     C721972  -4.090  26.267 -10.370
  279XTA     C821973  -3.953  26.276 -10.402
  279XTA     C921974  -3.863  26.218 -10.319
  279XTA    C1021975  -3.904  26.156 -10.197
  279XTA    CN321976  -4.117  26.161  -9.941
  279XTA    C1121977  -4.243  26.225  -9.924
  279XTA    C1221978  -4.278  26.322  -9.830
  279XTA    C1321979  -4.180  26.350  -9.730
  279XTA    C1421980  -4.050  26.286  -9.734
  279XTA    C1521981  -4.021  26.192  -9.840
  279XTA     H121982  -3.892  25.890 -10.036
  279XTA     H221983  -3.929  25.666 -10.036
  279XTA     H321984  -4.352  25.721 -10.086
  279XTA     H421985  -4.319  25.959 -10.080
  279XTA     H521986  -4.244  26.202 -10.240
  279XTA     H621987  -4.163  26.306 -10.436
  279XTA     H721988  -3.761  26.214 -10.347
  279XTA     H821989  -3.837  26.121 -10.125
  279XTA     H921990  -4.314  26.193  -9.999
  279XTA    H1021991  -4.374  26.363  -9.824
  279XTA    H1121992  -3.974  26.308  -9.664
  279XTA    H1221993  -3.927  26.144  -9.845
  279XTA    OA121994  -4.157  25.538 -10.032
  279XTA    CO121995  -4.290  25.485 -10.084
  279XTA    OA221996  -3.906  26.321 -10.525
  279XTA    CO221997  -3.965  26.447 -10.570
  279XTA    CL121998  -3.879  26.514 -10.682
  279XTA    CL221999  -3.941  26.651 -10.721
  279XTA    CL322000  -4.075  26.648 -10.805
  279XTA    CL422001  -4.199  26.629 -10.725
  279XTA    CO322002  -4.312  26.593 -10.824
  279XTA    OA322003  -4.430  26.556 -10.750
  279XTA    CO422004  -4.498  26.672 -10.691
  279XTA    CT122005  -4.644  26.636 -10.662
  279XTA    CL522006  -4.725  26.572 -10.783
  279XTA    CL622007  -4.715  26.642 -10.920
  279XTA    OA422008  -4.210  26.439  -9.634
  279XTA    CO522009  -4.137  26.414  -9.516
  279XTA    HL122010  -4.122  26.315  -9.489
  279XTA    HL222011  -4.288  25.381 -10.051
  279XTA    HL322012  -4.376  25.528 -10.039
  279XTA    HL422013  -4.290  25.499 -10.189
  279XTA    HL522014  -4.062  26.428 -10.614
  279XTA    HL622015  -3.969  26.506 -10.473
  279XTA    HL722016  -3.869  26.449 -10.767
  279XTA    HL822017  -3.781  26.540 -10.651
  279XTA    HL922018  -3.867  26.707 -10.778
  279XTA   HL1022019  -3.962  26.716 -10.632
  279XTA   HL1122020  -4.069  26.751 -10.840
  279XTA   HL1222021  -4.064  26.574 -10.888
  279XTA   HL1322022  -4.211  26.723 -10.675
  279XTA   HL1422023  -4.188  26.544 -10.661
  279XTA   HL1522024  -4.329  26.674 -10.896
  279XTA   HL1622025  -4.286  26.507 -10.886
  279XTA   HL1722026  -4.442  26.701 -10.593
  279XTA   HL1822027  -4.486  26.767 -10.740
  279XTA   HL1922028  -4.834  26.568 -10.765
  279XTA   HL2022029  -4.683  26.473 -10.791
  279XTA   HL2122030  -4.770  26.736 -10.912
  279XTA   HL2222031  -4.758  26.583 -10.999
  279XTA   HL2322032  -4.616  26.659 -10.954
  279XTA   HL2422033  -4.188  26.465  -9.429
  279XTA   HL2522034  -4.035  26.462  -9.525
  279XTA    CO622035  -4.707  26.764 -10.609
  279XTA    CO722036  -4.640  26.539 -10.548
  279XTA    OA522037  -4.713  26.850 -10.683
  279XTA   HL2622038  -4.657  26.808 -10.523
  279XTA   HL2722039  -4.808  26.736 -10.579
  279XTA   HL2822040  -4.777  26.515 -10.506
  279XTA   HL2922041  -4.604  26.448 -10.579
  280XTA     NT22042  -0.840  27.721 -11.268
  280XTA    CN122043  -0.722  27.756 -11.215
  280XTA     C122044  -0.630  27.816 -11.303
  280XTA     C222045  -0.510  27.855 -11.245
  280XTA     C322046  -0.480  27.840 -11.110
  280XTA     C422047  -0.570  27.770 -11.029
  280XTA     C522048  -0.695  27.728 -11.080
  280XTA    CN222049  -0.921  27.821 -11.296
  280XTA     C622050  -1.010  27.878 -11.203
  280XTA     C722051  -1.094  27.985 -11.236
  280XTA     C822052  -1.091  28.043 -11.369
  280XTA     C922053  -0.993  27.997 -11.457
  280XTA    C1022054  -0.915  27.883 -11.429
  280XTA    CN322055  -0.878  27.594 -11.270
  280XTA    C1122056  -0.987  27.542 -11.188
  280XTA    C1222057  -1.025  27.405 -11.197
  280XTA    C1322058  -0.945  27.318 -11.270
  280XTA    C1422059  -0.833  27.368 -11.340
  280XTA    C1522060  -0.798  27.506 -11.341
  280XTA     H122061  -0.648  27.833 -11.406
  280XTA     H222062  -0.431  27.907 -11.311
  280XTA     H322063  -0.547  27.753 -10.926
  280XTA     H422064  -0.769  27.694 -11.014
  280XTA     H522065  -1.010  27.838 -11.100
  280XTA     H622066  -1.160  28.017 -11.157
  280XTA     H722067  -0.990  28.029 -11.559
  280XTA     H822068  -0.863  27.838 -11.508
  280XTA     H922069  -1.039  27.613 -11.132
  280XTA    H1022070  -1.106  27.365 -11.150
  280XTA    H1122071  -0.770  27.304 -11.399
  280XTA    H1222072  -0.700  27.524 -11.380
  280XTA    OA122073  -0.368  27.877 -11.051
  280XTA    CO122074  -0.277  27.762 -11.041
  280XTA    OA222075  -1.179  28.143 -11.411
  280XTA    CO222076  -1.307  28.129 -11.345
  280XTA    CL122077  -1.320  28.226 -11.231
  280XTA    CL222078  -1.466  28.222 -11.169
  280XTA    CL322079  -1.496  28.322 -11.065
  280XTA    CL422080  -1.624  28.283 -10.996
  280XTA    CO322081  -1.611  28.273 -10.842
  280XTA    OA322082  -1.725  28.246 -10.772
  280XTA    CO422083  -1.704  28.182 -10.646
  280XTA    CT122084  -1.825  28.166 -10.555
  280XTA    CL522085  -1.944  28.101 -10.630
  280XTA    CL622086  -2.071  28.044 -10.560
  280XTA    OA422087  -0.982  27.192 -11.267
  280XTA    CO522088  -0.896  27.091 -11.319
  280XTA    HL122089  -0.938  26.993 -11.310
  280XTA    HL222090  -0.258  27.724 -11.146
  280XTA    HL322091  -0.177  27.785 -11.012
  280XTA    HL422092  -0.316  27.674 -10.989
  280XTA    HL522093  -1.386  28.146 -11.416
  280XTA    HL622094  -1.332  28.035 -11.299
  280XTA    HL722095  -1.306  28.330 -11.258
  280XTA    HL822096  -1.248  28.198 -11.149
  280XTA    HL922097  -1.494  28.125 -11.130
  280XTA   HL1022098  -1.531  28.254 -11.253
  280XTA   HL1122099  -1.417  28.322 -10.993
  280XTA   HL1222100  -1.506  28.421 -11.098
  280XTA   HL1322101  -1.670  28.194 -11.039
  280XTA   HL1422102  -1.699  28.354 -11.034
  280XTA   HL1522103  -1.544  28.191 -10.812
  280XTA   HL1622104  -1.574  28.363 -10.795
  280XTA   HL1722105  -1.655  28.085 -10.653
  280XTA   HL1822106  -1.619  28.242 -10.607
  280XTA   HL1922107  -1.910  28.020 -10.692
  280XTA   HL2022108  -1.984  28.173 -10.706
  280XTA   HL2122109  -2.144  28.019 -10.631
  280XTA   HL2222110  -2.107  28.124 -10.493
  280XTA   HL2322111  -2.048  27.954 -10.502
  280XTA   HL2422112  -0.800  27.091 -11.270
  280XTA   HL2522113  -0.877  27.120 -11.421
  280XTA    CO622114  -1.864  28.298 -10.496
  280XTA    CO722115  -1.785  28.075 -10.438
  280XTA    OA522116  -1.936  28.375 -10.588
  280XTA   HL2622117  -1.765  28.341 -10.465
  280XTA   HL2722118  -1.926  28.291 -10.406
  280XTA   HL2822119  -1.787  27.965 -10.470
  280XTA   HL2922120  -1.850  28.074 -10.353
  281XTA     NT22121  -4.922  26.775  -6.539
  281XTA    CN122122  -4.812  26.837  -6.579
  281XTA     C122123  -4.826  26.961  -6.645
  281XTA     C222124  -4.721  27.048  -6.669
  281XTA     C322125  -4.594  27.015  -6.628
  281XTA     C422126  -4.573  26.895  -6.557
  281XTA     C522127  -4.683  26.807  -6.538
  281XTA    CN222128  -4.968  26.780  -6.411
  281XTA     C622129  -4.990  26.907  -6.339
  281XTA     C722130  -5.045  26.899  -6.213
  281XTA     C822131  -5.080  26.772  -6.147
  281XTA     C922132  -5.057  26.648  -6.215
  281XTA    C1022133  -5.008  26.654  -6.348
  281XTA    CN322134  -4.998  26.714  -6.630
  281XTA    C1122135  -5.106  26.777  -6.686
  281XTA    C1222136  -5.193  26.707  -6.780
  281XTA    C1322137  -5.157  26.577  -6.830
  281XTA    C1422138  -5.042  26.518  -6.776
  281XTA    C1522139  -4.960  26.589  -6.685
  281XTA     H122140  -4.924  27.002  -6.666
  281XTA     H222141  -4.749  27.140  -6.715
  281XTA     H322142  -4.475  26.874  -6.516
  281XTA     H422143  -4.664  26.724  -6.471
  281XTA     H522144  -4.966  27.000  -6.392
  281XTA     H622145  -5.045  26.993  -6.166
  281XTA     H722146  -5.089  26.554  -6.169
  281XTA     H822147  -4.982  26.557  -6.393
  281XTA     H922148  -5.129  26.878  -6.646
  281XTA    H1022149  -5.275  26.757  -6.824
  281XTA    H1122150  -5.014  26.421  -6.817
  281XTA    H1222151  -4.873  26.539  -6.657
  281XTA    OA122152  -4.486  27.100  -6.658
  281XTA    CO122153  -4.511  27.236  -6.641
  281XTA    OA222154  -5.132  26.767  -6.020
  281XTA    CO222155  -5.129  26.892  -5.946
  281XTA    CL122156  -5.191  26.863  -5.806
  281XTA    CL222157  -5.349  26.866  -5.802
  281XTA    CL322158  -5.412  26.741  -5.868
  281XTA    CL422159  -5.397  26.608  -5.797
  281XTA    CO322160  -5.487  26.498  -5.850
  281XTA    OA322161  -5.458  26.367  -5.807
  281XTA    CO422162  -5.549  26.274  -5.862
  281XTA    CT122163  -5.507  26.125  -5.845
  281XTA    CL522164  -5.494  26.083  -5.699
  281XTA    CL622165  -5.623  26.041  -5.620
  281XTA    OA422166  -5.213  26.515  -6.947
  281XTA    CO522167  -5.281  26.603  -7.038
  281XTA    HL122168  -5.350  26.664  -6.987
  281XTA    HL222169  -4.533  27.259  -6.539
  281XTA    HL322170  -4.421  27.298  -6.653
  281XTA    HL422171  -4.592  27.265  -6.712
  281XTA    HL522172  -5.029  26.932  -5.926
  281XTA    HL622173  -5.189  26.966  -5.989
  281XTA    HL722174  -5.146  26.936  -5.729
  281XTA    HL822175  -5.162  26.762  -5.779
  281XTA    HL922176  -5.382  26.957  -5.848
  281XTA   HL1022177  -5.386  26.866  -5.698
  281XTA   HL1122178  -5.519  26.766  -5.888
  281XTA   HL1222179  -5.363  26.722  -5.966
  281XTA   HL1322180  -5.420  26.625  -5.695
  281XTA   HL1422181  -5.289  26.573  -5.798
  281XTA   HL1522182  -5.593  26.523  -5.846
  281XTA   HL1622183  -5.484  26.504  -5.962
  281XTA   HL1722184  -5.648  26.305  -5.831
  281XTA   HL1822185  -5.551  26.297  -5.968
  281XTA   HL1922186  -5.446  26.170  -5.642
  281XTA   HL2022187  -5.426  25.999  -5.695
  281XTA   HL2122188  -5.663  25.947  -5.660
  281XTA   HL2222189  -5.694  26.122  -5.620
  281XTA   HL2322190  -5.607  26.015  -5.517
  281XTA   HL2422191  -5.339  26.536  -7.099
  281XTA   HL2522192  -5.215  26.661  -7.097
  281XTA    CO622193  -5.374  26.098  -5.929
  281XTA    CO722194  -5.608  26.043  -5.931
  281XTA    OA522195  -5.562  25.907  -5.937
  281XTA   HL2622196  -5.351  25.991  -5.928
  281XTA   HL2722197  -5.401  26.115  -6.037
  281XTA   HL2822198  -5.613  26.082  -6.030
  281XTA   HL2922199  -5.707  26.048  -5.879
  282XTA     NT22200  -2.748  24.067 -10.351
  282XTA    CN122201  -2.708  24.007 -10.471
  282XTA     C122202  -2.704  23.867 -10.488
  282XTA     C222203  -2.660  23.800 -10.604
  282XTA     C322204  -2.624  23.878 -10.713
  282XTA     C422205  -2.642  24.019 -10.707
  282XTA     C522206  -2.674  24.084 -10.585
  282XTA    CN222207  -2.872  24.027 -10.302
  282XTA     C622208  -2.880  23.937 -10.198
  282XTA     C722209  -3.002  23.897 -10.139
  282XTA     C822210  -3.119  23.953 -10.188
  282XTA     C922211  -3.117  24.047 -10.293
  282XTA    C1022212  -2.992  24.091 -10.344
  282XTA    CN322213  -2.661  24.147 -10.283
  282XTA    C1122214  -2.526  24.121 -10.279
  282XTA    C1222215  -2.439  24.214 -10.218
  282XTA    C1322216  -2.482  24.329 -10.154
  282XTA    C1422217  -2.622  24.353 -10.158
  282XTA    C1522218  -2.710  24.264 -10.225
  282XTA     H122219  -2.724  23.801 -10.405
  282XTA     H222220  -2.662  23.690 -10.606
  282XTA     H322221  -2.639  24.077 -10.793
  282XTA     H422222  -2.681  24.195 -10.574
  282XTA     H522223  -2.780  23.911 -10.164
  282XTA     H622224  -3.011  23.812 -10.072
  282XTA     H722225  -3.209  24.079 -10.341
  282XTA     H822226  -2.989  24.171 -10.422
  282XTA     H922227  -2.489  24.021 -10.315
  282XTA    H1022228  -2.336  24.190 -10.227
  282XTA    H1122229  -2.662  24.441 -10.104
  282XTA    H1222230  -2.821  24.286 -10.225
  282XTA    OA122231  -2.583  23.813 -10.827
  282XTA    CO122232  -2.560  23.893 -10.938
  282XTA    OA222233  -3.236  23.915 -10.128
  282XTA    CO222234  -3.348  24.009 -10.121
  282XTA    CL122235  -3.395  23.981  -9.977
  282XTA    CL222236  -3.507  24.081  -9.931
  282XTA    CL322237  -3.544  24.083  -9.782
  282XTA    CL422238  -3.427  24.119  -9.683
  282XTA    CO322239  -3.465  24.124  -9.533
  282XTA    OA322240  -3.353  24.161  -9.455
  282XTA    CO422241  -3.313  24.067  -9.347
  282XTA    CT122242  -3.194  24.102  -9.257
  282XTA    CL522243  -3.069  24.096  -9.343
  282XTA    CL622244  -2.934  24.094  -9.265
  282XTA    OA422245  -2.392  24.418 -10.105
  282XTA    CO522246  -2.257  24.414 -10.139
  282XTA    HL122247  -2.248  24.422 -10.244
  282XTA    HL222248  -2.538  23.824 -11.020
  282XTA    HL322249  -2.647  23.941 -10.987
  282XTA    HL422250  -2.476  23.957 -10.929
  282XTA    HL522251  -3.325  24.112 -10.147
  282XTA    HL622252  -3.430  23.989 -10.188
  282XTA    HL722253  -3.308  23.987  -9.914
  282XTA    HL822254  -3.440  23.884  -9.969
  282XTA    HL922255  -3.599  24.053  -9.980
  282XTA   HL1022256  -3.466  24.184  -9.947
  282XTA   HL1122257  -3.621  24.159  -9.767
  282XTA   HL1222258  -3.591  23.986  -9.754
  282XTA   HL1322259  -3.397  24.224  -9.712
  282XTA   HL1422260  -3.341  24.053  -9.702
  282XTA   HL1522261  -3.540  24.199  -9.515
  282XTA   HL1622262  -3.513  24.041  -9.485
  282XTA   HL1722263  -3.409  24.048  -9.290
  282XTA   HL1822264  -3.282  23.973  -9.391
  282XTA   HL1922265  -3.071  24.175  -9.417
  282XTA   HL2022266  -3.067  24.002  -9.408
  282XTA   HL2122267  -2.926  23.997  -9.219
  282XTA   HL2222268  -2.932  24.183  -9.188
  282XTA   HL2322269  -2.849  24.110  -9.339
  282XTA   HL2422270  -2.208  24.321 -10.111
  282XTA   HL2522271  -2.209  24.496 -10.103
  282XTA    CO622272  -3.183  24.000  -9.142
  282XTA    CO722273  -3.214  24.233  -9.186
  282XTA    OA522274  -3.165  23.870  -9.200
  282XTA   HL2622275  -3.278  23.998  -9.092
  282XTA   HL2722276  -3.099  24.011  -9.085
  282XTA   HL2822277  -3.117  24.264  -9.149
  282XTA   HL2922278  -3.232  24.307  -9.263
  283XTA     NT22279  -7.626  31.989 -10.935
  283XTA    CN122280  -7.686  32.029 -11.048
  283XTA     C122281  -7.681  31.944 -11.165
  283XTA     C222282  -7.746  31.975 -11.290
  283XTA     C322283  -7.817  32.095 -11.303
  283XTA     C422284  -7.824  32.179 -11.193
  283XTA     C522285  -7.766  32.154 -11.067
  283XTA    CN222286  -7.703  31.910 -10.855
  283XTA     C622287  -7.821  31.955 -10.796
  283XTA     C722288  -7.902  31.869 -10.728
  283XTA     C822289  -7.866  31.733 -10.706
  283XTA     C922290  -7.739  31.683 -10.755
  283XTA    C1022291  -7.660  31.778 -10.828
  283XTA    CN322292  -7.518  32.049 -10.883
  283XTA    C1122293  -7.521  32.164 -10.806
  283XTA    C1222294  -7.405  32.233 -10.770
  283XTA    C1322295  -7.280  32.183 -10.816
  283XTA    C1422296  -7.276  32.072 -10.897
  283XTA    C1522297  -7.393  32.000 -10.931
  283XTA     H122298  -7.626  31.850 -11.161
  283XTA     H222299  -7.736  31.904 -11.369
  283XTA     H322300  -7.876  32.281 -11.198
  283XTA     H422301  -7.780  32.230 -10.993
  283XTA     H522302  -7.849  32.052 -10.812
  283XTA     H622303  -8.001  31.911 -10.701
  283XTA     H722304  -7.708  31.580 -10.744
  283XTA     H822305  -7.575  31.733 -10.864
  283XTA     H922306  -7.617  32.202 -10.776
  283XTA    H1022307  -7.406  32.314 -10.705
  283XTA    H1122308  -7.176  32.041 -10.938
  283XTA    H1222309  -7.380  31.907 -10.994
  283XTA    OA122310  -7.868  32.146 -11.421
  283XTA    CO122311  -7.831  32.075 -11.540
  283XTA    OA222312  -7.949  31.648 -10.631
  283XTA    CO222313  -7.920  31.517 -10.591
  283XTA    CL122314  -7.836  31.507 -10.466
  283XTA    CL222315  -7.838  31.380 -10.392
  283XTA    CL322316  -7.768  31.257 -10.456
  283XTA    CL422317  -7.753  31.138 -10.358
  283XTA    CO322318  -7.735  31.007 -10.443
  283XTA    OA322319  -7.625  31.008 -10.538
  283XTA    CO422320  -7.499  31.035 -10.477
  283XTA    CT122321  -7.387  31.086 -10.581
  283XTA    CL522322  -7.427  31.212 -10.658
  283XTA    CL622323  -7.417  31.344 -10.575
  283XTA    OA422324  -7.155  32.228 -10.774
  283XTA    CO522325  -7.157  32.335 -10.681
  283XTA    HL122326  -7.214  32.298 -10.599
  283XTA    HL222327  -7.896  32.112 -11.615
  283XTA    HL322328  -7.723  32.092 -11.555
  283XTA    HL422329  -7.859  31.967 -11.513
  283XTA    HL522330  -8.021  31.478 -10.571
  283XTA    HL622331  -7.875  31.466 -10.672
  283XTA    HL722332  -7.875  31.582 -10.401
  283XTA    HL822333  -7.739  31.529 -10.509
  283XTA    HL922334  -7.942  31.349 -10.371
  283XTA   HL1022335  -7.786  31.393 -10.300
  283XTA   HL1122336  -7.833  31.245 -10.538
  283XTA   HL1222337  -7.666  31.275 -10.490
  283XTA   HL1322338  -7.853  31.123 -10.310
  283XTA   HL1422339  -7.673  31.150 -10.283
  283XTA   HL1522340  -7.714  30.926 -10.375
  283XTA   HL1622341  -7.829  30.976 -10.477
  283XTA   HL1722342  -7.499  31.107 -10.391
  283XTA   HL1822343  -7.457  30.936 -10.440
  283XTA   HL1922344  -7.535  31.191 -10.692
  283XTA   HL2022345  -7.371  31.225 -10.748
  283XTA   HL2122346  -7.469  31.336 -10.474
  283XTA   HL2222347  -7.476  31.416 -10.636
  283XTA   HL2322348  -7.324  31.385 -10.550
  283XTA   HL2422349  -7.200  32.429 -10.716
  283XTA   HL2522350  -7.057  32.356 -10.643
  283XTA    CO622351  -7.357  30.977 -10.681
  283XTA    CO722352  -7.251  31.112 -10.510
  283XTA    OA522353  -7.263  31.201 -10.401
  283XTA   HL2622354  -7.446  30.955 -10.747
  283XTA   HL2722355  -7.345  30.878 -10.642
  283XTA   HL2822356  -7.173  31.161 -10.577
  283XTA   HL2922357  -7.202  31.024 -10.468
  284XTA     NT22358  -3.092  28.100  -9.168
  284XTA    CN122359  -3.178  28.028  -9.098
  284XTA     C122360  -3.292  27.976  -9.163
  284XTA     C222361  -3.386  27.909  -9.084
  284XTA     C322362  -3.364  27.878  -8.949
  284XTA     C422363  -3.246  27.935  -8.886
  284XTA     C522364  -3.155  28.010  -8.961
  284XTA    CN222365  -3.138  28.211  -9.233
  284XTA     C622366  -3.168  28.323  -9.160
  284XTA     C722367  -3.211  28.438  -9.228
  284XTA     C822368  -3.225  28.442  -9.370
  284XTA     C922369  -3.198  28.329  -9.443
  284XTA    C1022370  -3.150  28.219  -9.370
  284XTA    CN322371  -2.962  28.065  -9.187
  284XTA    C1122372  -2.863  28.130  -9.115
  284XTA    C1222373  -2.728  28.096  -9.137
  284XTA    C1322374  -2.690  27.997  -9.225
  284XTA    C1422375  -2.784  27.938  -9.306
  284XTA    C1522376  -2.920  27.972  -9.286
  284XTA     H122377  -3.321  27.994  -9.270
  284XTA     H222378  -3.478  27.875  -9.134
  284XTA     H322379  -3.215  27.920  -8.783
  284XTA     H422380  -3.062  28.048  -8.930
  284XTA     H522381  -3.162  28.329  -9.054
  284XTA     H622382  -3.237  28.520  -9.159
  284XTA     H722383  -3.208  28.328  -9.548
  284XTA     H822384  -3.129  28.126  -9.423
  284XTA     H922385  -2.881  28.199  -9.036
  284XTA    H1022386  -2.661  28.151  -9.073
  284XTA    H1122387  -2.757  27.863  -9.379
  284XTA    H1222388  -2.989  27.929  -9.353
  284XTA    OA122389  -3.442  27.782  -8.887
  284XTA    CO122390  -3.393  27.751  -8.759
  284XTA    OA222391  -3.267  28.554  -9.425
  284XTA    CO222392  -3.400  28.549  -9.478
  284XTA    CL122393  -3.435  28.674  -9.554
  284XTA    CL222394  -3.538  28.644  -9.656
  284XTA    CL322395  -3.615  28.770  -9.702
  284XTA    CL422396  -3.740  28.714  -9.769
  284XTA    CO322397  -3.850  28.819  -9.793
  284XTA    OA322398  -3.802  28.907  -9.893
  284XTA    CO422399  -3.816  28.847 -10.027
  284XTA    CT122400  -3.856  28.950 -10.138
  284XTA    CL522401  -3.975  29.044 -10.100
  284XTA    CL622402  -4.111  28.977 -10.082
  284XTA    OA422403  -2.558  27.969  -9.239
  284XTA    CO522404  -2.528  27.843  -9.289
  284XTA    HL122405  -2.416  27.819  -9.286
  284XTA    HL222406  -3.448  27.673  -8.713
  284XTA    HL322407  -3.299  27.703  -8.762
  284XTA    HL422408  -3.380  27.832  -8.685
  284XTA    HL522409  -3.417  28.468  -9.544
  284XTA    HL622410  -3.469  28.521  -9.399
  284XTA    HL722411  -3.346  28.721  -9.604
  284XTA    HL822412  -3.480  28.735  -9.478
  284XTA    HL922413  -3.612  28.575  -9.622
  284XTA   HL1022414  -3.498  28.597  -9.755
  284XTA   HL1122415  -3.646  28.818  -9.612
  284XTA   HL1222416  -3.563  28.835  -9.770
  284XTA   HL1322417  -3.782  28.640  -9.695
  284XTA   HL1422418  -3.714  28.658  -9.866
  284XTA   HL1522419  -3.945  28.766  -9.813
  284XTA   HL1622420  -3.856  28.872  -9.700
  284XTA   HL1722421  -3.717  28.808 -10.045
  284XTA   HL1822422  -3.893  28.772 -10.017
  284XTA   HL1922423  -3.970  29.111 -10.184
  284XTA   HL2022424  -3.956  29.097 -10.008
  284XTA   HL2122425  -4.147  28.944 -10.179
  284XTA   HL2222426  -4.195  29.039 -10.051
  284XTA   HL2322427  -4.118  28.904 -10.002
  284XTA   HL2422428  -2.536  27.824  -9.397
  284XTA   HL2522429  -2.577  27.767  -9.216
  284XTA    CO622430  -3.872  28.868 -10.261
  284XTA    CO722431  -3.725  29.035 -10.154
  284XTA    OA522432  -3.776  28.770 -10.267
  284XTA   HL2622433  -3.868  28.924 -10.347
  284XTA   HL2722434  -3.961  28.824 -10.269
  284XTA   HL2822435  -3.638  28.962 -10.161
  284XTA   HL2922436  -3.728  29.098 -10.243
  285XTA     NT22437  -2.990  25.486  -5.661
  285XTA    CN122438  -2.898  25.491  -5.764
  285XTA     C122439  -2.942  25.489  -5.897
  285XTA     C222440  -2.853  25.500  -6.005
  285XTA     C322441  -2.716  25.508  -5.986
  285XTA     C422442  -2.670  25.517  -5.851
  285XTA     C522443  -2.762  25.505  -5.739
  285XTA    CN222444  -2.979  25.377  -5.586
  285XTA     C622445  -2.923  25.384  -5.460
  285XTA     C722446  -2.904  25.273  -5.377
  285XTA     C822447  -2.951  25.144  -5.417
  285XTA     C922448  -3.012  25.135  -5.544
  285XTA    C1022449  -3.026  25.249  -5.626
  285XTA    CN322450  -3.086  25.578  -5.635
  285XTA    C1122451  -3.221  25.545  -5.629
  285XTA    C1222452  -3.321  25.647  -5.606
  285XTA    C1322453  -3.283  25.777  -5.581
  285XTA    C1422454  -3.148  25.812  -5.589
  285XTA    C1522455  -3.051  25.711  -5.613
  285XTA     H122456  -3.046  25.469  -5.908
  285XTA     H222457  -2.906  25.500  -6.096
  285XTA     H322458  -2.563  25.512  -5.838
  285XTA     H422459  -2.727  25.502  -5.636
  285XTA     H522460  -2.873  25.478  -5.434
  285XTA     H622461  -2.865  25.296  -5.276
  285XTA     H722462  -3.045  25.041  -5.582
  285XTA     H822463  -3.062  25.236  -5.729
  285XTA     H922464  -3.249  25.439  -5.647
  285XTA    H1022465  -3.417  25.621  -5.594
  285XTA    H1122466  -3.103  25.910  -5.584
  285XTA    H1222467  -2.948  25.741  -5.626
  285XTA    OA122468  -2.632  25.512  -6.091
  285XTA    CO122469  -2.687  25.498  -6.223
  285XTA    OA222470  -2.933  25.025  -5.349
  285XTA    CO222471  -2.823  25.024  -5.270
  285XTA    CL122472  -2.804  24.879  -5.214
  285XTA    CL222473  -2.921  24.834  -5.128
  285XTA    CL322474  -2.902  24.700  -5.074
  285XTA    CL422475  -2.997  24.664  -4.963
  285XTA    CO322476  -3.148  24.688  -4.993
  285XTA    OA322477  -3.215  24.652  -4.879
  285XTA    CO422478  -3.221  24.742  -4.772
  285XTA    CT122479  -3.333  24.701  -4.677
  285XTA    CL522480  -3.467  24.692  -4.754
  285XTA    CL622481  -3.584  24.646  -4.654
  285XTA    OA422482  -3.371  25.879  -5.543
  285XTA    CO522483  -3.507  25.840  -5.528
  285XTA    HL122484  -3.517  25.751  -5.467
  285XTA    HL222485  -2.739  25.589  -6.260
  285XTA    HL322486  -2.607  25.481  -6.290
  285XTA    HL422487  -2.763  25.418  -6.226
  285XTA    HL522488  -2.736  25.050  -5.331
  285XTA    HL622489  -2.823  25.100  -5.189
  285XTA    HL722490  -2.713  24.874  -5.154
  285XTA    HL822491  -2.787  24.812  -5.300
  285XTA    HL922492  -3.009  24.825  -5.196
  285XTA   HL1022493  -2.938  24.908  -5.049
  285XTA   HL1122494  -2.923  24.631  -5.150
  285XTA   HL1222495  -2.801  24.688  -5.044
  285XTA   HL1322496  -2.959  24.715  -4.876
  285XTA   HL1422497  -3.006  24.561  -4.929
  285XTA   HL1522498  -3.154  24.795  -4.996
  285XTA   HL1622499  -3.174  24.631  -5.079
  285XTA   HL1722500  -3.124  24.742  -4.723
  285XTA   HL1822501  -3.242  24.844  -4.795
  285XTA   HL1922502  -3.449  24.612  -4.830
  285XTA   HL2022503  -3.492  24.782  -4.803
  285XTA   HL2122504  -3.595  24.724  -4.582
  285XTA   HL2222505  -3.565  24.554  -4.607
  285XTA   HL2322506  -3.672  24.659  -4.706
  285XTA   HL2422507  -3.545  25.823  -5.626
  285XTA   HL2522508  -3.561  25.917  -5.480
  285XTA    CO622509  -3.340  24.805  -4.563
  285XTA    CO722510  -3.293  24.573  -4.607
  285XTA    OA522511  -3.296  24.457  -4.696
  285XTA   HL2622512  -3.410  24.769  -4.489
  285XTA   HL2722513  -3.392  24.896  -4.599
  285XTA   HL2822514  -3.357  24.550  -4.523
  285XTA   HL2922515  -3.186  24.587  -4.579
  286XTA     NT22516  -6.972  25.486  -7.116
  286XTA    CN122517  -6.992  25.406  -7.013
  286XTA     C122518  -6.990  25.264  -7.033
  286XTA     C222519  -7.024  25.181  -6.927
  286XTA     C322520  -7.046  25.235  -6.796
  286XTA     C422521  -7.036  25.375  -6.779
  286XTA     C522522  -7.019  25.459  -6.887
  286XTA    CN222523  -7.075  25.513  -7.197
  286XTA     C622524  -7.193  25.579  -7.155
  286XTA     C722525  -7.301  25.601  -7.244
  286XTA     C822526  -7.284  25.565  -7.373
  286XTA     C922527  -7.163  25.502  -7.415
  286XTA    C1022528  -7.052  25.476  -7.332
  286XTA    CN322529  -6.855  25.543  -7.137
  286XTA    C1122530  -6.751  25.467  -7.178
  286XTA    C1222531  -6.631  25.532  -7.222
  286XTA    C1322532  -6.611  25.667  -7.220
  286XTA    C1422533  -6.717  25.747  -7.173
  286XTA    C1522534  -6.832  25.680  -7.133
  286XTA     H122535  -6.961  25.222  -7.128
  286XTA     H222536  -7.026  25.075  -6.951
  286XTA     H322537  -7.053  25.418  -6.680
  286XTA     H422538  -7.003  25.561  -6.865
  286XTA     H522539  -7.202  25.596  -7.049
  286XTA     H622540  -7.397  25.653  -7.216
  286XTA     H722541  -7.144  25.471  -7.517
  286XTA     H822542  -6.964  25.424  -7.373
  286XTA     H922543  -6.753  25.360  -7.194
  286XTA    H1022544  -6.555  25.470  -7.264
  286XTA    H1122545  -6.702  25.847  -7.147
  286XTA    H1222546  -6.919  25.730  -7.111
  286XTA    OA122547  -7.082  25.146  -6.698
  286XTA    CO122548  -7.032  25.181  -6.567
  286XTA    OA222549  -7.378  25.586  -7.463
  286XTA    CO222550  -7.340  25.600  -7.595
  286XTA    CL122551  -7.450  25.673  -7.677
  286XTA    CL222552  -7.396  25.695  -7.824
  286XTA    CL322553  -7.259  25.766  -7.825
  286XTA    CL422554  -7.201  25.785  -7.963
  286XTA    CO322555  -7.057  25.822  -7.970
  286XTA    OA322556  -7.019  25.925  -7.883
  286XTA    CO422557  -7.095  26.043  -7.891
  286XTA    CT122558  -7.074  26.145  -7.778
  286XTA    CL522559  -7.132  26.085  -7.647
  286XTA    CL622560  -7.045  25.977  -7.580
  286XTA    OA422561  -6.489  25.717  -7.249
  286XTA    CO522562  -6.465  25.850  -7.212
  286XTA    HL122563  -6.514  25.912  -7.286
  286XTA    HL222564  -7.063  25.111  -6.493
  286XTA    HL322565  -6.926  25.191  -6.554
  286XTA    HL422566  -7.074  25.281  -6.536
  286XTA    HL522567  -7.254  25.666  -7.597
  286XTA    HL622568  -7.326  25.499  -7.644
  286XTA    HL722569  -7.476  25.775  -7.626
  286XTA    HL822570  -7.539  25.618  -7.697
  286XTA    HL922571  -7.475  25.753  -7.873
  286XTA   HL1022572  -7.386  25.598  -7.872
  286XTA   HL1122573  -7.261  25.858  -7.762
  286XTA   HL1222574  -7.192  25.688  -7.786
  286XTA   HL1322575  -7.245  25.872  -8.009
  286XTA   HL1422576  -7.218  25.701  -8.029
  286XTA   HL1522577  -6.989  25.734  -7.950
  286XTA   HL1622578  -7.037  25.850  -8.073
  286XTA   HL1722579  -7.090  26.083  -7.994
  286XTA   HL1822580  -7.204  26.027  -7.892
  286XTA   HL1922581  -7.224  26.040  -7.676
  286XTA   HL2022582  -7.142  26.163  -7.571
  286XTA   HL2122583  -6.949  26.004  -7.545
  286XTA   HL2222584  -7.027  25.896  -7.649
  286XTA   HL2322585  -7.099  25.936  -7.494
  286XTA   HL2422586  -6.355  25.858  -7.218
  286XTA   HL2522587  -6.491  25.893  -7.110
  286XTA    CO622588  -7.137  26.278  -7.813
  286XTA    CO722589  -6.916  26.185  -7.767
  286XTA    OA522590  -7.281  26.284  -7.806
  286XTA   HL2622591  -7.105  26.305  -7.915
  286XTA   HL2722592  -7.085  26.350  -7.752
  286XTA   HL2822593  -6.860  26.095  -7.733
  286XTA   HL2922594  -6.911  26.254  -7.683
  287XTA     NT22595  -2.380  29.563  -7.070
  287XTA    CN122596  -2.393  29.439  -7.006
  287XTA     C122597  -2.484  29.424  -6.901
  287XTA     C222598  -2.495  29.300  -6.842
  287XTA     C322599  -2.422  29.191  -6.891
  287XTA     C422600  -2.331  29.203  -6.996
  287XTA     C522601  -2.317  29.331  -7.047
  287XTA    CN222602  -2.356  29.673  -6.997
  287XTA     C622603  -2.224  29.713  -6.966
  287XTA     C722604  -2.193  29.830  -6.887
  287XTA     C822605  -2.303  29.899  -6.830
  287XTA     C922606  -2.433  29.848  -6.853
  287XTA    C1022607  -2.461  29.741  -6.939
  287XTA    CN322608  -2.393  29.580  -7.202
  287XTA    C1122609  -2.509  29.636  -7.261
  287XTA    C1222610  -2.517  29.666  -7.401
  287XTA    C1322611  -2.403  29.639  -7.481
  287XTA    C1422612  -2.291  29.581  -7.420
  287XTA    C1522613  -2.285  29.560  -7.286
  287XTA     H122614  -2.532  29.510  -6.856
  287XTA     H222615  -2.556  29.300  -6.753
  287XTA     H322616  -2.275  29.120  -7.030
  287XTA     H422617  -2.256  29.336  -7.129
  287XTA     H522618  -2.137  29.654  -6.992
  287XTA     H622619  -2.088  29.858  -6.877
  287XTA     H722620  -2.514  29.902  -6.806
  287XTA     H822621  -2.569  29.728  -6.972
  287XTA     H922622  -2.593  29.654  -7.200
  287XTA    H1022623  -2.619  29.708  -7.431
  287XTA    H1122624  -2.200  29.546  -7.480
  287XTA    H1222625  -2.194  29.521  -7.238
  287XTA    OA122626  -2.440  29.066  -6.840
  287XTA    CO122627  -2.554  29.003  -6.881
  287XTA    OA222628  -2.295  30.017  -6.762
  287XTA    CO222629  -2.165  30.070  -6.721
  287XTA    CL122630  -2.095  29.976  -6.618
  287XTA    CL222631  -1.952  30.020  -6.592
  287XTA    CL322632  -1.871  29.893  -6.552
  287XTA    CL422633  -1.720  29.913  -6.578
  287XTA    CO322634  -1.633  29.789  -6.581
  287XTA    OA322635  -1.694  29.695  -6.676
  287XTA    CO422636  -1.634  29.710  -6.814
  287XTA    CT122637  -1.744  29.684  -6.927
  287XTA    CL522638  -1.824  29.813  -6.940
  287XTA    CL622639  -1.764  29.940  -7.001
  287XTA    OA422640  -2.416  29.688  -7.610
  287XTA    CO522641  -2.305  29.655  -7.693
  287XTA    HL122642  -2.265  29.554  -7.684
  287XTA    HL222643  -2.633  29.060  -6.844
  287XTA    HL322644  -2.562  29.002  -6.990
  287XTA    HL422645  -2.568  28.908  -6.829
  287XTA    HL522646  -2.100  30.075  -6.810
  287XTA    HL622647  -2.195  30.171  -6.684
  287XTA    HL722648  -2.091  29.883  -6.667
  287XTA    HL822649  -2.153  29.961  -6.527
  287XTA    HL922650  -1.956  30.102  -6.517
  287XTA   HL1022651  -1.907  30.066  -6.678
  287XTA   HL1122652  -1.893  29.864  -6.445
  287XTA   HL1222653  -1.898  29.802  -6.602
  287XTA   HL1322654  -1.683  29.980  -6.499
  287XTA   HL1422655  -1.713  29.967  -6.667
  287XTA   HL1522656  -1.527  29.803  -6.602
  287XTA   HL1622657  -1.642  29.740  -6.483
  287XTA   HL1722658  -1.598  29.814  -6.831
  287XTA   HL1822659  -1.545  29.642  -6.822
  287XTA   HL1922660  -1.870  29.831  -6.841
  287XTA   HL2022661  -1.924  29.805  -6.992
  287XTA   HL2122662  -1.684  29.976  -6.944
  287XTA   HL2222663  -1.845  30.008  -7.015
  287XTA   HL2322664  -1.731  29.916  -7.101
  287XTA   HL2422665  -2.227  29.720  -7.644
  287XTA   HL2522666  -2.320  29.677  -7.799
  287XTA    CO622667  -1.829  29.563  -6.898
  287XTA    CO722668  -1.667  29.672  -7.052
  287XTA    OA522669  -1.748  29.672  -7.169
  287XTA   HL2622670  -1.828  29.555  -6.796
  287XTA   HL2722671  -1.929  29.589  -6.929
  287XTA   HL2822672  -1.612  29.580  -7.037
  287XTA   HL2922673  -1.602  29.762  -7.053
  288XTA     NT22674  -2.116  30.095  -8.994
  288XTA    CN122675  -2.040  30.165  -8.915
  288XTA     C122676  -1.921  30.120  -8.859
  288XTA     C222677  -1.850  30.194  -8.762
  288XTA     C322678  -1.889  30.324  -8.719
  288XTA     C422679  -2.014  30.368  -8.767
  288XTA     C522680  -2.084  30.293  -8.864
  288XTA    CN222681  -2.146  29.972  -8.954
  288XTA     C622682  -2.092  29.852  -9.008
  288XTA     C722683  -2.140  29.729  -8.957
  288XTA     C822684  -2.236  29.721  -8.855
  288XTA     C922685  -2.289  29.840  -8.805
  288XTA    C1022686  -2.246  29.962  -8.854
  288XTA    CN322687  -2.146  30.140  -9.118
  288XTA    C1122688  -2.048  30.140  -9.222
  288XTA    C1222689  -2.076  30.160  -9.363
  288XTA    C1322690  -2.212  30.193  -9.398
  288XTA    C1422691  -2.307  30.204  -9.294
  288XTA    C1522692  -2.275  30.169  -9.163
  288XTA     H122693  -1.884  30.020  -8.870
  288XTA     H222694  -1.771  30.142  -8.706
  288XTA     H322695  -2.053  30.465  -8.732
  288XTA     H422696  -2.182  30.327  -8.893
  288XTA     H522697  -2.011  29.856  -9.074
  288XTA     H622698  -2.105  29.635  -9.003
  288XTA     H722699  -2.371  29.836  -8.742
  288XTA     H822700  -2.290  30.059  -8.818
  288XTA     H922701  -1.944  30.122  -9.185
  288XTA    H1022702  -1.996  30.153  -9.434
  288XTA    H1122703  -2.403  30.239  -9.311
  288XTA    H1222704  -2.359  30.162  -9.095
  288XTA    OA122705  -1.818  30.402  -8.628
  288XTA    CO122706  -1.691  30.363  -8.596
  288XTA    OA222707  -2.283  29.599  -8.811
  288XTA    CO222708  -2.314  29.588  -8.674
  288XTA    CL122709  -2.185  29.596  -8.589
  288XTA    CL222710  -2.084  29.496  -8.635
  288XTA    CL322711  -1.971  29.488  -8.535
  288XTA    CL422712  -1.844  29.410  -8.587
  288XTA    CO322713  -1.866  29.264  -8.568
  288XTA    OA322714  -1.869  29.236  -8.431
  288XTA    CO422715  -1.913  29.101  -8.395
  288XTA    CT122716  -1.973  29.095  -8.257
  288XTA    CL522717  -2.059  28.970  -8.231
  288XTA    CL622718  -1.985  28.838  -8.228
  288XTA    OA422719  -2.231  30.232  -9.531
  288XTA    CO522720  -2.325  30.336  -9.547
  288XTA    HL122721  -2.423  30.288  -9.525
  288XTA    HL222722  -1.688  30.263  -8.548
  288XTA    HL322723  -1.627  30.367  -8.685
  288XTA    HL422724  -1.646  30.430  -8.518
  288XTA    HL522725  -2.383  29.666  -8.649
  288XTA    HL622726  -2.358  29.490  -8.650
  288XTA    HL722727  -2.206  29.577  -8.484
  288XTA    HL822728  -2.145  29.696  -8.582
  288XTA    HL922729  -2.041  29.531  -8.731
  288XTA   HL1022730  -2.132  29.398  -8.632
  288XTA   HL1122731  -1.932  29.589  -8.515
  288XTA   HL1222732  -2.013  29.452  -8.439
  288XTA   HL1322733  -1.762  29.433  -8.523
  288XTA   HL1422734  -1.819  29.437  -8.687
  288XTA   HL1522735  -1.959  29.232  -8.611
  288XTA   HL1622736  -1.792  29.211  -8.621
  288XTA   HL1722737  -1.992  29.075  -8.473
  288XTA   HL1822738  -1.829  29.029  -8.402
  288XTA   HL1922739  -2.151  28.968  -8.283
  288XTA   HL2022740  -2.102  28.982  -8.128
  288XTA   HL2122741  -1.900  28.835  -8.292
  288XTA   HL2222742  -2.044  28.747  -8.246
  288XTA   HL2322743  -1.950  28.834  -8.128
  288XTA   HL2422744  -2.336  30.376  -9.643
  288XTA   HL2522745  -2.317  30.428  -9.486
  288XTA    CO622746  -2.074  29.212  -8.257
  288XTA    CO722747  -1.857  29.122  -8.151
  288XTA    OA522748  -2.150  29.238  -8.141
  288XTA   HL2622749  -2.146  29.187  -8.331
  288XTA   HL2722750  -2.029  29.312  -8.289
  288XTA   HL2822751  -1.785  29.181  -8.206
  288XTA   HL2922752  -1.897  29.200  -8.082
  289XTA     NT22753  -6.742  29.667  -9.954
  289XTA    CN122754  -6.620  29.684  -9.898
  289XTA     C122755  -6.517  29.752  -9.969
  289XTA     C222756  -6.391  29.771  -9.908
  289XTA     C322757  -6.368  29.725  -9.775
  289XTA     C422758  -6.476  29.673  -9.701
  289XTA     C522759  -6.606  29.656  -9.762
  289XTA    CN222760  -6.791  29.543  -9.973
  289XTA     C622761  -6.877  29.483  -9.882
  289XTA     C722762  -6.947  29.370  -9.923
  289XTA     C822763  -6.924  29.305 -10.048
  289XTA     C922764  -6.827  29.359 -10.130
  289XTA    C1022765  -6.754  29.479 -10.093
  289XTA    CN322766  -6.832  29.773  -9.982
  289XTA    C1122767  -6.940  29.788  -9.897
  289XTA    C1222768  -7.039  29.884  -9.924
  289XTA    C1322769  -7.027  29.967 -10.032
  289XTA    C1422770  -6.916  29.959 -10.120
  289XTA    C1522771  -6.819  29.853 -10.098
  289XTA     H122772  -6.523  29.793 -10.064
  289XTA     H222773  -6.320  29.828  -9.965
  289XTA     H322774  -6.475  29.651  -9.598
  289XTA     H422775  -6.697  29.623  -9.698
  289XTA     H522776  -6.905  29.525  -9.787
  289XTA     H622777  -7.015  29.324  -9.853
  289XTA     H722778  -6.823  29.317 -10.233
  289XTA     H822779  -6.684  29.514 -10.168
  289XTA     H922780  -6.945  29.724  -9.808
  289XTA    H1022781  -7.125  29.891  -9.859
  289XTA    H1122782  -6.908  30.023 -10.208
  289XTA    H1222783  -6.723  29.852 -10.151
  289XTA    OA122784  -6.239  29.750  -9.723
  289XTA    CO122785  -6.223  29.746  -9.584
  289XTA    OA222786  -6.995  29.198 -10.102
  289XTA    CO222787  -7.090  29.132 -10.015
  289XTA    CL122788  -7.012  29.051  -9.909
  289XTA    CL222789  -7.106  28.998  -9.814
  289XTA    CL322790  -7.235  28.934  -9.869
  289XTA    CL422791  -7.335  28.912  -9.754
  289XTA    CO322792  -7.476  28.882  -9.808
  289XTA    OA322793  -7.488  28.760  -9.872
  289XTA    CO422794  -7.602  28.743  -9.949
  289XTA    CT122795  -7.594  28.629 -10.046
  289XTA    CL522796  -7.726  28.620 -10.123
  289XTA    CL622797  -7.845  28.569 -10.040
  289XTA    OA422798  -7.128  30.059 -10.064
  289XTA    CO522799  -7.257  30.035 -10.008
  289XTA    HL122800  -7.327  30.114 -10.035
  289XTA    HL222801  -6.278  29.819  -9.524
  289XTA    HL322802  -6.246  29.649  -9.539
  289XTA    HL422803  -6.117  29.756  -9.573
  289XTA    HL522804  -7.160  29.204  -9.971
  289XTA    HL622805  -7.139  29.054 -10.070
  289XTA    HL722806  -6.947  29.113  -9.850
  289XTA    HL822807  -6.976  28.967  -9.958
  289XTA    HL922808  -7.140  29.082  -9.745
  289XTA   HL1022809  -7.047  28.931  -9.747
  289XTA   HL1122810  -7.282  28.991  -9.946
  289XTA   HL1222811  -7.208  28.837  -9.911
  289XTA   HL1322812  -7.354  29.003  -9.703
  289XTA   HL1422813  -7.300  28.831  -9.689
  289XTA   HL1522814  -7.550  28.877  -9.726
  289XTA   HL1622815  -7.502  28.955  -9.886
  289XTA   HL1722816  -7.689  28.736  -9.887
  289XTA   HL1822817  -7.610  28.838 -10.003
  289XTA   HL1922818  -7.711  28.571 -10.217
  289XTA   HL2022819  -7.750  28.723 -10.154
  289XTA   HL2122820  -7.854  28.606  -9.940
  289XTA   HL2222821  -7.842  28.458 -10.039
  289XTA   HL2322822  -7.937  28.597 -10.084
  289XTA   HL2422823  -7.259  30.031  -9.898
  289XTA   HL2522824  -7.311  29.946 -10.046
  289XTA    CO622825  -7.551  28.505  -9.969
  289XTA    CO722826  -7.483  28.660 -10.145
  289XTA    OA522827  -7.555  28.413 -10.040
  289XTA   HL2622828  -7.615  28.495  -9.886
  289XTA   HL2722829  -7.446  28.511  -9.931
  289XTA   HL2822830  -7.359  28.651 -10.068
  289XTA   HL2922831  -7.480  28.570 -10.211
  290XTA     NT22832  -9.252  29.602 -11.108
  290XTA    CN122833  -9.370  29.626 -11.173
  290XTA     C122834  -9.422  29.524 -11.255
  290XTA     C222835  -9.553  29.542 -11.304
  290XTA     C322836  -9.629  29.661 -11.284
  290XTA     C422837  -9.571  29.759 -11.197
  290XTA     C522838  -9.443  29.739 -11.140
  290XTA    CN222839  -9.241  29.503 -11.007
  290XTA     C622840  -9.219  29.544 -10.869
  290XTA     C722841  -9.187  29.447 -10.771
  290XTA     C822842  -9.172  29.313 -10.806
  290XTA     C922843  -9.203  29.275 -10.942
  290XTA    C1022844  -9.239  29.368 -11.040
  290XTA    CN322845  -9.136  29.655 -11.155
  290XTA    C1122846  -9.087  29.778 -11.102
  290XTA    C1222847  -8.975  29.841 -11.164
  290XTA    C1322848  -8.907  29.779 -11.266
  290XTA    C1422849  -8.958  29.661 -11.324
  290XTA    C1522850  -9.078  29.604 -11.276
  290XTA     H122851  -9.365  29.438 -11.284
  290XTA     H222852  -9.591  29.469 -11.373
  290XTA     H322853  -9.623  29.851 -11.177
  290XTA     H422854  -9.394  29.821 -11.083
  290XTA     H522855  -9.222  29.649 -10.843
  290XTA     H622856  -9.168  29.479 -10.670
  290XTA     H722857  -9.191  29.176 -10.974
  290XTA     H822858  -9.254  29.334 -11.144
  290XTA     H922859  -9.135  29.819 -11.015
  290XTA    H1022860  -8.937  29.937 -11.135
  290XTA    H1122861  -8.900  29.622 -11.414
  290XTA    H1222862  -9.114  29.519 -11.317
  290XTA    OA122863  -9.749  29.688 -11.347
  290XTA    CO122864  -9.818  29.583 -11.416
  290XTA    OA222865  -9.142  29.225 -10.704
  290XTA    CO222866  -9.116  29.088 -10.743
  290XTA    CL122867  -9.057  29.020 -10.624
  290XTA    CL222868  -8.988  28.885 -10.662
  290XTA    CL322869  -9.087  28.776 -10.694
  290XTA    CL422870  -9.136  28.772 -10.840
  290XTA    CO322871  -9.232  28.653 -10.869
  290XTA    OA322872  -9.334  28.656 -10.773
  290XTA    CO422873  -9.430  28.550 -10.790
  290XTA    CT122874  -9.514  28.546 -10.658
  290XTA    CL522875  -9.565  28.692 -10.637
  290XTA    CL622876  -9.669  28.711 -10.526
  290XTA    OA422877  -8.788  29.835 -11.305
  290XTA    CO522878  -8.723  29.782 -11.420
  290XTA    HL122879  -8.631  29.832 -11.427
  290XTA    HL222880  -9.775  29.565 -11.508
  290XTA    HL322881  -9.829  29.502 -11.344
  290XTA    HL422882  -9.920  29.616 -11.423
  290XTA    HL522883  -9.211  29.032 -10.753
  290XTA    HL622884  -9.050  29.083 -10.835
  290XTA    HL722885  -9.129  28.999 -10.551
  290XTA    HL822886  -8.980  29.091 -10.583
  290XTA    HL922887  -8.940  28.851 -10.571
  290XTA   HL1022888  -8.908  28.897 -10.735
  290XTA   HL1122889  -9.025  28.682 -10.676
  290XTA   HL1222890  -9.168  28.780 -10.624
  290XTA   HL1322891  -9.050  28.749 -10.904
  290XTA   HL1422892  -9.174  28.867 -10.876
  290XTA   HL1522893  -9.264  28.645 -10.974
  290XTA   HL1622894  -9.178  28.560 -10.853
  290XTA   HL1722895  -9.489  28.571 -10.879
  290XTA   HL1822896  -9.383  28.451 -10.807
  290XTA   HL1922897  -9.595  28.721 -10.741
  290XTA   HL2022898  -9.473  28.750 -10.621
  290XTA   HL2122899  -9.688  28.820 -10.505
  290XTA   HL2222900  -9.637  28.677 -10.432
  290XTA   HL2322901  -9.764  28.673 -10.563
  290XTA   HL2422902  -8.774  29.802 -11.515
  290XTA   HL2522903  -8.697  29.678 -11.392
  290XTA    CO622904  -9.420  28.502 -10.542
  290XTA    CO722905  -9.633  28.446 -10.679
  290XTA    OA522906  -9.698  28.428 -10.596
  290XTA   HL2622907  -9.327  28.558 -10.534
  290XTA   HL2722908  -9.483  28.490 -10.416
  290XTA   HL2822909  -9.585  28.344 -10.703
  290XTA   HL2922910  -9.688  28.478 -10.768
  291XTA     NT22911  -7.477  23.203  -6.013
  291XTA    CN122912  -7.400  23.175  -5.906
  291XTA     C122913  -7.462  23.125  -5.789
  291XTA     C222914  -7.393  23.096  -5.671
  291XTA     C322915  -7.252  23.116  -5.670
  291XTA     C422916  -7.183  23.166  -5.783
  291XTA     C522917  -7.258  23.197  -5.901
  291XTA    CN222918  -7.481  23.121  -6.115
  291XTA     C622919  -7.602  23.108  -6.181
  291XTA     C722920  -7.613  23.025  -6.291
  291XTA     C822921  -7.507  22.944  -6.333
  291XTA     C922922  -7.384  22.958  -6.262
  291XTA    C1022923  -7.371  23.049  -6.153
  291XTA    CN322924  -7.517  23.333  -6.019
  291XTA    C1122925  -7.646  23.360  -5.964
  291XTA    C1222926  -7.705  23.488  -5.973
  291XTA    C1322927  -7.640  23.591  -6.044
  291XTA    C1422928  -7.517  23.561  -6.109
  291XTA    C1522929  -7.456  23.437  -6.095
  291XTA     H122930  -7.570  23.098  -5.787
  291XTA     H222931  -7.446  23.047  -5.590
  291XTA     H322932  -7.077  23.186  -5.771
  291XTA     H422933  -7.201  23.219  -5.997
  291XTA     H522934  -7.672  23.174  -6.135
  291XTA     H622935  -7.713  23.031  -6.333
  291XTA     H722936  -7.308  22.904  -6.302
  291XTA     H822937  -7.280  23.056  -6.101
  291XTA     H922938  -7.693  23.286  -5.906
  291XTA    H1022939  -7.806  23.506  -5.931
  291XTA    H1122940  -7.474  23.631  -6.181
  291XTA    H1222941  -7.361  23.412  -6.149
  291XTA    OA122942  -7.167  23.086  -5.561
  291XTA    CO122943  -7.222  23.023  -5.447
  291XTA    OA222944  -7.511  22.856  -6.445
  291XTA    CO222945  -7.639  22.838  -6.513
  291XTA    CL122946  -7.627  22.715  -6.602
  291XTA    CL222947  -7.600  22.592  -6.513
  291XTA    CL322948  -7.474  22.513  -6.544
  291XTA    CL422949  -7.344  22.569  -6.476
  291XTA    CO322950  -7.219  22.494  -6.507
  291XTA    OA322951  -7.112  22.555  -6.432
  291XTA    CO422952  -6.986  22.530  -6.494
  291XTA    CT122953  -6.888  22.635  -6.437
  291XTA    CL522954  -6.741  22.608  -6.497
  291XTA    CL622955  -6.667  22.477  -6.452
  291XTA    OA422956  -7.700  23.713  -6.039
  291XTA    CO522957  -7.635  23.819  -6.112
  291XTA    HL122958  -7.605  23.774  -6.208
  291XTA    HL222959  -7.301  23.086  -5.397
  291XTA    HL322960  -7.267  22.935  -5.482
  291XTA    HL422961  -7.147  22.980  -5.375
  291XTA    HL522962  -7.711  22.819  -6.435
  291XTA    HL622963  -7.664  22.926  -6.569
  291XTA    HL722964  -7.542  22.724  -6.670
  291XTA    HL822965  -7.716  22.703  -6.671
  291XTA    HL922966  -7.689  22.523  -6.520
  291XTA   HL1022967  -7.591  22.622  -6.405
  291XTA   HL1122968  -7.499  22.421  -6.490
  291XTA   HL1222969  -7.462  22.493  -6.644
  291XTA   HL1322970  -7.363  22.590  -6.370
  291XTA   HL1422971  -7.326  22.661  -6.516
  291XTA   HL1522972  -7.233  22.384  -6.496
  291XTA   HL1622973  -7.209  22.514  -6.616
  291XTA   HL1722974  -6.966  22.422  -6.491
  291XTA   HL1822975  -7.007  22.554  -6.599
  291XTA   HL1922976  -6.679  22.697  -6.474
  291XTA   HL2022977  -6.749  22.601  -6.602
  291XTA   HL2122978  -6.667  22.459  -6.347
  291XTA   HL2222979  -6.557  22.480  -6.493
  291XTA   HL2322980  -6.710  22.390  -6.505
  291XTA   HL2422981  -7.544  23.847  -6.065
  291XTA   HL2522982  -7.705  23.902  -6.107
  291XTA    CO622983  -6.882  22.635  -6.285
  291XTA    CO722984  -6.921  22.778  -6.484
  291XTA    OA522985  -6.793  22.744  -6.232
  291XTA   HL2622986  -6.844  22.541  -6.248
  291XTA   HL2722987  -6.980  22.634  -6.235
  291XTA   HL2822988  -7.017  22.798  -6.434
  291XTA   HL2922989  -6.841  22.844  -6.446
  292XTA     NT22990  -4.496  29.331 -10.884
  292XTA    CN122991  -4.613  29.277 -10.923
  292XTA     C122992  -4.623  29.137 -10.931
  292XTA     C222993  -4.745  29.079 -10.963
  292XTA     C322994  -4.858  29.152 -10.998
  292XTA     C422995  -4.848  29.295 -10.987
  292XTA     C522996  -4.728  29.355 -10.948
  292XTA    CN222997  -4.502  29.408 -10.772
  292XTA     C622998  -4.528  29.545 -10.778
  292XTA     C722999  -4.528  29.622 -10.659
  292XTA     C823000  -4.506  29.558 -10.533
  292XTA     C923001  -4.474  29.425 -10.532
  292XTA    C1023002  -4.478  29.345 -10.647
  292XTA    CN323003  -4.387  29.316 -10.964
  292XTA    C1123004  -4.380  29.389 -11.089
  292XTA    C1223005  -4.264  29.361 -11.166
  292XTA    C1323006  -4.168  29.271 -11.125
  292XTA    C1423007  -4.171  29.214 -10.993
  292XTA    C1523008  -4.288  29.227 -10.917
  292XTA     H123009  -4.543  29.079 -10.894
  292XTA     H223010  -4.756  28.970 -10.973
  292XTA     H323011  -4.934  29.355 -11.024
  292XTA     H423012  -4.714  29.461 -10.945
  292XTA     H523013  -4.551  29.583 -10.879
  292XTA     H623014  -4.544  29.722 -10.679
  292XTA     H723015  -4.478  29.381 -10.434
  292XTA     H823016  -4.471  29.237 -10.640
  292XTA     H923017  -4.461  29.458 -11.118
  292XTA    H1023018  -4.243  29.416 -11.253
  292XTA    H1123019  -4.089  29.147 -10.962
  292XTA    H1223020  -4.293  29.163 -10.830
  292XTA    OA123021  -4.982  29.098 -11.036
  292XTA    CO123022  -5.045  29.004 -10.956
  292XTA    OA223023  -4.514  29.627 -10.412
  292XTA    CO223024  -4.539  29.763 -10.409
  292XTA    CL123025  -4.687  29.792 -10.430
  292XTA    CL223026  -4.723  29.937 -10.408
  292XTA    CL323027  -4.747  30.020 -10.543
  292XTA    CL423028  -4.608  30.044 -10.610
  292XTA    CO323029  -4.532  30.160 -10.538
  292XTA    OA323030  -4.420  30.192 -10.614
  292XTA    CO423031  -4.313  30.102 -10.592
  292XTA    CT123032  -4.188  30.148 -10.670
  292XTA    CL523033  -4.208  30.180 -10.820
  292XTA    CL623034  -4.284  30.071 -10.892
  292XTA    OA423035  -4.053  29.231 -11.197
  292XTA    CO523036  -4.067  29.230 -11.341
  292XTA    HL123037  -3.964  29.233 -11.379
  292XTA    HL223038  -5.153  29.006 -10.976
  292XTA    HL323039  -5.006  28.907 -10.985
  292XTA    HL423040  -5.028  29.015 -10.845
  292XTA    HL523041  -4.516  29.800 -10.316
  292XTA    HL623042  -4.480  29.821 -10.483
  292XTA    HL723043  -4.738  29.726 -10.357
  292XTA    HL823044  -4.719  29.756 -10.531
  292XTA    HL923045  -4.668  29.992 -10.335
  292XTA   HL1023046  -4.825  29.938 -10.372
  292XTA   HL1123047  -4.812  29.960 -10.604
  292XTA   HL1223048  -4.805  30.119 -10.530
  292XTA   HL1323049  -4.611  30.073 -10.717
  292XTA   HL1423050  -4.537  29.963 -10.615
  292XTA   HL1523051  -4.606  30.241 -10.538
  292XTA   HL1623052  -4.514  30.139 -10.434
  292XTA   HL1723053  -4.287  30.099 -10.491
  292XTA   HL1823054  -4.338  30.000 -10.638
  292XTA   HL1923055  -4.113  30.193 -10.865
  292XTA   HL2023056  -4.259  30.266 -10.839
  292XTA   HL2123057  -4.375  30.039 -10.835
  292XTA   HL2223058  -4.221  29.979 -10.898
  292XTA   HL2323059  -4.312  30.085 -11.000
  292XTA   HL2423060  -4.116  29.324 -11.373
  292XTA   HL2523061  -4.123  29.136 -11.374
  292XTA    CO623062  -4.071  30.038 -10.642
  292XTA    CO723063  -4.140  30.282 -10.618
  292XTA    OA523064  -4.089  29.936 -10.678
  292XTA   HL2623065  -4.059  30.050 -10.540
  292XTA   HL2723066  -3.979  30.090 -10.690
  292XTA   HL2823067  -4.230  30.381 -10.651
  292XTA   HL2923068  -4.052  30.309 -10.682
  293XTH     NT23069  -6.558  27.553  -9.987
  293XTH    CN123070  -6.536  27.612 -10.106
  293XTH     C123071  -6.645  27.652 -10.182
  293XTH     C223072  -6.630  27.701 -10.314
  293XTH     C323073  -6.506  27.718 -10.371
  293XTH     C423074  -6.398  27.666 -10.298
  293XTH     C523075  -6.406  27.626 -10.163
  293XTH    CN223076  -6.649  27.452  -9.974
  293XTH     C623077  -6.613  27.320  -9.995
  293XTH     C723078  -6.707  27.219 -10.004
  293XTH     C823079  -6.847  27.246  -9.977
  293XTH     C923080  -6.881  27.384  -9.956
  293XTH    C1023081  -6.787  27.488  -9.957
  293XTH    CN323082  -6.493  27.607  -9.878
  293XTH    C1123083  -6.551  27.718  -9.808
  293XTH    C1223084  -6.477  27.778  -9.709
  293XTH    C1323085  -6.355  27.722  -9.658
  293XTH    C1423086  -6.304  27.601  -9.716
  293XTH    C1523087  -6.372  27.555  -9.832
  293XTH     H123088  -6.746  27.633 -10.163
  293XTH     H223089  -6.716  27.720 -10.378
  293XTH     H323090  -6.304  27.663 -10.348
  293XTH     H423091  -6.322  27.585 -10.113
  293XTH     H523092  -6.508  27.295 -10.004
  293XTH     H623093  -6.673  27.114 -10.018
  293XTH     H723094  -6.979  27.409  -9.926
  293XTH     H823095  -6.809  27.593  -9.923
  293XTH     H923096  -6.647  27.761  -9.836
  293XTH    H1023097  -6.513  27.854  -9.647
  293XTH    H1123098  -6.227  27.548  -9.661
  293XTH    H1223099  -6.334  27.478  -9.895
  293XTH    OA123100  -6.479  27.765 -10.499
  293XTH    CO123101  -6.576  27.823 -10.574
  293XTH    OA223102  -6.948  27.153  -9.984
  293XTH    CO223103  -6.906  27.019 -10.005
  293XTH    CL123104  -7.014  26.919  -9.984
  293XTH    CL223105  -6.951  26.780  -9.968
  293XTH    CL323106  -6.924  26.708 -10.106
  293XTH    CL423107  -6.826  26.589 -10.117
  293XTH    CO323108  -6.872  26.478 -10.024
  293XTH    OA323109  -6.979  26.400 -10.081
  293XTH    CO423110  -7.039  26.325  -9.971
  293XTH    CT123111  -7.153  26.225 -10.009
  293XTH    CL523112  -7.109  26.075 -10.019
  293XTH    CL623113  -7.007  26.046 -10.122
  293XTH    OA423114  -6.295  27.793  -9.558
  293XTH    CO523115  -6.177  27.744  -9.507
  293XTH    HL123116  -6.123  27.824  -9.466
  293XTH    HL223117  -6.652  27.749 -10.598
  293XTH    HL323118  -6.615  27.919 -10.534
  293XTH    HL423119  -6.537  27.854 -10.673
  293XTH    HL523120  -6.853  27.000 -10.102
  293XTH    HL623121  -6.826  27.005  -9.934
  293XTH    HL723122  -7.097  26.925 -10.065
  293XTH    HL823123  -7.073  26.943  -9.893
  293XTH    HL923124  -7.006  26.715  -9.904
  293XTH   HL1023125  -6.852  26.791  -9.923
  293XTH   HL1123126  -7.015  26.662 -10.161
  293XTH   HL1223127  -6.877  26.776 -10.171
  293XTH   HL1323128  -6.729  26.639 -10.085
  293XTH   HL1423129  -6.816  26.551 -10.218
  293XTH   HL1523130  -6.786  26.412 -10.005
  293XTH   HL1623131  -6.886  26.516  -9.918
  293XTH   HL1723132  -6.965  26.260  -9.925
  293XTH   HL1823133  -7.078  26.397  -9.886
  293XTH   HL1923134  -7.187  26.005 -10.034
  293XTH   HL2023135  -7.066  26.045  -9.926
  293XTH   HL2123136  -6.915  26.103 -10.105
  293XTH   HL2223137  -7.057  26.078 -10.214
  293XTH   HL2323138  -6.984  25.939 -10.110
  293XTH   HL2423139  -6.108  27.721  -9.590
  293XTH   HL2523140  -6.177  27.654  -9.441
  293XTH    CO623141  -7.228  26.281 -10.133
  293XTH    CO723142  -7.261  26.234  -9.901
  293XTH    OA523143  -7.222  26.190  -9.773
  293XTH   HL2623144  -7.246  26.387 -10.114
  293XTH   HL2723145  -7.159  26.267 -10.215
  293XTH   HL2823146  -7.358  26.191  -9.927
  293XTH   HL2923147  -7.281  26.340  -9.879
  294XTA     NT23148  -3.845  24.814  -4.374
  294XTA    CN123149  -3.967  24.875  -4.377
  294XTA     C123150  -4.040  24.885  -4.498
  294XTA     C223151  -4.167  24.943  -4.503
  294XTA     C323152  -4.220  25.010  -4.384
  294XTA     C423153  -4.151  25.001  -4.265
  294XTA     C523154  -4.025  24.929  -4.267
  294XTA    CN223155  -3.737  24.898  -4.362
  294XTA     C623156  -3.723  25.006  -4.448
  294XTA     C723157  -3.621  25.104  -4.432
  294XTA     C823158  -3.530  25.092  -4.319
  294XTA     C923159  -3.543  24.981  -4.229
  294XTA    C1023160  -3.645  24.888  -4.249
  294XTA    CN323161  -3.841  24.684  -4.382
  294XTA    C1123162  -3.815  24.613  -4.267
  294XTA    C1223163  -3.803  24.473  -4.270
  294XTA    C1323164  -3.814  24.402  -4.390
  294XTA    C1423165  -3.852  24.476  -4.510
  294XTA    C1523166  -3.862  24.616  -4.501
  294XTA     H123167  -3.993  24.848  -4.586
  294XTA     H223168  -4.209  24.941  -4.602
  294XTA     H323169  -4.193  25.041  -4.173
  294XTA     H423170  -3.977  24.910  -4.174
  294XTA     H523171  -3.797  25.017  -4.526
  294XTA     H623172  -3.613  25.179  -4.517
  294XTA     H723173  -3.472  24.985  -4.147
  294XTA     H823174  -3.656  24.811  -4.174
  294XTA     H923175  -3.790  24.657  -4.169
  294XTA    H1023176  -3.774  24.421  -4.186
  294XTA    H1123177  -3.872  24.427  -4.602
  294XTA    H1223178  -3.892  24.680  -4.586
  294XTA    OA123179  -4.338  25.078  -4.398
  294XTA    CO123180  -4.383  25.175  -4.304
  294XTA    OA223181  -3.428  25.181  -4.308
  294XTA    CO223182  -3.466  25.317  -4.311
  294XTA    CL123183  -3.363  25.409  -4.244
  294XTA    CL223184  -3.371  25.411  -4.090
  294XTA    CL323185  -3.263  25.488  -4.012
  294XTA    CL423186  -3.302  25.541  -3.879
  294XTA    CO323187  -3.191  25.625  -3.811
  294XTA    OA323188  -3.242  25.684  -3.702
  294XTA    CO423189  -3.321  25.806  -3.726
  294XTA    CT123190  -3.445  25.832  -3.649
  294XTA    CL523191  -3.451  25.970  -3.594
  294XTA    CL623192  -3.334  26.012  -3.496
  294XTA    OA423193  -3.803  24.270  -4.391
  294XTA    CO523194  -3.817  24.204  -4.517
  294XTA    HL123195  -3.819  24.096  -4.514
  294XTA    HL223196  -4.465  25.225  -4.353
  294XTA    HL323197  -4.423  25.130  -4.209
  294XTA    HL423198  -4.298  25.241  -4.280
  294XTA    HL523199  -3.486  25.346  -4.417
  294XTA    HL623200  -3.561  25.326  -4.261
  294XTA    HL723201  -3.377  25.510  -4.292
  294XTA    HL823202  -3.266  25.370  -4.280
  294XTA    HL923203  -3.366  25.313  -4.046
  294XTA   HL1023204  -3.471  25.454  -4.063
  294XTA   HL1123205  -3.175  25.431  -4.009
  294XTA   HL1223206  -3.240  25.570  -4.082
  294XTA   HL1323207  -3.326  25.453  -3.808
  294XTA   HL1423208  -3.390  25.605  -3.893
  294XTA   HL1523209  -3.100  25.562  -3.792
  294XTA   HL1623210  -3.156  25.694  -3.883
  294XTA   HL1723211  -3.248  25.891  -3.722
  294XTA   HL1823212  -3.348  25.809  -3.827
  294XTA   HL1923213  -3.554  25.995  -3.553
  294XTA   HL2023214  -3.451  26.043  -3.669
  294XTA   HL2123215  -3.369  26.111  -3.466
  294XTA   HL2223216  -3.233  26.027  -3.543
  294XTA   HL2323217  -3.340  25.934  -3.420
  294XTA   HL2423218  -3.747  24.227  -4.601
  294XTA   HL2523219  -3.911  24.216  -4.563
  294XTA    CO623220  -3.482  25.725  -3.543
  294XTA    CO723221  -3.575  25.797  -3.721
  294XTA    OA523222  -3.614  25.732  -3.606
  294XTA   HL2623223  -3.482  25.762  -3.438
  294XTA   HL2723224  -3.430  25.632  -3.562
  294XTA   HL2823225  -3.571  25.721  -3.805
  294XTA   HL2923226  -3.632  25.886  -3.743
  295XTA     NT23227  -2.748  28.173  -8.593
  295XTA    CN123228  -2.739  28.303  -8.631
  295XTA     C123229  -2.791  28.350  -8.753
  295XTA     C223230  -2.800  28.486  -8.781
  295XTA     C323231  -2.732  28.576  -8.705
  295XTA     C423232  -2.655  28.533  -8.601
  295XTA     C523233  -2.654  28.390  -8.564
  295XTA    CN223234  -2.817  28.145  -8.473
  295XTA     C623235  -2.747  28.140  -8.356
  295XTA     C723236  -2.809  28.125  -8.231
  295XTA     C823237  -2.948  28.110  -8.218
  295XTA     C923238  -3.022  28.106  -8.339
  295XTA    C1023239  -2.958  28.134  -8.467
  295XTA    CN323240  -2.687  28.080  -8.666
  295XTA    C1123241  -2.764  27.979  -8.721
  295XTA    C1223242  -2.701  27.881  -8.808
  295XTA    C1323243  -2.561  27.895  -8.842
  295XTA    C1423244  -2.484  27.997  -8.782
  295XTA    C1523245  -2.549  28.081  -8.692
  295XTA     H123246  -2.845  28.289  -8.822
  295XTA     H223247  -2.868  28.510  -8.858
  295XTA     H323248  -2.601  28.598  -8.537
  295XTA     H423249  -2.600  28.359  -8.476
  295XTA     H523250  -2.637  28.131  -8.358
  295XTA     H623251  -2.750  28.123  -8.135
  295XTA     H723252  -3.126  28.076  -8.346
  295XTA     H823253  -3.021  28.130  -8.552
  295XTA     H923254  -2.869  27.977  -8.696
  295XTA    H1023255  -2.760  27.800  -8.836
  295XTA    H1123256  -2.379  28.009  -8.795
  295XTA    H1223257  -2.506  28.165  -8.643
  295XTA    OA123258  -2.738  28.705  -8.748
  295XTA    CO123259  -2.639  28.798  -8.696
  295XTA    OA223260  -3.011  28.073  -8.105
  295XTA    CO223261  -2.946  28.085  -7.984
  295XTA    CL123262  -3.047  28.045  -7.871
  295XTA    CL223263  -3.166  28.136  -7.866
  295XTA    CL323264  -3.272  28.084  -7.770
  295XTA    CL423265  -3.392  28.173  -7.750
  295XTA    CO323266  -3.348  28.312  -7.708
  295XTA    OA323267  -3.248  28.285  -7.613
  295XTA    CO423268  -3.178  28.408  -7.583
  295XTA    CT123269  -3.058  28.392  -7.488
  295XTA    CL523270  -3.099  28.364  -7.339
  295XTA    CL623271  -3.202  28.257  -7.316
  295XTA    OA423272  -2.504  27.799  -8.914
  295XTA    CO523273  -2.400  27.838  -9.000
  295XTA    HL123274  -2.315  27.865  -8.937
  295XTA    HL223275  -2.535  28.770  -8.716
  295XTA    HL323276  -2.663  28.897  -8.724
  295XTA    HL423277  -2.652  28.806  -8.588
  295XTA    HL523278  -2.864  28.018  -7.980
  295XTA    HL623279  -2.910  28.185  -7.976
  295XTA    HL723280  -2.993  28.043  -7.772
  295XTA    HL823281  -3.077  27.944  -7.886
  295XTA    HL923282  -3.205  28.133  -7.966
  295XTA   HL1023283  -3.140  28.242  -7.847
  295XTA   HL1123284  -3.302  27.979  -7.806
  295XTA   HL1223285  -3.223  28.065  -7.676
  295XTA   HL1323286  -3.459  28.127  -7.669
  295XTA   HL1423287  -3.447  28.178  -7.844
  295XTA   HL1523288  -3.301  28.363  -7.792
  295XTA   HL1623289  -3.431  28.378  -7.676
  295XTA   HL1723290  -3.142  28.449  -7.679
  295XTA   HL1823291  -3.247  28.478  -7.541
  295XTA   HL1923292  -3.135  28.460  -7.298
  295XTA   HL2023293  -3.007  28.335  -7.292
  295XTA   HL2123294  -3.209  28.227  -7.213
  295XTA   HL2223295  -3.178  28.165  -7.376
  295XTA   HL2323296  -3.292  28.304  -7.342
  295XTA   HL2423297  -2.425  27.920  -9.063
  295XTA   HL2523298  -2.378  27.755  -9.061
  295XTA    CO623299  -2.992  28.535  -7.487
  295XTA    CO723300  -2.953  28.282  -7.552
  295XTA    OA523301  -2.863  28.264  -7.489
  295XTA   HL2623302  -2.885  28.518  -7.454
  295XTA   HL2723303  -3.066  28.626  -7.411
  295XTA   HL2823304  -2.927  28.334  -7.644
  295XTA   HL2923305  -3.008  28.189  -7.583
  296XTA     NT23306  -1.566  32.311  -8.687
  296XTA    CN123307  -1.619  32.308  -8.560
  296XTA     C123308  -1.759  32.319  -8.535
  296XTA     C223309  -1.808  32.310  -8.404
  296XTA     C323310  -1.722  32.286  -8.293
  296XTA     C423311  -1.581  32.281  -8.321
  296XTA     C523312  -1.532  32.287  -8.454
  296XTA    CN223313  -1.533  32.201  -8.762
  296XTA     C623314  -1.530  32.072  -8.706
  296XTA     C723315  -1.503  31.960  -8.782
  296XTA     C823316  -1.471  31.963  -8.914
  296XTA     C923317  -1.476  32.087  -8.974
  296XTA    C1023318  -1.511  32.204  -8.896
  296XTA    CN323319  -1.521  32.435  -8.728
  296XTA    C1123320  -1.393  32.455  -8.782
  296XTA    C1223321  -1.355  32.585  -8.818
  296XTA    C1323322  -1.444  32.692  -8.805
  296XTA    C1423323  -1.573  32.666  -8.757
  296XTA    C1523324  -1.612  32.538  -8.715
  296XTA     H123325  -1.823  32.330  -8.612
  296XTA     H223326  -1.917  32.308  -8.395
  296XTA     H323327  -1.510  32.263  -8.239
  296XTA     H423328  -1.424  32.282  -8.469
  296XTA     H523329  -1.561  32.056  -8.608
  296XTA     H623330  -1.502  31.858  -8.738
  296XTA     H723331  -1.445  32.103  -9.082
  296XTA     H823332  -1.517  32.295  -8.950
  296XTA     H923333  -1.319  32.376  -8.784
  296XTA    H1023334  -1.249  32.593  -8.840
  296XTA    H1123335  -1.646  32.745  -8.743
  296XTA    H1223336  -1.703  32.526  -8.660
  296XTA    OA123337  -1.770  32.259  -8.168
  296XTA    CO123338  -1.682  32.251  -8.052
  296XTA    OA223339  -1.442  31.847  -8.978
  296XTA    CO223340  -1.443  31.857  -9.124
  296XTA    CL123341  -1.426  31.719  -9.186
  296XTA    CL223342  -1.287  31.664  -9.154
  296XTA    CL323343  -1.261  31.520  -9.211
  296XTA    CL423344  -1.255  31.524  -9.363
  296XTA    CO323345  -1.227  31.391  -9.427
  296XTA    OA323346  -1.313  31.296  -9.375
  296XTA    CO423347  -1.304  31.154  -9.413
  296XTA    CT123348  -1.397  31.072  -9.333
  296XTA    CL523349  -1.324  31.038  -9.206
  296XTA    CL623350  -1.272  31.165  -9.128
  296XTA    OA423351  -1.420  32.819  -8.843
  296XTA    CO523352  -1.291  32.843  -8.893
  296XTA    HL123353  -1.278  32.805  -8.994
  296XTA    HL223354  -1.634  32.153  -8.057
  296XTA    HL323355  -1.595  32.317  -8.042
  296XTA    HL423356  -1.737  32.247  -7.957
  296XTA    HL523357  -1.536  31.895  -9.150
  296XTA    HL623358  -1.357  31.916  -9.156
  296XTA    HL723359  -1.425  31.736  -9.291
  296XTA    HL823360  -1.506  31.649  -9.152
  296XTA    HL923361  -1.266  31.653  -9.047
  296XTA   HL1023362  -1.213  31.726  -9.196
  296XTA   HL1123363  -1.172  31.471  -9.171
  296XTA   HL1223364  -1.339  31.461  -9.180
  296XTA   HL1323365  -1.174  31.591  -9.383
  296XTA   HL1423366  -1.345  31.560  -9.401
  296XTA   HL1523367  -1.241  31.380  -9.539
  296XTA   HL1623368  -1.124  31.346  -9.413
  296XTA   HL1723369  -1.324  31.144  -9.518
  296XTA   HL1823370  -1.206  31.103  -9.418
  296XTA   HL1923371  -1.239  30.972  -9.228
  296XTA   HL2023372  -1.386  30.977  -9.141
  296XTA   HL2123373  -1.193  31.222  -9.179
  296XTA   HL2223374  -1.214  31.115  -9.051
  296XTA   HL2323375  -1.356  31.233  -9.102
  296XTA   HL2423376  -1.216  32.801  -8.825
  296XTA   HL2523377  -1.270  32.951  -8.904
  296XTA    CO623378  -1.459  30.949  -9.394
  296XTA    CO723379  -1.531  31.130  -9.312
  296XTA    OA523380  -1.580  30.996  -9.336
  296XTA   HL2623381  -1.408  30.859  -9.352
  296XTA   HL2723382  -1.445  30.949  -9.498
  296XTA   HL2823383  -1.568  31.202  -9.384
  296XTA   HL2923384  -1.547  31.152  -9.204
  297XTH     NT23385  -7.784  29.144 -10.913
  297XTH    CN123386  -7.817  29.270 -10.934
  297XTH     C123387  -7.792  29.361 -10.823
  297XTH     C223388  -7.811  29.497 -10.843
  297XTH     C323389  -7.849  29.548 -10.967
  297XTH     C423390  -7.865  29.460 -11.080
  297XTH     C523391  -7.850  29.319 -11.059
  297XTH    CN223392  -7.669  29.099 -10.969
  297XTH     C623393  -7.548  29.163 -10.938
  297XTH     C723394  -7.434  29.130 -11.019
  297XTH     C823395  -7.434  29.036 -11.126
  297XTH     C923396  -7.565  28.980 -11.157
  297XTH    C1023397  -7.676  29.015 -11.083
  297XTH    CN323398  -7.871  29.060 -10.852
  297XTH    C1123399  -8.000  29.051 -10.902
  297XTH    C1223400  -8.098  28.967 -10.847
  297XTH    C1323401  -8.065  28.894 -10.732
  297XTH    C1423402  -7.937  28.900 -10.678
  297XTH    C1523403  -7.842  28.989 -10.736
  297XTH     H123404  -7.760  29.333 -10.726
  297XTH     H223405  -7.793  29.567 -10.768
  297XTH     H323406  -7.908  29.504 -11.165
  297XTH     H423407  -7.865  29.252 -11.145
  297XTH     H523408  -7.546  29.240 -10.861
  297XTH     H623409  -7.338  29.174 -10.998
  297XTH     H723410  -7.563  28.915 -11.243
  297XTH     H823411  -7.773  28.988 -11.117
  297XTH     H923412  -8.036  29.111 -10.986
  297XTH    H1023413  -8.198  28.986 -10.889
  297XTH    H1123414  -7.897  28.852 -10.592
  297XTH    H1223415  -7.745  29.013 -10.695
  297XTH    OA123416  -7.876  29.682 -10.992
  297XTH    CO123417  -7.974  29.731 -10.905
  297XTH    OA223418  -7.329  28.988 -11.196
  297XTH    CO223419  -7.197  29.020 -11.172
  297XTH    CL123420  -7.102  28.959 -11.277
  297XTH    CL223421  -6.953  28.928 -11.246
  297XTH    CL323422  -6.855  29.048 -11.284
  297XTH    CL423423  -6.708  29.001 -11.267
  297XTH    CO323424  -6.616  29.095 -11.347
  297XTH    OA323425  -6.484  29.057 -11.321
  297XTH    CO423426  -6.396  29.154 -11.373
  297XTH    CT123427  -6.256  29.093 -11.388
  297XTH    CL523428  -6.158  29.186 -11.467
  297XTH    CL623429  -6.144  29.322 -11.392
  297XTH    OA423430  -8.158  28.816 -10.664
  297XTH    CO523431  -8.271  28.783 -10.742
  297XTH    HL123432  -8.259  28.750 -10.846
  297XTH    HL223433  -7.943  29.734 -10.803
  297XTH    HL323434  -8.004  29.834 -10.929
  297XTH    HL423435  -8.066  29.667 -10.896
  297XTH    HL523436  -7.188  29.125 -11.170
  297XTH    HL623437  -7.157  28.977 -11.076
  297XTH    HL723438  -7.110  29.012 -11.374
  297XTH    HL823439  -7.149  28.862 -11.293
  297XTH    HL923440  -6.925  28.837 -11.295
  297XTH   HL1023441  -6.944  28.915 -11.138
  297XTH   HL1123442  -6.870  29.080 -11.385
  297XTH   HL1223443  -6.872  29.135 -11.220
  297XTH   HL1323444  -6.697  28.896 -11.300
  297XTH   HL1423445  -6.684  29.022 -11.162
  297XTH   HL1523446  -6.632  29.103 -11.455
  297XTH   HL1623447  -6.627  29.201 -11.312
  297XTH   HL1723448  -6.433  29.187 -11.471
  297XTH   HL1823449  -6.400  29.246 -11.318
  297XTH   HL1923450  -6.206  29.204 -11.561
  297XTH   HL2023451  -6.063  29.143 -11.479
  297XTH   HL2123452  -6.085  29.327 -11.301
  297XTH   HL2223453  -6.239  29.374 -11.382
  297XTH   HL2323454  -6.081  29.377 -11.459
  297XTH   HL2423455  -8.336  28.866 -10.746
  297XTH   HL2523456  -8.322  28.710 -10.679
  297XTH    CO623457  -6.249  28.956 -11.420
  297XTH    CO723458  -6.193  29.054 -11.252
  297XTH    OA523459  -6.239  28.924 -11.312
  297XTH   HL2623460  -6.150  28.938 -11.474
  297XTH   HL2723461  -6.334  28.929 -11.471
  297XTH   HL2823462  -6.247  29.097 -11.123
  297XTH   HL2923463  -6.082  29.072 -11.252
  298XTA     NT23464  -3.212  30.118 -10.578
  298XTA    CN123465  -3.179  30.105 -10.448
  298XTA     C123466  -3.109  29.997 -10.404
  298XTA     C223467  -3.069  29.993 -10.270
  298XTA     C323468  -3.088  30.099 -10.177
  298XTA     C423469  -3.157  30.209 -10.223
  298XTA     C523470  -3.200  30.219 -10.360
  298XTA    CN223471  -3.122  30.145 -10.670
  298XTA     C623472  -3.129  30.072 -10.789
  298XTA     C723473  -3.033  30.087 -10.888
  298XTA     C823474  -2.928  30.179 -10.879
  298XTA     C923475  -2.928  30.259 -10.761
  298XTA    C1023476  -3.027  30.245 -10.666
  298XTA    CN323477  -3.339  30.147 -10.609
  298XTA    C1123478  -3.391  30.279 -10.608
  298XTA    C1223479  -3.521  30.307 -10.654
  298XTA    C1323480  -3.607  30.203 -10.692
  298XTA    C1423481  -3.556  30.069 -10.688
  298XTA    C1523482  -3.423  30.041 -10.643
  298XTA     H123483  -3.100  29.918 -10.483
  298XTA     H223484  -3.023  29.898 -10.239
  298XTA     H323485  -3.178  30.292 -10.161
  298XTA     H423486  -3.253  30.301 -10.395
  298XTA     H523487  -3.209  29.994 -10.804
  298XTA     H623488  -3.042  30.025 -10.971
  298XTA     H723489  -2.843  30.332 -10.747
  298XTA     H823490  -3.022  30.307 -10.576
  298XTA     H923491  -3.326  30.360 -10.577
  298XTA    H1023492  -3.556  30.414 -10.654
  298XTA    H1123493  -3.617  29.990 -10.697
  298XTA    H1223494  -3.378  29.947 -10.636
  298XTA    OA123495  -3.038  30.095 -10.053
  298XTA    CO123496  -2.988  30.215 -10.010
  298XTA    OA223497  -2.826  30.202 -10.967
  298XTA    CO223498  -2.807  30.112 -11.074
  298XTA    CL123499  -2.904  30.150 -11.186
  298XTA    CL223500  -2.818  30.198 -11.307
  298XTA    CL323501  -2.920  30.246 -11.408
  298XTA    CL423502  -2.861  30.245 -11.543
  298XTA    CO323503  -2.793  30.375 -11.577
  298XTA    OA323504  -2.734  30.341 -11.701
  298XTA    CO423505  -2.658  30.447 -11.741
  298XTA    CT123506  -2.575  30.398 -11.866
  298XTA    CL523507  -2.508  30.527 -11.930
  298XTA    CL623508  -2.401  30.490 -12.033
  298XTA    OA423509  -3.740  30.232 -10.726
  298XTA    CO523510  -3.772  30.176 -10.854
  298XTA    HL123511  -3.847  30.233 -10.904
  298XTA    HL223512  -3.055  30.289  -9.976
  298XTA    HL323513  -2.927  30.188  -9.924
  298XTA    HL423514  -2.922  30.253 -10.095
  298XTA    HL523515  -2.701  30.106 -11.105
  298XTA    HL623516  -2.828  30.018 -11.030
  298XTA    HL723517  -2.982  30.219 -11.161
  298XTA    HL823518  -2.962  30.057 -11.200
  298XTA    HL923519  -2.760  30.114 -11.334
  298XTA   HL1023520  -2.759  30.282 -11.281
  298XTA   HL1123521  -2.999  30.172 -11.405
  298XTA   HL1223522  -2.954  30.346 -11.375
  298XTA   HL1323523  -2.927  30.221 -11.621
  298XTA   HL1423524  -2.793  30.158 -11.549
  298XTA   HL1523525  -2.851  30.461 -11.588
  298XTA   HL1623526  -2.724  30.391 -11.492
  298XTA   HL1723527  -2.726  30.529 -11.759
  298XTA   HL1823528  -2.590  30.473 -11.658
  298XTA   HL1923529  -2.467  30.583 -11.849
  298XTA   HL2023530  -2.591  30.583 -11.971
  298XTA   HL2123531  -2.444  30.421 -12.104
  298XTA   HL2223532  -2.319  30.435 -11.984
  298XTA   HL2323533  -2.374  30.586 -12.089
  298XTA   HL2423534  -3.808  30.070 -10.840
  298XTA   HL2523535  -3.674  30.179 -10.909
  298XTA    CO623536  -2.664  30.316 -11.968
  298XTA    CO723537  -2.462  30.308 -11.807
  298XTA    OA523538  -2.400  30.354 -11.727
  298XTA   HL2623539  -2.606  30.267 -12.045
  298XTA   HL2723540  -2.731  30.200 -11.909
  298XTA   HL2823541  -2.396  30.271 -11.887
  298XTA   HL2923542  -2.515  30.220 -11.763
  299XTA     NT23543  -1.624  30.672  -5.890
  299XTA    CN123544  -1.531  30.700  -5.798
  299XTA     C123545  -1.396  30.688  -5.836
  299XTA     C223546  -1.294  30.712  -5.745
  299XTA     C323547  -1.322  30.748  -5.610
  299XTA     C423548  -1.461  30.748  -5.574
  299XTA     C523549  -1.565  30.721  -5.664
  299XTA    CN223550  -1.730  30.755  -5.920
  299XTA     C623551  -1.713  30.866  -6.002
  299XTA     C723552  -1.823  30.948  -6.040
  299XTA     C823553  -1.951  30.923  -5.989
  299XTA     C923554  -1.968  30.811  -5.903
  299XTA    C1023555  -1.862  30.732  -5.866
  299XTA    CN323556  -1.625  30.548  -5.939
  299XTA    C1123557  -1.586  30.536  -6.073
  299XTA    C1223558  -1.570  30.408  -6.125
  299XTA    C1323559  -1.614  30.291  -6.060
  299XTA    C1423560  -1.670  30.307  -5.929
  299XTA    C1523561  -1.667  30.436  -5.868
  299XTA     H123562  -1.372  30.672  -5.940
  299XTA     H223563  -1.193  30.710  -5.784
  299XTA     H323564  -1.482  30.782  -5.472
  299XTA     H423565  -1.667  30.742  -5.627
  299XTA     H523566  -1.621  30.892  -6.050
  299XTA     H623567  -1.798  31.040  -6.096
  299XTA     H723568  -2.062  30.771  -5.870
  299XTA     H823569  -1.875  30.644  -5.810
  299XTA     H923570  -1.555  30.619  -6.127
  299XTA    H1023571  -1.519  30.414  -6.227
  299XTA    H1123572  -1.690  30.217  -5.875
  299XTA    H1223573  -1.693  30.442  -5.762
  299XTA    OA123574  -1.229  30.786  -5.514
  299XTA    CO123575  -1.090  30.793  -5.560
  299XTA    OA223576  -2.068  30.993  -6.022
  299XTA    CO223577  -2.065  31.076  -6.132
  299XTA    CL123578  -2.006  31.217  -6.103
  299XTA    CL223579  -1.994  31.297  -6.224
  299XTA    CL323580  -1.950  31.447  -6.202
  299XTA    CL423581  -1.811  31.463  -6.153
  299XTA    CO323582  -1.689  31.414  -6.245
  299XTA    OA323583  -1.726  31.447  -6.375
  299XTA    CO423584  -1.641  31.388  -6.468
  299XTA    CT123585  -1.695  31.393  -6.617
  299XTA    CL523586  -1.840  31.351  -6.617
  299XTA    CL623587  -1.912  31.358  -6.750
  299XTA    OA423588  -1.598  30.161  -6.115
  299XTA    CO523589  -1.632  30.154  -6.247
  299XTA    HL123590  -1.731  30.191  -6.264
  299XTA    HL223591  -1.033  30.782  -5.468
  299XTA    HL323592  -1.070  30.707  -5.628
  299XTA    HL423593  -1.070  30.891  -5.605
  299XTA    HL523594  -2.014  31.019  -6.214
  299XTA    HL623595  -2.156  31.101  -6.174
  299XTA    HL723596  -1.909  31.214  -6.058
  299XTA    HL823597  -2.064  31.279  -6.032
  299XTA    HL923598  -2.088  31.297  -6.279
  299XTA   HL1023599  -1.918  31.256  -6.287
  299XTA   HL1123600  -1.950  31.497  -6.299
  299XTA   HL1223601  -2.018  31.492  -6.139
  299XTA   HL1323602  -1.791  31.414  -6.050
  299XTA   HL1423603  -1.794  31.574  -6.135
  299XTA   HL1523604  -1.593  31.454  -6.216
  299XTA   HL1623605  -1.685  31.302  -6.252
  299XTA   HL1723606  -1.539  31.415  -6.454
  299XTA   HL1823607  -1.633  31.275  -6.459
  299XTA   HL1923608  -1.888  31.417  -6.540
  299XTA   HL2023609  -1.852  31.252  -6.574
  299XTA   HL2123610  -1.901  31.466  -6.792
  299XTA   HL2223611  -2.016  31.344  -6.733
  299XTA   HL2323612  -1.891  31.276  -6.819
  299XTA   HL2423613  -1.632  30.051  -6.278
  299XTA   HL2523614  -1.563  30.196  -6.324
  299XTA    CO623615  -1.607  31.297  -6.700
  299XTA    CO723616  -1.683  31.537  -6.676
  299XTA    OA523617  -1.675  31.176  -6.697
  299XTA   HL2623618  -1.511  31.282  -6.649
  299XTA   HL2723619  -1.587  31.333  -6.801
  299XTA   HL2823620  -1.776  31.587  -6.654
  299XTA   HL2923621  -1.606  31.594  -6.625
  300XTA     NT23622  -7.166  29.860  -9.486
  300XTA    CN123623  -7.138  29.729  -9.503
  300XTA     C123624  -7.049  29.661  -9.416
  300XTA     C223625  -7.018  29.529  -9.444
  300XTA     C323626  -7.058  29.462  -9.559
  300XTA     C423627  -7.137  29.528  -9.647
  300XTA     C523628  -7.173  29.666  -9.623
  300XTA    CN223629  -7.075  29.942  -9.429
  300XTA     C623630  -7.093  29.975  -9.296
  300XTA     C723631  -7.000  30.065  -9.231
  300XTA     C823632  -6.902  30.128  -9.318
  300XTA     C923633  -6.892  30.087  -9.454
  300XTA    C1023634  -6.976  29.988  -9.510
  300XTA    CN323635  -7.287  29.905  -9.527
  300XTA    C1123636  -7.291  29.992  -9.638
  300XTA    C1223637  -7.409  30.051  -9.681
  300XTA    C1323638  -7.534  30.021  -9.610
  300XTA    C1423639  -7.525  29.936  -9.500
  300XTA    C1523640  -7.406  29.882  -9.461
  300XTA     H123641  -7.016  29.718  -9.327
  300XTA     H223642  -6.962  29.487  -9.369
  300XTA     H323643  -7.173  29.480  -9.746
  300XTA     H423644  -7.229  29.724  -9.690
  300XTA     H523645  -7.185  29.936  -9.248
  300XTA     H623646  -7.016  30.101  -9.130
  300XTA     H723647  -6.819  30.136  -9.522
  300XTA     H823648  -6.966  29.967  -9.617
  300XTA     H923649  -7.199  30.007  -9.683
  300XTA    H1023650  -7.402  30.110  -9.770
  300XTA    H1123651  -7.614  29.907  -9.438
  300XTA    H1223652  -7.393  29.822  -9.368
  300XTA    OA123653  -7.044  29.333  -9.585
  300XTA    CO123654  -6.924  29.283  -9.551
  300XTA    OA223655  -6.825  30.233  -9.272
  300XTA    CO223656  -6.833  30.263  -9.130
  300XTA    CL123657  -6.765  30.168  -9.034
  300XTA    CL223658  -6.615  30.192  -9.035
  300XTA    CL323659  -6.541  30.122  -8.919
  300XTA    CL423660  -6.388  30.101  -8.944
  300XTA    CO323661  -6.305  30.050  -8.823
  300XTA    OA323662  -6.172  30.044  -8.856
  300XTA    CO423663  -6.114  30.172  -8.846
  300XTA    CT123664  -5.972  30.178  -8.908
  300XTA    CL523665  -5.886  30.060  -8.857
  300XTA    CL623666  -5.896  30.038  -8.702
  300XTA    OA423667  -7.650  30.079  -9.635
  300XTA    CO523668  -7.653  30.190  -9.730
  300XTA    HL123669  -7.600  30.275  -9.689
  300XTA    HL223670  -6.907  29.272  -9.447
  300XTA    HL323671  -6.904  29.188  -9.597
  300XTA    HL423672  -6.844  29.343  -9.583
  300XTA    HL523673  -6.787  30.358  -9.121
  300XTA    HL623674  -6.932  30.273  -9.100
  300XTA    HL723675  -6.789  30.065  -9.064
  300XTA    HL823676  -6.803  30.199  -8.937
  300XTA    HL923677  -6.594  30.294  -9.021
  300XTA   HL1023678  -6.571  30.153  -9.127
  300XTA   HL1123679  -6.559  30.172  -8.825
  300XTA   HL1223680  -6.586  30.023  -8.908
  300XTA   HL1323681  -6.354  30.201  -8.976
  300XTA   HL1423682  -6.375  30.044  -9.031
  300XTA   HL1523683  -6.308  30.103  -8.734
  300XTA   HL1623684  -6.342  29.947  -8.809
  300XTA   HL1723685  -6.167  30.255  -8.877
  300XTA   HL1823686  -6.114  30.190  -8.741
  300XTA   HL1923687  -5.782  30.070  -8.886
  300XTA   HL2023688  -5.925  29.962  -8.891
  300XTA   HL2123689  -5.849  29.939  -8.687
  300XTA   HL2223690  -5.996  30.032  -8.661
  300XTA   HL2323691  -5.850  30.116  -8.640
  300XTA   HL2423692  -7.753  30.223  -9.752
  300XTA   HL2523693  -7.620  30.154  -9.830
  300XTA    CO623694  -5.917  30.310  -8.860
  300XTA    CO723695  -5.973  30.180  -9.064
  300XTA    OA523696  -5.812  30.328  -8.896
  300XTA   HL2623697  -5.922  30.297  -8.750
  300XTA   HL2723698  -5.986  30.389  -8.884
  300XTA   HL2823699  -5.842  30.190  -9.131
  300XTA   HL2923700  -6.016  30.086  -9.099
  301XTA     NT23701  -0.397  32.851  -8.437
  301XTA    CN123702  -0.419  32.924  -8.547
  301XTA     C123703  -0.406  32.861  -8.671
  301XTA     C223704  -0.414  32.936  -8.791
  301XTA     C323705  -0.422  33.076  -8.789
  301XTA     C423706  -0.442  33.143  -8.659
  301XTA     C523707  -0.434  33.066  -8.542
  301XTA    CN223708  -0.497  32.811  -8.351
  301XTA     C623709  -0.590  32.705  -8.383
  301XTA     C723710  -0.687  32.667  -8.293
  301XTA     C823711  -0.686  32.719  -8.157
  301XTA     C923712  -0.588  32.817  -8.125
  301XTA    C1023713  -0.493  32.866  -8.217
  301XTA    CN323714  -0.280  32.794  -8.411
  301XTA    C1123715  -0.175  32.882  -8.363
  301XTA    C1223716  -0.049  32.831  -8.327
  301XTA    C1323717  -0.023  32.697  -8.349
  301XTA    C1423718  -0.118  32.614  -8.412
  301XTA    C1523719  -0.247  32.661  -8.438
  301XTA     H123720  -0.380  32.752  -8.673
  301XTA     H223721  -0.421  32.882  -8.882
  301XTA     H323722  -0.460  33.245  -8.652
  301XTA     H423723  -0.421  33.115  -8.443
  301XTA     H523724  -0.575  32.650  -8.475
  301XTA     H623725  -0.746  32.574  -8.314
  301XTA     H723726  -0.586  32.850  -8.028
  301XTA     H823727  -0.427  32.944  -8.190
  301XTA     H923728  -0.189  32.987  -8.349
  301XTA    H1023729   0.027  32.887  -8.272
  301XTA    H1123730  -0.093  32.510  -8.436
  301XTA    H1223731  -0.335  32.605  -8.481
  301XTA    OA123732  -0.436  33.155  -8.904
  301XTA    CO123733  -0.474  33.084  -9.012
  301XTA    OA223734  -0.772  32.683  -8.056
  301XTA    CO223735  -0.820  32.556  -8.071
  301XTA    CL123736  -0.930  32.543  -7.964
  301XTA    CL223737  -0.977  32.398  -7.943
  301XTA    CL323738  -1.111  32.392  -7.878
  301XTA    CL423739  -1.129  32.321  -7.743
  301XTA    CO323740  -1.268  32.329  -7.682
  301XTA    OA323741  -1.282  32.260  -7.560
  301XTA    CO423742  -1.233  32.125  -7.566
  301XTA    CT123743  -1.244  32.069  -7.427
  301XTA    CL523744  -1.394  32.034  -7.397
  301XTA    CL623745  -1.493  32.149  -7.375
  301XTA    OA423746   0.092  32.632  -8.309
  301XTA    CO523747   0.125  32.661  -8.172
  301XTA    HL123748   0.039  32.655  -8.107
  301XTA    HL223749  -0.407  33.008  -9.039
  301XTA    HL323750  -0.571  33.036  -9.005
  301XTA    HL423751  -0.462  33.148  -9.095
  301XTA    HL523752  -0.864  32.534  -8.166
  301XTA    HL623753  -0.729  32.491  -8.064
  301XTA    HL723754  -1.019  32.604  -7.992
  301XTA    HL823755  -0.906  32.587  -7.871
  301XTA    HL923756  -0.894  32.341  -7.888
  301XTA   HL1023757  -0.982  32.342  -8.033
  301XTA   HL1123758  -1.149  32.497  -7.860
  301XTA   HL1223759  -1.187  32.356  -7.952
  301XTA   HL1323760  -1.072  32.358  -7.657
  301XTA   HL1423761  -1.112  32.217  -7.763
  301XTA   HL1523762  -1.280  32.435  -7.660
  301XTA   HL1623763  -1.345  32.285  -7.747
  301XTA   HL1723764  -1.289  32.074  -7.642
  301XTA   HL1823765  -1.129  32.117  -7.593
  301XTA   HL1923766  -1.408  31.970  -7.310
  301XTA   HL2023767  -1.426  31.986  -7.491
  301XTA   HL2123768  -1.521  32.201  -7.461
  301XTA   HL2223769  -1.457  32.218  -7.299
  301XTA   HL2323770  -1.588  32.115  -7.338
  301XTA   HL2423771   0.190  32.752  -8.178
  301XTA   HL2523772   0.187  32.576  -8.136
  301XTA    CO623773  -1.202  32.180  -7.326
  301XTA    CO723774  -1.153  31.949  -7.412
  301XTA    OA523775  -1.206  31.856  -7.500
  301XTA   HL2623776  -1.268  32.269  -7.322
  301XTA   HL2723777  -1.213  32.133  -7.230
  301XTA   HL2823778  -1.153  31.912  -7.308
  301XTA   HL2923779  -1.047  31.970  -7.437
  302XTA     NT23780  -7.514  27.959  -8.668
  302XTA    CN123781  -7.627  28.021  -8.714
  302XTA     C123782  -7.682  28.126  -8.636
  302XTA     C223783  -7.793  28.195  -8.683
  302XTA     C323784  -7.854  28.162  -8.808
  302XTA     C423785  -7.799  28.059  -8.885
  302XTA     C523786  -7.683  27.989  -8.840
  302XTA    CN223787  -7.528  27.869  -8.568
  302XTA     C623788  -7.456  27.880  -8.451
  302XTA     C723789  -7.460  27.781  -8.351
  302XTA     C823790  -7.544  27.672  -8.374
  302XTA     C923791  -7.633  27.670  -8.479
  302XTA    C1023792  -7.616  27.756  -8.586
  302XTA    CN323793  -7.403  27.982  -8.735
  302XTA    C1123794  -7.324  27.874  -8.786
  302XTA    C1223795  -7.218  27.896  -8.880
  302XTA    C1323796  -7.169  28.023  -8.904
  302XTA    C1423797  -7.239  28.136  -8.841
  302XTA    C1523798  -7.358  28.114  -8.761
  302XTA     H123799  -7.633  28.156  -8.543
  302XTA     H223800  -7.828  28.272  -8.622
  302XTA     H323801  -7.843  28.036  -8.980
  302XTA     H423802  -7.645  27.907  -8.898
  302XTA     H523803  -7.397  27.967  -8.436
  302XTA     H623804  -7.401  27.779  -8.262
  302XTA     H723805  -7.704  27.595  -8.471
  302XTA     H823806  -7.666  27.762  -8.681
  302XTA     H923807  -7.362  27.777  -8.771
  302XTA    H1023808  -7.164  27.807  -8.927
  302XTA    H1123809  -7.190  28.236  -8.854
  302XTA    H1223810  -7.396  28.198  -8.711
  302XTA    OA123811  -7.950  28.244  -8.860
  302XTA    CO123812  -7.996  28.225  -8.990
  302XTA    OA223813  -7.547  27.576  -8.276
  302XTA    CO223814  -7.443  27.482  -8.301
  302XTA    CL123815  -7.468  27.351  -8.232
  302XTA    CL223816  -7.361  27.243  -8.269
  302XTA    CL323817  -7.227  27.263  -8.218
  302XTA    CL423818  -7.134  27.141  -8.228
  302XTA    CO323819  -6.979  27.178  -8.217
  302XTA    OA323820  -6.916  27.049  -8.201
  302XTA    CO423821  -6.774  27.051  -8.190
  302XTA    CT123822  -6.717  26.926  -8.260
  302XTA    CL523823  -6.776  26.805  -8.181
  302XTA    CL623824  -6.752  26.792  -8.028
  302XTA    OA423825  -7.060  28.040  -8.984
  302XTA    CO523826  -6.953  28.110  -8.920
  302XTA    HL123827  -6.937  28.062  -8.821
  302XTA    HL223828  -7.901  28.215  -9.051
  302XTA    HL323829  -8.065  28.134  -8.996
  302XTA    HL423830  -8.058  28.311  -9.019
  302XTA    HL523831  -7.433  27.460  -8.407
  302XTA    HL623832  -7.341  27.515  -8.280
  302XTA    HL723833  -7.558  27.314  -8.260
  302XTA    HL823834  -7.469  27.377  -8.124
  302XTA    HL923835  -7.365  27.218  -8.375
  302XTA   HL1023836  -7.404  27.154  -8.225
  302XTA   HL1123837  -7.197  27.338  -8.288
  302XTA   HL1223838  -7.223  27.301  -8.116
  302XTA   HL1323839  -7.139  27.079  -8.312
  302XTA   HL1423840  -7.149  27.095  -8.125
  302XTA   HL1523841  -6.952  27.222  -8.310
  302XTA   HL1623842  -6.966  27.242  -8.134
  302XTA   HL1723843  -6.735  27.136  -8.239
  302XTA   HL1823844  -6.747  27.069  -8.086
  302XTA   HL1923845  -6.735  26.712  -8.229
  302XTA   HL2023846  -6.889  26.805  -8.206
  302XTA   HL2123847  -6.650  26.776  -7.996
  302XTA   HL2223848  -6.807  26.704  -8.001
  302XTA   HL2323849  -6.792  26.870  -7.968
  302XTA   HL2423850  -6.998  28.198  -8.883
  302XTA   HL2523851  -6.858  28.118  -8.968
  302XTA    CO623852  -6.567  26.945  -8.249
  302XTA    CO723853  -6.760  26.931  -8.405
  302XTA    OA523854  -6.685  26.827  -8.473
  302XTA   HL2623855  -6.535  26.945  -8.145
  302XTA   HL2723856  -6.517  26.862  -8.296
  302XTA   HL2823857  -6.740  27.028  -8.453
  302XTA   HL2923858  -6.864  26.910  -8.412
  303XTA     NT23859  -6.671  29.675  -5.463
  303XTA    CN123860  -6.602  29.562  -5.484
  303XTA     C123861  -6.554  29.532  -5.612
  303XTA     C223862  -6.485  29.415  -5.636
  303XTA     C323863  -6.458  29.317  -5.544
  303XTA     C423864  -6.516  29.345  -5.413
  303XTA     C523865  -6.583  29.467  -5.378
  303XTA    CN223866  -6.772  29.712  -5.545
  303XTA     C623867  -6.756  29.830  -5.614
  303XTA     C723868  -6.863  29.880  -5.685
  303XTA     C823869  -6.990  29.819  -5.690
  303XTA     C923870  -7.009  29.704  -5.613
  303XTA    C1023871  -6.896  29.648  -5.545
  303XTA    CN323872  -6.638  29.757  -5.359
  303XTA    C1123873  -6.510  29.809  -5.364
  303XTA    C1223874  -6.462  29.878  -5.249
  303XTA    C1323875  -6.550  29.899  -5.138
  303XTA    C1423876  -6.684  29.855  -5.142
  303XTA    C1523877  -6.725  29.779  -5.251
  303XTA     H123878  -6.576  29.593  -5.700
  303XTA     H223879  -6.449  29.401  -5.737
  303XTA     H323880  -6.505  29.278  -5.333
  303XTA     H423881  -6.641  29.476  -5.286
  303XTA     H523882  -6.652  29.874  -5.615
  303XTA     H623883  -6.830  29.968  -5.744
  303XTA     H723884  -7.104  29.646  -5.609
  303XTA     H823885  -6.904  29.561  -5.479
  303XTA     H923886  -6.447  29.804  -5.447
  303XTA    H1023887  -6.365  29.914  -5.249
  303XTA    H1123888  -6.754  29.883  -5.063
  303XTA    H1223889  -6.821  29.738  -5.249
  303XTA    OA123890  -6.387  29.205  -5.577
  303XTA    CO123891  -6.420  29.083  -5.506
  303XTA    OA223892  -7.100  29.873  -5.763
  303XTA    CO223893  -7.063  29.946  -5.884
  303XTA    CL123894  -7.162  29.897  -5.991
  303XTA    CL223895  -7.296  29.974  -5.996
  303XTA    CL323896  -7.288  30.116  -6.051
  303XTA    CL423897  -7.404  30.200  -5.988
  303XTA    CO323898  -7.376  30.250  -5.842
  303XTA    OA323899  -7.416  30.155  -5.745
  303XTA    CO423900  -7.388  30.175  -5.609
  303XTA    CT123901  -7.446  30.054  -5.540
  303XTA    CL523902  -7.430  30.068  -5.387
  303XTA    CL623903  -7.290  30.076  -5.329
  303XTA    OA423904  -6.514  29.973  -5.028
  303XTA    CO523905  -6.375  30.020  -5.023
  303XTA    HL123906  -6.307  29.932  -5.013
  303XTA    HL223907  -6.407  29.103  -5.401
  303XTA    HL323908  -6.524  29.053  -5.512
  303XTA    HL423909  -6.350  29.005  -5.547
  303XTA    HL523910  -7.049  30.049  -5.881
  303XTA    HL623911  -6.967  29.905  -5.922
  303XTA    HL723912  -7.178  29.791  -5.983
  303XTA    HL823913  -7.117  29.910  -6.090
  303XTA    HL923914  -7.337  29.970  -5.900
  303XTA   HL1023915  -7.368  29.903  -6.041
  303XTA   HL1123916  -7.190  30.157  -6.021
  303XTA   HL1223917  -7.297  30.118  -6.157
  303XTA   HL1323918  -7.497  30.151  -6.000
  303XTA   HL1423919  -7.422  30.290  -6.042
  303XTA   HL1523920  -7.267  30.268  -5.819
  303XTA   HL1623921  -7.440  30.340  -5.827
  303XTA   HL1723922  -7.277  30.191  -5.588
  303XTA   HL1823923  -7.432  30.274  -5.582
  303XTA   HL1923924  -7.466  29.981  -5.341
  303XTA   HL2023925  -7.478  30.159  -5.352
  303XTA   HL2123926  -7.221  30.002  -5.374
  303XTA   HL2223927  -7.302  30.060  -5.217
  303XTA   HL2323928  -7.234  30.166  -5.354
  303XTA   HL2423929  -6.378  30.094  -4.942
  303XTA   HL2523930  -6.360  30.083  -5.111
  303XTA    CO623931  -7.373  29.928  -5.590
  303XTA    CO723932  -7.594  30.028  -5.565
  303XTA    OA523933  -7.441  29.807  -5.553
  303XTA   HL2623934  -7.269  29.931  -5.581
  303XTA   HL2723935  -7.384  29.926  -5.698
  303XTA   HL2823936  -7.600  30.031  -5.671
  303XTA   HL2923937  -7.626  29.927  -5.536
  304XTA     NT23938  -2.276  25.993 -10.914
  304XTA    CN123939  -2.381  26.042 -10.986
  304XTA     C123940  -2.390  26.011 -11.120
  304XTA     C223941  -2.492  26.064 -11.198
  304XTA     C323942  -2.581  26.158 -11.144
  304XTA     C423943  -2.569  26.197 -11.009
  304XTA     C523944  -2.470  26.137 -10.928
  304XTA    CN223945  -2.293  25.897 -10.820
  304XTA     C623946  -2.379  25.791 -10.846
  304XTA     C723947  -2.408  25.698 -10.745
  304XTA     C823948  -2.362  25.709 -10.618
  304XTA     C923949  -2.286  25.825 -10.586
  304XTA    C1023950  -2.252  25.919 -10.685
  304XTA    CN323951  -2.149  26.031 -10.945
  304XTA    C1123952  -2.060  25.928 -10.984
  304XTA    C1223953  -1.924  25.965 -11.006
  304XTA    C1323954  -1.876  26.091 -10.975
  304XTA    C1423955  -1.967  26.181 -10.932
  304XTA    C1523956  -2.102  26.158 -10.909
  304XTA     H123957  -2.317  25.937 -11.156
  304XTA     H223958  -2.497  26.018 -11.301
  304XTA     H323959  -2.643  26.255 -10.957
  304XTA     H423960  -2.463  26.160 -10.822
  304XTA     H523961  -2.419  25.780 -10.947
  304XTA     H623962  -2.481  25.626 -10.763
  304XTA     H723963  -2.232  25.832 -10.492
  304XTA     H823964  -2.199  26.011 -10.667
  304XTA     H923965  -2.085  25.825 -10.999
  304XTA    H1023966  -1.856  25.889 -11.049
  304XTA    H1123967  -1.923  26.283 -10.919
  304XTA    H1223968  -2.164  26.239 -10.864
  304XTA    OA123969  -2.687  26.202 -11.217
  304XTA    CO123970  -2.666  26.204 -11.358
  304XTA    OA223971  -2.414  25.622 -10.527
  304XTA    CO223972  -2.406  25.662 -10.384
  304XTA    CL123973  -2.421  25.551 -10.284
  304XTA    CL223974  -2.407  25.620 -10.144
  304XTA    CL323975  -2.542  25.683 -10.098
  304XTA    CL423976  -2.534  25.736  -9.961
  304XTA    CO323977  -2.661  25.807  -9.900
  304XTA    OA323978  -2.709  25.900  -9.988
  304XTA    CO423979  -2.815  25.966  -9.922
  304XTA    CT123980  -2.842  26.100  -9.988
  304XTA    CL523981  -2.861  26.080 -10.139
  304XTA    CL623982  -2.978  25.983 -10.174
  304XTA    OA423983  -1.744  26.130 -10.982
  304XTA    CO523984  -1.633  26.048 -11.039
  304XTA    HL123985  -1.628  25.969 -10.971
  304XTA    HL223986  -2.648  26.111 -11.399
  304XTA    HL323987  -2.749  26.243 -11.409
  304XTA    HL423988  -2.582  26.263 -11.377
  304XTA    HL523989  -2.310  25.713 -10.360
  304XTA    HL623990  -2.473  25.747 -10.362
  304XTA    HL723991  -2.339  25.476 -10.308
  304XTA    HL823992  -2.517  25.498 -10.284
  304XTA    HL923993  -2.319  25.686 -10.143
  304XTA   HL1023994  -2.373  25.551 -10.073
  304XTA   HL1123995  -2.565  25.754 -10.182
  304XTA   HL1223996  -2.618  25.605 -10.095
  304XTA   HL1323997  -2.453  25.820  -9.961
  304XTA   HL1423998  -2.497  25.657  -9.897
  304XTA   HL1523999  -2.739  25.729  -9.882
  304XTA   HL1624000  -2.627  25.846  -9.806
  304XTA   HL1724001  -2.899  25.901  -9.936
  304XTA   HL1824002  -2.808  25.977  -9.817
  304XTA   HL1924003  -2.765  26.039 -10.182
  304XTA   HL2024004  -2.878  26.171 -10.197
  304XTA   HL2124005  -3.073  26.034 -10.134
  304XTA   HL2224006  -2.958  25.879 -10.138
  304XTA   HL2324007  -2.978  25.969 -10.283
  304XTA   HL2424008  -1.540  26.112 -11.052
  304XTA   HL2524009  -1.662  26.009 -11.137
  304XTA    CO624010  -2.720  26.193  -9.966
  304XTA    CO724011  -2.966  26.166  -9.918
  304XTA    OA524012  -2.959  26.181  -9.781
  304XTA   HL2624013  -2.639  26.155 -10.019
  304XTA   HL2724014  -2.686  26.192  -9.867
  304XTA   HL2824015  -3.063  26.108  -9.937
  304XTA   HL2924016  -2.985  26.262  -9.969
  305XTA     NT24017  -8.927  25.436  -7.487
  305XTA    CN124018  -8.990  25.318  -7.504
  305XTA     C124019  -9.129  25.317  -7.490
  305XTA     C224020  -9.201  25.203  -7.531
  305XTA     C324021  -9.133  25.085  -7.570
  305XTA     C424022  -8.997  25.075  -7.565
  305XTA     C524023  -8.924  25.196  -7.547
  305XTA    CN224024  -8.944  25.519  -7.379
  305XTA     C624025  -8.966  25.454  -7.253
  305XTA     C724026  -8.997  25.534  -7.144
  305XTA     C824027  -8.990  25.676  -7.159
  305XTA     C924028  -8.970  25.738  -7.280
  305XTA    C1024029  -8.945  25.661  -7.392
  305XTA    CN324030  -8.830  25.454  -7.575
  305XTA    C1124031  -8.696  25.457  -7.535
  305XTA    C1224032  -8.590  25.473  -7.628
  305XTA    C1324033  -8.618  25.475  -7.764
  305XTA    C1424034  -8.750  25.465  -7.804
  305XTA    C1524035  -8.856  25.459  -7.717
  305XTA     H124036  -9.179  25.408  -7.467
  305XTA     H224037  -9.307  25.225  -7.527
  305XTA     H324038  -8.936  24.989  -7.592
  305XTA     H424039  -8.820  25.201  -7.564
  305XTA     H524040  -8.960  25.347  -7.240
  305XTA     H624041  -9.033  25.495  -7.050
  305XTA     H724042  -8.972  25.843  -7.283
  305XTA     H824043  -8.937  25.710  -7.487
  305XTA     H924044  -8.693  25.452  -7.430
  305XTA    H1024045  -8.490  25.453  -7.597
  305XTA    H1124046  -8.767  25.467  -7.910
  305XTA    H1224047  -8.958  25.453  -7.760
  305XTA    OA124048  -9.213  24.995  -7.625
  305XTA    CO124049  -9.150  24.873  -7.667
  305XTA    OA224050  -9.015  25.755  -7.052
  305XTA    CO224051  -9.151  25.774  -7.004
  305XTA    CL124052  -9.148  25.762  -6.852
  305XTA    CL224053  -9.108  25.618  -6.814
  305XTA    CL324054  -9.212  25.510  -6.845
  305XTA    CL424055  -9.182  25.371  -6.781
  305XTA    CO324056  -9.302  25.276  -6.786
  305XTA    OA324057  -9.417  25.335  -6.716
  305XTA    CO424058  -9.427  25.298  -6.579
  305XTA    CT124059  -9.489  25.411  -6.503
  305XTA    CL524060  -9.483  25.389  -6.357
  305XTA    CL624061  -9.555  25.265  -6.298
  305XTA    OA424062  -8.519  25.477  -7.856
  305XTA    CO524063  -8.386  25.459  -7.819
  305XTA    HL124064  -8.333  25.478  -7.910
  305XTA    HL224065  -9.100  24.814  -7.590
  305XTA    HL324066  -9.230  24.811  -7.696
  305XTA    HL424067  -9.076  24.885  -7.746
  305XTA    HL524068  -9.185  25.867  -7.045
  305XTA    HL624069  -9.211  25.691  -7.047
  305XTA    HL724070  -9.241  25.794  -6.798
  305XTA    HL824071  -9.068  25.824  -6.816
  305XTA    HL924072  -9.098  25.616  -6.706
  305XTA   HL1024073  -9.008  25.591  -6.851
  305XTA   HL1124074  -9.309  25.544  -6.831
  305XTA   HL1224075  -9.214  25.481  -6.951
  305XTA   HL1324076  -9.152  25.392  -6.681
  305XTA   HL1424077  -9.103  25.317  -6.830
  305XTA   HL1524078  -9.339  25.263  -6.884
  305XTA   HL1624079  -9.272  25.177  -6.745
  305XTA   HL1724080  -9.484  25.203  -6.576
  305XTA   HL1824081  -9.328  25.294  -6.538
  305XTA   HL1924082  -9.511  25.483  -6.310
  305XTA   HL2024083  -9.381  25.374  -6.328
  305XTA   HL2124084  -9.530  25.249  -6.192
  305XTA   HL2224085  -9.529  25.168  -6.346
  305XTA   HL2324086  -9.658  25.275  -6.297
  305XTA   HL2424087  -8.363  25.357  -7.774
  305XTA   HL2524088  -8.353  25.535  -7.747
  305XTA    CO624089  -9.635  25.427  -6.551
  305XTA    CO724090  -9.412  25.541  -6.541
  305XTA    OA524091  -9.441  25.621  -6.470
  305XTA   HL2624092  -9.660  25.525  -6.510
  305XTA   HL2724093  -9.633  25.432  -6.690
  305XTA   HL2824094  -9.437  25.571  -6.643
  305XTA   HL2924095  -9.312  25.520  -6.524
  306XTA     NT24096  -2.698  28.898  -5.789
  306XTA    CN124097  -2.648  28.894  -5.664
  306XTA     C124098  -2.507  28.897  -5.657
  306XTA     C224099  -2.445  28.885  -5.531
  306XTA     C324100  -2.522  28.871  -5.413
  306XTA     C424101  -2.666  28.873  -5.425
  306XTA     C524102  -2.726  28.869  -5.549
  306XTA    CN224103  -2.707  28.792  -5.870
  306XTA     C624104  -2.646  28.804  -5.990
  306XTA     C724105  -2.645  28.694  -6.076
  306XTA     C824106  -2.689  28.560  -6.038
  306XTA     C924107  -2.744  28.554  -5.908
  306XTA    C1024108  -2.753  28.666  -5.827
  306XTA    CN324109  -2.790  28.995  -5.801
  306XTA    C1124110  -2.925  28.970  -5.773
  306XTA    C1224111  -3.012  29.085  -5.778
  306XTA    C1324112  -2.960  29.214  -5.791
  306XTA    C1424113  -2.824  29.236  -5.801
  306XTA    C1524114  -2.739  29.125  -5.814
  306XTA     H124115  -2.431  28.916  -5.736
  306XTA     H224116  -2.341  28.880  -5.533
  306XTA     H324117  -2.715  28.844  -5.338
  306XTA     H424118  -2.833  28.869  -5.560
  306XTA     H524119  -2.606  28.896  -6.029
  306XTA     H624120  -2.601  28.698  -6.180
  306XTA     H724121  -2.781  28.461  -5.866
  306XTA     H824122  -2.787  28.661  -5.723
  306XTA     H924123  -2.967  28.867  -5.747
  306XTA    H1024124  -3.114  29.071  -5.755
  306XTA    H1124125  -2.779  29.333  -5.815
  306XTA    H1224126  -2.635  29.137  -5.837
  306XTA    OA124127  -2.463  28.852  -5.288
  306XTA    CO124128  -2.325  28.871  -5.281
  306XTA    OA224129  -2.680  28.463  -6.128
  306XTA    CO224130  -2.712  28.339  -6.080
  306XTA    CL124131  -2.698  28.243  -6.195
  306XTA    CL224132  -2.802  28.267  -6.308
  306XTA    CL324133  -2.779  28.171  -6.425
  306XTA    CL424134  -2.854  28.203  -6.561
  306XTA    CO324135  -2.793  28.133  -6.693
  306XTA    OA324136  -2.663  28.179  -6.708
  306XTA    CO424137  -2.660  28.295  -6.785
  306XTA    CT124138  -2.534  28.372  -6.752
  306XTA    CL524139  -2.548  28.517  -6.808
  306XTA    CL624140  -2.554  28.534  -6.966
  306XTA    OA424141  -3.059  29.306  -5.798
  306XTA    CO524142  -3.016  29.440  -5.813
  306XTA    HL124143  -3.094  29.504  -5.777
  306XTA    HL224144  -2.291  28.953  -5.335
  306XTA    HL324145  -2.295  28.883  -5.184
  306XTA    HL424146  -2.272  28.780  -5.303
  306XTA    HL524147  -2.650  28.320  -5.995
  306XTA    HL624148  -2.812  28.341  -6.039
  306XTA    HL724149  -2.716  28.142  -6.167
  306XTA    HL824150  -2.595  28.245  -6.238
  306XTA    HL924151  -2.789  28.369  -6.342
  306XTA   HL1024152  -2.897  28.265  -6.260
  306XTA   HL1124153  -2.675  28.154  -6.450
  306XTA   HL1224154  -2.809  28.072  -6.400
  306XTA   HL1324155  -2.850  28.315  -6.577
  306XTA   HL1424156  -2.962  28.199  -6.556
  306XTA   HL1524157  -2.795  28.021  -6.684
  306XTA   HL1624158  -2.851  28.155  -6.788
  306XTA   HL1724159  -2.667  28.267  -6.890
  306XTA   HL1824160  -2.743  28.362  -6.762
  306XTA   HL1924161  -2.456  28.566  -6.766
  306XTA   HL2024162  -2.623  28.583  -6.762
  306XTA   HL2124163  -2.634  28.468  -7.007
  306XTA   HL2224164  -2.466  28.498  -7.021
  306XTA   HL2324165  -2.585  28.636  -6.987
  306XTA   HL2424166  -2.979  29.463  -5.916
  306XTA   HL2524167  -2.944  29.466  -5.743
  306XTA    CO624168  -2.403  28.312  -6.787
  306XTA    CO724169  -2.534  28.382  -6.598
  306XTA    OA524170  -2.451  28.437  -6.554
  306XTA   HL2624171  -2.382  28.218  -6.726
  306XTA   HL2724172  -2.306  28.397  -6.748
  306XTA   HL2824173  -2.514  28.283  -6.550
  306XTA   HL2924174  -2.631  28.404  -6.562
  307XTA     NT24175  -3.805  30.977  -7.897
  307XTA    CN124176  -3.743  30.971  -7.774
  307XTA     C124177  -3.627  31.054  -7.745
  307XTA     C224178  -3.559  31.034  -7.623
  307XTA     C324179  -3.605  30.941  -7.528
  307XTA     C424180  -3.709  30.852  -7.556
  307XTA     C524181  -3.780  30.865  -7.681
  307XTA    CN224182  -3.935  31.014  -7.909
  307XTA     C624183  -4.035  30.926  -7.945
  307XTA     C724184  -4.173  30.969  -7.957
  307XTA     C824185  -4.209  31.103  -7.924
  307XTA     C924186  -4.104  31.190  -7.896
  307XTA    C1024187  -3.968  31.148  -7.888
  307XTA    CN324188  -3.751  30.914  -8.002
  307XTA    C1124189  -3.699  30.784  -7.997
  307XTA    C1224190  -3.649  30.717  -8.116
  307XTA    C1324191  -3.653  30.779  -8.239
  307XTA    C1424192  -3.699  30.911  -8.245
  307XTA    C1524193  -3.751  30.976  -8.128
  307XTA     H124194  -3.604  31.140  -7.806
  307XTA     H224195  -3.471  31.096  -7.602
  307XTA     H324196  -3.726  30.781  -7.485
  307XTA     H424197  -3.861  30.797  -7.702
  307XTA     H524198  -4.022  30.818  -7.949
  307XTA     H624199  -4.250  30.897  -7.969
  307XTA     H724200  -4.115  31.291  -7.868
  307XTA     H824201  -3.894  31.217  -7.858
  307XTA     H924202  -3.704  30.727  -7.909
  307XTA    H1024203  -3.614  30.618  -8.101
  307XTA    H1124204  -3.701  30.951  -8.344
  307XTA    H1224205  -3.800  31.072  -8.134
  307XTA    OA124206  -3.526  30.926  -7.420
  307XTA    CO124207  -3.523  30.802  -7.347
  307XTA    OA224208  -4.335  31.150  -7.928
  307XTA    CO224209  -4.438  31.060  -7.966
  307XTA    CL124210  -4.433  31.023  -8.117
  307XTA    CL224211  -4.548  30.952  -8.179
  307XTA    CL324212  -4.542  30.794  -8.151
  307XTA    CL424213  -4.645  30.766  -8.040
  307XTA    CO324214  -4.655  30.619  -7.995
  307XTA    OA324215  -4.731  30.614  -7.878
  307XTA    CO424216  -4.755  30.478  -7.828
  307XTA    CT124217  -4.775  30.468  -7.674
  307XTA    CL524218  -4.886  30.561  -7.625
  307XTA    CL624219  -4.837  30.705  -7.588
  307XTA    OA424220  -3.617  30.716  -8.355
  307XTA    CO524221  -3.650  30.582  -8.364
  307XTA    HL124222  -3.620  30.548  -8.457
  307XTA    HL224223  -3.446  30.804  -7.273
  307XTA    HL324224  -3.616  30.780  -7.292
  307XTA    HL424225  -3.514  30.713  -7.412
  307XTA    HL524226  -4.429  30.980  -7.891
  307XTA    HL624227  -4.534  31.113  -7.945
  307XTA    HL724228  -4.341  30.975  -8.144
  307XTA    HL824229  -4.440  31.122  -8.161
  307XTA    HL924230  -4.535  30.971  -8.294
  307XTA   HL1024231  -4.644  30.988  -8.135
  307XTA   HL1124232  -4.564  30.745  -8.239
  307XTA   HL1224233  -4.444  30.761  -8.124
  307XTA   HL1324234  -4.750  30.800  -8.071
  307XTA   HL1424235  -4.621  30.822  -7.948
  307XTA   HL1524236  -4.699  30.553  -8.076
  307XTA   HL1624237  -4.559  30.589  -7.967
  307XTA   HL1724238  -4.854  30.452  -7.873
  307XTA   HL1824239  -4.669  30.411  -7.850
  307XTA   HL1924240  -4.930  30.519  -7.535
  307XTA   HL2024241  -4.960  30.558  -7.708
  307XTA   HL2124242  -4.916  30.772  -7.556
  307XTA   HL2224243  -4.812  30.757  -7.684
  307XTA   HL2324244  -4.757  30.705  -7.518
  307XTA   HL2424245  -3.761  30.572  -8.356
  307XTA   HL2524246  -3.597  30.521  -8.293
  307XTA    CO624247  -4.652  30.499  -7.592
  307XTA    CO724248  -4.813  30.323  -7.646
  307XTA    OA524249  -4.944  30.282  -7.675
  307XTA   HL2624250  -4.601  30.585  -7.637
  307XTA   HL2724251  -4.659  30.521  -7.489
  307XTA   HL2824252  -4.790  30.299  -7.542
  307XTA   HL2924253  -4.745  30.270  -7.719
  308XTA     NT24254  -2.408  30.148 -10.888
  308XTA    CN124255  -2.470  30.055 -10.961
  308XTA     C124256  -2.443  30.033 -11.093
  308XTA     C224257  -2.501  29.926 -11.166
  308XTA     C324258  -2.585  29.840 -11.100
  308XTA     C424259  -2.623  29.867 -10.963
  308XTA     C524260  -2.555  29.969 -10.893
  308XTA    CN224261  -2.485  30.252 -10.859
  308XTA     C624262  -2.526  30.265 -10.726
  308XTA     C724263  -2.604  30.376 -10.687
  308XTA     C824264  -2.632  30.483 -10.774
  308XTA     C924265  -2.598  30.465 -10.906
  308XTA    C1024266  -2.532  30.349 -10.950
  308XTA    CN324267  -2.273  30.151 -10.868
  308XTA    C1124268  -2.193  30.251 -10.931
  308XTA    C1224269  -2.051  30.238 -10.929
  308XTA    C1324270  -1.988  30.138 -10.857
  308XTA    C1424271  -2.072  30.043 -10.793
  308XTA    C1524272  -2.211  30.045 -10.803
  308XTA     H124273  -2.371  30.091 -11.146
  308XTA     H224274  -2.463  29.895 -11.261
  308XTA     H324275  -2.681  29.793 -10.910
  308XTA     H424276  -2.590  29.983 -10.789
  308XTA     H524277  -2.481  30.195 -10.656
  308XTA     H624278  -2.643  30.369 -10.588
  308XTA     H724279  -2.622  30.548 -10.973
  308XTA     H824280  -2.501  30.336 -11.053
  308XTA     H924281  -2.241  30.335 -10.979
  308XTA    H1024282  -1.990  30.311 -10.986
  308XTA    H1124283  -2.020  29.963 -10.742
  308XTA    H1224284  -2.274  29.970 -10.762
  308XTA    OA124285  -2.622  29.729 -11.175
  308XTA    CO124286  -2.696  29.627 -11.115
  308XTA    OA224287  -2.690  30.605 -10.731
  308XTA    CO224288  -2.650  30.635 -10.595
  308XTA    CL124289  -2.701  30.773 -10.570
  308XTA    CL224290  -2.623  30.849 -10.461
  308XTA    CL324291  -2.490  30.909 -10.511
  308XTA    CL424292  -2.430  31.003 -10.403
  308XTA    CO324293  -2.278  31.043 -10.423
  308XTA    OA324294  -2.237  31.110 -10.544
  308XTA    CO424295  -2.199  31.029 -10.651
  308XTA    CT124296  -2.134  31.109 -10.765
  308XTA    CL524297  -2.002  31.169 -10.704
  308XTA    CL624298  -1.910  31.075 -10.624
  308XTA    OA424299  -1.847  30.133 -10.859
  308XTA    CO524300  -1.783  30.068 -10.748
  308XTA    HL124301  -1.804  29.960 -10.749
  308XTA    HL224302  -2.644  29.577 -11.036
  308XTA    HL324303  -2.794  29.680 -11.073
  308XTA    HL424304  -2.727  29.551 -11.182
  308XTA    HL524305  -2.686  30.573 -10.518
  308XTA    HL624306  -2.540  30.640 -10.590
  308XTA    HL724307  -2.799  30.757 -10.529
  308XTA    HL824308  -2.725  30.827 -10.662
  308XTA    HL924309  -2.606  30.785 -10.374
  308XTA   HL1024310  -2.677  30.934 -10.431
  308XTA   HL1124311  -2.416  30.829 -10.538
  308XTA   HL1224312  -2.508  30.973 -10.593
  308XTA   HL1324313  -2.445  30.957 -10.302
  308XTA   HL1424314  -2.494  31.090 -10.403
  308XTA   HL1524315  -2.251  31.111 -10.336
  308XTA   HL1624316  -2.215  30.960 -10.412
  308XTA   HL1724317  -2.136  30.946 -10.620
  308XTA   HL1824318  -2.287  30.976 -10.680
  308XTA   HL1924319  -2.034  31.256 -10.644
  308XTA   HL2024320  -1.940  31.218 -10.780
  308XTA   HL2124321  -1.820  31.126 -10.601
  308XTA   HL2224322  -1.881  30.979 -10.664
  308XTA   HL2324323  -1.959  31.055 -10.530
  308XTA   HL2424324  -1.825  30.107 -10.654
  308XTA   HL2524325  -1.673  30.080 -10.746
  308XTA    CO624326  -2.227  31.219 -10.814
  308XTA    CO724327  -2.100  31.010 -10.882
  308XTA    OA524328  -2.218  30.950 -10.933
  308XTA   HL2624329  -2.238  31.286 -10.734
  308XTA   HL2724330  -2.327  31.169 -10.830
  308XTA   HL2824331  -2.025  30.929 -10.855
  308XTA   HL2924332  -2.067  31.080 -10.964
  309XTA     NT24333  -0.749  24.673 -10.605
  309XTA    CN124334  -0.624  24.720 -10.598
  309XTA     C124335  -0.591  24.842 -10.663
  309XTA     C224336  -0.460  24.904 -10.647
  309XTA     C324337  -0.370  24.845 -10.558
  309XTA     C424338  -0.409  24.723 -10.488
  309XTA     C524339  -0.532  24.660 -10.507
  309XTA    CN224340  -0.851  24.730 -10.539
  309XTA     C624341  -0.874  24.691 -10.404
  309XTA     C724342  -0.985  24.740 -10.329
  309XTA     C824343  -1.063  24.840 -10.380
  309XTA     C924344  -1.032  24.888 -10.510
  309XTA    C1024345  -0.940  24.822 -10.594
  309XTA    CN324346  -0.784  24.569 -10.685
  309XTA    C1124347  -0.836  24.446 -10.629
  309XTA    C1224348  -0.896  24.349 -10.711
  309XTA    C1324349  -0.889  24.365 -10.855
  309XTA    C1424350  -0.841  24.491 -10.909
  309XTA    C1524351  -0.794  24.591 -10.822
  309XTA     H124352  -0.661  24.881 -10.734
  309XTA     H224353  -0.431  24.992 -10.704
  309XTA     H324354  -0.340  24.685 -10.410
  309XTA     H424355  -0.576  24.573 -10.460
  309XTA     H524356  -0.806  24.615 -10.358
  309XTA     H624357  -1.001  24.702 -10.227
  309XTA     H724358  -1.091  24.969 -10.544
  309XTA     H824359  -0.917  24.848 -10.700
  309XTA     H924360  -0.832  24.429 -10.521
  309XTA    H1024361  -0.939  24.258 -10.667
  309XTA    H1124362  -0.842  24.510 -11.017
  309XTA    H1224363  -0.766  24.685 -10.861
  309XTA    OA124364  -0.255  24.911 -10.533
  309XTA    CO124365  -0.205  24.898 -10.402
  309XTA    OA224366  -1.172  24.882 -10.311
  309XTA    CO224367  -1.293  24.880 -10.380
  309XTA    CL124368  -1.318  24.740 -10.444
  309XTA    CL224369  -1.464  24.740 -10.495
  309XTA    CL324370  -1.498  24.628 -10.583
  309XTA    CL424371  -1.646  24.614 -10.621
  309XTA    CO324372  -1.674  24.482 -10.701
  309XTA    OA324373  -1.796  24.501 -10.768
  309XTA    CO424374  -1.831  24.391 -10.850
  309XTA    CT124375  -1.931  24.424 -10.966
  309XTA    CL524376  -2.074  24.447 -10.915
  309XTA    CL624377  -2.187  24.490 -11.010
  309XTA    OA424378  -0.945  24.257 -10.922
  309XTA    CO524379  -0.923  24.240 -11.057
  309XTA    HL124380  -0.916  24.334 -11.114
  309XTA    HL224381  -0.159  24.804 -10.398
  309XTA    HL324382  -0.138  24.985 -10.384
  309XTA    HL424383  -0.284  24.904 -10.323
  309XTA    HL524384  -1.372  24.902 -10.296
  309XTA    HL624385  -1.291  24.964 -10.459
  309XTA    HL724386  -1.300  24.659 -10.377
  309XTA    HL824387  -1.249  24.731 -10.527
  309XTA    HL924388  -1.493  24.829 -10.564
  309XTA   HL1024389  -1.523  24.749 -10.409
  309XTA   HL1124390  -1.423  24.625 -10.671
  309XTA   HL1224391  -1.478  24.542 -10.516
  309XTA   HL1324392  -1.677  24.692 -10.690
  309XTA   HL1424393  -1.703  24.636 -10.536
  309XTA   HL1524394  -1.596  24.475 -10.774
  309XTA   HL1624395  -1.675  24.390 -10.637
  309XTA   HL1724396  -1.748  24.327 -10.884
  309XTA   HL1824397  -1.881  24.332 -10.774
  309XTA   HL1924398  -2.064  24.511 -10.834
  309XTA   HL2024399  -2.115  24.353 -10.877
  309XTA   HL2124400  -2.289  24.467 -10.974
  309XTA   HL2224401  -2.172  24.445 -11.107
  309XTA   HL2324402  -2.192  24.599 -11.017
  309XTA   HL2424403  -1.017  24.189 -11.100
  309XTA   HL2524404  -0.838  24.180 -11.061
  309XTA    CO624405  -1.936  24.305 -11.070
  309XTA    CO724406  -1.877  24.546 -11.035
  309XTA    OA524407  -1.959  24.189 -10.994
  309XTA   HL2624408  -1.837  24.290 -11.105
  309XTA   HL2724409  -2.011  24.320 -11.151
  309XTA   HL2824410  -1.772  24.517 -11.059
  309XTA   HL2924411  -1.866  24.628 -10.961
  310XTA     NT24412  -2.968  29.127  -8.601
  310XTA    CN124413  -2.876  29.177  -8.684
  310XTA     C124414  -2.801  29.289  -8.642
  310XTA     C224415  -2.710  29.349  -8.730
  310XTA     C324416  -2.683  29.288  -8.859
  310XTA     C424417  -2.758  29.169  -8.897
  310XTA     C524418  -2.847  29.112  -8.809
  310XTA    CN224419  -3.096  29.122  -8.641
  310XTA     C624420  -3.158  29.239  -8.690
  310XTA     C724421  -3.288  29.239  -8.740
  310XTA     C824422  -3.363  29.120  -8.728
  310XTA     C924423  -3.306  29.002  -8.670
  310XTA    C1024424  -3.172  29.005  -8.631
  310XTA    CN324425  -2.945  29.112  -8.467
  310XTA    C1124426  -2.903  28.989  -8.418
  310XTA    C1224427  -2.865  28.975  -8.284
  310XTA    C1324428  -2.880  29.087  -8.197
  310XTA    C1424429  -2.934  29.206  -8.245
  310XTA    C1524430  -2.965  29.220  -8.382
  310XTA     H124431  -2.812  29.343  -8.549
  310XTA     H224432  -2.665  29.430  -8.694
  310XTA     H324433  -2.728  29.120  -8.991
  310XTA     H424434  -2.904  29.027  -8.829
  310XTA     H524435  -3.097  29.325  -8.698
  310XTA     H624436  -3.336  29.327  -8.779
  310XTA     H724437  -3.357  28.905  -8.665
  310XTA     H824438  -3.117  28.917  -8.589
  310XTA     H924439  -2.884  28.907  -8.487
  310XTA    H1024440  -2.838  28.874  -8.258
  310XTA    H1124441  -2.962  29.285  -8.174
  310XTA    H1224442  -3.010  29.317  -8.410
  310XTA    OA124443  -2.593  29.340  -8.952
  310XTA    CO124444  -2.504  29.441  -8.909
  310XTA    OA224445  -3.491  29.117  -8.788
  310XTA    CO224446  -3.591  29.051  -8.708
  310XTA    CL124447  -3.721  29.107  -8.751
  310XTA    CL224448  -3.835  29.024  -8.708
  310XTA    CL324449  -3.842  28.976  -8.563
  310XTA    CL424450  -3.854  29.087  -8.455
  310XTA    CO324451  -3.831  29.030  -8.316
  310XTA    OA324452  -3.695  28.997  -8.316
  310XTA    CO424453  -3.618  29.118  -8.312
  310XTA    CT124454  -3.489  29.106  -8.230
  310XTA    CL524455  -3.408  29.237  -8.242
  310XTA    CL624456  -3.359  29.259  -8.384
  310XTA    OA424457  -2.866  29.067  -8.058
  310XTA    CO524458  -2.874  29.180  -7.973
  310XTA    HL124459  -2.813  29.174  -7.880
  310XTA    HL224460  -2.431  29.459  -8.989
  310XTA    HL324461  -2.553  29.525  -8.870
  310XTA    HL424462  -2.443  29.402  -8.821
  310XTA    HL524463  -3.577  28.942  -8.726
  310XTA    HL624464  -3.574  29.047  -8.597
  310XTA    HL724465  -3.722  29.138  -8.855
  310XTA    HL824466  -3.726  29.200  -8.707
  310XTA    HL924467  -3.841  28.933  -8.772
  310XTA   HL1024468  -3.928  29.067  -8.735
  310XTA   HL1124469  -3.919  28.896  -8.561
  310XTA   HL1224470  -3.747  28.925  -8.536
  310XTA   HL1324471  -3.963  29.126  -8.479
  310XTA   HL1424472  -3.793  29.179  -8.483
  310XTA   HL1524473  -3.846  29.105  -8.234
  310XTA   HL1624474  -3.893  28.943  -8.295
  310XTA   HL1724475  -3.593  29.130  -8.413
  310XTA   HL1824476  -3.677  29.201  -8.273
  310XTA   HL1924477  -3.314  29.250  -8.176
  310XTA   HL2024478  -3.478  29.311  -8.211
  310XTA   HL2124479  -3.303  29.177  -8.426
  310XTA   HL2224480  -3.277  29.330  -8.395
  310XTA   HL2324481  -3.437  29.284  -8.453
  310XTA   HL2424482  -2.981  29.200  -7.955
  310XTA   HL2524483  -2.827  29.259  -8.030
  310XTA    CO624484  -3.415  28.978  -8.263
  310XTA    CO724485  -3.532  29.088  -8.083
  310XTA    OA524486  -3.325  28.957  -8.209
  310XTA   HL2624487  -3.401  28.974  -8.370
  310XTA   HL2724488  -3.477  28.898  -8.221
  310XTA   HL2824489  -3.563  28.952  -8.055
  310XTA   HL2924490  -3.614  29.157  -8.063
  311XTA     NT24491  -2.803  30.154  -9.571
  311XTA    CN124492  -2.747  30.104  -9.456
  311XTA     C124493  -2.619  30.048  -9.462
  311XTA     C224494  -2.566  29.992  -9.339
  311XTA     C324495  -2.646  30.000  -9.215
  311XTA     C424496  -2.776  30.056  -9.217
  311XTA     C524497  -2.818  30.107  -9.337
  311XTA    CN224498  -2.889  30.079  -9.648
  311XTA     C624499  -3.018  30.120  -9.671
  311XTA     C724500  -3.111  30.052  -9.754
  311XTA     C824501  -3.068  29.927  -9.812
  311XTA     C924502  -2.934  29.888  -9.792
  311XTA    C1024503  -2.846  29.962  -9.711
  311XTA    CN324504  -2.754  30.267  -9.616
  311XTA    C1124505  -2.676  30.268  -9.734
  311XTA    C1224506  -2.606  30.378  -9.777
  311XTA    C1324507  -2.602  30.495  -9.696
  311XTA    C1424508  -2.681  30.499  -9.583
  311XTA    C1524509  -2.765  30.388  -9.540
  311XTA     H124510  -2.554  30.046  -9.548
  311XTA     H224511  -2.460  29.952  -9.335
  311XTA     H324512  -2.842  30.064  -9.134
  311XTA     H424513  -2.917  30.152  -9.337
  311XTA     H524514  -3.051  30.207  -9.620
  311XTA     H624515  -3.213  30.075  -9.766
  311XTA     H724516  -2.897  29.796  -9.829
  311XTA     H824517  -2.750  29.919  -9.700
  311XTA     H924518  -2.679  30.179  -9.801
  311XTA    H1024519  -2.547  30.367  -9.866
  311XTA    H1124520  -2.680  30.584  -9.520
  311XTA    H1224521  -2.828  30.389  -9.454
  311XTA    OA124522  -2.614  29.943  -9.094
  311XTA    CO124523  -2.514  29.844  -9.089
  311XTA    OA224524  -3.153  29.850  -9.893
  311XTA    CO224525  -3.283  29.901  -9.917
  311XTA    CL124526  -3.352  29.806 -10.015
  311XTA    CL224527  -3.500  29.850 -10.038
  311XTA    CL324528  -3.509  29.980 -10.122
  311XTA    CL424529  -3.656  30.001 -10.157
  311XTA    CO324530  -3.658  30.130 -10.231
  311XTA    OA324531  -3.788  30.171 -10.249
  311XTA    CO424532  -3.791  30.315 -10.278
  311XTA    CT124533  -3.933  30.365 -10.324
  311XTA    CL524534  -3.951  30.508 -10.378
  311XTA    CL624535  -3.866  30.548 -10.500
  311XTA    OA424536  -2.529  30.606  -9.738
  311XTA    CO524537  -2.467  30.689  -9.641
  311XTA    HL124538  -2.387  30.630  -9.596
  311XTA    HL224539  -2.504  29.790  -8.993
  311XTA    HL324540  -2.534  29.771  -9.169
  311XTA    HL424541  -2.415  29.888  -9.115
  311XTA    HL524542  -3.331  29.905  -9.815
  311XTA    HL624543  -3.286  30.000  -9.961
  311XTA    HL724544  -3.345  29.702  -9.980
  311XTA    HL824545  -3.292  29.822 -10.102
  311XTA    HL924546  -3.545  29.862  -9.935
  311XTA   HL1024547  -3.555  29.771 -10.086
  311XTA   HL1124548  -3.471  30.057 -10.055
  311XTA   HL1224549  -3.441  29.965 -10.212
  311XTA   HL1324550  -3.713  30.005 -10.065
  311XTA   HL1424551  -3.703  29.930 -10.224
  311XTA   HL1524552  -3.604  30.198 -10.165
  311XTA   HL1624553  -3.613  30.120 -10.332
  311XTA   HL1724554  -3.734  30.370 -10.199
  311XTA   HL1824555  -3.733  30.318 -10.373
  311XTA   HL1924556  -3.926  30.573 -10.292
  311XTA   HL2024557  -4.053  30.527 -10.403
  311XTA   HL2124558  -3.879  30.486 -10.595
  311XTA   HL2224559  -3.761  30.536 -10.472
  311XTA   HL2324560  -3.884  30.647 -10.528
  311XTA   HL2424561  -2.537  30.722  -9.567
  311XTA   HL2524562  -2.428  30.779  -9.691
  311XTA    CO624563  -4.034  30.350 -10.207
  311XTA    CO724564  -3.983  30.267 -10.432
  311XTA    OA524565  -4.117  30.295 -10.481
  311XTA   HL2624566  -4.133  30.369 -10.242
  311XTA   HL2724567  -4.038  30.245 -10.172
  311XTA   HL2824568  -3.976  30.174 -10.394
  311XTA   HL2924569  -3.910  30.275 -10.510
  312XTA     NT24570  -7.035  27.260  -9.116
  312XTA    CN124571  -7.056  27.281  -9.247
  312XTA     C124572  -7.141  27.381  -9.289
  312XTA     C224573  -7.175  27.393  -9.422
  312XTA     C324574  -7.133  27.297  -9.514
  312XTA     C424575  -7.033  27.203  -9.469
  312XTA     C524576  -6.998  27.193  -9.336
  312XTA    CN224577  -7.141  27.234  -9.036
  312XTA     C624578  -7.210  27.108  -9.042
  312XTA     C724579  -7.310  27.084  -8.947
  312XTA     C824580  -7.356  27.184  -8.865
  312XTA     C924581  -7.295  27.308  -8.865
  312XTA    C1024582  -7.182  27.332  -8.946
  312XTA    CN324583  -6.913  27.231  -9.069
  312XTA    C1124584  -6.873  27.098  -9.046
  312XTA    C1224585  -6.755  27.070  -8.970
  312XTA    C1324586  -6.660  27.169  -8.944
  312XTA    C1424587  -6.703  27.303  -8.976
  312XTA    C1524588  -6.823  27.333  -9.044
  312XTA     H124589  -7.186  27.444  -9.216
  312XTA     H224590  -7.234  27.472  -9.451
  312XTA     H324591  -6.993  27.124  -9.533
  312XTA     H424592  -6.930  27.118  -9.298
  312XTA     H524593  -7.184  27.028  -9.119
  312XTA     H624594  -7.376  26.999  -8.963
  312XTA     H724595  -7.323  27.389  -8.800
  312XTA     H824596  -7.126  27.426  -8.929
  312XTA     H924597  -6.937  27.014  -9.059
  312XTA    H1024598  -6.740  26.969  -8.945
  312XTA    H1124599  -6.641  27.386  -8.950
  312XTA    H1224600  -6.850  27.433  -9.069
  312XTA    OA124601  -7.165  27.310  -9.647
  312XTA    CO124602  -7.129  27.198  -9.719
  312XTA    OA224603  -7.470  27.169  -8.787
  312XTA    CO224604  -7.451  27.128  -8.653
  312XTA    CL124605  -7.463  26.976  -8.628
  312XTA    CL224606  -7.415  26.935  -8.481
  312XTA    CL324607  -7.481  26.815  -8.413
  312XTA    CL424608  -7.438  26.680  -8.481
  312XTA    CO324609  -7.500  26.560  -8.410
  312XTA    OA324610  -7.628  26.583  -8.372
  312XTA    CO424611  -7.692  26.467  -8.333
  312XTA    CT124612  -7.789  26.489  -8.213
  312XTA    CL524613  -7.850  26.348  -8.168
  312XTA    CL624614  -7.946  26.280  -8.268
  312XTA    OA424615  -6.545  27.144  -8.875
  312XTA    CO524616  -6.451  27.247  -8.868
  312XTA    HL124617  -6.352  27.210  -8.843
  312XTA    HL224618  -7.163  27.218  -9.815
  312XTA    HL324619  -7.023  27.180  -9.734
  312XTA    HL424620  -7.181  27.109  -9.678
  312XTA    HL524621  -7.357  27.174  -8.608
  312XTA    HL624622  -7.531  27.168  -8.586
  312XTA    HL724623  -7.393  26.920  -8.692
  312XTA    HL824624  -7.558  26.935  -8.652
  312XTA    HL924625  -7.445  27.022  -8.426
  312XTA   HL1024626  -7.309  26.926  -8.473
  312XTA   HL1124627  -7.439  26.814  -8.308
  312XTA   HL1224628  -7.587  26.811  -8.401
  312XTA   HL1324629  -7.330  26.670  -8.503
  312XTA   HL1424630  -7.479  26.664  -8.583
  312XTA   HL1524631  -7.493  26.471  -8.479
  312XTA   HL1624632  -7.440  26.533  -8.320
  312XTA   HL1724633  -7.752  26.438  -8.418
  312XTA   HL1824634  -7.611  26.405  -8.304
  312XTA   HL1924635  -7.913  26.361  -8.076
  312XTA   HL2024636  -7.765  26.286  -8.144
  312XTA   HL2124637  -7.995  26.189  -8.230
  312XTA   HL2224638  -7.879  26.240  -8.347
  312XTA   HL2324639  -8.027  26.345  -8.304
  312XTA   HL2424640  -6.485  27.333  -8.804
  312XTA   HL2524641  -6.448  27.283  -8.972
  312XTA    CO624642  -7.897  26.582  -8.260
  312XTA    CO724643  -7.715  26.564  -8.102
  312XTA    OA524644  -7.973  26.594  -8.184
  312XTA   HL2624645  -7.954  26.564  -8.352
  312XTA   HL2724646  -7.859  26.683  -8.277
  312XTA   HL2824647  -7.643  26.676  -8.149
  312XTA   HL2924648  -7.781  26.596  -8.021
  313XTA     NT24649  -9.728  24.637  -5.096
  313XTA    CN124650  -9.705  24.559  -5.208
  313XTA     C124651  -9.793  24.560  -5.320
  313XTA     C224652  -9.757  24.502  -5.446
  313XTA     C324653  -9.633  24.441  -5.460
  313XTA     C424654  -9.544  24.443  -5.351
  313XTA     C524655  -9.587  24.491  -5.221
  313XTA    CN224656  -9.635  24.737  -5.084
  313XTA     C624657  -9.536  24.729  -4.986
  313XTA     C724658  -9.421  24.813  -4.993
  313XTA     C824659  -9.406  24.913  -5.090
  313XTA     C924660  -9.506  24.912  -5.189
  313XTA    C1024661  -9.619  24.829  -5.185
  313XTA    CN324662  -9.820  24.595  -5.005
  313XTA    C1124663  -9.948  24.653  -4.990
  313XTA    C1224664 -10.029  24.611  -4.876
  313XTA    C1324665  -9.984  24.519  -4.783
  313XTA    C1424666  -9.861  24.454  -4.806
  313XTA    C1524667  -9.781  24.494  -4.917
  313XTA     H124668  -9.894  24.600  -5.304
  313XTA     H224669  -9.826  24.494  -5.532
  313XTA     H324670  -9.447  24.410  -5.362
  313XTA     H424671  -9.519  24.478  -5.132
  313XTA     H524672  -9.543  24.656  -4.913
  313XTA     H624673  -9.353  24.803  -4.909
  313XTA     H724674  -9.487  24.988  -5.267
  313XTA     H824675  -9.691  24.839  -5.267
  313XTA     H924676  -9.984  24.732  -5.058
  313XTA    H1024677 -10.128  24.653  -4.870
  313XTA    H1124678  -9.830  24.379  -4.735
  313XTA    H1224679  -9.680  24.453  -4.927
  313XTA    OA124680  -9.600  24.396  -5.588
  313XTA    CO124681  -9.460  24.383  -5.616
  313XTA    OA224682  -9.295  24.991  -5.084
  313XTA    CO224683  -9.287  25.111  -5.161
  313XTA    CL124684  -9.133  25.127  -5.197
  313XTA    CL224685  -9.109  25.254  -5.280
  313XTA    CL324686  -8.962  25.300  -5.259
  313XTA    CL424687  -8.945  25.442  -5.315
  313XTA    CO324688  -8.807  25.491  -5.336
  313XTA    OA324689  -8.761  25.519  -5.206
  313XTA    CO424690  -8.648  25.600  -5.201
  313XTA    CT124691  -8.602  25.617  -5.054
  313XTA    CL524692  -8.556  25.487  -4.985
  313XTA    CL624693  -8.664  25.382  -4.982
  313XTA    OA424694 -10.054  24.469  -4.676
  313XTA    CO524695 -10.193  24.508  -4.667
  313XTA    HL124696 -10.251  24.519  -4.763
  313XTA    HL224697  -9.419  24.299  -5.549
  313XTA    HL324698  -9.436  24.357  -5.719
  313XTA    HL424699  -9.411  24.476  -5.587
  313XTA    HL524700  -9.350  25.120  -5.251
  313XTA    HL624701  -9.321  25.195  -5.106
  313XTA    HL724702  -9.088  25.044  -5.251
  313XTA    HL824703  -9.085  25.131  -5.104
  313XTA    HL924704  -9.177  25.329  -5.261
  313XTA   HL1024705  -9.121  25.225  -5.385
  313XTA   HL1124706  -8.941  25.279  -5.158
  313XTA   HL1224707  -8.890  25.229  -5.313
  313XTA   HL1324708  -9.012  25.500  -5.256
  313XTA   HL1424709  -8.968  25.426  -5.425
  313XTA   HL1524710  -8.749  25.428  -5.395
  313XTA   HL1624711  -8.809  25.586  -5.390
  313XTA   HL1724712  -8.570  25.553  -5.259
  313XTA   HL1824713  -8.679  25.695  -5.245
  313XTA   HL1924714  -8.536  25.508  -4.877
  313XTA   HL2024715  -8.459  25.461  -5.030
  313XTA   HL2124716  -8.618  25.293  -4.946
  313XTA   HL2224717  -8.710  25.353  -5.076
  313XTA   HL2324718  -8.746  25.401  -4.920
  313XTA   HL2424719 -10.203  24.602  -4.614
  313XTA   HL2524720 -10.251  24.435  -4.607
  313XTA    CO624721  -8.707  25.695  -4.971
  313XTA    CO724722  -8.484  25.712  -5.056
  313XTA    OA524723  -8.698  25.706  -4.829
  313XTA   HL2624724  -8.804  25.640  -4.981
  313XTA   HL2724725  -8.718  25.796  -5.003
  313XTA   HL2824726  -8.410  25.664  -5.126
  313XTA   HL2924727  -8.434  25.716  -4.959
  314XTA     NT24728  -2.293  27.740  -7.873
  314XTA    CN124729  -2.205  27.682  -7.786
  314XTA     C124730  -2.193  27.737  -7.661
  314XTA     C224731  -2.106  27.685  -7.567
  314XTA     C324732  -2.027  27.574  -7.598
  314XTA     C424733  -2.047  27.510  -7.720
  314XTA     C524734  -2.133  27.567  -7.818
  314XTA    CN224735  -2.234  27.790  -7.989
  314XTA     C624736  -2.254  27.723  -8.114
  314XTA     C724737  -2.186  27.771  -8.226
  314XTA     C824738  -2.096  27.883  -8.207
  314XTA     C924739  -2.060  27.929  -8.076
  314XTA    C1024740  -2.136  27.887  -7.972
  314XTA    CN324741  -2.417  27.775  -7.834
  314XTA    C1124742  -2.466  27.909  -7.857
  314XTA    C1224743  -2.598  27.936  -7.815
  314XTA    C1324744  -2.674  27.838  -7.745
  314XTA    C1424745  -2.624  27.707  -7.721
  314XTA    C1524746  -2.493  27.679  -7.761
  314XTA     H124747  -2.250  27.824  -7.638
  314XTA     H224748  -2.090  27.732  -7.473
  314XTA     H324749  -1.985  27.426  -7.747
  314XTA     H424750  -2.133  27.527  -7.918
  314XTA     H524751  -2.311  27.630  -8.129
  314XTA     H624752  -2.201  27.730  -8.323
  314XTA     H724753  -1.977  27.999  -8.061
  314XTA     H824754  -2.108  27.922  -7.876
  314XTA     H924755  -2.403  27.986  -7.899
  314XTA    H1024756  -2.641  28.034  -7.840
  314XTA    H1124757  -2.693  27.635  -7.675
  314XTA    H1224758  -2.455  27.578  -7.750
  314XTA    OA124759  -1.930  27.537  -7.512
  314XTA    CO124760  -1.797  27.592  -7.544
  314XTA    OA224761  -2.037  27.936  -8.320
  314XTA    CO224762  -1.949  28.051  -8.311
  314XTA    CL124763  -2.017  28.178  -8.257
  314XTA    CL224764  -1.933  28.310  -8.247
  314XTA    CL324765  -1.968  28.398  -8.133
  314XTA    CL424766  -1.868  28.511  -8.100
  314XTA    CO324767  -1.911  28.599  -7.984
  314XTA    OA324768  -1.823  28.716  -7.963
  314XTA    CO424769  -1.864  28.807  -7.861
  314XTA    CT124770  -1.783  28.931  -7.845
  314XTA    CL524771  -1.636  28.897  -7.863
  314XTA    CL624772  -1.524  29.002  -7.818
  314XTA    OA424773  -2.798  27.871  -7.699
  314XTA    CO524774  -2.841  27.810  -7.572
  314XTA    HL124775  -2.763  27.783  -7.508
  314XTA    HL224776  -1.805  27.699  -7.537
  314XTA    HL324777  -1.718  27.551  -7.486
  314XTA    HL424778  -1.778  27.574  -7.645
  314XTA    HL524779  -1.869  28.012  -8.253
  314XTA    HL624780  -1.914  28.077  -8.409
  314XTA    HL724781  -2.047  28.149  -8.158
  314XTA    HL824782  -2.106  28.203  -8.319
  314XTA    HL924783  -1.925  28.361  -8.338
  314XTA   HL1024784  -1.829  28.276  -8.224
  314XTA   HL1124785  -2.065  28.444  -8.138
  314XTA   HL1224786  -1.976  28.327  -8.052
  314XTA   HL1324787  -1.877  28.580  -8.182
  314XTA   HL1424788  -1.768  28.470  -8.087
  314XTA   HL1524789  -2.009  28.642  -8.000
  314XTA   HL1624790  -1.939  28.543  -7.892
  314XTA   HL1724791  -1.968  28.823  -7.851
  314XTA   HL1824792  -1.847  28.738  -7.779
  314XTA   HL1924793  -1.624  28.880  -7.965
  314XTA   HL2024794  -1.626  28.801  -7.811
  314XTA   HL2124795  -1.528  29.006  -7.711
  314XTA   HL2224796  -1.540  29.099  -7.856
  314XTA   HL2324797  -1.419  28.978  -7.837
  314XTA   HL2424798  -2.886  27.714  -7.595
  314XTA   HL2524799  -2.920  27.857  -7.511
  314XTA    CO624800  -1.813  28.989  -7.704
  314XTA    CO724801  -1.838  29.042  -7.938
  314XTA    OA524802  -1.810  29.017  -8.073
  314XTA   HL2624803  -1.776  28.906  -7.635
  314XTA   HL2724804  -1.737  29.066  -7.678
  314XTA   HL2824805  -1.789  29.137  -7.906
  314XTA   HL2924806  -1.948  29.059  -7.932
  315XTA     NT24807  -3.833  29.234  -7.064
  315XTA    CN124808  -3.887  29.115  -7.040
  315XTA     C124809  -3.943  29.050  -7.153
  315XTA     C224810  -4.018  28.930  -7.138
  315XTA     C324811  -4.028  28.871  -7.007
  315XTA     C424812  -3.956  28.931  -6.905
  315XTA     C524813  -3.876  29.046  -6.919
  315XTA    CN224814  -3.701  29.245  -7.088
  315XTA     C624815  -3.657  29.312  -7.203
  315XTA     C724816  -3.519  29.306  -7.238
  315XTA     C824817  -3.423  29.251  -7.156
  315XTA     C924818  -3.465  29.209  -7.030
  315XTA    C1024819  -3.601  29.204  -6.994
  315XTA    CN324820  -3.897  29.341  -7.012
  315XTA    C1124821  -3.843  29.410  -6.900
  315XTA    C1224822  -3.922  29.506  -6.837
  315XTA    C1324823  -4.047  29.537  -6.886
  315XTA    C1424824  -4.099  29.474  -7.003
  315XTA    C1524825  -4.021  29.379  -7.069
  315XTA     H124826  -3.946  29.097  -7.242
  315XTA     H224827  -4.072  28.888  -7.218
  315XTA     H324828  -3.954  28.879  -6.813
  315XTA     H424829  -3.827  29.097  -6.836
  315XTA     H524830  -3.731  29.348  -7.273
  315XTA     H624831  -3.495  29.343  -7.331
  315XTA     H724832  -3.388  29.161  -6.974
  315XTA     H824833  -3.639  29.159  -6.904
  315XTA     H924834  -3.742  29.381  -6.859
  315XTA    H1024835  -3.883  29.538  -6.743
  315XTA    H1124836  -4.202  29.487  -7.035
  315XTA    H1224837  -4.063  29.328  -7.145
  315XTA    OA124838  -4.104  28.765  -6.970
  315XTA    CO124839  -4.192  28.719  -7.068
  315XTA    OA224840  -3.296  29.242  -7.194
  315XTA    CO224841  -3.245  29.113  -7.198
  315XTA    CL124842  -3.083  29.108  -7.219
  315XTA    CL224843  -3.047  29.082  -7.363
  315XTA    CL324844  -3.098  29.189  -7.464
  315XTA    CL424845  -3.040  29.177  -7.601
  315XTA    CO324846  -3.064  29.312  -7.679
  315XTA    OA324847  -3.201  29.329  -7.715
  315XTA    CO424848  -3.242  29.254  -7.830
  315XTA    CT124849  -3.395  29.246  -7.805
  315XTA    CL524850  -3.469  29.377  -7.817
  315XTA    CL624851  -3.454  29.435  -7.959
  315XTA    OA424852  -4.127  29.626  -6.829
  315XTA    CO524853  -4.067  29.716  -6.733
  315XTA    HL124854  -4.007  29.669  -6.656
  315XTA    HL224855  -4.252  28.805  -7.103
  315XTA    HL324856  -4.136  28.688  -7.160
  315XTA    HL424857  -4.261  28.641  -7.028
  315XTA    HL524858  -3.276  29.058  -7.109
  315XTA    HL624859  -3.291  29.054  -7.274
  315XTA    HL724860  -3.035  29.035  -7.155
  315XTA    HL824861  -3.038  29.200  -7.189
  315XTA    HL924862  -3.087  28.987  -7.400
  315XTA   HL1024863  -2.942  29.082  -7.369
  315XTA   HL1124864  -3.208  29.187  -7.472
  315XTA   HL1224865  -3.075  29.287  -7.421
  315XTA   HL1324866  -3.081  29.090  -7.642
  315XTA   HL1424867  -2.931  29.159  -7.600
  315XTA   HL1524868  -3.044  29.395  -7.613
  315XTA   HL1624869  -3.000  29.311  -7.772
  315XTA   HL1724870  -3.214  29.309  -7.923
  315XTA   HL1824871  -3.191  29.153  -7.842
  315XTA   HL1924872  -3.409  29.452  -7.757
  315XTA   HL2024873  -3.577  29.369  -7.800
  315XTA   HL2124874  -3.519  29.387  -8.035
  315XTA   HL2224875  -3.352  29.438  -7.993
  315XTA   HL2324876  -3.494  29.534  -7.954
  315XTA   HL2424877  -4.128  29.788  -6.683
  315XTA   HL2524878  -4.000  29.778  -6.789
  315XTA    CO624879  -3.415  29.194  -7.660
  315XTA    CO724880  -3.460  29.132  -7.890
  315XTA    OA524881  -3.424  29.134  -7.998
  315XTA   HL2624882  -3.345  29.116  -7.634
  315XTA   HL2724883  -3.391  29.288  -7.562
  315XTA   HL2824884  -3.569  29.144  -7.877
  315XTA   HL2924885  -3.436  29.034  -7.855
  316XTA     NT24886  -1.969  30.215 -12.190
  316XTA    CN124887  -1.919  30.179 -12.310
  316XTA     C124888  -1.782  30.137 -12.320
  316XTA     C224889  -1.723  30.095 -12.444
  316XTA     C324890  -1.801  30.108 -12.553
  316XTA     C424891  -1.936  30.148 -12.546
  316XTA     C524892  -1.997  30.189 -12.423
  316XTA    CN224893  -2.033  30.123 -12.104
  316XTA     C624894  -1.959  30.019 -12.046
  316XTA     C724895  -2.022  29.923 -11.963
  316XTA     C824896  -2.162  29.933 -11.945
  316XTA     C924897  -2.236  30.033 -12.004
  316XTA    C1024898  -2.168  30.134 -12.079
  316XTA    CN324899  -1.960  30.344 -12.153
  316XTA    C1124900  -1.844  30.388 -12.086
  316XTA    C1224901  -1.811  30.520 -12.063
  316XTA    C1324902  -1.898  30.618 -12.114
  316XTA    C1424903  -2.016  30.579 -12.187
  316XTA    C1524904  -2.052  30.441 -12.196
  316XTA     H124905  -1.711  30.136 -12.234
  316XTA     H224906  -1.617  30.070 -12.464
  316XTA     H324907  -1.997  30.161 -12.636
  316XTA     H424908  -2.090  30.238 -12.404
  316XTA     H524909  -1.856  30.008 -12.077
  316XTA     H624910  -1.966  29.845 -11.913
  316XTA     H724911  -2.339  30.027 -11.985
  316XTA     H824912  -2.227  30.213 -12.123
  316XTA     H924913  -1.769  30.314 -12.063
  316XTA    H1024914  -1.719  30.546 -12.016
  316XTA    H1124915  -2.077  30.653 -12.229
  316XTA    H1224916  -2.145  30.410 -12.249
  316XTA    OA124917  -1.748  30.081 -12.678
  316XTA    CO124918  -1.635  30.162 -12.707
  316XTA    OA224919  -2.224  29.839 -11.866
  316XTA    CO224920  -2.140  29.755 -11.788
  316XTA    CL124921  -2.069  29.834 -11.674
  316XTA    CL224922  -1.955  29.755 -11.601
  316XTA    CL324923  -1.919  29.814 -11.471
  316XTA    CL424924  -1.802  29.904 -11.496
  316XTA    CO324925  -1.748  29.978 -11.372
  316XTA    OA324926  -1.615  30.030 -11.401
  316XTA    CO424927  -1.620  30.172 -11.388
  316XTA    CT124928  -1.476  30.232 -11.382
  316XTA    CL524929  -1.409  30.178 -11.510
  316XTA    CL624930  -1.296  30.268 -11.577
  316XTA    OA424931  -1.880  30.752 -12.106
  316XTA    CO524932  -1.780  30.800 -12.013
  316XTA    HL124933  -1.688  30.751 -12.040
  316XTA    HL224934  -1.547  30.141 -12.641
  316XTA    HL324935  -1.597  30.134 -12.808
  316XTA    HL424936  -1.653  30.264 -12.714
  316XTA    HL524937  -2.207  29.677 -11.736
  316XTA    HL624938  -2.070  29.696 -11.838
  316XTA    HL724939  -2.149  29.858 -11.609
  316XTA    HL824940  -2.026  29.927 -11.709
  316XTA    HL924941  -1.868  29.758 -11.660
  316XTA   HL1024942  -1.982  29.647 -11.595
  316XTA   HL1124943  -1.995  29.868 -11.413
  316XTA   HL1224944  -1.880  29.737 -11.403
  316XTA   HL1324945  -1.830  29.991 -11.557
  316XTA   HL1424946  -1.719  29.862 -11.557
  316XTA   HL1524947  -1.821  30.056 -11.332
  316XTA   HL1624948  -1.734  29.905 -11.292
  316XTA   HL1724949  -1.680  30.227 -11.462
  316XTA   HL1824950  -1.668  30.195 -11.296
  316XTA   HL1924951  -1.482  30.159 -11.589
  316XTA   HL2024952  -1.379  30.077 -11.493
  316XTA   HL2124953  -1.329  30.359 -11.622
  316XTA   HL2224954  -1.247  30.213 -11.657
  316XTA   HL2324955  -1.219  30.288 -11.502
  316XTA   HL2424956  -1.805  30.780 -11.906
  316XTA   HL2524957  -1.779  30.910 -12.021
  316XTA    CO624958  -1.403  30.196 -11.254
  316XTA    CO724959  -1.481  30.388 -11.384
  316XTA    OA524960  -1.537  30.428 -11.299
  316XTA   HL2624961  -1.414  30.100 -11.227
  316XTA   HL2724962  -1.444  30.273 -11.147
  316XTA   HL2824963  -1.536  30.423 -11.472
  316XTA   HL2924964  -1.375  30.425 -11.381
  317XTA     NT24965  -4.918  26.055 -10.351
  317XTA    CN124966  -5.046  26.077 -10.385
  317XTA     C124967  -5.118  26.180 -10.325
  317XTA     C224968  -5.244  26.208 -10.363
  317XTA     C324969  -5.308  26.130 -10.458
  317XTA     C424970  -5.243  26.015 -10.507
  317XTA     C524971  -5.111  25.988 -10.474
  317XTA    CN224972  -4.830  25.996 -10.435
  317XTA     C624973  -4.752  26.080 -10.517
  317XTA     C724974  -4.655  26.017 -10.602
  317XTA     C824975  -4.647  25.874 -10.611
  317XTA     C924976  -4.733  25.797 -10.537
  317XTA    C1024977  -4.818  25.857 -10.444
  317XTA    CN324978  -4.881  26.047 -10.226
  317XTA    C1124979  -4.947  25.968 -10.134
  317XTA    C1224980  -4.898  25.947 -10.001
  317XTA    C1324981  -4.774  25.999  -9.969
  317XTA    C1424982  -4.700  26.071 -10.064
  317XTA    C1524983  -4.763  26.104 -10.185
  317XTA     H124984  -5.066  26.250 -10.255
  317XTA     H224985  -5.285  26.301 -10.334
  317XTA     H324986  -5.275  25.958 -10.593
  317XTA     H424987  -5.069  25.907 -10.523
  317XTA     H524988  -4.757  26.181 -10.514
  317XTA     H624989  -4.585  26.080 -10.664
  317XTA     H724990  -4.731  25.688 -10.543
  317XTA     H824991  -4.866  25.797 -10.367
  317XTA     H924992  -5.042  25.921 -10.155
  317XTA    H1024993  -4.943  25.882  -9.927
  317XTA    H1124994  -4.603  26.112 -10.037
  317XTA    H1224995  -4.705  26.166 -10.260
  317XTA    OA124996  -5.418  26.178 -10.523
  317XTA    CO124997  -5.495  26.094 -10.614
  317XTA    OA224998  -4.541  25.819 -10.680
  317XTA    CO224999  -4.570  25.686 -10.716
  317XTA    CL125000  -4.442  25.635 -10.792
  317XTA    CL225001  -4.461  25.499 -10.853
  317XTA    CL325002  -4.351  25.462 -10.955
  317XTA    CL425003  -4.208  25.459 -10.895
  317XTA    CO325004  -4.104  25.419 -10.998
  317XTA    OA325005  -3.976  25.417 -10.940
  317XTA    CO425006  -3.865  25.437 -11.020
  317XTA    CT125007  -3.787  25.569 -10.981
  317XTA    CL525008  -3.724  25.561 -10.843
  317XTA    CL625009  -3.615  25.446 -10.828
  317XTA    OA425010  -4.709  25.979  -9.852
  317XTA    CO525011  -4.776  25.897  -9.759
  317XTA    HL125012  -4.878  25.924  -9.739
  317XTA    HL225013  -5.554  26.025 -10.556
  317XTA    HL325014  -5.571  26.153 -10.667
  317XTA    HL425015  -5.435  26.045 -10.688
  317XTA    HL525016  -4.574  25.627 -10.623
  317XTA    HL625017  -4.656  25.676 -10.778
  317XTA    HL725018  -4.359  25.635 -10.723
  317XTA    HL825019  -4.418  25.703 -10.870
  317XTA    HL925020  -4.561  25.501 -10.902
  317XTA   HL1025021  -4.465  25.429 -10.773
  317XTA   HL1125022  -4.388  25.373 -11.019
  317XTA   HL1225023  -4.355  25.533 -11.039
  317XTA   HL1325024  -4.200  25.376 -10.821
  317XTA   HL1425025  -4.172  25.545 -10.846
  317XTA   HL1525026  -4.128  25.326 -11.044
  317XTA   HL1625027  -4.107  25.498 -11.074
  317XTA   HL1725028  -3.796  25.355 -11.011
  317XTA   HL1825029  -3.887  25.438 -11.123
  317XTA   HL1925030  -3.810  25.563 -10.774
  317XTA   HL2025031  -3.671  25.650 -10.824
  317XTA   HL2125032  -3.532  25.452 -10.899
  317XTA   HL2225033  -3.648  25.343 -10.838
  317XTA   HL2325034  -3.556  25.459 -10.736
  317XTA   HL2425035  -4.725  25.922  -9.667
  317XTA   HL2525036  -4.766  25.793  -9.782
  317XTA    CO625037  -3.891  25.686 -10.977
  317XTA    CO725038  -3.686  25.615 -11.087
  317XTA    OA525039  -3.836  25.790 -10.894
  317XTA   HL2625040  -3.982  25.645 -10.932
  317XTA   HL2725041  -3.915  25.729 -11.074
  317XTA   HL2825042  -3.617  25.531 -11.098
  317XTA   HL2925043  -3.744  25.625 -11.180
  318XTA     NT25044  -4.185  28.084 -10.885
  318XTA    CN125045  -4.206  28.065 -11.020
  318XTA     C125046  -4.278  27.951 -11.064
  318XTA     C225047  -4.289  27.931 -11.208
  318XTA     C325048  -4.222  28.025 -11.296
  318XTA     C425049  -4.151  28.132 -11.248
  318XTA     C525050  -4.143  28.154 -11.110
  318XTA    CN225051  -4.066  28.082 -10.831
  318XTA     C625052  -3.994  27.959 -10.822
  318XTA     C725053  -3.865  27.949 -10.764
  318XTA     C825054  -3.820  28.059 -10.692
  318XTA     C925055  -3.895  28.176 -10.691
  318XTA    C1025056  -4.015  28.190 -10.762
  318XTA    CN325057  -4.289  28.124 -10.806
  318XTA    C1125058  -4.363  28.240 -10.837
  318XTA    C1225059  -4.474  28.275 -10.754
  318XTA    C1325060  -4.511  28.205 -10.636
  318XTA    C1425061  -4.438  28.082 -10.619
  318XTA    C1525062  -4.329  28.047 -10.701
  318XTA     H125063  -4.316  27.884 -10.991
  318XTA     H225064  -4.343  27.847 -11.241
  318XTA     H325065  -4.107  28.190 -11.321
  318XTA     H425066  -4.082  28.234 -11.076
  318XTA     H525067  -4.045  27.880 -10.877
  318XTA     H625068  -3.814  27.859 -10.765
  318XTA     H725069  -3.858  28.255 -10.621
  318XTA     H825070  -4.068  28.287 -10.760
  318XTA     H925071  -4.332  28.303 -10.921
  318XTA    H1025072  -4.533  28.369 -10.782
  318XTA    H1125073  -4.455  28.024 -10.533
  318XTA    H1225074  -4.284  27.951 -10.690
  318XTA    OA125075  -4.235  28.018 -11.431
  318XTA    CO125076  -4.364  28.007 -11.480
  318XTA    OA225077  -3.702  28.065 -10.616
  318XTA    CO225078  -3.691  27.969 -10.514
  318XTA    CL125079  -3.582  27.987 -10.414
  318XTA    CL225080  -3.596  27.903 -10.286
  318XTA    CL325081  -3.490  27.929 -10.178
  318XTA    CL425082  -3.530  27.865 -10.047
  318XTA    CO325083  -3.638  27.945  -9.976
  318XTA    OA325084  -3.583  28.073  -9.951
  318XTA    CO425085  -3.683  28.157  -9.905
  318XTA    CT125086  -3.636  28.294  -9.970
  318XTA    CL525087  -3.488  28.307  -9.944
  318XTA    CL625088  -3.444  28.302  -9.793
  318XTA    OA425089  -4.620  28.233 -10.551
  318XTA    CO525090  -4.703  28.339 -10.583
  318XTA    HL125091  -4.788  28.338 -10.511
  318XTA    HL225092  -4.365  28.031 -11.586
  318XTA    HL325093  -4.400  27.907 -11.465
  318XTA    HL425094  -4.429  28.084 -11.439
  318XTA    HL525095  -3.779  27.990 -10.452
  318XTA    HL625096  -3.702  27.866 -10.539
  318XTA    HL725097  -3.590  28.089 -10.388
  318XTA    HL825098  -3.484  27.970 -10.462
  318XTA    HL925099  -3.589  27.796 -10.305
  318XTA   HL1025100  -3.691  27.919 -10.240
  318XTA   HL1125101  -3.401  27.885 -10.219
  318XTA   HL1225102  -3.474  28.039 -10.164
  318XTA   HL1325103  -3.452  27.847  -9.974
  318XTA   HL1425104  -3.560  27.761 -10.063
  318XTA   HL1525105  -3.722  27.953 -10.046
  318XTA   HL1625106  -3.677  27.874  -9.898
  318XTA   HL1725107  -3.781  28.130  -9.942
  318XTA   HL1825108  -3.685  28.170  -9.795
  318XTA   HL1925109  -3.462  28.408  -9.989
  318XTA   HL2025110  -3.429  28.236 -10.010
  318XTA   HL2125111  -3.341  28.309  -9.781
  318XTA   HL2225112  -3.461  28.199  -9.754
  318XTA   HL2325113  -3.496  28.381  -9.735
  318XTA   HL2425114  -4.736  28.336 -10.691
  318XTA   HL2525115  -4.645  28.428 -10.582
  318XTA    CO625116  -3.726  28.402  -9.919
  318XTA    CO725117  -3.649  28.291 -10.124
  318XTA    OA525118  -3.856  28.385  -9.975
  318XTA   HL2625119  -3.682  28.491  -9.955
  318XTA   HL2725120  -3.733  28.404  -9.808
  318XTA   HL2825121  -3.585  28.222 -10.174
  318XTA   HL2925122  -3.752  28.247 -10.141
  319XTA     NT25123  -7.773  25.357 -10.241
  319XTA    CN125124  -7.862  25.258 -10.219
  319XTA     C125125  -7.862  25.144 -10.297
  319XTA     C225126  -7.946  25.032 -10.272
  319XTA     C325127  -8.028  25.035 -10.162
  319XTA     C425128  -8.026  25.147 -10.077
  319XTA     C525129  -7.950  25.259 -10.112
  319XTA    CN225130  -7.797  25.450 -10.329
  319XTA     C625131  -7.793  25.589 -10.293
  319XTA     C725132  -7.819  25.688 -10.393
  319XTA     C825133  -7.850  25.651 -10.526
  319XTA     C925134  -7.854  25.510 -10.558
  319XTA    C1025135  -7.824  25.415 -10.459
  319XTA    CN325136  -7.658  25.360 -10.178
  319XTA    C1125137  -7.549  25.288 -10.232
  319XTA    C1225138  -7.433  25.299 -10.153
  319XTA    C1325139  -7.425  25.378 -10.034
  319XTA    C1425140  -7.539  25.433  -9.973
  319XTA    C1525141  -7.657  25.428 -10.055
  319XTA     H125142  -7.791  25.133 -10.381
  319XTA     H225143  -7.938  24.950 -10.339
  319XTA     H325144  -8.084  25.146  -9.985
  319XTA     H425145  -7.939  25.345 -10.049
  319XTA     H525146  -7.767  25.621 -10.194
  319XTA     H625147  -7.813  25.792 -10.351
  319XTA     H725148  -7.880  25.459 -10.644
  319XTA     H825149  -7.810  25.318 -10.494
  319XTA     H925150  -7.551  25.220 -10.315
  319XTA    H1025151  -7.351  25.234 -10.178
  319XTA    H1125152  -7.527  25.482  -9.875
  319XTA    H1225153  -7.752  25.467 -10.020
  319XTA    OA125154  -8.111  24.932 -10.125
  319XTA    CO125155  -8.108  24.813 -10.199
  319XTA    OA225156  -7.887  25.750 -10.612
  319XTA    CO225157  -7.957  25.719 -10.736
  319XTA    CL125158  -7.857  25.672 -10.840
  319XTA    CL225159  -7.926  25.619 -10.963
  319XTA    CL325160  -7.856  25.496 -11.029
  319XTA    CL425161  -7.726  25.543 -11.096
  319XTA    CO325162  -7.637  25.435 -11.156
  319XTA    OA325163  -7.592  25.344 -11.050
  319XTA    CO425164  -7.515  25.231 -11.086
  319XTA    CT125165  -7.579  25.114 -11.007
  319XTA    CL525166  -7.726  25.106 -11.053
  319XTA    CL625167  -7.744  25.061 -11.211
  319XTA    OA425168  -7.302  25.380  -9.967
  319XTA    CO525169  -7.275  25.506  -9.903
  319XTA    HL125170  -7.344  25.536  -9.818
  319XTA    HL225171  -8.012  24.763 -10.220
  319XTA    HL325172  -8.165  24.726 -10.160
  319XTA    HL425173  -8.162  24.855 -10.285
  319XTA    HL525174  -8.034  25.645 -10.724
  319XTA    HL625175  -8.015  25.807 -10.772
  319XTA    HL725176  -7.780  25.610 -10.802
  319XTA    HL825177  -7.796  25.760 -10.870
  319XTA    HL925178  -7.935  25.702 -11.035
  319XTA   HL1025179  -8.027  25.582 -10.936
  319XTA   HL1125180  -7.819  25.439 -10.942
  319XTA   HL1225181  -7.925  25.433 -11.098
  319XTA   HL1325182  -7.662  25.598 -11.029
  319XTA   HL1425183  -7.752  25.603 -11.189
  319XTA   HL1525184  -7.711  25.380 -11.222
  319XTA   HL1625185  -7.550  25.476 -11.210
  319XTA   HL1725186  -7.523  25.205 -11.193
  319XTA   HL1825187  -7.409  25.253 -11.064
  319XTA   HL1925188  -7.777  25.189 -11.004
  319XTA   HL2025189  -7.759  25.013 -11.001
  319XTA   HL2125190  -7.852  25.063 -11.237
  319XTA   HL2225191  -7.712  24.954 -11.223
  319XTA   HL2325192  -7.686  25.119 -11.279
  319XTA   HL2425193  -7.261  25.589  -9.980
  319XTA   HL2525194  -7.177  25.501  -9.862
  319XTA    CO625195  -7.573  25.130 -10.841
  319XTA    CO725196  -7.493  24.983 -11.041
  319XTA    OA525197  -7.472  24.952 -11.180
  319XTA   HL2625198  -7.644  25.053 -10.798
  319XTA   HL2725199  -7.630  25.218 -10.804
  319XTA   HL2825200  -7.541  24.896 -10.997
  319XTA   HL2925201  -7.384  25.002 -10.996
  320XTA     NT25202  -0.551  27.871  -6.225
  320XTA    CN125203  -0.594  27.865  -6.353
  320XTA     C125204  -0.558  27.756  -6.430
  320XTA     C225205  -0.601  27.748  -6.571
  320XTA     C325206  -0.667  27.854  -6.629
  320XTA     C425207  -0.717  27.951  -6.548
  320XTA     C525208  -0.686  27.953  -6.411
  320XTA    CN225209  -0.643  27.862  -6.126
  320XTA     C625210  -0.662  27.970  -6.037
  320XTA     C725211  -0.772  27.972  -5.956
  320XTA     C825212  -0.864  27.860  -5.959
  320XTA     C925213  -0.842  27.754  -6.044
  320XTA    C1025214  -0.725  27.752  -6.125
  320XTA    CN325215  -0.420  27.850  -6.202
  320XTA    C1125216  -0.377  27.763  -6.099
  320XTA    C1225217  -0.238  27.744  -6.081
  320XTA    C1325218  -0.137  27.803  -6.157
  320XTA    C1425219  -0.183  27.895  -6.261
  320XTA    C1525220  -0.321  27.914  -6.284
  320XTA     H125221  -0.497  27.682  -6.388
  320XTA     H225222  -0.579  27.661  -6.631
  320XTA     H325223  -0.771  28.040  -6.594
  320XTA     H425224  -0.729  28.035  -6.359
  320XTA     H525225  -0.599  28.059  -6.051
  320XTA     H625226  -0.777  28.058  -5.889
  320XTA     H725227  -0.905  27.670  -6.036
  320XTA     H825228  -0.720  27.670  -6.193
  320XTA     H925229  -0.443  27.704  -6.042
  320XTA    H1025230  -0.200  27.671  -6.016
  320XTA    H1125231  -0.111  27.954  -6.317
  320XTA    H1225232  -0.356  27.963  -6.373
  320XTA    OA125233  -0.682  27.865  -6.767
  320XTA    CO125234  -0.649  27.997  -6.821
  320XTA    OA225235  -0.980  27.866  -5.881
  320XTA    CO225236  -0.998  27.985  -5.803
  320XTA    CL125237  -1.130  27.978  -5.726
  320XTA    CL225238  -1.248  27.996  -5.824
  320XTA    CL325239  -1.382  27.981  -5.749
  320XTA    CL425240  -1.507  28.012  -5.835
  320XTA    CO325241  -1.526  28.164  -5.870
  320XTA    OA325242  -1.613  28.172  -5.978
  320XTA    CO425243  -1.653  28.301  -6.010
  320XTA    CT125244  -1.718  28.323  -6.151
  320XTA    CL525245  -1.619  28.289  -6.267
  320XTA    CL625246  -1.588  28.142  -6.298
  320XTA    OA425247  -0.010  27.781  -6.123
  320XTA    CO525248   0.077  27.897  -6.133
  320XTA    HL125249   0.022  27.978  -6.086
  320XTA    HL225250  -0.734  28.065  -6.794
  320XTA    HL325251  -0.568  28.051  -6.772
  320XTA    HL425252  -0.644  27.993  -6.929
  320XTA    HL525253  -0.908  27.977  -5.736
  320XTA    HL625254  -0.982  28.082  -5.853
  320XTA    HL725255  -1.139  28.050  -5.641
  320XTA    HL825256  -1.136  27.879  -5.672
  320XTA    HL925257  -1.239  27.930  -5.914
  320XTA   HL1025258  -1.240  28.100  -5.858
  320XTA   HL1125259  -1.401  27.884  -5.704
  320XTA   HL1225260  -1.383  28.047  -5.663
  320XTA   HL1325261  -1.590  27.977  -5.766
  320XTA   HL1425262  -1.500  27.940  -5.923
  320XTA   HL1525263  -1.560  28.222  -5.784
  320XTA   HL1625264  -1.428  28.207  -5.884
  320XTA   HL1725265  -1.721  28.328  -5.929
  320XTA   HL1825266  -1.566  28.378  -5.997
  320XTA   HL1925267  -1.529  28.342  -6.254
  320XTA   HL2025268  -1.662  28.331  -6.354
  320XTA   HL2125269  -1.557  28.124  -6.398
  320XTA   HL2225270  -1.687  28.099  -6.289
  320XTA   HL2325271  -1.534  28.101  -6.219
  320XTA   HL2425272   0.110  27.925  -6.230
  320XTA   HL2525273   0.169  27.871  -6.074
  320XTA    CO625274  -1.758  28.472  -6.157
  320XTA    CO725275  -1.856  28.248  -6.171
  320XTA    OA525276  -1.669  28.545  -6.146
  320XTA   HL2625277  -1.828  28.499  -6.082
  320XTA   HL2725278  -1.795  28.491  -6.261
  320XTA   HL2825279  -1.849  28.108  -6.147
  320XTA   HL2925280  -1.929  28.284  -6.096
  321XTA     NT25281  -7.865  23.724  -7.667
  321XTA    CN125282  -7.884  23.850  -7.712
  321XTA     C125283  -8.019  23.889  -7.743
  321XTA     C225284  -8.034  24.025  -7.774
  321XTA     C325285  -7.929  24.117  -7.777
  321XTA     C425286  -7.797  24.074  -7.745
  321XTA     C525287  -7.776  23.940  -7.717
  321XTA    CN225288  -7.910  23.698  -7.539
  321XTA     C625289  -8.043  23.658  -7.516
  321XTA     C725290  -8.075  23.617  -7.388
  321XTA     C825291  -7.988  23.633  -7.282
  321XTA     C925292  -7.861  23.684  -7.304
  321XTA    C1025293  -7.819  23.710  -7.435
  321XTA    CN325294  -7.830  23.622  -7.752
  321XTA    C1125295  -7.781  23.637  -7.888
  321XTA    C1225296  -7.786  23.534  -7.976
  321XTA    C1325297  -7.807  23.403  -7.939
  321XTA    C1425298  -7.838  23.382  -7.804
  321XTA    C1525299  -7.853  23.490  -7.715
  321XTA     H125300  -8.104  23.824  -7.740
  321XTA     H225301  -8.133  24.062  -7.792
  321XTA     H325302  -7.723  24.160  -7.730
  321XTA     H425303  -7.680  23.909  -7.691
  321XTA     H525304  -8.106  23.647  -7.597
  321XTA     H625305  -8.168  23.573  -7.354
  321XTA     H725306  -7.784  23.681  -7.228
  321XTA     H825307  -7.714  23.731  -7.448
  321XTA     H925308  -7.767  23.734  -7.923
  321XTA    H1025309  -7.761  23.566  -8.077
  321XTA    H1125310  -7.850  23.277  -7.780
  321XTA    H1225311  -7.881  23.467  -7.618
  321XTA    OA125312  -7.968  24.244  -7.804
  321XTA    CO125313  -7.936  24.340  -7.700
  321XTA    OA225314  -8.030  23.599  -7.158
  321XTA    CO225315  -7.946  23.611  -7.037
  321XTA    CL125316  -7.962  23.753  -6.983
  321XTA    CL225317  -7.885  23.767  -6.848
  321XTA    CL325318  -7.758  23.863  -6.864
  321XTA    CL425319  -7.661  23.819  -6.968
  321XTA    CO325320  -7.581  23.692  -6.935
  321XTA    OA325321  -7.526  23.639  -7.050
  321XTA    CO425322  -7.444  23.526  -7.026
  321XTA    CT125323  -7.443  23.421  -7.140
  321XTA    CL525324  -7.358  23.471  -7.265
  321XTA    CL625325  -7.369  23.610  -7.311
  321XTA    OA425326  -7.803  23.297  -8.027
  321XTA    CO525327  -7.896  23.318  -8.139
  321XTA    HL125328  -7.928  23.422  -8.147
  321XTA    HL225329  -7.828  24.351  -7.708
  321XTA    HL325330  -7.982  24.441  -7.722
  321XTA    HL425331  -7.954  24.297  -7.603
  321XTA    HL525332  -7.977  23.544  -6.962
  321XTA    HL625333  -7.840  23.587  -7.056
  321XTA    HL725334  -8.067  23.778  -6.970
  321XTA    HL825335  -7.928  23.824  -7.059
  321XTA    HL925336  -7.865  23.670  -6.801
  321XTA   HL1025337  -7.968  23.804  -6.782
  321XTA   HL1125338  -7.797  23.962  -6.901
  321XTA   HL1225339  -7.704  23.876  -6.766
  321XTA   HL1325340  -7.597  23.896  -7.015
  321XTA   HL1425341  -7.731  23.788  -7.038
  321XTA   HL1525342  -7.497  23.713  -6.863
  321XTA   HL1625343  -7.636  23.615  -6.889
  321XTA   HL1725344  -7.343  23.555  -7.020
  321XTA   HL1825345  -7.475  23.468  -6.938
  321XTA   HL1925346  -7.379  23.412  -7.351
  321XTA   HL2025347  -7.255  23.454  -7.228
  321XTA   HL2125348  -7.344  23.677  -7.230
  321XTA   HL2225349  -7.462  23.625  -7.361
  321XTA   HL2325350  -7.292  23.638  -7.391
  321XTA   HL2425351  -7.987  23.256  -8.146
  321XTA   HL2525352  -7.834  23.289  -8.227
  321XTA    CO625353  -7.587  23.386  -7.182
  321XTA    CO725354  -7.384  23.292  -7.085
  321XTA    OA525355  -7.290  23.310  -7.031
  321XTA   HL2625356  -7.643  23.341  -7.100
  321XTA   HL2725357  -7.657  23.497  -7.221
  321XTA   HL2825358  -7.387  23.217  -7.165
  321XTA   HL2925359  -7.446  23.240  -7.011
  322XTA     NT25360  -1.612  25.684  -8.300
  322XTA    CN125361  -1.539  25.718  -8.412
  322XTA     C125362  -1.530  25.852  -8.465
  322XTA     C225363  -1.471  25.877  -8.587
  322XTA     C325364  -1.414  25.780  -8.670
  322XTA     C425365  -1.414  25.653  -8.623
  322XTA     C525366  -1.482  25.621  -8.498
  322XTA    CN225367  -1.708  25.590  -8.317
  322XTA     C625368  -1.714  25.496  -8.217
  322XTA     C725369  -1.806  25.393  -8.219
  322XTA     C825370  -1.906  25.388  -8.319
  322XTA     C925371  -1.905  25.493  -8.412
  322XTA    C1025372  -1.812  25.597  -8.412
  322XTA    CN325373  -1.630  25.781  -8.203
  322XTA    C1125374  -1.555  25.780  -8.087
  322XTA    C1225375  -1.582  25.882  -7.992
  322XTA    C1325376  -1.680  25.982  -8.009
  322XTA    C1425377  -1.744  25.981  -8.132
  322XTA    C1525378  -1.725  25.877  -8.224
  322XTA     H125379  -1.572  25.937  -8.422
  322XTA     H225380  -1.480  25.985  -8.606
  322XTA     H325381  -1.388  25.563  -8.675
  322XTA     H425382  -1.482  25.512  -8.477
  322XTA     H525383  -1.643  25.490  -8.134
  322XTA     H625384  -1.798  25.319  -8.143
  322XTA     H725385  -1.993  25.490  -8.478
  322XTA     H825386  -1.821  25.682  -8.482
  322XTA     H925387  -1.472  25.709  -8.072
  322XTA    H1025388  -1.521  25.864  -7.908
  322XTA    H1125389  -1.800  26.063  -8.160
  322XTA    H1225390  -1.785  25.889  -8.317
  322XTA    OA125391  -1.349  25.802  -8.786
  322XTA    CO125392  -1.342  25.936  -8.833
  322XTA    OA225393  -2.008  25.293  -8.323
  322XTA    CO225394  -2.047  25.231  -8.197
  322XTA    CL125395  -2.180  25.155  -8.221
  322XTA    CL225396  -2.156  25.035  -8.315
  322XTA    CL325397  -2.282  24.995  -8.390
  322XTA    CL425398  -2.245  24.877  -8.478
  322XTA    CO325399  -2.338  24.858  -8.597
  322XTA    OA325400  -2.290  24.953  -8.690
  322XTA    CO425401  -2.359  24.937  -8.814
  322XTA    CT125402  -2.358  25.073  -8.890
  322XTA    CL525403  -2.470  25.081  -8.997
  322XTA    CL625404  -2.469  25.203  -9.096
  322XTA    OA425405  -1.703  26.087  -7.930
  322XTA    CO525406  -1.655  26.082  -7.797
  322XTA    HL125407  -1.544  26.047  -7.802
  322XTA    HL225408  -1.308  26.011  -8.768
  322XTA    HL325409  -1.309  25.937  -8.932
  322XTA    HL425410  -1.441  25.965  -8.854
  322XTA    HL525411  -1.962  25.159  -8.185
  322XTA    HL625412  -2.059  25.303  -8.118
  322XTA    HL725413  -2.259  25.229  -8.263
  322XTA    HL825414  -2.215  25.109  -8.126
  322XTA    HL925415  -2.106  24.951  -8.262
  322XTA   HL1025416  -2.084  25.067  -8.392
  322XTA   HL1125417  -2.362  24.959  -8.320
  322XTA   HL1225418  -2.312  25.084  -8.452
  322XTA   HL1325419  -2.233  24.792  -8.404
  322XTA   HL1425420  -2.141  24.891  -8.520
  322XTA   HL1525421  -2.334  24.755  -8.633
  322XTA   HL1625422  -2.446  24.889  -8.581
  322XTA   HL1725423  -2.321  24.857  -8.873
  322XTA   HL1825424  -2.459  24.900  -8.798
  322XTA   HL1925425  -2.566  25.076  -8.945
  322XTA   HL2025426  -2.466  24.985  -9.060
  322XTA   HL2125427  -2.481  25.290  -9.032
  322XTA   HL2225428  -2.556  25.189  -9.163
  322XTA   HL2325429  -2.382  25.212  -9.167
  322XTA   HL2425430  -1.719  26.026  -7.730
  322XTA   HL2525431  -1.647  26.178  -7.755
  322XTA    CO625432  -2.216  25.095  -8.946
  322XTA    CO725433  -2.379  25.191  -8.793
  322XTA    OA525434  -2.202  25.027  -9.033
  322XTA   HL2625435  -2.140  25.088  -8.872
  322XTA   HL2725436  -2.213  25.196  -8.986
  322XTA   HL2825437  -2.308  25.171  -8.673
  322XTA   HL2925438  -2.483  25.194  -8.755
  323XTA     NT25439  -5.395  25.107  -9.874
  323XTA    CN125440  -5.415  25.132  -9.746
  323XTA     C125441  -5.352  25.235  -9.675
  323XTA     C225442  -5.354  25.237  -9.539
  323XTA     C325443  -5.442  25.160  -9.464
  323XTA     C425444  -5.513  25.060  -9.535
  323XTA     C525445  -5.505  25.052  -9.678
  323XTA    CN225446  -5.480  25.153  -9.962
  323XTA     C625447  -5.472  25.296  -9.995
  323XTA     C725448  -5.567  25.352 -10.082
  323XTA     C825449  -5.671  25.274 -10.135
  323XTA     C925450  -5.683  25.137 -10.100
  323XTA    C1025451  -5.580  25.075 -10.019
  323XTA    CN325452  -5.275  25.050  -9.911
  323XTA    C1125453  -5.184  25.126  -9.981
  323XTA    C1225454  -5.075  25.067 -10.047
  323XTA    C1325455  -5.059  24.928 -10.031
  323XTA    C1425456  -5.138  24.855  -9.946
  323XTA    C1525457  -5.249  24.918  -9.882
  323XTA     H125458  -5.285  25.302  -9.734
  323XTA     H225459  -5.295  25.313  -9.494
  323XTA     H325460  -5.583  25.006  -9.472
  323XTA     H425461  -5.549  24.974  -9.731
  323XTA     H525462  -5.393  25.348  -9.943
  323XTA     H625463  -5.555  25.457 -10.102
  323XTA     H725464  -5.765  25.074 -10.132
  323XTA     H825465  -5.580  24.963 -10.011
  323XTA     H925466  -5.212  25.230  -9.996
  323XTA    H1025467  -5.024  25.124 -10.116
  323XTA    H1125468  -5.115  24.750  -9.953
  323XTA    H1225469  -5.325  24.862  -9.831
  323XTA    OA125470  -5.459  25.173  -9.331
  323XTA    CO125471  -5.419  25.300  -9.271
  323XTA    OA225472  -5.758  25.336 -10.223
  323XTA    CO225473  -5.809  25.251 -10.325
  323XTA    CL125474  -5.952  25.213 -10.286
  323XTA    CL225475  -6.006  25.110 -10.385
  323XTA    CL325476  -6.149  25.082 -10.355
  323XTA    CL425477  -6.181  24.946 -10.418
  323XTA    CO325478  -6.332  24.920 -10.420
  323XTA    OA325479  -6.336  24.798 -10.481
  323XTA    CO425480  -6.300  24.691 -10.393
  323XTA    CT125481  -6.339  24.549 -10.442
  323XTA    CL525482  -6.295  24.535 -10.589
  323XTA    CL625483  -6.295  24.390 -10.644
  323XTA    OA425484  -4.956  24.861 -10.093
  323XTA    CO525485  -4.839  24.933 -10.115
  323XTA    HL125486  -4.768  24.947 -10.028
  323XTA    HL225487  -5.423  25.299  -9.163
  323XTA    HL325488  -5.314  25.333  -9.278
  323XTA    HL425489  -5.472  25.382  -9.304
  323XTA    HL525490  -5.803  25.288 -10.431
  323XTA    HL625491  -5.744  25.163 -10.338
  323XTA    HL725492  -6.016  25.304 -10.285
  323XTA    HL825493  -5.957  25.176 -10.181
  323XTA    HL925494  -5.945  25.020 -10.373
  323XTA   HL1025495  -6.013  25.143 -10.491
  323XTA   HL1125496  -6.168  25.090 -10.246
  323XTA   HL1225497  -6.210  25.151 -10.398
  323XTA   HL1325498  -6.125  24.869 -10.363
  323XTA   HL1425499  -6.145  24.940 -10.515
  323XTA   HL1525500  -6.380  24.928 -10.317
  323XTA   HL1625501  -6.385  25.002 -10.473
  323XTA   HL1725502  -6.193  24.697 -10.379
  323XTA   HL1825503  -6.351  24.705 -10.294
  323XTA   HL1925504  -6.196  24.580 -10.608
  323XTA   HL2025505  -6.352  24.608 -10.648
  323XTA   HL2125506  -6.269  24.391 -10.749
  323XTA   HL2225507  -6.392  24.344 -10.641
  323XTA   HL2325508  -6.225  24.332 -10.587
  323XTA   HL2425509  -4.864  25.021 -10.168
  323XTA   HL2525510  -4.779  24.867 -10.178
  323XTA    CO625511  -6.493  24.545 -10.437
  323XTA    CO725512  -6.275  24.433 -10.356
  323XTA    OA525513  -6.137  24.476 -10.358
  323XTA   HL2625514  -6.545  24.598 -10.515
  323XTA   HL2725515  -6.525  24.443 -10.450
  323XTA   HL2825516  -6.301  24.333 -10.393
  323XTA   HL2925517  -6.312  24.434 -10.251
  324XTA     NT25518  -3.248  29.427  -9.050
  324XTA    CN125519  -3.246  29.331  -9.140
  324XTA     C125520  -3.268  29.356  -9.276
  324XTA     C225521  -3.266  29.248  -9.361
  324XTA     C325522  -3.235  29.116  -9.322
  324XTA     C425523  -3.193  29.097  -9.187
  324XTA     C525524  -3.193  29.209  -9.099
  324XTA    CN225525  -3.361  29.498  -9.031
  324XTA     C625526  -3.466  29.431  -8.973
  324XTA     C725527  -3.591  29.499  -8.966
  324XTA     C825528  -3.609  29.622  -9.029
  324XTA     C925529  -3.499  29.692  -9.084
  324XTA    C1025530  -3.374  29.628  -9.085
  324XTA    CN325531  -3.131  29.475  -9.007
  324XTA    C1125532  -3.015  29.468  -9.084
  324XTA    C1225533  -2.893  29.513  -9.034
  324XTA    C1325534  -2.891  29.578  -8.912
  324XTA    C1425535  -3.008  29.575  -8.829
  324XTA    C1525536  -3.131  29.526  -8.877
  324XTA     H125537  -3.299  29.448  -9.323
  324XTA     H225538  -3.280  29.263  -9.468
  324XTA     H325539  -3.153  28.999  -9.155
  324XTA     H425540  -3.162  29.196  -8.998
  324XTA     H525541  -3.455  29.325  -8.935
  324XTA     H625542  -3.676  29.447  -8.929
  324XTA     H725543  -3.510  29.791  -9.122
  324XTA     H825544  -3.286  29.659  -9.135
  324XTA     H925545  -3.021  29.430  -9.188
  324XTA    H1025546  -2.792  29.505  -9.087
  324XTA    H1125547  -3.006  29.623  -8.734
  324XTA    H1225548  -3.222  29.522  -8.820
  324XTA    OA125549  -3.228  29.017  -9.416
  324XTA    CO125550  -3.325  29.002  -9.518
  324XTA    OA225551  -3.737  29.672  -9.043
  324XTA    CO225552  -3.774  29.741  -9.156
  324XTA    CL125553  -3.758  29.654  -9.288
  324XTA    CL225554  -3.827  29.521  -9.270
  324XTA    CL325555  -3.821  29.438  -9.400
  324XTA    CL425556  -3.701  29.343  -9.418
  324XTA    CO325557  -3.700  29.257  -9.552
  324XTA    OA325558  -3.696  29.325  -9.680
  324XTA    CO425559  -3.673  29.229  -9.787
  324XTA    CT125560  -3.633  29.291  -9.921
  324XTA    CL525561  -3.513  29.385  -9.902
  324XTA    CL625562  -3.390  29.309  -9.852
  324XTA    OA425563  -2.773  29.641  -8.877
  324XTA    CO525564  -2.768  29.717  -8.762
  324XTA    HL125565  -2.839  29.799  -8.766
  324XTA    HL225566  -3.412  28.952  -9.469
  324XTA    HL325567  -3.356  29.093  -9.569
  324XTA    HL425568  -3.278  28.937  -9.589
  324XTA    HL525569  -3.883  29.761  -9.153
  324XTA    HL625570  -3.718  29.835  -9.153
  324XTA    HL725571  -3.656  29.629  -9.310
  324XTA    HL825572  -3.798  29.705  -9.374
  324XTA    HL925573  -3.930  29.537  -9.223
  324XTA   HL1025574  -3.773  29.462  -9.193
  324XTA   HL1125575  -3.917  29.404  -9.426
  324XTA   HL1225576  -3.810  29.501  -9.494
  324XTA   HL1325577  -3.703  29.274  -9.325
  324XTA   HL1425578  -3.613  29.403  -9.415
  324XTA   HL1525579  -3.613  29.190  -9.539
  324XTA   HL1625580  -3.792  29.186  -9.545
  324XTA   HL1725581  -3.600  29.155  -9.750
  324XTA   HL1825582  -3.770  29.170  -9.802
  324XTA   HL1925583  -3.543  29.467  -9.837
  324XTA   HL2025584  -3.483  29.434  -9.993
  324XTA   HL2125585  -3.300  29.369  -9.836
  324XTA   HL2225586  -3.354  29.229  -9.907
  324XTA   HL2325587  -3.411  29.260  -9.753
  324XTA   HL2425588  -2.671  29.761  -8.727
  324XTA   HL2525589  -2.802  29.645  -8.687
  324XTA    CO625590  -3.744  29.383  -9.975
  324XTA    CO725591  -3.614  29.180 -10.029
  324XTA    OA525592  -3.707  29.121 -10.046
  324XTA   HL2625593  -3.704  29.432 -10.067
  324XTA   HL2725594  -3.843  29.302 -10.019
  324XTA   HL2825595  -3.536  29.119  -9.991
  324XTA   HL2925596  -3.579  29.229 -10.117
  325XTA     NT25597  -3.429  29.306 -10.460
  325XTA    CN125598  -3.346  29.336 -10.355
  325XTA     C125599  -3.318  29.237 -10.251
  325XTA     C225600  -3.233  29.267 -10.145
  325XTA     C325601  -3.176  29.396 -10.137
  325XTA     C425602  -3.217  29.499 -10.226
  325XTA     C525603  -3.300  29.465 -10.334
  325XTA    CN225604  -3.566  29.295 -10.457
  325XTA     C625605  -3.612  29.179 -10.504
  325XTA     C725606  -3.746  29.154 -10.492
  325XTA     C825607  -3.829  29.249 -10.423
  325XTA     C925608  -3.777  29.366 -10.367
  325XTA    C1025609  -3.641  29.390 -10.389
  325XTA    CN325610  -3.367  29.289 -10.576
  325XTA    C1125611  -3.360  29.390 -10.677
  325XTA    C1225612  -3.291  29.377 -10.795
  325XTA    C1325613  -3.230  29.250 -10.822
  325XTA    C1425614  -3.242  29.143 -10.729
  325XTA    C1525615  -3.300  29.162 -10.601
  325XTA     H125616  -3.376  29.143 -10.251
  325XTA     H225617  -3.215  29.192 -10.069
  325XTA     H325618  -3.181  29.603 -10.237
  325XTA     H425619  -3.321  29.547 -10.401
  325XTA     H525620  -3.544  29.111 -10.553
  325XTA     H625621  -3.775  29.057 -10.534
  325XTA     H725622  -3.829  29.436 -10.303
  325XTA     H825623  -3.593  29.477 -10.348
  325XTA     H925624  -3.406  29.484 -10.642
  325XTA    H1025625  -3.288  29.456 -10.863
  325XTA    H1125626  -3.190  29.050 -10.745
  325XTA    H1225627  -3.299  29.092 -10.516
  325XTA    OA125628  -3.093  29.422 -10.029
  325XTA    CO125629  -3.056  29.557 -10.011
  325XTA    OA225630  -3.963  29.222 -10.420
  325XTA    CO225631  -4.055  29.316 -10.356
  325XTA    CL125632  -4.196  29.277 -10.403
  325XTA    CL225633  -4.247  29.153 -10.334
  325XTA    CL325634  -4.394  29.125 -10.358
  325XTA    CL425635  -4.437  28.995 -10.299
  325XTA    CO325636  -4.574  28.957 -10.349
  325XTA    OA325637  -4.617  28.861 -10.253
  325XTA    CO425638  -4.727  28.779 -10.298
  325XTA    CT125639  -4.735  28.650 -10.214
  325XTA    CL525640  -4.875  28.582 -10.239
  325XTA    CL625641  -5.004  28.649 -10.192
  325XTA    OA425642  -3.156  29.232 -10.943
  325XTA    CO525643  -3.096  29.107 -10.964
  325XTA    HL125644  -3.057  29.111 -11.069
  325XTA    HL225645  -3.142  29.620 -10.008
  325XTA    HL325646  -3.001  29.570  -9.926
  325XTA    HL425647  -2.995  29.594 -10.094
  325XTA    HL525648  -4.064  29.316 -10.247
  325XTA    HL625649  -4.026  29.419 -10.390
  325XTA    HL725650  -4.188  29.276 -10.510
  325XTA    HL825651  -4.273  29.358 -10.397
  325XTA    HL925652  -4.235  29.154 -10.228
  325XTA   HL1025653  -4.181  29.074 -10.370
  325XTA   HL1125654  -4.463  29.208 -10.323
  325XTA   HL1225655  -4.402  29.113 -10.468
  325XTA   HL1325656  -4.435  29.008 -10.191
  325XTA   HL1425657  -4.361  28.911 -10.318
  325XTA   HL1525658  -4.645  29.039 -10.350
  325XTA   HL1625659  -4.560  28.921 -10.450
  325XTA   HL1725660  -4.812  28.836 -10.283
  325XTA   HL1825661  -4.717  28.741 -10.404
  325XTA   HL1925662  -4.871  28.487 -10.190
  325XTA   HL2025663  -4.895  28.554 -10.340
  325XTA   HL2125664  -5.086  28.586 -10.214
  325XTA   HL2225665  -5.025  28.732 -10.259
  325XTA   HL2325666  -5.009  28.689 -10.090
  325XTA   HL2425667  -3.172  29.029 -10.946
  325XTA   HL2525668  -3.011  29.095 -10.890
  325XTA    CO625669  -4.710  28.680 -10.061
  325XTA    CO725670  -4.625  28.548 -10.262
  325XTA    OA525671  -4.745  28.585 -10.006
  325XTA   HL2625672  -4.779  28.767 -10.061
  325XTA   HL2725673  -4.603  28.714 -10.050
  325XTA   HL2825674  -4.610  28.438 -10.177
  325XTA   HL2925675  -4.660  28.495 -10.351
  326XTA     NT25676  -4.060  23.512  -6.292
  326XTA    CN125677  -4.123  23.420  -6.364
  326XTA     C125678  -4.050  23.319  -6.429
  326XTA     C225679  -4.109  23.207  -6.495
  326XTA     C325680  -4.251  23.207  -6.515
  326XTA     C425681  -4.320  23.319  -6.462
  326XTA     C525682  -4.260  23.425  -6.392
  326XTA    CN225683  -4.048  23.481  -6.163
  326XTA     C625684  -3.926  23.444  -6.102
  326XTA     C725685  -3.918  23.418  -5.964
  326XTA     C825686  -4.030  23.436  -5.887
  326XTA     C925687  -4.158  23.470  -5.942
  326XTA    C1025688  -4.167  23.481  -6.084
  326XTA    CN325689  -4.000  23.621  -6.343
  326XTA    C1125690  -4.078  23.728  -6.395
  326XTA    C1225691  -4.022  23.846  -6.445
  326XTA    C1325692  -3.877  23.863  -6.429
  326XTA    C1425693  -3.804  23.757  -6.381
  326XTA    C1525694  -3.864  23.642  -6.334
  326XTA     H125695  -3.944  23.319  -6.402
  326XTA     H225696  -4.049  23.127  -6.524
  326XTA     H325697  -4.428  23.318  -6.475
  326XTA     H425698  -4.322  23.497  -6.338
  326XTA     H525699  -3.836  23.436  -6.153
  326XTA     H625700  -3.820  23.386  -5.919
  326XTA     H725701  -4.253  23.475  -5.883
  326XTA     H825702  -4.269  23.506  -6.120
  326XTA     H925703  -4.186  23.714  -6.397
  326XTA    H1025704  -4.084  23.914  -6.496
  326XTA    H1125705  -3.699  23.768  -6.364
  326XTA    H1225706  -3.802  23.569  -6.281
  326XTA    OA125707  -4.309  23.108  -6.590
  326XTA    CO125708  -4.449  23.113  -6.615
  326XTA    OA225709  -4.013  23.415  -5.751
  326XTA    CO225710  -4.107  23.479  -5.676
  326XTA    CL125711  -4.035  23.511  -5.543
  326XTA    CL225712  -3.941  23.636  -5.566
  326XTA    CL325713  -3.847  23.682  -5.455
  326XTA    CL425714  -3.753  23.794  -5.504
  326XTA    CO325715  -3.644  23.823  -5.402
  326XTA    OA325716  -3.530  23.749  -5.425
  326XTA    CO425717  -3.518  23.639  -5.342
  326XTA    CT125718  -3.419  23.540  -5.413
  326XTA    CL525719  -3.375  23.427  -5.311
  326XTA    CL625720  -3.290  23.466  -5.192
  326XTA    OA425721  -3.807  23.969  -6.479
  326XTA    CO525722  -3.885  24.072  -6.530
  326XTA    HL125723  -3.964  24.099  -6.462
  326XTA    HL225724  -4.478  23.021  -6.670
  326XTA    HL325725  -4.502  23.123  -6.517
  326XTA    HL425726  -4.471  23.198  -6.682
  326XTA    HL525727  -4.131  23.574  -5.720
  326XTA    HL625728  -4.200  23.416  -5.651
  326XTA    HL725729  -3.985  23.418  -5.514
  326XTA    HL825730  -4.110  23.546  -5.481
  326XTA    HL925731  -4.012  23.723  -5.598
  326XTA   HL1025732  -3.880  23.618  -5.656
  326XTA   HL1125733  -3.900  23.717  -5.366
  326XTA   HL1225734  -3.778  23.607  -5.428
  326XTA   HL1325735  -3.816  23.884  -5.524
  326XTA   HL1425736  -3.706  23.763  -5.598
  326XTA   HL1525737  -3.608  23.919  -5.427
  326XTA   HL1625738  -3.681  23.823  -5.300
  326XTA   HL1725739  -3.471  23.670  -5.250
  326XTA   HL1825740  -3.616  23.593  -5.327
  326XTA   HL1925741  -3.312  23.358  -5.368
  326XTA   HL2025742  -3.456  23.378  -5.268
  326XTA   HL2125743  -3.271  23.371  -5.132
  326XTA   HL2225744  -3.354  23.529  -5.133
  326XTA   HL2325745  -3.195  23.512  -5.216
  326XTA   HL2425746  -3.927  24.027  -6.622
  326XTA   HL2525747  -3.831  24.164  -6.560
  326XTA    CO625748  -3.293  23.619  -5.465
  326XTA    CO725749  -3.493  23.479  -5.532
  326XTA    OA525750  -3.614  23.404  -5.499
  326XTA   HL2625751  -3.236  23.683  -5.394
  326XTA   HL2725752  -3.333  23.691  -5.538
  326XTA   HL2825753  -3.421  23.412  -5.580
  326XTA   HL2925754  -3.516  23.553  -5.602
  327XTA     NT25755  -7.886  26.917  -6.128
  327XTA    CN125756  -7.952  26.965  -6.020
  327XTA     C125757  -8.064  26.897  -5.965
  327XTA     C225758  -8.136  26.953  -5.856
  327XTA     C325759  -8.084  27.071  -5.798
  327XTA     C425760  -7.973  27.138  -5.856
  327XTA     C525761  -7.907  27.082  -5.966
  327XTA    CN225762  -7.813  26.805  -6.108
  327XTA     C625763  -7.685  26.811  -6.049
  327XTA     C725764  -7.601  26.696  -6.033
  327XTA     C825765  -7.646  26.571  -6.068
  327XTA     C925766  -7.774  26.564  -6.119
  327XTA    C1025767  -7.860  26.678  -6.137
  327XTA    CN325768  -7.869  26.981  -6.245
  327XTA    C1125769  -7.761  27.068  -6.272
  327XTA    C1225770  -7.754  27.135  -6.395
  327XTA    C1325771  -7.859  27.124  -6.489
  327XTA    C1425772  -7.969  27.030  -6.471
  327XTA    C1525773  -7.967  26.956  -6.348
  327XTA     H125774  -8.102  26.807  -5.997
  327XTA     H225775  -8.222  26.897  -5.820
  327XTA     H325776  -7.945  27.223  -5.800
  327XTA     H425777  -7.820  27.120  -6.008
  327XTA     H525778  -7.636  26.904  -6.040
  327XTA     H625779  -7.501  26.718  -6.001
  327XTA     H725780  -7.824  26.475  -6.142
  327XTA     H825781  -7.960  26.654  -6.172
  327XTA     H925782  -7.680  27.062  -6.196
  327XTA    H1025783  -7.659  27.180  -6.423
  327XTA    H1125784  -8.045  27.018  -6.547
  327XTA    H1225785  -8.045  26.878  -6.330
  327XTA    OA125786  -8.148  27.122  -5.693
  327XTA    CO125787  -8.120  27.259  -5.660
  327XTA    OA225788  -7.565  26.462  -6.042
  327XTA    CO225789  -7.642  26.348  -6.007
  327XTA    CL125790  -7.535  26.245  -5.981
  327XTA    CL225791  -7.474  26.207  -6.114
  327XTA    CL325792  -7.378  26.086  -6.081
  327XTA    CL425793  -7.322  26.004  -6.196
  327XTA    CO325794  -7.195  25.924  -6.163
  327XTA    OA325795  -7.213  25.844  -6.042
  327XTA    CO425796  -7.085  25.785  -6.005
  327XTA    CT125797  -7.082  25.747  -5.861
  327XTA    CL525798  -6.955  25.663  -5.832
  327XTA    CL625799  -6.820  25.736  -5.824
  327XTA    OA425800  -7.852  27.203  -6.602
  327XTA    CO525801  -7.947  27.190  -6.711
  327XTA    HL125802  -7.901  27.236  -6.800
  327XTA    HL225803  -8.185  27.279  -5.577
  327XTA    HL325804  -8.017  27.273  -5.622
  327XTA    HL425805  -8.150  27.328  -5.736
  327XTA    HL525806  -7.719  26.375  -5.932
  327XTA    HL625807  -7.688  26.320  -6.105
  327XTA    HL725808  -7.580  26.157  -5.936
  327XTA    HL825809  -7.459  26.271  -5.905
  327XTA    HL925810  -7.420  26.288  -6.163
  327XTA   HL1025811  -7.547  26.175  -6.189
  327XTA   HL1125812  -7.296  26.137  -6.031
  327XTA   HL1225813  -7.434  26.025  -6.007
  327XTA   HL1325814  -7.312  26.064  -6.287
  327XTA   HL1425815  -7.401  25.935  -6.228
  327XTA   HL1525816  -7.175  25.865  -6.249
  327XTA   HL1625817  -7.113  25.992  -6.155
  327XTA   HL1725818  -7.083  25.713  -6.082
  327XTA   HL1825819  -7.002  25.858  -6.026
  327XTA   HL1925820  -6.951  25.585  -5.905
  327XTA   HL2025821  -6.970  25.620  -5.737
  327XTA   HL2125822  -6.744  25.667  -5.784
  327XTA   HL2225823  -6.814  25.809  -5.741
  327XTA   HL2325824  -6.795  25.774  -5.921
  327XTA   HL2425825  -8.042  27.246  -6.686
  327XTA   HL2525826  -7.948  27.083  -6.734
  327XTA    CO625827  -7.206  25.656  -5.816
  327XTA    CO725828  -7.085  25.868  -5.773
  327XTA    OA525829  -7.253  25.677  -5.720
  327XTA   HL2625830  -7.162  25.559  -5.824
  327XTA   HL2725831  -7.278  25.653  -5.898
  327XTA   HL2825832  -7.086  25.838  -5.635
  327XTA   HL2925833  -7.191  25.907  -5.794
  328XTA     NT25834  -1.612  26.990 -10.420
  328XTA    CN125835  -1.631  27.104 -10.490
  328XTA     C125836  -1.544  27.136 -10.603
  328XTA     C225837  -1.556  27.259 -10.673
  328XTA     C325838  -1.663  27.346 -10.641
  328XTA     C425839  -1.743  27.313 -10.534
  328XTA     C525840  -1.724  27.199 -10.456
  328XTA    CN225841  -1.504  27.001 -10.338
  328XTA     C625842  -1.383  26.943 -10.385
  328XTA     C725843  -1.273  26.937 -10.293
  328XTA     C825844  -1.283  27.005 -10.171
  328XTA     C925845  -1.399  27.075 -10.134
  328XTA    C1025846  -1.515  27.073 -10.216
  328XTA    CN325847  -1.694  26.885 -10.438
  328XTA    C1125848  -1.783  26.848 -10.335
  328XTA    C1225849  -1.856  26.730 -10.355
  328XTA    C1325850  -1.859  26.667 -10.480
  328XTA    C1425851  -1.779  26.716 -10.588
  328XTA    C1525852  -1.689  26.820 -10.563
  328XTA     H125853  -1.468  27.069 -10.635
  328XTA     H225854  -1.495  27.270 -10.759
  328XTA     H325855  -1.830  27.369 -10.521
  328XTA     H425856  -1.791  27.173 -10.371
  328XTA     H525857  -1.374  26.888 -10.476
  328XTA     H625858  -1.177  26.894 -10.312
  328XTA     H725859  -1.411  27.123 -10.036
  328XTA     H825860  -1.605  27.125 -10.189
  328XTA     H925861  -1.789  26.896 -10.241
  328XTA    H1025862  -1.928  26.686 -10.282
  328XTA    H1125863  -1.777  26.672 -10.688
  328XTA    H1225864  -1.634  26.858 -10.660
  328XTA    OA125865  -1.694  27.456 -10.716
  328XTA    CO125866  -1.638  27.457 -10.847
  328XTA    OA225867  -1.160  27.004 -10.106
  328XTA    CO225868  -1.167  27.002  -9.962
  328XTA    CL125869  -1.040  26.936  -9.910
  328XTA    CL225870  -1.005  26.799  -9.973
  328XTA    CL325871  -1.120  26.705  -9.983
  328XTA    CL425872  -1.090  26.565 -10.036
  328XTA    CO325873  -1.222  26.490 -10.052
  328XTA    OA325874  -1.294  26.466  -9.929
  328XTA    CO425875  -1.416  26.400  -9.958
  328XTA    CT125876  -1.490  26.358  -9.836
  328XTA    CL525877  -1.523  26.484  -9.760
  328XTA    CL625878  -1.611  26.478  -9.635
  328XTA    OA425879  -1.947  26.558 -10.489
  328XTA    CO525880  -1.985  26.527 -10.618
  328XTA    HL125881  -2.031  26.612 -10.665
  328XTA    HL225882  -1.675  27.541 -10.903
  328XTA    HL325883  -1.528  27.467 -10.844
  328XTA    HL425884  -1.658  27.361 -10.901
  328XTA    HL525885  -1.160  27.103  -9.917
  328XTA    HL625886  -1.254  26.936  -9.925
  328XTA    HL725887  -1.043  26.917  -9.801
  328XTA    HL825888  -0.951  27.000  -9.908
  328XTA    HL925889  -0.915  26.762  -9.928
  328XTA   HL1025890  -0.969  26.819 -10.070
  328XTA   HL1125891  -1.153  26.695  -9.876
  328XTA   HL1225892  -1.209  26.745 -10.038
  328XTA   HL1325893  -1.020  26.505  -9.972
  328XTA   HL1425894  -1.050  26.560 -10.143
  328XTA   HL1525895  -1.283  26.547 -10.121
  328XTA   HL1625896  -1.196  26.399 -10.105
  328XTA   HL1725897  -1.475  26.448 -10.041
  328XTA   HL1825898  -1.405  26.304 -10.009
  328XTA   HL1925899  -1.569  26.548  -9.832
  328XTA   HL2025900  -1.429  26.530  -9.730
  328XTA   HL2125901  -1.646  26.576  -9.592
  328XTA   HL2225902  -1.564  26.419  -9.564
  328XTA   HL2325903  -1.697  26.413  -9.654
  328XTA   HL2425904  -2.047  26.436 -10.626
  328XTA   HL2525905  -1.890  26.503 -10.667
  328XTA    CO625906  -1.409  26.268  -9.750
  328XTA    CO725907  -1.617  26.280  -9.874
  328XTA    OA525908  -1.691  26.366  -9.958
  328XTA   HL2625909  -1.438  26.296  -9.645
  328XTA   HL2725910  -1.306  26.298  -9.763
  328XTA   HL2825911  -1.680  26.245  -9.792
  328XTA   HL2925912  -1.592  26.186  -9.928
  329XTA     NT25913  -7.386  28.579 -11.399
  329XTA    CN125914  -7.469  28.576 -11.297
  329XTA     C125915  -7.449  28.668 -11.190
  329XTA     C225916  -7.545  28.674 -11.083
  329XTA     C325917  -7.660  28.594 -11.087
  329XTA     C425918  -7.681  28.508 -11.195
  329XTA     C525919  -7.588  28.501 -11.299
  329XTA    CN225920  -7.415  28.657 -11.506
  329XTA     C625921  -7.390  28.795 -11.497
  329XTA     C725922  -7.407  28.876 -11.608
  329XTA     C825923  -7.458  28.816 -11.726
  329XTA     C925924  -7.503  28.681 -11.725
  329XTA    C1025925  -7.473  28.601 -11.617
  329XTA    CN325926  -7.272  28.508 -11.405
  329XTA    C1125927  -7.146  28.562 -11.361
  329XTA    C1225928  -7.030  28.478 -11.342
  329XTA    C1325929  -7.049  28.341 -11.370
  329XTA    C1425930  -7.174  28.291 -11.399
  329XTA    C1525931  -7.283  28.369 -11.416
  329XTA     H125932  -7.367  28.737 -11.184
  329XTA     H225933  -7.520  28.743 -11.003
  329XTA     H325934  -7.771  28.449 -11.199
  329XTA     H425935  -7.602  28.426 -11.373
  329XTA     H525936  -7.341  28.823 -11.397
  329XTA     H625937  -7.390  28.982 -11.597
  329XTA     H725938  -7.546  28.628 -11.802
  329XTA     H825939  -7.494  28.492 -11.626
  329XTA     H925940  -7.134  28.663 -11.342
  329XTA    H1025941  -6.933  28.523 -11.322
  329XTA    H1125942  -7.178  28.187 -11.421
  329XTA    H1225943  -7.376  28.320 -11.437
  329XTA    OA125944  -7.755  28.594 -10.991
  329XTA    CO125945  -7.744  28.696 -10.885
  329XTA    OA225946  -7.496  28.903 -11.832
  329XTA    CO225947  -7.406  29.005 -11.869
  329XTA    CL125948  -7.296  28.952 -11.966
  329XTA    CL225949  -7.170  29.039 -11.975
  329XTA    CL325950  -7.089  29.045 -11.847
  329XTA    CL425951  -7.072  28.911 -11.771
  329XTA    CO325952  -6.986  28.809 -11.847
  329XTA    OA325953  -6.871  28.875 -11.914
  329XTA    CO425954  -6.802  28.766 -11.968
  329XTA    CT125955  -6.719  28.813 -12.088
  329XTA    CL525956  -6.616  28.919 -12.044
  329XTA    CL625957  -6.533  28.995 -12.158
  329XTA    OA425958  -6.947  28.246 -11.372
  329XTA    CO525959  -6.813  28.281 -11.363
  329XTA    HL125960  -6.805  28.369 -11.428
  329XTA    HL225961  -7.819  28.675 -10.807
  329XTA    HL325962  -7.650  28.696 -10.836
  329XTA    HL425963  -7.760  28.794 -10.928
  329XTA    HL525964  -7.474  29.078 -11.917
  329XTA    HL625965  -7.375  29.053 -11.775
  329XTA    HL725966  -7.342  28.947 -12.066
  329XTA    HL825967  -7.269  28.851 -11.934
  329XTA    HL925968  -7.194  29.138 -12.009
  329XTA   HL1025969  -7.095  28.998 -12.043
  329XTA   HL1125970  -6.990  29.094 -11.856
  329XTA   HL1225971  -7.157  29.110 -11.792
  329XTA   HL1325972  -7.182  28.893 -11.738
  329XTA   HL1425973  -7.009  28.937 -11.687
  329XTA   HL1525974  -6.941  28.729 -11.784
  329XTA   HL1625975  -7.048  28.753 -11.922
  329XTA   HL1725976  -6.733  28.722 -11.893
  329XTA   HL1825977  -6.866  28.677 -11.988
  329XTA   HL1925978  -6.544  28.865 -11.982
  329XTA   HL2025979  -6.663  28.993 -11.983
  329XTA   HL2125980  -6.449  29.051 -12.116
  329XTA   HL2225981  -6.600  29.063 -12.220
  329XTA   HL2325982  -6.502  28.931 -12.232
  329XTA   HL2425983  -6.751  28.193 -11.386
  329XTA   HL2525984  -6.795  28.314 -11.260
  329XTA    CO625985  -6.814  28.871 -12.198
  329XTA    CO725986  -6.636  28.697 -12.147
  329XTA    OA525987  -6.712  28.590 -12.190
  329XTA   HL2625988  -6.893  28.923 -12.140
  329XTA   HL2725989  -6.872  28.791 -12.239
  329XTA   HL2825990  -6.563  28.659 -12.083
  329XTA   HL2925991  -6.591  28.739 -12.243
  330XTA     NT25992  -4.044  27.030  -8.661
  330XTA    CN125993  -4.058  27.099  -8.549
  330XTA     C125994  -4.065  27.031  -8.427
  330XTA     C225995  -4.075  27.102  -8.304
  330XTA     C325996  -4.090  27.239  -8.305
  330XTA     C425997  -4.085  27.305  -8.431
  330XTA     C525998  -4.070  27.236  -8.547
  330XTA    CN225999  -3.957  26.927  -8.672
  330XTA     C626000  -4.001  26.796  -8.702
  330XTA     C726001  -3.907  26.694  -8.722
  330XTA     C826002  -3.770  26.715  -8.704
  330XTA     C926003  -3.725  26.851  -8.684
  330XTA    C1026004  -3.820  26.953  -8.664
  330XTA    CN326005  -4.122  27.049  -8.770
  330XTA    C1126006  -4.251  27.006  -8.773
  330XTA    C1226007  -4.331  27.015  -8.890
  330XTA    C1326008  -4.280  27.075  -9.002
  330XTA    C1426009  -4.144  27.126  -8.998
  330XTA    C1526010  -4.065  27.114  -8.878
  330XTA     H126011  -4.057  26.924  -8.420
  330XTA     H226012  -4.098  27.042  -8.216
  330XTA     H326013  -4.072  27.414  -8.436
  330XTA     H426014  -4.065  27.292  -8.641
  330XTA     H526015  -4.105  26.766  -8.718
  330XTA     H626016  -3.935  26.599  -8.754
  330XTA     H726017  -3.619  26.859  -8.690
  330XTA     H826018  -3.785  27.053  -8.645
  330XTA     H926019  -4.303  26.945  -8.698
  330XTA    H1026020  -4.430  26.973  -8.890
  330XTA    H1126021  -4.096  27.166  -9.083
  330XTA    H1226022  -3.960  27.155  -8.871
  330XTA    OA126023  -4.106  27.321  -8.194
  330XTA    CO126024  -4.131  27.246  -8.069
  330XTA    OA226025  -3.666  26.634  -8.732
  330XTA    CO226026  -3.705  26.513  -8.801
  330XTA    CL126027  -3.575  26.452  -8.859
  330XTA    CL226028  -3.505  26.556  -8.950
  330XTA    CL326029  -3.406  26.484  -9.043
  330XTA    CL426030  -3.338  26.592  -9.138
  330XTA    CO326031  -3.207  26.522  -9.193
  330XTA    OA326032  -3.127  26.502  -9.085
  330XTA    CO426033  -3.010  26.434  -9.123
  330XTA    CT126034  -2.906  26.417  -9.008
  330XTA    CL526035  -2.975  26.352  -8.883
  330XTA    CL626036  -2.980  26.196  -8.889
  330XTA    OA426037  -4.346  27.069  -9.120
  330XTA    CO526038  -4.277  26.985  -9.207
  330XTA    HL126039  -4.326  26.964  -9.301
  330XTA    HL226040  -4.062  27.168  -8.059
  330XTA    HL326041  -4.113  27.314  -7.985
  330XTA    HL426042  -4.221  27.198  -8.071
  330XTA    HL526043  -3.756  26.438  -8.736
  330XTA    HL626044  -3.782  26.531  -8.882
  330XTA    HL726045  -3.597  26.363  -8.917
  330XTA    HL826046  -3.513  26.419  -8.778
  330XTA    HL926047  -3.451  26.626  -8.890
  330XTA   HL1026048  -3.572  26.601  -9.018
  330XTA   HL1126049  -3.333  26.429  -8.986
  330XTA   HL1226050  -3.470  26.414  -9.093
  330XTA   HL1326051  -3.312  26.680  -9.077
  330XTA   HL1426052  -3.415  26.621  -9.209
  330XTA   HL1526053  -3.223  26.424  -9.242
  330XTA   HL1626054  -3.161  26.598  -9.259
  330XTA   HL1726055  -3.037  26.330  -9.162
  330XTA   HL1826056  -2.960  26.484  -9.202
  330XTA   HL1926057  -3.072  26.393  -8.867
  330XTA   HL2026058  -2.919  26.375  -8.789
  330XTA   HL2126059  -3.060  26.165  -8.956
  330XTA   HL2226060  -3.007  26.146  -8.792
  330XTA   HL2326061  -2.891  26.142  -8.918
  330XTA   HL2426062  -4.249  26.895  -9.158
  330XTA   HL2526063  -4.182  27.030  -9.218
  330XTA    CO626064  -2.858  26.555  -8.975
  330XTA    CO726065  -2.776  26.338  -9.052
  330XTA    OA526066  -2.693  26.332  -8.980
  330XTA   HL2626067  -2.933  26.612  -8.934
  330XTA   HL2726068  -2.764  26.548  -8.874
  330XTA   HL2826069  -2.735  26.391  -9.136
  330XTA   HL2926070  -2.802  26.235  -9.084
  331XTA     NT26071  -4.260  26.607  -6.730
  331XTA    CN126072  -4.241  26.487  -6.787
  331XTA     C126073  -4.351  26.423  -6.845
  331XTA     C226074  -4.335  26.297  -6.908
  331XTA     C326075  -4.217  26.222  -6.891
  331XTA     C426076  -4.107  26.282  -6.820
  331XTA     C526077  -4.114  26.414  -6.770
  331XTA    CN226078  -4.266  26.611  -6.594
  331XTA     C626079  -4.393  26.586  -6.543
  331XTA     C726080  -4.409  26.598  -6.403
  331XTA     C826081  -4.304  26.647  -6.314
  331XTA     C926082  -4.185  26.673  -6.370
  331XTA    C1026083  -4.161  26.659  -6.506
  331XTA    CN326084  -4.232  26.725  -6.798
  331XTA    C1126085  -4.102  26.770  -6.830
  331XTA    C1226086  -4.095  26.895  -6.893
  331XTA    C1326087  -4.209  26.978  -6.898
  331XTA    C1426088  -4.337  26.932  -6.877
  331XTA    C1526089  -4.350  26.802  -6.824
  331XTA     H126090  -4.446  26.470  -6.849
  331XTA     H226091  -4.423  26.264  -6.952
  331XTA     H326092  -4.014  26.230  -6.820
  331XTA     H426093  -4.016  26.458  -6.732
  331XTA     H526094  -4.479  26.592  -6.610
  331XTA     H626095  -4.508  26.575  -6.357
  331XTA     H726096  -4.104  26.686  -6.298
  331XTA     H826097  -4.069  26.694  -6.548
  331XTA     H926098  -4.013  26.729  -6.802
  331XTA    H1026099  -4.002  26.938  -6.915
  331XTA    H1126100  -4.422  27.002  -6.892
  331XTA    H1226101  -4.447  26.759  -6.801
  331XTA    OA126102  -4.211  26.089  -6.933
  331XTA    CO126103  -4.327  26.040  -7.001
  331XTA    OA226104  -4.334  26.639  -6.175
  331XTA    CO226105  -4.303  26.522  -6.101
  331XTA    CL126106  -4.390  26.413  -6.144
  331XTA    CL226107  -4.384  26.307  -6.036
  331XTA    CL326108  -4.501  26.218  -6.055
  331XTA    CL426109  -4.483  26.097  -5.965
  331XTA    CO326110  -4.594  26.002  -5.996
  331XTA    OA326111  -4.578  25.901  -5.899
  331XTA    CO426112  -4.692  25.823  -5.878
  331XTA    CT126113  -4.668  25.736  -5.763
  331XTA    CL526114  -4.800  25.682  -5.699
  331XTA    CL626115  -4.885  25.627  -5.811
  331XTA    OA426116  -4.174  27.101  -6.946
  331XTA    CO526117  -4.282  27.200  -6.950
  331XTA    HL126118  -4.355  27.158  -7.012
  331XTA    HL226119  -4.310  25.940  -7.033
  331XTA    HL326120  -4.422  26.049  -6.949
  331XTA    HL426121  -4.331  26.093  -7.094
  331XTA    HL526122  -4.197  26.489  -6.108
  331XTA    HL626123  -4.314  26.552  -5.998
  331XTA    HL726124  -4.359  26.369  -6.240
  331XTA    HL826125  -4.495  26.443  -6.146
  331XTA    HL926126  -4.378  26.344  -5.939
  331XTA   HL1026127  -4.282  26.260  -6.051
  331XTA   HL1126128  -4.595  26.269  -6.025
  331XTA   HL1226129  -4.497  26.179  -6.155
  331XTA   HL1326130  -4.480  26.130  -5.862
  331XTA   HL1426131  -4.396  26.039  -5.989
  331XTA   HL1526132  -4.689  26.053  -5.973
  331XTA   HL1626133  -4.600  25.963  -6.095
  331XTA   HL1726134  -4.774  25.893  -5.846
  331XTA   HL1826135  -4.728  25.770  -5.967
  331XTA   HL1926136  -4.851  25.766  -5.641
  331XTA   HL2026137  -4.771  25.606  -5.626
  331XTA   HL2126138  -4.826  25.576  -5.885
  331XTA   HL2226139  -4.934  25.711  -5.860
  331XTA   HL2326140  -4.962  25.561  -5.772
  331XTA   HL2426141  -4.259  27.292  -6.994
  331XTA   HL2526142  -4.323  27.206  -6.842
  331XTA    CO626143  -4.581  25.792  -5.637
  331XTA    CO726144  -4.577  25.618  -5.804
  331XTA    OA526145  -4.584  25.698  -5.528
  331XTA   HL2626146  -4.636  25.876  -5.602
  331XTA   HL2726147  -4.483  25.815  -5.670
  331XTA   HL2826148  -4.531  25.575  -5.716
  331XTA   HL2926149  -4.642  25.542  -5.845
  332XTA     NT26150  -3.821  24.488  -7.240
  332XTA    CN126151  -3.868  24.563  -7.139
  332XTA     C126152  -3.821  24.693  -7.116
  332XTA     C226153  -3.859  24.766  -7.005
  332XTA     C326154  -3.956  24.719  -6.915
  332XTA     C426155  -4.005  24.589  -6.935
  332XTA     C526156  -3.961  24.515  -7.046
  332XTA    CN226157  -3.714  24.406  -7.209
  332XTA     C626158  -3.582  24.458  -7.203
  332XTA     C726159  -3.472  24.378  -7.166
  332XTA     C826160  -3.491  24.247  -7.125
  332XTA     C926161  -3.619  24.191  -7.129
  332XTA    C1026162  -3.730  24.272  -7.165
  332XTA    CN326163  -3.841  24.535  -7.365
  332XTA    C1126164  -3.738  24.584  -7.447
  332XTA    C1226165  -3.767  24.641  -7.574
  332XTA    C1326166  -3.896  24.620  -7.631
  332XTA    C1426167  -3.995  24.558  -7.552
  332XTA    C1526168  -3.972  24.531  -7.417
  332XTA     H126169  -3.748  24.729  -7.183
  332XTA     H226170  -3.805  24.860  -6.989
  332XTA     H326171  -4.086  24.535  -6.877
  332XTA     H426172  -4.003  24.422  -7.070
  332XTA     H526173  -3.578  24.558  -7.227
  332XTA     H626174  -3.378  24.427  -7.148
  332XTA     H726175  -3.639  24.082  -7.097
  332XTA     H826176  -3.825  24.228  -7.160
  332XTA     H926177  -3.639  24.602  -7.413
  332XTA    H1026178  -3.685  24.677  -7.632
  332XTA    H1126179  -4.094  24.549  -7.597
  332XTA    H1226180  -4.051  24.485  -7.357
  332XTA    OA126181  -3.998  24.805  -6.812
  332XTA    CO126182  -4.084  24.746  -6.714
  332XTA    OA226183  -3.391  24.172  -7.068
  332XTA    CO226184  -3.259  24.212  -7.071
  332XTA    CL126185  -3.159  24.119  -6.991
  332XTA    CL226186  -3.106  23.996  -7.062
  332XTA    CL326187  -3.028  24.030  -7.198
  332XTA    CL426188  -2.943  23.907  -7.250
  332XTA    CO326189  -2.916  23.912  -7.398
  332XTA    OA326190  -2.835  23.794  -7.417
  332XTA    CO426191  -2.809  23.776  -7.556
  332XTA    CT126192  -2.700  23.680  -7.582
  332XTA    CL526193  -2.558  23.732  -7.541
  332XTA    CL626194  -2.440  23.659  -7.590
  332XTA    OA426195  -3.931  24.656  -7.764
  332XTA    CO526196  -3.828  24.703  -7.849
  332XTA    HL126197  -3.877  24.716  -7.944
  332XTA    HL226198  -4.099  24.825  -6.641
  332XTA    HL326199  -4.174  24.698  -6.758
  332XTA    HL426200  -4.027  24.665  -6.668
  332XTA    HL526201  -3.210  24.225  -7.172
  332XTA    HL626202  -3.251  24.313  -7.028
  332XTA    HL726203  -3.226  24.088  -6.905
  332XTA    HL826204  -3.077  24.173  -6.947
  332XTA    HL926205  -3.193  23.935  -7.082
  332XTA   HL1026206  -3.043  23.939  -6.990
  332XTA   HL1126207  -3.091  24.073  -7.274
  332XTA   HL1226208  -2.960  24.103  -7.166
  332XTA   HL1326209  -2.986  23.813  -7.222
  332XTA   HL1426210  -2.851  23.898  -7.191
  332XTA   HL1526211  -3.017  23.910  -7.452
  332XTA   HL1626212  -2.857  24.003  -7.426
  332XTA   HL1726213  -2.899  23.738  -7.611
  332XTA   HL1826214  -2.779  23.866  -7.613
  332XTA   HL1926215  -2.551  23.736  -7.434
  332XTA   HL2026216  -2.546  23.836  -7.579
  332XTA   HL2126217  -2.424  23.663  -7.696
  332XTA   HL2226218  -2.451  23.555  -7.554
  332XTA   HL2326219  -2.350  23.703  -7.541
  332XTA   HL2426220  -3.755  24.621  -7.859
  332XTA   HL2526221  -3.780  24.789  -7.806
  332XTA    CO626222  -2.708  23.636  -7.729
  332XTA    CO726223  -2.731  23.553  -7.494
  332XTA    OA526224  -2.833  23.510  -7.505
  332XTA   HL2626225  -2.634  23.556  -7.732
  332XTA   HL2726226  -2.829  23.563  -7.751
  332XTA   HL2826227  -2.717  23.573  -7.386
  332XTA   HL2926228  -2.664  23.474  -7.520
  333XTA     NT26229  -3.258  28.513  -6.364
  333XTA    CN126230  -3.214  28.430  -6.265
  333XTA     C126231  -3.111  28.461  -6.169
  333XTA     C226232  -3.087  28.369  -6.064
  333XTA     C326233  -3.143  28.240  -6.059
  333XTA     C426234  -3.231  28.207  -6.161
  333XTA     C526235  -3.267  28.298  -6.262
  333XTA    CN226236  -3.190  28.522  -6.477
  333XTA     C626237  -3.234  28.463  -6.594
  333XTA     C726238  -3.156  28.482  -6.714
  333XTA     C826239  -3.027  28.545  -6.718
  333XTA     C926240  -2.981  28.590  -6.595
  333XTA    C1026241  -3.068  28.593  -6.485
  333XTA    CN326242  -3.370  28.591  -6.337
  333XTA    C1126243  -3.359  28.731  -6.324
  333XTA    C1226244  -3.476  28.813  -6.336
  333XTA    C1326245  -3.601  28.754  -6.329
  333XTA    C1426246  -3.610  28.614  -6.337
  333XTA    C1526247  -3.497  28.532  -6.342
  333XTA     H126248  -3.065  28.556  -6.171
  333XTA     H226249  -3.017  28.397  -5.988
  333XTA     H326250  -3.281  28.113  -6.154
  333XTA     H426251  -3.336  28.286  -6.337
  333XTA     H526252  -3.333  28.405  -6.581
  333XTA     H626253  -3.182  28.433  -6.812
  333XTA     H726254  -2.883  28.635  -6.589
  333XTA     H826255  -3.030  28.641  -6.387
  333XTA     H926256  -3.261  28.777  -6.331
  333XTA    H1026257  -3.472  28.923  -6.349
  333XTA    H1126258  -3.698  28.558  -6.339
  333XTA    H1226259  -3.515  28.427  -6.354
  333XTA    OA126260  -3.117  28.156  -5.951
  333XTA    CO126261  -3.151  28.022  -5.959
  333XTA    OA226262  -2.953  28.559  -6.829
  333XTA    CO226263  -3.009  28.529  -6.964
  333XTA    CL126264  -2.923  28.585  -7.074
  333XTA    CL226265  -2.924  28.740  -7.062
  333XTA    CL326266  -2.869  28.806  -7.185
  333XTA    CL426267  -2.737  28.754  -7.234
  333XTA    CO326268  -2.685  28.817  -7.359
  333XTA    OA326269  -2.560  28.782  -7.392
  333XTA    CO426270  -2.545  28.650  -7.446
  333XTA    CT126271  -2.396  28.621  -7.458
  333XTA    CL526272  -2.324  28.601  -7.323
  333XTA    CL626273  -2.335  28.706  -7.220
  333XTA    OA426274  -3.717  28.826  -6.336
  333XTA    CO526275  -3.715  28.970  -6.362
  333XTA    HL126276  -3.651  29.017  -6.288
  333XTA    HL226277  -3.123  27.963  -5.874
  333XTA    HL326278  -3.262  28.032  -5.956
  333XTA    HL426279  -3.131  27.974  -6.058
  333XTA    HL526280  -3.016  28.422  -6.985
  333XTA    HL626281  -3.106  28.576  -6.980
  333XTA    HL726282  -2.956  28.549  -7.164
  333XTA    HL826283  -2.823  28.549  -7.052
  333XTA    HL926284  -2.863  28.760  -6.970
  333XTA   HL1026285  -3.024  28.774  -7.044
  333XTA   HL1126286  -2.940  28.792  -7.269
  333XTA   HL1226287  -2.860  28.918  -7.164
  333XTA   HL1326288  -2.745  28.657  -7.269
  333XTA   HL1426289  -2.662  28.759  -7.152
  333XTA   HL1526290  -2.751  28.818  -7.444
  333XTA   HL1626291  -2.679  28.919  -7.327
  333XTA   HL1726292  -2.599  28.572  -7.388
  333XTA   HL1826293  -2.597  28.662  -7.538
  333XTA   HL1926294  -2.218  28.571  -7.333
  333XTA   HL2026295  -2.366  28.514  -7.278
  333XTA   HL2126296  -2.433  28.724  -7.197
  333XTA   HL2226297  -2.290  28.804  -7.260
  333XTA   HL2326298  -2.273  28.686  -7.130
  333XTA   HL2426299  -3.815  28.999  -6.364
  333XTA   HL2526300  -3.673  28.981  -6.463
  333XTA    CO626301  -2.315  28.732  -7.524
  333XTA    CO726302  -2.380  28.495  -7.549
  333XTA    OA526303  -2.341  28.737  -7.662
  333XTA   HL2626304  -2.213  28.699  -7.507
  333XTA   HL2726305  -2.311  28.832  -7.479
  333XTA   HL2826306  -2.274  28.475  -7.566
  333XTA   HL2926307  -2.422  28.509  -7.643
  334XTA     NT26308  -3.001  28.290  -5.548
  334XTA    CN126309  -3.045  28.418  -5.559
  334XTA     C126310  -3.126  28.455  -5.664
  334XTA     C226311  -3.184  28.584  -5.678
  334XTA     C326312  -3.159  28.679  -5.575
  334XTA     C426313  -3.067  28.646  -5.470
  334XTA     C526314  -3.012  28.514  -5.463
  334XTA    CN226315  -2.883  28.243  -5.586
  334XTA     C626316  -2.782  28.216  -5.490
  334XTA     C726317  -2.659  28.170  -5.535
  334XTA     C826318  -2.625  28.169  -5.676
  334XTA     C926319  -2.730  28.182  -5.769
  334XTA    C1026320  -2.859  28.229  -5.724
  334XTA    CN326321  -3.087  28.206  -5.486
  334XTA    C1126322  -3.077  28.191  -5.344
  334XTA    C1226323  -3.161  28.098  -5.273
  334XTA    C1326324  -3.263  28.027  -5.344
  334XTA    C1426325  -3.277  28.049  -5.483
  334XTA    C1526326  -3.187  28.134  -5.554
  334XTA     H126327  -3.154  28.380  -5.732
  334XTA     H226328  -3.243  28.608  -5.764
  334XTA     H326329  -3.036  28.714  -5.391
  334XTA     H426330  -2.951  28.491  -5.380
  334XTA     H526331  -2.793  28.237  -5.387
  334XTA     H626332  -2.573  28.152  -5.473
  334XTA     H726333  -2.714  28.163  -5.877
  334XTA     H826334  -2.930  28.259  -5.799
  334XTA     H926335  -2.999  28.238  -5.279
  334XTA    H1026336  -3.144  28.089  -5.166
  334XTA    H1126337  -3.351  27.993  -5.538
  334XTA    H1226338  -3.202  28.144  -5.659
  334XTA    OA126339  -3.216  28.802  -5.581
  334XTA    CO126340  -3.199  28.894  -5.474
  334XTA    OA226341  -2.499  28.135  -5.702
  334XTA    CO226342  -2.442  28.203  -5.809
  334XTA    CL126343  -2.295  28.183  -5.823
  334XTA    CL226344  -2.238  28.297  -5.905
  334XTA    CL326345  -2.192  28.422  -5.818
  334XTA    CL426346  -2.154  28.542  -5.907
  334XTA    CO326347  -2.271  28.582  -5.992
  334XTA    OA326348  -2.244  28.530  -6.122
  334XTA    CO426349  -2.361  28.526  -6.194
  334XTA    CT126350  -2.327  28.486  -6.336
  334XTA    CL526351  -2.253  28.606  -6.400
  334XTA    CL626352  -2.340  28.726  -6.441
  334XTA    OA426353  -3.357  27.956  -5.279
  334XTA    CO526354  -3.367  27.975  -5.136
  334XTA    HL126355  -3.393  28.074  -5.106
  334XTA    HL226356  -3.219  28.847  -5.375
  334XTA    HL326357  -3.093  28.921  -5.474
  334XTA    HL426358  -3.254  28.985  -5.478
  334XTA    HL526359  -2.505  28.188  -5.900
  334XTA    HL626360  -2.450  28.307  -5.782
  334XTA    HL726361  -2.267  28.086  -5.866
  334XTA    HL826362  -2.242  28.197  -5.726
  334XTA    HL926363  -2.321  28.319  -5.973
  334XTA   HL1026364  -2.164  28.270  -5.980
  334XTA   HL1126365  -2.283  28.454  -5.765
  334XTA   HL1226366  -2.121  28.397  -5.737
  334XTA   HL1326367  -2.061  28.511  -5.964
  334XTA   HL1426368  -2.124  28.628  -5.840
  334XTA   HL1526369  -2.356  28.547  -5.945
  334XTA   HL1626370  -2.292  28.688  -5.991
  334XTA   HL1726371  -2.438  28.466  -6.138
  334XTA   HL1826372  -2.402  28.634  -6.193
  334XTA   HL1926373  -2.224  28.582  -6.501
  334XTA   HL2026374  -2.160  28.631  -6.334
  334XTA   HL2126375  -2.285  28.817  -6.426
  334XTA   HL2226376  -2.418  28.738  -6.363
  334XTA   HL2326377  -2.387  28.727  -6.538
  334XTA   HL2426378  -3.281  27.933  -5.083
  334XTA   HL2526379  -3.458  27.919  -5.104
  334XTA    CO626380  -2.456  28.448  -6.409
  334XTA    CO726381  -2.238  28.364  -6.343
  334XTA    OA526382  -2.216  28.320  -6.475
  334XTA   HL2626383  -2.483  28.351  -6.369
  334XTA   HL2726384  -2.533  28.511  -6.385
  334XTA   HL2826385  -2.286  28.276  -6.297
  334XTA   HL2926386  -2.148  28.379  -6.288
  335XTA     NT26387  -4.868  24.431  -5.867
  335XTA    CN126388  -4.777  24.522  -5.827
  335XTA     C126389  -4.751  24.539  -5.691
  335XTA     C226390  -4.669  24.642  -5.651
  335XTA     C326391  -4.607  24.727  -5.744
  335XTA     C426392  -4.626  24.705  -5.881
  335XTA     C526393  -4.716  24.608  -5.923
  335XTA    CN226394  -4.829  24.306  -5.869
  335XTA     C626395  -4.906  24.206  -5.802
  335XTA     C726396  -4.871  24.072  -5.805
  335XTA     C826397  -4.755  24.027  -5.872
  335XTA     C926398  -4.676  24.124  -5.944
  335XTA    C1026399  -4.718  24.264  -5.945
  335XTA    CN326400  -4.993  24.462  -5.895
  335XTA    C1126401  -5.054  24.426  -6.019
  335XTA    C1226402  -5.186  24.463  -6.048
  335XTA    C1326403  -5.269  24.512  -5.937
  335XTA    C1426404  -5.215  24.533  -5.811
  335XTA    C1526405  -5.075  24.510  -5.797
  335XTA     H126406  -4.809  24.483  -5.621
  335XTA     H226407  -4.655  24.648  -5.537
  335XTA     H326408  -4.569  24.764  -5.952
  335XTA     H426409  -4.744  24.599  -6.026
  335XTA     H526410  -4.995  24.240  -5.751
  335XTA     H626411  -4.943  24.014  -5.754
  335XTA     H726412  -4.595  24.091  -6.002
  335XTA     H826413  -4.666  24.338  -6.007
  335XTA     H926414  -4.999  24.375  -6.102
  335XTA    H1026415  -5.218  24.458  -6.148
  335XTA    H1126416  -5.270  24.558  -5.725
  335XTA    H1226417  -5.030  24.527  -5.701
  335XTA    OA126418  -4.510  24.822  -5.714
  335XTA    CO126419  -4.506  24.862  -5.574
  335XTA    OA226420  -4.720  23.894  -5.890
  335XTA    CO226421  -4.802  23.798  -5.831
  335XTA    CL126422  -4.732  23.666  -5.829
  335XTA    CL226423  -4.641  23.638  -5.712
  335XTA    CL326424  -4.506  23.711  -5.720
  335XTA    CL426425  -4.437  23.722  -5.587
  335XTA    CO326426  -4.309  23.799  -5.580
  335XTA    OA326427  -4.289  23.878  -5.465
  335XTA    CO426428  -4.195  23.981  -5.484
  335XTA    CT126429  -4.130  24.041  -5.354
  335XTA    CL526430  -4.235  24.111  -5.263
  335XTA    CL626431  -4.307  24.228  -5.330
  335XTA    OA426432  -5.403  24.536  -5.956
  335XTA    CO526433  -5.468  24.468  -6.068
  335XTA    HL126434  -5.579  24.488  -6.068
  335XTA    HL226435  -4.606  24.910  -5.542
  335XTA    HL326436  -4.473  24.783  -5.515
  335XTA    HL426437  -4.425  24.938  -5.564
  335XTA    HL526438  -4.805  23.828  -5.725
  335XTA    HL626439  -4.894  23.791  -5.892
  335XTA    HL726440  -4.676  23.659  -5.922
  335XTA    HL826441  -4.803  23.593  -5.833
  335XTA    HL926442  -4.620  23.525  -5.710
  335XTA   HL1026443  -4.694  23.661  -5.624
  335XTA   HL1126444  -4.445  23.636  -5.772
  335XTA   HL1226445  -4.510  23.801  -5.774
  335XTA   HL1326446  -4.422  23.620  -5.555
  335XTA   HL1426447  -4.512  23.755  -5.520
  335XTA   HL1526448  -4.225  23.730  -5.569
  335XTA   HL1626449  -4.287  23.863  -5.670
  335XTA   HL1726450  -4.112  23.943  -5.545
  335XTA   HL1826451  -4.241  24.056  -5.543
  335XTA   HL1926452  -4.185  24.134  -5.175
  335XTA   HL2026453  -4.296  24.028  -5.237
  335XTA   HL2126454  -4.347  24.217  -5.426
  335XTA   HL2226455  -4.231  24.306  -5.331
  335XTA   HL2326456  -4.389  24.264  -5.268
  335XTA   HL2426457  -5.450  24.366  -6.084
  335XTA   HL2526458  -5.437  24.528  -6.152
  335XTA    CO626459  -4.024  24.143  -5.386
  335XTA    CO726460  -4.073  23.925  -5.273
  335XTA    OA526461  -3.931  24.108  -5.490
  335XTA   HL2626462  -3.970  24.181  -5.302
  335XTA   HL2726463  -4.071  24.239  -5.417
  335XTA   HL2826464  -3.993  23.969  -5.226
  335XTA   HL2926465  -4.044  23.845  -5.337
  336XTA     NT26466  -0.991  25.788  -7.386
  336XTA    CN126467  -0.956  25.893  -7.308
  336XTA     C126468  -1.038  25.946  -7.209
  336XTA     C226469  -0.986  26.021  -7.099
  336XTA     C326470  -0.851  26.068  -7.105
  336XTA     C426471  -0.767  26.021  -7.206
  336XTA     C526472  -0.818  25.934  -7.308
  336XTA    CN226473  -1.014  25.667  -7.328
  336XTA     C626474  -0.909  25.570  -7.331
  336XTA     C726475  -0.944  25.443  -7.275
  336XTA     C826476  -1.071  25.418  -7.213
  336XTA     C926477  -1.162  25.519  -7.201
  336XTA    C1026478  -1.136  25.643  -7.259
  336XTA    CN326479  -1.035  25.818  -7.510
  336XTA    C1126480  -1.173  25.841  -7.526
  336XTA    C1226481  -1.223  25.852  -7.652
  336XTA    C1326482  -1.138  25.854  -7.763
  336XTA    C1426483  -1.002  25.848  -7.750
  336XTA    C1526484  -0.946  25.821  -7.619
  336XTA     H126485  -1.142  25.910  -7.210
  336XTA     H226486  -1.045  26.044  -7.010
  336XTA     H326487  -0.661  26.042  -7.201
  336XTA     H426488  -0.750  25.891  -7.376
  336XTA     H526489  -0.809  25.592  -7.372
  336XTA     H626490  -0.867  25.368  -7.272
  336XTA     H726491  -1.255  25.499  -7.157
  336XTA     H826492  -1.210  25.721  -7.256
  336XTA     H926493  -1.239  25.840  -7.436
  336XTA    H1026494  -1.326  25.870  -7.666
  336XTA    H1126495  -0.941  25.863  -7.835
  336XTA    H1226496  -0.837  25.818  -7.610
  336XTA    OA126497  -0.793  26.151  -7.012
  336XTA    CO126498  -0.859  26.165  -6.889
  336XTA    OA226499  -1.096  25.295  -7.158
  336XTA    CO226500  -1.194  25.292  -7.053
  336XTA    CL126501  -1.213  25.152  -6.984
  336XTA    CL226502  -1.315  25.160  -6.865
  336XTA    CL326503  -1.306  25.032  -6.772
  336XTA    CL426504  -1.189  25.023  -6.680
  336XTA    CO326505  -1.161  24.883  -6.628
  336XTA    OA326506  -1.280  24.831  -6.576
  336XTA    CO426507  -1.251  24.735  -6.481
  336XTA    CT126508  -1.378  24.653  -6.449
  336XTA    CL526509  -1.486  24.743  -6.377
  336XTA    CL626510  -1.552  24.863  -6.455
  336XTA    OA426511  -1.189  25.876  -7.885
  336XTA    CO526512  -1.146  25.777  -7.976
  336XTA    HL126513  -1.040  25.793  -8.013
  336XTA    HL226514  -0.952  26.216  -6.913
  336XTA    HL326515  -0.880  26.066  -6.840
  336XTA    HL426516  -0.810  26.233  -6.826
  336XTA    HL526517  -1.167  25.371  -6.983
  336XTA    HL626518  -1.293  25.323  -7.094
  336XTA    HL726519  -1.111  25.107  -6.966
  336XTA    HL826520  -1.280  25.089  -7.051
  336XTA    HL926521  -1.417  25.160  -6.890
  336XTA   HL1026522  -1.295  25.231  -6.784
  336XTA   HL1126523  -1.393  25.010  -6.719
  336XTA   HL1226524  -1.307  24.943  -6.846
  336XTA   HL1326525  -1.198  25.097  -6.603
  336XTA   HL1426526  -1.093  25.040  -6.733
  336XTA   HL1526527  -1.118  24.814  -6.708
  336XTA   HL1626528  -1.094  24.898  -6.545
  336XTA   HL1726529  -1.178  24.673  -6.524
  336XTA   HL1826530  -1.207  24.772  -6.390
  336XTA   HL1926531  -1.431  24.794  -6.291
  336XTA   HL2026532  -1.574  24.681  -6.344
  336XTA   HL2126533  -1.492  24.955  -6.464
  336XTA   HL2226534  -1.645  24.898  -6.415
  336XTA   HL2326535  -1.586  24.828  -6.549
  336XTA   HL2426536  -1.210  25.785  -8.066
  336XTA   HL2526537  -1.155  25.688  -7.928
  336XTA    CO626538  -1.354  24.532  -6.357
  336XTA    CO726539  -1.436  24.601  -6.584
  336XTA    OA526540  -1.348  24.501  -6.641
  336XTA   HL2626541  -1.339  24.449  -6.424
  336XTA   HL2726542  -1.258  24.551  -6.299
  336XTA   HL2826543  -1.460  24.678  -6.661
  336XTA   HL2926544  -1.534  24.565  -6.557
  337XTA     NT26545  -7.856  26.858 -12.414
  337XTA    CN126546  -7.748  26.933 -12.400
  337XTA     C126547  -7.711  26.997 -12.283
  337XTA     C226548  -7.605  27.092 -12.292
  337XTA     C326549  -7.535  27.122 -12.409
  337XTA     C426550  -7.577  27.058 -12.527
  337XTA     C526551  -7.681  26.961 -12.523
  337XTA    CN226552  -7.970  26.921 -12.395
  337XTA     C626553  -8.026  26.937 -12.266
  337XTA     C726554  -8.142  27.011 -12.252
  337XTA     C826555  -8.192  27.087 -12.360
  337XTA     C926556  -8.132  27.072 -12.492
  337XTA    C1026557  -8.028  26.982 -12.506
  337XTA    CN326558  -7.849  26.732 -12.451
  337XTA    C1126559  -7.793  26.646 -12.360
  337XTA    C1226560  -7.784  26.503 -12.379
  337XTA    C1326561  -7.828  26.447 -12.500
  337XTA    C1426562  -7.884  26.537 -12.599
  337XTA    C1526563  -7.892  26.675 -12.571
  337XTA     H126564  -7.764  26.973 -12.192
  337XTA     H226565  -7.581  27.152 -12.211
  337XTA     H326566  -7.511  27.068 -12.618
  337XTA     H426567  -7.705  26.905 -12.609
  337XTA     H526568  -7.986  26.881 -12.181
  337XTA     H626569  -8.181  27.027 -12.157
  337XTA     H726570  -8.170  27.121 -12.579
  337XTA     H826571  -7.994  26.958 -12.609
  337XTA     H926572  -7.751  26.683 -12.268
  337XTA    H1026573  -7.737  26.446 -12.298
  337XTA    H1126574  -7.938  26.502 -12.689
  337XTA    H1226575  -7.934  26.737 -12.651
  337XTA    OA126576  -7.426  27.214 -12.409
  337XTA    CO126577  -7.449  27.319 -12.499
  337XTA    OA226578  -8.302  27.169 -12.347
  337XTA    CO226579  -8.400  27.142 -12.247
  337XTA    CL126580  -8.520  27.222 -12.290
  337XTA    CL226581  -8.489  27.374 -12.285
  337XTA    CL326582  -8.599  27.470 -12.334
  337XTA    CL426583  -8.569  27.619 -12.318
  337XTA    CO326584  -8.539  27.654 -12.176
  337XTA    OA326585  -8.407  27.632 -12.131
  337XTA    CO426586  -8.407  27.638 -11.992
  337XTA    CT126587  -8.269  27.615 -11.934
  337XTA    CL526588  -8.271  27.600 -11.781
  337XTA    CL626589  -8.361  27.491 -11.729
  337XTA    OA426590  -7.818  26.315 -12.531
  337XTA    CO526591  -7.775  26.232 -12.428
  337XTA    HL126592  -7.752  26.132 -12.464
  337XTA    HL226593  -7.367  27.391 -12.496
  337XTA    HL326594  -7.465  27.291 -12.596
  337XTA    HL426595  -7.531  27.378 -12.460
  337XTA    HL526596  -8.423  27.038 -12.239
  337XTA    HL626597  -8.364  27.178 -12.148
  337XTA    HL726598  -8.595  27.198 -12.217
  337XTA    HL826599  -8.565  27.194 -12.381
  337XTA    HL926600  -8.397  27.391 -12.356
  337XTA   HL1026601  -8.454  27.406 -12.182
  337XTA   HL1126602  -8.608  27.460 -12.448
  337XTA   HL1226603  -8.697  27.454 -12.293
  337XTA   HL1326604  -8.646  27.683 -12.362
  337XTA   HL1426605  -8.480  27.639 -12.382
  337XTA   HL1526606  -8.569  27.758 -12.150
  337XTA   HL1626607  -8.611  27.594 -12.120
  337XTA   HL1726608  -8.443  27.737 -11.957
  337XTA   HL1826609  -8.469  27.562 -11.950
  337XTA   HL1926610  -8.300  27.695 -11.736
  337XTA   HL2026611  -8.172  27.577 -11.741
  337XTA   HL2126612  -8.348  27.461 -11.624
  337XTA   HL2226613  -8.363  27.401 -11.795
  337XTA   HL2326614  -8.466  27.525 -11.724
  337XTA   HL2426615  -7.846  26.214 -12.346
  337XTA   HL2526616  -7.689  26.279 -12.387
  337XTA    CO626617  -8.167  27.715 -11.980
  337XTA    CO726618  -8.184  27.500 -11.995
  337XTA    OA526619  -8.083  27.596 -11.991
  337XTA   HL2626620  -8.135  27.793 -11.914
  337XTA   HL2726621  -8.202  27.751 -12.077
  337XTA   HL2826622  -8.228  27.468 -12.092
  337XTA   HL2926623  -8.183  27.414 -11.930
  338XTA     NT26624  -8.226  28.611 -11.128
  338XTA    CN126625  -8.222  28.558 -11.002
  338XTA     C126626  -8.341  28.511 -10.953
  338XTA     C226627  -8.350  28.462 -10.819
  338XTA     C326628  -8.243  28.466 -10.732
  338XTA     C426629  -8.117  28.517 -10.789
  338XTA     C526630  -8.107  28.567 -10.923
  338XTA    CN226631  -8.227  28.533 -11.236
  338XTA     C626632  -8.107  28.489 -11.299
  338XTA     C726633  -8.110  28.401 -11.416
  338XTA     C826634  -8.235  28.351 -11.465
  338XTA     C926635  -8.353  28.392 -11.400
  338XTA    C1026636  -8.352  28.483 -11.290
  338XTA    CN326637  -8.207  28.747 -11.145
  338XTA    C1126638  -8.322  28.822 -11.150
  338XTA    C1226639  -8.309  28.957 -11.191
  338XTA    C1326640  -8.188  29.023 -11.222
  338XTA    C1426641  -8.070  28.944 -11.204
  338XTA    C1526642  -8.082  28.811 -11.166
  338XTA     H126643  -8.427  28.496 -11.011
  338XTA     H226644  -8.451  28.416 -10.795
  338XTA     H326645  -8.033  28.520 -10.722
  338XTA     H426646  -8.009  28.612 -10.954
  338XTA     H526647  -8.021  28.526 -11.255
  338XTA     H626648  -8.014  28.367 -11.452
  338XTA     H726649  -8.449  28.347 -11.437
  338XTA     H826650  -8.445  28.515 -11.252
  338XTA     H926651  -8.409  28.767 -11.134
  338XTA    H1026652  -8.404  29.004 -11.201
  338XTA    H1126653  -7.979  28.984 -11.236
  338XTA    H1226654  -7.990  28.750 -11.164
  338XTA    OA126655  -8.250  28.445 -10.595
  338XTA    CO126656  -8.379  28.446 -10.538
  338XTA    OA226657  -8.250  28.256 -11.561
  338XTA    CO226658  -8.141  28.170 -11.586
  338XTA    CL126659  -8.164  28.085 -11.713
  338XTA    CL226660  -8.043  28.033 -11.776
  338XTA    CL326661  -7.975  27.924 -11.690
  338XTA    CL426662  -7.823  27.913 -11.705
  338XTA    CO326663  -7.763  27.811 -11.613
  338XTA    OA326664  -7.646  27.862 -11.565
  338XTA    CO426665  -7.579  27.753 -11.496
  338XTA    CT126666  -7.431  27.795 -11.483
  338XTA    CL526667  -7.412  27.920 -11.397
  338XTA    CL626668  -7.475  27.924 -11.260
  338XTA    OA426669  -8.173  29.148 -11.276
  338XTA    CO526670  -8.295  29.214 -11.328
  338XTA    HL126671  -8.341  29.160 -11.403
  338XTA    HL226672  -8.436  28.363 -10.573
  338XTA    HL326673  -8.355  28.434 -10.439
  338XTA    HL426674  -8.427  28.546 -10.560
  338XTA    HL526675  -8.053  28.234 -11.602
  338XTA    HL626676  -8.127  28.130 -11.491
  338XTA    HL726677  -8.219  28.141 -11.793
  338XTA    HL826678  -8.219  27.991 -11.694
  338XTA    HL926679  -7.977  28.113 -11.799
  338XTA   HL1026680  -8.064  28.002 -11.879
  338XTA   HL1126681  -7.983  27.961 -11.585
  338XTA   HL1226682  -8.030  27.827 -11.694
  338XTA   HL1326683  -7.778  28.009 -11.686
  338XTA   HL1426684  -7.798  27.887 -11.808
  338XTA   HL1526685  -7.818  27.789 -11.529
  338XTA   HL1626686  -7.752  27.716 -11.663
  338XTA   HL1726687  -7.617  27.737 -11.398
  338XTA   HL1826688  -7.597  27.657 -11.549
  338XTA   HL1926689  -7.455  28.008 -11.439
  338XTA   HL2026690  -7.304  27.926 -11.382
  338XTA   HL2126691  -7.423  27.857 -11.190
  338XTA   HL2226692  -7.584  27.901 -11.255
  338XTA   HL2326693  -7.461  28.020 -11.215
  338XTA   HL2426694  -8.273  29.309 -11.386
  338XTA   HL2526695  -8.363  29.245 -11.252
  338XTA    CO626696  -7.377  27.804 -11.626
  338XTA    CO726697  -7.354  27.677 -11.421
  338XTA    OA526698  -7.398  27.646 -11.290
  338XTA   HL2626699  -7.396  27.911 -11.668
  338XTA   HL2726700  -7.270  27.802 -11.623
  338XTA   HL2826701  -7.247  27.697 -11.416
  338XTA   HL2926702  -7.370  27.595 -11.481
  339XTA     NT26703  -7.454  26.463  -7.097
  339XTA    CN126704  -7.372  26.500  -6.995
  339XTA     C126705  -7.423  26.606  -6.911
  339XTA     C226706  -7.354  26.650  -6.797
  339XTA     C326707  -7.229  26.590  -6.767
  339XTA     C426708  -7.175  26.497  -6.857
  339XTA     C526709  -7.256  26.436  -6.956
  339XTA    CN226710  -7.408  26.491  -7.222
  339XTA     C626711  -7.400  26.398  -7.334
  339XTA     C726712  -7.346  26.440  -7.453
  339XTA     C826713  -7.310  26.574  -7.481
  339XTA     C926714  -7.322  26.673  -7.375
  339XTA    C1026715  -7.370  26.624  -7.255
  339XTA    CN326716  -7.560  26.386  -7.070
  339XTA    C1126717  -7.539  26.255  -7.012
  339XTA    C1226718  -7.648  26.172  -6.989
  339XTA    C1326719  -7.775  26.210  -7.033
  339XTA    C1426720  -7.803  26.337  -7.076
  339XTA    C1526721  -7.698  26.428  -7.094
  339XTA     H126722  -7.509  26.667  -6.933
  339XTA     H226723  -7.394  26.730  -6.737
  339XTA     H326724  -7.071  26.462  -6.837
  339XTA     H426725  -7.231  26.348  -7.001
  339XTA     H526726  -7.438  26.297  -7.327
  339XTA     H626727  -7.343  26.368  -7.529
  339XTA     H726728  -7.287  26.773  -7.395
  339XTA     H826729  -7.385  26.694  -7.169
  339XTA     H926730  -7.440  26.217  -6.999
  339XTA    H1026731  -7.620  26.075  -6.958
  339XTA    H1126732  -7.903  26.370  -7.104
  339XTA    H1226733  -7.728  26.527  -7.135
  339XTA    OA126734  -7.157  26.656  -6.672
  339XTA    CO126735  -7.049  26.728  -6.720
  339XTA    OA226736  -7.278  26.600  -7.607
  339XTA    CO226737  -7.181  26.702  -7.620
  339XTA    CL126738  -7.128  26.705  -7.765
  339XTA    CL226739  -7.220  26.757  -7.870
  339XTA    CL326740  -7.151  26.769  -8.007
  339XTA    CL426741  -7.236  26.756  -8.128
  339XTA    CO326742  -7.171  26.777  -8.262
  339XTA    OA326743  -7.069  26.680  -8.282
  339XTA    CO426744  -7.123  26.546  -8.311
  339XTA    CT126745  -7.005  26.451  -8.326
  339XTA    CL526746  -7.057  26.319  -8.373
  339XTA    CL626747  -7.156  26.253  -8.277
  339XTA    OA426748  -7.886  26.135  -7.008
  339XTA    CO526749  -7.866  25.991  -7.011
  339XTA    HL126750  -7.815  25.975  -7.109
  339XTA    HL226751  -7.060  26.778  -6.813
  339XTA    HL326752  -7.037  26.803  -6.645
  339XTA    HL426753  -6.960  26.663  -6.720
  339XTA    HL526754  -7.210  26.802  -7.595
  339XTA    HL626755  -7.091  26.690  -7.558
  339XTA    HL726756  -7.096  26.599  -7.781
  339XTA    HL826757  -7.044  26.774  -7.759
  339XTA    HL926758  -7.251  26.855  -7.838
  339XTA   HL1026759  -7.303  26.692  -7.879
  339XTA   HL1126760  -7.117  26.874  -8.008
  339XTA   HL1226761  -7.059  26.710  -8.013
  339XTA   HL1326762  -7.325  26.810  -8.120
  339XTA   HL1426763  -7.278  26.658  -8.131
  339XTA   HL1526764  -7.232  26.760  -8.350
  339XTA   HL1626765  -7.134  26.882  -8.270
  339XTA   HL1726766  -7.193  26.512  -8.232
  339XTA   HL1826767  -7.181  26.534  -8.403
  339XTA   HL1926768  -6.965  26.257  -8.386
  339XTA   HL2026769  -7.100  26.339  -8.477
  339XTA   HL2126770  -7.117  26.247  -8.173
  339XTA   HL2226771  -7.174  26.149  -8.307
  339XTA   HL2326772  -7.250  26.303  -8.265
  339XTA   HL2426773  -7.967  25.956  -7.011
  339XTA   HL2526774  -7.808  25.958  -6.921
  339XTA    CO626775  -6.929  26.449  -8.193
  339XTA    CO726776  -6.911  26.514  -8.429
  339XTA    OA526777  -6.844  26.384  -8.206
  339XTA   HL2626778  -6.987  26.408  -8.112
  339XTA   HL2726779  -6.891  26.548  -8.161
  339XTA   HL2826780  -6.850  26.632  -8.376
  339XTA   HL2926781  -6.829  26.445  -8.438
  340XTA     NT26782  -5.781  27.376 -10.206
  340XTA    CN126783  -5.827  27.320 -10.322
  340XTA     C126784  -5.959  27.266 -10.341
  340XTA     C226785  -6.000  27.202 -10.462
  340XTA     C326786  -5.911  27.193 -10.570
  340XTA     C426787  -5.778  27.239 -10.550
  340XTA     C526788  -5.739  27.303 -10.434
  340XTA    CN226789  -5.722  27.494 -10.201
  340XTA     C626790  -5.590  27.511 -10.253
  340XTA     C726791  -5.522  27.629 -10.218
  340XTA     C826792  -5.583  27.743 -10.162
  340XTA     C926793  -5.721  27.729 -10.123
  340XTA    C1026794  -5.783  27.604 -10.139
  340XTA    CN326795  -5.789  27.317 -10.087
  340XTA    C1126796  -5.675  27.247 -10.026
  340XTA    C1226797  -5.690  27.189  -9.903
  340XTA    C1326798  -5.813  27.173  -9.839
  340XTA    C1426799  -5.927  27.230  -9.900
  340XTA    C1526800  -5.908  27.309 -10.019
  340XTA     H126801  -6.028  27.269 -10.257
  340XTA     H226802  -6.102  27.159 -10.453
  340XTA     H326803  -5.700  27.230 -10.624
  340XTA     H426804  -5.641  27.338 -10.419
  340XTA     H526805  -5.532  27.434 -10.296
  340XTA     H626806  -5.415  27.640 -10.243
  340XTA     H726807  -5.783  27.812 -10.080
  340XTA     H826808  -5.882  27.594 -10.096
  340XTA     H926809  -5.577  27.249 -10.066
  340XTA    H1026810  -5.602  27.142  -9.854
  340XTA    H1126811  -6.020  27.222  -9.851
  340XTA    H1226812  -5.994  27.357 -10.060
  340XTA    OA126813  -5.947  27.124 -10.685
  340XTA    CO126814  -6.061  27.039 -10.675
  340XTA    OA226815  -5.511  27.860 -10.160
  340XTA    CO226816  -5.568  27.980 -10.106
  340XTA    CL126817  -5.476  28.090 -10.123
  340XTA    CL226818  -5.342  28.071 -10.066
  340XTA    CL326819  -5.233  28.140 -10.145
  340XTA    CL426820  -5.139  28.048 -10.215
  340XTA    CO326821  -5.207  28.002 -10.345
  340XTA    OA326822  -5.118  27.923 -10.411
  340XTA    CO426823  -5.175  27.855 -10.521
  340XTA    CT126824  -5.084  27.765 -10.604
  340XTA    CL526825  -5.148  27.709 -10.728
  340XTA    CL626826  -5.149  27.808 -10.851
  340XTA    OA426827  -5.820  27.119  -9.715
  340XTA    CO526828  -5.941  27.070  -9.663
  340XTA    HL126829  -5.946  27.031  -9.559
  340XTA    HL226830  -6.085  27.004 -10.777
  340XTA    HL326831  -6.064  26.952 -10.606
  340XTA    HL426832  -6.151  27.090 -10.638
  340XTA    HL526833  -5.661  28.008 -10.154
  340XTA    HL626834  -5.593  27.971 -10.007
  340XTA    HL726835  -5.519  28.189 -10.114
  340XTA    HL826836  -5.468  28.093 -10.229
  340XTA    HL926837  -5.320  27.961 -10.073
  340XTA   HL1026838  -5.329  28.092  -9.955
  340XTA   HL1126839  -5.276  28.207 -10.214
  340XTA   HL1226840  -5.176  28.195 -10.074
  340XTA   HL1326841  -5.092  27.973 -10.154
  340XTA   HL1426842  -5.049  28.107 -10.252
  340XTA   HL1526843  -5.299  27.957 -10.313
  340XTA   HL1626844  -5.241  28.077 -10.413
  340XTA   HL1726845  -5.252  27.788 -10.482
  340XTA   HL1826846  -5.211  27.933 -10.592
  340XTA   HL1926847  -5.249  27.676 -10.706
  340XTA   HL2026848  -5.102  27.614 -10.764
  340XTA   HL2126849  -5.166  27.760 -10.948
  340XTA   HL2226850  -5.060  27.862 -10.874
  340XTA   HL2326851  -5.216  27.898 -10.845
  340XTA   HL2426852  -5.989  27.007  -9.735
  340XTA   HL2526853  -6.004  27.163  -9.646
  340XTA    CO626854  -5.026  27.642 -10.533
  340XTA    CO726855  -4.960  27.853 -10.640
  340XTA    OA526856  -4.871  27.808 -10.708
  340XTA   HL2626857  -4.984  27.670 -10.433
  340XTA   HL2726858  -4.919  27.592 -10.619
  340XTA   HL2826859  -4.920  27.894 -10.557
  340XTA   HL2926860  -4.985  27.945 -10.691
  341XTA     NT26861  -5.135  26.205  -6.513
  341XTA    CN126862  -5.180  26.107  -6.594
  341XTA     C126863  -5.262  26.142  -6.698
  341XTA     C226864  -5.287  26.051  -6.796
  341XTA     C326865  -5.251  25.918  -6.778
  341XTA     C426866  -5.183  25.878  -6.664
  341XTA     C526867  -5.148  25.972  -6.562
  341XTA    CN226868  -4.999  26.221  -6.494
  341XTA     C626869  -4.942  26.209  -6.363
  341XTA     C726870  -4.803  26.202  -6.346
  341XTA     C826871  -4.713  26.230  -6.448
  341XTA     C926872  -4.765  26.253  -6.579
  341XTA    C1026873  -4.905  26.239  -6.601
  341XTA    CN326874  -5.220  26.280  -6.436
  341XTA    C1126875  -5.243  26.417  -6.472
  341XTA    C1226876  -5.342  26.490  -6.401
  341XTA    C1326877  -5.414  26.430  -6.293
  341XTA    C1426878  -5.376  26.303  -6.253
  341XTA    C1526879  -5.279  26.222  -6.321
  341XTA     H126880  -5.302  26.240  -6.706
  341XTA     H226881  -5.351  26.074  -6.876
  341XTA     H326882  -5.170  25.774  -6.645
  341XTA     H426883  -5.089  25.953  -6.467
  341XTA     H526884  -5.003  26.202  -6.276
  341XTA     H626885  -4.761  26.195  -6.246
  341XTA     H726886  -4.700  26.277  -6.665
  341XTA     H826887  -4.940  26.235  -6.699
  341XTA     H926888  -5.177  26.465  -6.549
  341XTA    H1026889  -5.350  26.597  -6.433
  341XTA    H1126890  -5.420  26.261  -6.165
  341XTA    H1226891  -5.265  26.120  -6.295
  341XTA    OA126892  -5.292  25.822  -6.869
  341XTA    CO126893  -5.344  25.840  -7.000
  341XTA    OA226894  -4.574  26.229  -6.421
  341XTA    CO226895  -4.492  26.258  -6.539
  341XTA    CL126896  -4.345  26.237  -6.507
  341XTA    CL226897  -4.327  26.105  -6.443
  341XTA    CL326898  -4.183  26.064  -6.424
  341XTA    CL426899  -4.174  25.935  -6.350
  341XTA    CO326900  -4.252  25.929  -6.221
  341XTA    OA326901  -4.201  25.821  -6.155
  341XTA    CO426902  -4.291  25.782  -6.044
  341XTA    CT126903  -4.292  25.627  -6.040
  341XTA    CL526904  -4.354  25.567  -6.166
  341XTA    CL626905  -4.487  25.621  -6.209
  341XTA    OA426906  -5.498  26.488  -6.208
  341XTA    CO526907  -5.562  26.603  -6.258
  341XTA    HL126908  -5.649  26.637  -6.198
  341XTA    HL226909  -5.447  25.872  -6.997
  341XTA    HL326910  -5.291  25.904  -7.059
  341XTA    HL426911  -5.342  25.741  -7.067
  341XTA    HL526912  -4.517  26.185  -6.611
  341XTA    HL626913  -4.513  26.357  -6.576
  341XTA    HL726914  -4.309  26.317  -6.439
  341XTA    HL826915  -4.276  26.256  -6.591
  341XTA    HL926916  -4.372  26.036  -6.514
  341XTA   HL1026917  -4.386  26.102  -6.346
  341XTA   HL1126918  -4.130  26.055  -6.524
  341XTA   HL1226919  -4.128  26.138  -6.361
  341XTA   HL1326920  -4.064  25.921  -6.342
  341XTA   HL1426921  -4.211  25.849  -6.422
  341XTA   HL1526922  -4.245  26.024  -6.158
  341XTA   HL1626923  -4.366  25.909  -6.239
  341XTA   HL1726924  -4.261  25.836  -5.956
  341XTA   HL1826925  -4.398  25.804  -6.060
  341XTA   HL1926926  -4.372  25.457  -6.149
  341XTA   HL2026927  -4.296  25.582  -6.256
  341XTA   HL2126928  -4.559  25.565  -6.276
  341XTA   HL2226929  -4.463  25.712  -6.253
  341XTA   HL2326930  -4.546  25.646  -6.114
  341XTA   HL2426931  -5.618  26.581  -6.353
  341XTA   HL2526932  -5.487  26.681  -6.265
  341XTA    CO626933  -4.383  25.581  -5.914
  341XTA    CO726934  -4.150  25.579  -6.013
  341XTA    OA526935  -4.474  25.639  -5.901
  341XTA   HL2626936  -4.331  25.602  -5.828
  341XTA   HL2726937  -4.408  25.476  -5.914
  341XTA   HL2826938  -4.137  25.438  -6.003
  341XTA   HL2926939  -4.095  25.594  -6.108
  342XTA     NT26940  -4.876  24.912  -7.499
  342XTA    CN126941  -4.767  24.897  -7.425
  342XTA     C126942  -4.771  24.869  -7.289
  342XTA     C226943  -4.653  24.858  -7.215
  342XTA     C326944  -4.523  24.864  -7.273
  342XTA     C426945  -4.519  24.898  -7.411
  342XTA     C526946  -4.641  24.903  -7.490
  342XTA    CN226947  -4.933  25.035  -7.499
  342XTA     C626948  -4.869  25.135  -7.567
  342XTA     C726949  -4.925  25.259  -7.599
  342XTA     C826950  -5.062  25.278  -7.559
  342XTA     C926951  -5.130  25.168  -7.497
  342XTA    C1026952  -5.066  25.048  -7.465
  342XTA    CN326953  -4.924  24.824  -7.590
  342XTA    C1126954  -4.936  24.865  -7.727
  342XTA    C1226955  -4.979  24.769  -7.820
  342XTA    C1326956  -5.017  24.642  -7.780
  342XTA    C1426957  -5.010  24.605  -7.646
  342XTA    C1526958  -4.961  24.692  -7.553
  342XTA     H126959  -4.867  24.842  -7.241
  342XTA     H226960  -4.663  24.835  -7.107
  342XTA     H326961  -4.424  24.915  -7.461
  342XTA     H426962  -4.631  24.937  -7.588
  342XTA     H526963  -4.770  25.109  -7.591
  342XTA     H626964  -4.862  25.327  -7.657
  342XTA     H726965  -5.233  25.173  -7.470
  342XTA     H826966  -5.113  24.963  -7.413
  342XTA     H926967  -4.905  24.967  -7.751
  342XTA    H1026968  -4.986  24.814  -7.917
  342XTA    H1126969  -5.054  24.510  -7.614
  342XTA    H1226970  -4.938  24.661  -7.450
  342XTA    OA126971  -4.408  24.850  -7.206
  342XTA    CO126972  -4.416  24.843  -7.065
  342XTA    OA226973  -5.130  25.403  -7.575
  342XTA    CO226974  -5.119  25.460  -7.705
  342XTA    CL126975  -5.088  25.613  -7.697
  342XTA    CL226976  -5.115  25.707  -7.821
  342XTA    CL326977  -5.062  25.645  -7.952
  342XTA    CL426978  -5.131  25.688  -8.077
  342XTA    CO326979  -5.045  25.646  -8.200
  342XTA    OA326980  -5.026  25.504  -8.200
  342XTA    CO426981  -5.152  25.431  -8.230
  342XTA    CT126982  -5.149  25.284  -8.271
  342XTA    CL526983  -5.284  25.241  -8.341
  342XTA    CL626984  -5.406  25.221  -8.248
  342XTA    OA426985  -5.072  24.562  -7.872
  342XTA    CO526986  -5.178  24.472  -7.836
  342XTA    HL126987  -5.205  24.424  -7.930
  342XTA    HL226988  -4.490  24.911  -7.022
  342XTA    HL326989  -4.436  24.747  -7.027
  342XTA    HL426990  -4.314  24.864  -7.023
  342XTA    HL526991  -5.053  25.407  -7.771
  342XTA    HL626992  -5.211  25.429  -7.745
  342XTA    HL726993  -4.986  25.627  -7.670
  342XTA    HL826994  -5.127  25.649  -7.603
  342XTA    HL926995  -5.070  25.805  -7.800
  342XTA   HL1026996  -5.220  25.724  -7.814
  342XTA   HL1126997  -4.952  25.658  -7.962
  342XTA   HL1226998  -5.075  25.539  -7.937
  342XTA   HL1326999  -5.136  25.797  -8.079
  342XTA   HL1427000  -5.225  25.634  -8.092
  342XTA   HL1527001  -5.089  25.670  -8.301
  342XTA   HL1627002  -4.942  25.692  -8.203
  342XTA   HL1727003  -5.226  25.432  -8.144
  342XTA   HL1827004  -5.205  25.481  -8.306
  342XTA   HL1927005  -5.263  25.147  -8.376
  342XTA   HL2027006  -5.321  25.297  -8.422
  342XTA   HL2127007  -5.461  25.307  -8.240
  342XTA   HL2227008  -5.381  25.183  -8.150
  342XTA   HL2327009  -5.473  25.145  -8.288
  342XTA   HL2427010  -5.268  24.507  -7.787
  342XTA   HL2527011  -5.132  24.391  -7.783
  342XTA    CO627012  -5.110  25.198  -8.147
  342XTA    CO727013  -5.044  25.260  -8.379
  342XTA    OA527014  -5.072  25.310  -8.505
  342XTA   HL2627015  -5.174  25.230  -8.061
  342XTA   HL2727016  -5.118  25.094  -8.163
  342XTA   HL2827017  -5.019  25.152  -8.391
  342XTA   HL2927018  -4.951  25.307  -8.340
  343XTA     NT27019  -3.458  27.082 -11.115
  343XTA    CN127020  -3.522  27.176 -11.185
  343XTA     C127021  -3.477  27.313 -11.193
  343XTA     C227022  -3.553  27.413 -11.261
  343XTA     C327023  -3.667  27.371 -11.335
  343XTA     C427024  -3.705  27.235 -11.340
  343XTA     C527025  -3.632  27.135 -11.263
  343XTA    CN227026  -3.501  27.049 -10.989
  343XTA     C627027  -3.580  26.935 -10.960
  343XTA     C727028  -3.629  26.900 -10.837
  343XTA     C827029  -3.591  26.979 -10.728
  343XTA     C927030  -3.517  27.095 -10.751
  343XTA    C1027031  -3.476  27.133 -10.881
  343XTA    CN327032  -3.336  27.036 -11.146
  343XTA    C1127033  -3.223  27.107 -11.118
  343XTA    C1227034  -3.099  27.067 -11.168
  343XTA    C1327035  -3.090  26.945 -11.248
  343XTA    C1427036  -3.205  26.867 -11.265
  343XTA    C1527037  -3.331  26.917 -11.223
  343XTA     H127038  -3.386  27.341 -11.138
  343XTA     H227039  -3.512  27.512 -11.272
  343XTA     H327040  -3.789  27.200 -11.391
  343XTA     H427041  -3.661  27.033 -11.257
  343XTA     H527042  -3.611  26.882 -11.041
  343XTA     H627043  -3.698  26.817 -10.825
  343XTA     H727044  -3.489  27.146 -10.658
  343XTA     H827045  -3.425  27.227 -10.882
  343XTA     H927046  -3.241  27.201 -11.070
  343XTA    H1027047  -3.012  27.129 -11.158
  343XTA    H1127048  -3.199  26.778 -11.329
  343XTA    H1227049  -3.418  26.861 -11.232
  343XTA    OA127050  -3.728  27.469 -11.405
  343XTA    CO127051  -3.794  27.427 -11.521
  343XTA    OA227052  -3.620  26.949 -10.596
  343XTA    CO227053  -3.698  26.830 -10.569
  343XTA    CL127054  -3.669  26.785 -10.427
  343XTA    CL227055  -3.761  26.664 -10.386
  343XTA    CL327056  -3.734  26.602 -10.240
  343XTA    CL427057  -3.586  26.563 -10.228
  343XTA    CO327058  -3.547  26.464 -10.335
  343XTA    OA327059  -3.410  26.424 -10.315
  343XTA    CO427060  -3.314  26.514 -10.386
  343XTA    CT127061  -3.169  26.468 -10.364
  343XTA    CL527062  -3.166  26.310 -10.340
  343XTA    CL627063  -3.222  26.227 -10.460
  343XTA    OA427064  -2.973  26.893 -11.297
  343XTA    CO527065  -2.859  26.966 -11.270
  343XTA    HL127066  -2.836  26.968 -11.163
  343XTA    HL227067  -3.718  27.382 -11.584
  343XTA    HL327068  -3.875  27.360 -11.496
  343XTA    HL427069  -3.841  27.514 -11.575
  343XTA    HL527070  -3.804  26.839 -10.570
  343XTA    HL627071  -3.668  26.748 -10.639
  343XTA    HL727072  -3.676  26.871 -10.364
  343XTA    HL827073  -3.568  26.744 -10.420
  343XTA    HL927074  -3.774  26.590 -10.461
  343XTA   HL1027075  -3.867  26.694 -10.393
  343XTA   HL1127076  -3.771  26.685 -10.175
  343XTA   HL1227077  -3.796  26.507 -10.228
  343XTA   HL1327078  -3.562  26.524 -10.128
  343XTA   HL1427079  -3.519  26.644 -10.241
  343XTA   HL1527080  -3.619  26.384 -10.314
  343XTA   HL1627081  -3.567  26.495 -10.435
  343XTA   HL1727082  -3.329  26.496 -10.493
  343XTA   HL1827083  -3.331  26.617 -10.354
  343XTA   HL1927084  -3.219  26.279 -10.251
  343XTA   HL2027085  -3.066  26.284 -10.318
  343XTA   HL2127086  -3.312  26.268 -10.485
  343XTA   HL2227087  -3.243  26.126 -10.430
  343XTA   HL2327088  -3.164  26.226 -10.553
  343XTA   HL2427089  -2.857  27.073 -11.288
  343XTA   HL2527090  -2.779  26.903 -11.306
  343XTA    CO627091  -3.101  26.532 -10.240
  343XTA    CO727092  -3.083  26.516 -10.487
  343XTA    OA527093  -2.972  26.479 -10.210
  343XTA   HL2627094  -3.163  26.519 -10.154
  343XTA   HL2727095  -3.094  26.638 -10.251
  343XTA   HL2827096  -3.087  26.629 -10.494
  343XTA   HL2927097  -2.979  26.478 -10.482
  344XTA     NT27098  -6.054  27.477  -4.877
  344XTA    CN127099  -6.045  27.361  -4.942
  344XTA     C127100  -5.914  27.330  -4.982
  344XTA     C227101  -5.900  27.206  -5.051
  344XTA     C327102  -6.007  27.124  -5.090
  344XTA     C427103  -6.134  27.152  -5.033
  344XTA     C527104  -6.152  27.272  -4.960
  344XTA    CN227105  -6.098  27.481  -4.748
  344XTA     C627106  -6.223  27.532  -4.724
  344XTA     C727107  -6.272  27.547  -4.596
  344XTA     C827108  -6.197  27.502  -4.491
  344XTA     C927109  -6.080  27.430  -4.516
  344XTA    C1027110  -6.020  27.436  -4.639
  344XTA    CN327111  -6.061  27.585  -4.949
  344XTA    C1127112  -5.949  27.668  -4.940
  344XTA    C1227113  -5.946  27.794  -5.007
  344XTA    C1327114  -6.056  27.829  -5.089
  344XTA    C1427115  -6.164  27.745  -5.101
  344XTA    C1527116  -6.167  27.616  -5.040
  344XTA     H127117  -5.828  27.396  -4.971
  344XTA     H227118  -5.800  27.185  -5.090
  344XTA     H327119  -6.216  27.085  -5.034
  344XTA     H427120  -6.252  27.291  -4.912
  344XTA     H527121  -6.289  27.574  -4.798
  344XTA     H627122  -6.374  27.589  -4.574
  344XTA     H727123  -6.019  27.379  -4.439
  344XTA     H827124  -5.925  27.387  -4.662
  344XTA     H927125  -5.872  27.642  -4.871
  344XTA    H1027126  -5.862  27.857  -4.989
  344XTA    H1127127  -6.239  27.783  -5.176
  344XTA    H1227128  -6.255  27.549  -5.043
  344XTA    OA127129  -5.994  27.010  -5.163
  344XTA    CO127130  -5.868  26.988  -5.225
  344XTA    OA227131  -6.251  27.527  -4.373
  344XTA    CO227132  -6.158  27.523  -4.272
  344XTA    CL127133  -6.207  27.598  -4.142
  344XTA    CL227134  -6.303  27.718  -4.147
  344XTA    CL327135  -6.246  27.841  -4.209
  344XTA    CL427136  -6.240  27.825  -4.357
  344XTA    CO327137  -6.237  27.958  -4.437
  344XTA    OA327138  -6.260  27.926  -4.573
  344XTA    CO427139  -6.339  28.029  -4.630
  344XTA    CT127140  -6.356  28.009  -4.774
  344XTA    CL527141  -6.223  28.040  -4.846
  344XTA    CL627142  -6.180  28.188  -4.839
  344XTA    OA427143  -6.064  27.947  -5.152
  344XTA    CO527144  -5.967  28.044  -5.112
  344XTA    HL127145  -5.873  28.015  -5.147
  344XTA    HL227146  -5.863  26.896  -5.287
  344XTA    HL327147  -5.839  27.074  -5.287
  344XTA    HL427148  -5.795  26.963  -5.150
  344XTA    HL527149  -6.138  27.421  -4.255
  344XTA    HL627150  -6.068  27.574  -4.307
  344XTA    HL727151  -6.123  27.617  -4.081
  344XTA    HL827152  -6.263  27.521  -4.096
  344XTA    HL927153  -6.335  27.742  -4.048
  344XTA   HL1027154  -6.399  27.684  -4.194
  344XTA   HL1127155  -6.301  27.937  -4.183
  344XTA   HL1227156  -6.141  27.856  -4.184
  344XTA   HL1327157  -6.329  27.775  -4.391
  344XTA   HL1427158  -6.163  27.762  -4.397
  344XTA   HL1527159  -6.323  28.026  -4.402
  344XTA   HL1627160  -6.142  28.004  -4.404
  344XTA   HL1727161  -6.433  28.017  -4.579
  344XTA   HL1827162  -6.310  28.123  -4.600
  344XTA   HL1927163  -6.217  28.022  -4.951
  344XTA   HL2027164  -6.145  27.991  -4.795
  344XTA   HL2127165  -6.245  28.251  -4.896
  344XTA   HL2227166  -6.083  28.200  -4.884
  344XTA   HL2327167  -6.171  28.231  -4.741
  344XTA   HL2427168  -5.963  28.065  -5.007
  344XTA   HL2527169  -5.982  28.142  -5.152
  344XTA    CO627170  -6.466  28.111  -4.826
  344XTA    CO727171  -6.405  27.863  -4.793
  344XTA    OA527172  -6.542  27.837  -4.756
  344XTA   HL2627173  -6.558  28.068  -4.784
  344XTA   HL2727174  -6.477  28.097  -4.931
  344XTA   HL2827175  -6.333  27.804  -4.744
  344XTA   HL2927176  -6.397  27.843  -4.904
  345XTA     NT27177  -5.816  25.090 -13.679
  345XTA    CN127178  -5.784  25.021 -13.791
  345XTA     C127179  -5.790  24.875 -13.796
  345XTA     C227180  -5.761  24.810 -13.918
  345XTA     C327181  -5.717  24.881 -14.033
  345XTA     C427182  -5.701  25.020 -14.022
  345XTA     C527183  -5.734  25.088 -13.905
  345XTA    CN227184  -5.750  25.071 -13.562
  345XTA     C627185  -5.631  25.137 -13.533
  345XTA     C727186  -5.567  25.117 -13.413
  345XTA     C827187  -5.612  25.017 -13.325
  345XTA     C927188  -5.736  24.956 -13.352
  345XTA    C1027189  -5.806  24.986 -13.467
  345XTA    CN327190  -5.913  25.185 -13.694
  345XTA    C1127191  -6.043  25.145 -13.681
  345XTA    C1227192  -6.148  25.241 -13.683
  345XTA    C1327193  -6.118  25.375 -13.711
  345XTA    C1427194  -5.987  25.413 -13.735
  345XTA    C1527195  -5.885  25.319 -13.719
  345XTA     H127196  -5.830  24.808 -13.721
  345XTA     H227197  -5.775  24.703 -13.935
  345XTA     H327198  -5.666  25.070 -14.105
  345XTA     H427199  -5.725  25.193 -13.890
  345XTA     H527200  -5.579  25.196 -13.604
  345XTA     H627201  -5.474  25.168 -13.402
  345XTA     H727202  -5.772  24.872 -13.291
  345XTA     H827203  -5.898  24.928 -13.480
  345XTA     H927204  -6.063  25.035 -13.676
  345XTA    H1027205  -6.249  25.196 -13.674
  345XTA    H1127206  -5.965  25.519 -13.752
  345XTA    H1227207  -5.774  25.337 -13.721
  345XTA    OA127208  -5.705  24.807 -14.148
  345XTA    CO127209  -5.741  24.869 -14.265
  345XTA    OA227210  -5.537  24.979 -13.219
  345XTA    CO227211  -5.400  25.026 -13.207
  345XTA    CL127212  -5.387  25.157 -13.126
  345XTA    CL227213  -5.444  25.165 -12.982
  345XTA    CL327214  -5.432  25.297 -12.914
  345XTA    CL427215  -5.463  25.273 -12.760
  345XTA    CO327216  -5.466  25.405 -12.684
  345XTA    OA327217  -5.576  25.489 -12.712
  345XTA    CO427218  -5.691  25.468 -12.633
  345XTA    CT127219  -5.813  25.530 -12.697
  345XTA    CL527220  -5.812  25.682 -12.696
  345XTA    CL627221  -5.728  25.753 -12.797
  345XTA    OA427222  -6.211  25.479 -13.714
  345XTA    CO527223  -6.342  25.451 -13.668
  345XTA    HL127224  -6.400  25.544 -13.670
  345XTA    HL227225  -5.838  24.923 -14.257
  345XTA    HL327226  -5.675  24.943 -14.297
  345XTA    HL427227  -5.741  24.799 -14.353
  345XTA    HL527228  -5.368  24.947 -13.134
  345XTA    HL627229  -5.345  25.029 -13.304
  345XTA    HL727230  -5.448  25.231 -13.184
  345XTA    HL827231  -5.286  25.196 -13.120
  345XTA    HL927232  -5.403  25.080 -12.923
  345XTA   HL1027233  -5.555  25.152 -12.988
  345XTA   HL1127234  -5.333  25.346 -12.916
  345XTA   HL1227235  -5.508  25.365 -12.956
  345XTA   HL1327236  -5.376  25.222 -12.725
  345XTA   HL1427237  -5.554  25.219 -12.740
  345XTA   HL1527238  -5.450  25.377 -12.575
  345XTA   HL1627239  -5.378  25.463 -12.716
  345XTA   HL1727240  -5.709  25.356 -12.614
  345XTA   HL1827241  -5.678  25.509 -12.540
  345XTA   HL1927242  -5.766  25.715 -12.603
  345XTA   HL2027243  -5.914  25.707 -12.711
  345XTA   HL2127244  -5.727  25.706 -12.892
  345XTA   HL2227245  -5.624  25.746 -12.757
  345XTA   HL2327246  -5.762  25.855 -12.812
  345XTA   HL2427247  -6.353  25.417 -13.568
  345XTA   HL2527248  -6.392  25.384 -13.739
  345XTA    CO627249  -5.936  25.476 -12.613
  345XTA    CO727250  -5.836  25.473 -12.835
  345XTA    OA527251  -5.877  25.337 -12.833
  345XTA   HL2627252  -6.031  25.505 -12.653
  345XTA   HL2727253  -5.938  25.370 -12.582
  345XTA   HL2827254  -5.754  25.478 -12.900
  345XTA   HL2927255  -5.910  25.537 -12.882
  346XTA     NT27256  -6.529  24.983  -7.035
  346XTA    CN127257  -6.529  25.037  -7.158
  346XTA     C127258  -6.399  25.084  -7.203
  346XTA     C227259  -6.404  25.147  -7.331
  346XTA     C327260  -6.527  25.179  -7.397
  346XTA     C427261  -6.653  25.136  -7.347
  346XTA     C527262  -6.652  25.059  -7.227
  346XTA    CN227263  -6.529  24.846  -7.013
  346XTA     C627264  -6.422  24.780  -6.950
  346XTA     C727265  -6.418  24.643  -6.920
  346XTA     C827266  -6.520  24.562  -6.973
  346XTA     C927267  -6.629  24.626  -7.030
  346XTA    C1027268  -6.638  24.764  -7.053
  346XTA    CN327269  -6.544  25.068  -6.934
  346XTA    C1127270  -6.436  25.147  -6.886
  346XTA    C1227271  -6.460  25.242  -6.781
  346XTA    C1327272  -6.583  25.270  -6.732
  346XTA    C1427273  -6.691  25.200  -6.788
  346XTA    C1527274  -6.669  25.103  -6.888
  346XTA     H127275  -6.310  25.064  -7.144
  346XTA     H227276  -6.310  25.169  -7.374
  346XTA     H327277  -6.743  25.165  -7.401
  346XTA     H427278  -6.742  25.016  -7.195
  346XTA     H527279  -6.343  24.847  -6.919
  346XTA     H627280  -6.336  24.600  -6.864
  346XTA     H727281  -6.714  24.573  -7.059
  346XTA     H827282  -6.717  24.805  -7.097
  346XTA     H927283  -6.339  25.141  -6.928
  346XTA    H1027284  -6.383  25.309  -6.749
  346XTA    H1127285  -6.798  25.231  -6.766
  346XTA    H1227286  -6.760  25.056  -6.918
  346XTA    OA127287  -6.531  25.233  -7.526
  346XTA    CO127288  -6.414  25.308  -7.569
  346XTA    OA227289  -6.528  24.429  -6.943
  346XTA    CO227290  -6.409  24.354  -6.912
  346XTA    CL127291  -6.334  24.322  -7.039
  346XTA    CL227292  -6.225  24.222  -7.019
  346XTA    CL327293  -6.123  24.185  -7.128
  346XTA    CL427294  -6.053  24.302  -7.189
  346XTA    CO327295  -5.985  24.391  -7.086
  346XTA    OA327296  -5.919  24.508  -7.156
  346XTA    CO427297  -5.788  24.469  -7.192
  346XTA    CT127298  -5.696  24.577  -7.254
  346XTA    CL527299  -5.740  24.606  -7.395
  346XTA    CL627300  -5.881  24.670  -7.394
  346XTA    OA427301  -6.585  25.377  -6.645
  346XTA    CO527302  -6.711  25.390  -6.583
  346XTA    HL127303  -6.734  25.294  -6.538
  346XTA    HL227304  -6.410  25.346  -7.671
  346XTA    HL327305  -6.398  25.395  -7.505
  346XTA    HL427306  -6.319  25.239  -7.568
  346XTA    HL527307  -6.351  24.417  -6.837
  346XTA    HL627308  -6.427  24.259  -6.868
  346XTA    HL727309  -6.298  24.426  -7.075
  346XTA    HL827310  -6.394  24.301  -7.127
  346XTA    HL927311  -6.278  24.134  -6.989
  346XTA   HL1027312  -6.177  24.257  -6.924
  346XTA   HL1127313  -6.055  24.121  -7.087
  346XTA   HL1227314  -6.175  24.124  -7.204
  346XTA   HL1327315  -6.127  24.351  -7.240
  346XTA   HL1427316  -5.985  24.268  -7.266
  346XTA   HL1527317  -6.060  24.438  -7.025
  346XTA   HL1627318  -5.926  24.326  -7.019
  346XTA   HL1727319  -5.735  24.433  -7.111
  346XTA   HL1827320  -5.794  24.381  -7.259
  346XTA   HL1927321  -5.743  24.511  -7.446
  346XTA   HL2027322  -5.667  24.665  -7.447
  346XTA   HL2127323  -5.967  24.615  -7.356
  346XTA   HL2227324  -5.921  24.702  -7.494
  346XTA   HL2327325  -5.883  24.759  -7.340
  346XTA   HL2427326  -6.791  25.426  -6.657
  346XTA   HL2527327  -6.688  25.468  -6.504
  346XTA    CO627328  -5.553  24.520  -7.261
  346XTA    CO727329  -5.692  24.707  -7.167
  346XTA    OA527330  -5.610  24.696  -7.061
  346XTA   HL2627331  -5.511  24.523  -7.161
  346XTA   HL2727332  -5.482  24.588  -7.309
  346XTA   HL2827333  -5.797  24.728  -7.133
  346XTA   HL2927334  -5.657  24.792  -7.223
  347XTA     NT27335  -6.162  26.367 -10.593
  347XTA    CN127336  -6.047  26.319 -10.542
  347XTA     C127337  -5.992  26.381 -10.423
  347XTA     C227338  -5.873  26.325 -10.368
  347XTA     C327339  -5.810  26.211 -10.417
  347XTA     C427340  -5.878  26.147 -10.527
  347XTA     C527341  -5.993  26.196 -10.589
  347XTA    CN227342  -6.278  26.333 -10.547
  347XTA     C627343  -6.330  26.201 -10.570
  347XTA     C727344  -6.459  26.169 -10.521
  347XTA     C827345  -6.543  26.272 -10.464
  347XTA     C927346  -6.485  26.396 -10.440
  347XTA    C1027347  -6.357  26.427 -10.486
  347XTA    CN327348  -6.143  26.426 -10.712
  347XTA    C1127349  -6.092  26.559 -10.710
  347XTA    C1227350  -6.059  26.622 -10.829
  347XTA    C1327351  -6.072  26.552 -10.955
  347XTA    C1427352  -6.126  26.420 -10.952
  347XTA    C1527353  -6.160  26.357 -10.831
  347XTA     H127354  -6.029  26.473 -10.385
  347XTA     H227355  -5.837  26.376 -10.282
  347XTA     H327356  -5.830  26.057 -10.565
  347XTA     H427357  -6.048  26.138 -10.660
  347XTA     H527358  -6.263  26.128 -10.621
  347XTA     H627359  -6.492  26.063 -10.530
  347XTA     H727360  -6.547  26.470 -10.396
  347XTA     H827361  -6.312  26.520 -10.471
  347XTA     H927362  -6.076  26.614 -10.616
  347XTA    H1027363  -6.009  26.715 -10.819
  347XTA    H1127364  -6.138  26.373 -11.049
  347XTA    H1227365  -6.198  26.257 -10.836
  347XTA    OA127366  -5.701  26.158 -10.367
  347XTA    CO127367  -5.622  26.244 -10.284
  347XTA    OA227368  -6.673  26.234 -10.438
  347XTA    CO227369  -6.762  26.330 -10.385
  347XTA    CL127370  -6.908  26.277 -10.397
  347XTA    CL227371  -6.933  26.216 -10.539
  347XTA    CL327372  -7.036  26.106 -10.533
  347XTA    CL427373  -7.185  26.153 -10.517
  347XTA    CO327374  -7.232  26.245 -10.628
  347XTA    OA327375  -7.188  26.381 -10.617
  347XTA    CO427376  -7.268  26.454 -10.523
  347XTA    CT127377  -7.244  26.601 -10.544
  347XTA    CL527378  -7.318  26.685 -10.439
  347XTA    CL627379  -7.269  26.684 -10.289
  347XTA    OA427380  -6.027  26.610 -11.072
  347XTA    CO527381  -5.982  26.748 -11.070
  347XTA    HL127382  -6.054  26.823 -11.025
  347XTA    HL227383  -5.650  26.245 -10.180
  347XTA    HL327384  -5.523  26.198 -10.280
  347XTA    HL427385  -5.605  26.344 -10.307
  347XTA    HL527386  -6.724  26.342 -10.282
  347XTA    HL627387  -6.752  26.424 -10.434
  347XTA    HL727388  -6.985  26.351 -10.372
  347XTA    HL827389  -6.914  26.197 -10.324
  347XTA    HL927390  -6.838  26.168 -10.573
  347XTA   HL1027391  -6.959  26.295 -10.611
  347XTA   HL1127392  -7.025  26.056 -10.623
  347XTA   HL1227393  -7.016  26.040 -10.448
  347XTA   HL1327394  -7.188  26.189 -10.421
  347XTA   HL1427395  -7.253  26.065 -10.504
  347XTA   HL1527396  -7.215  26.216 -10.731
  347XTA   HL1627397  -7.343  26.239 -10.638
  347XTA   HL1727398  -7.378  26.433 -10.529
  347XTA   HL1827399  -7.245  26.436 -10.418
  347XTA   HL1927400  -7.424  26.654 -10.443
  347XTA   HL2027401  -7.316  26.789 -10.479
  347XTA   HL2127402  -7.343  26.732 -10.227
  347XTA   HL2227403  -7.172  26.735 -10.280
  347XTA   HL2327404  -7.261  26.581 -10.259
  347XTA   HL2427405  -5.977  26.783 -11.173
  347XTA   HL2527406  -5.882  26.758 -11.021
  347XTA    CO627407  -7.292  26.643 -10.681
  347XTA    CO727408  -7.090  26.634 -10.536
  347XTA    OA527409  -7.046  26.620 -10.641
  347XTA   HL2627410  -7.258  26.742 -10.698
  347XTA   HL2727411  -7.227  26.564 -10.772
  347XTA   HL2827412  -7.042  26.566 -10.458
  347XTA   HL2927413  -7.079  26.736 -10.507
  348XTA     NT27414  -3.818  29.444 -12.603
  348XTA    CN127415  -3.878  29.489 -12.714
  348XTA     C127416  -3.951  29.409 -12.800
  348XTA     C227417  -4.013  29.462 -12.911
  348XTA     C327418  -3.996  29.598 -12.939
  348XTA     C427419  -3.917  29.685 -12.867
  348XTA     C527420  -3.857  29.625 -12.748
  348XTA    CN227421  -3.694  29.391 -12.623
  348XTA     C627422  -3.575  29.466 -12.612
  348XTA     C727423  -3.453  29.398 -12.624
  348XTA     C827424  -3.450  29.266 -12.667
  348XTA     C927425  -3.564  29.194 -12.680
  348XTA    C1027426  -3.687  29.253 -12.653
  348XTA    CN327427  -3.869  29.435 -12.481
  348XTA    C1127428  -3.906  29.558 -12.413
  348XTA    C1227429  -3.972  29.551 -12.287
  348XTA    C1327430  -3.996  29.432 -12.222
  348XTA    C1427431  -3.949  29.314 -12.281
  348XTA    C1527432  -3.888  29.319 -12.410
  348XTA     H127433  -3.978  29.303 -12.773
  348XTA     H227434  -4.086  29.405 -12.965
  348XTA     H327435  -3.900  29.780 -12.902
  348XTA     H427436  -3.798  29.685 -12.689
  348XTA     H527437  -3.582  29.576 -12.592
  348XTA     H627438  -3.369  29.457 -12.606
  348XTA     H727439  -3.558  29.089 -12.703
  348XTA     H827440  -3.769  29.196 -12.678
  348XTA     H927441  -3.895  29.662 -12.455
  348XTA    H1027442  -3.990  29.640 -12.238
  348XTA    H1127443  -3.963  29.224 -12.217
  348XTA    H1227444  -3.846  29.230 -12.462
  348XTA    OA127445  -4.054  29.651 -13.052
  348XTA    CO127446  -4.180  29.611 -13.087
  348XTA    OA227447  -3.332  29.197 -12.686
  348XTA    CO227448  -3.244  29.261 -12.772
  348XTA    CL127449  -3.110  29.191 -12.769
  348XTA    CL227450  -3.005  29.242 -12.871
  348XTA    CL327451  -3.014  29.393 -12.899
  348XTA    CL427452  -2.948  29.476 -12.789
  348XTA    CO327453  -2.990  29.623 -12.789
  348XTA    OA327454  -2.947  29.684 -12.671
  348XTA    CO427455  -3.003  29.819 -12.677
  348XTA    CT127456  -2.970  29.915 -12.559
  348XTA    CL527457  -3.056  30.039 -12.555
  348XTA    CL627458  -3.072  30.114 -12.691
  348XTA    OA427459  -4.042  29.454 -12.100
  348XTA    CO527460  -4.065  29.340 -12.021
  348XTA    HL127461  -3.973  29.295 -11.981
  348XTA    HL227462  -4.218  29.655 -13.181
  348XTA    HL327463  -4.171  29.502 -13.111
  348XTA    HL427464  -4.264  29.633 -13.008
  348XTA    HL527465  -3.285  29.272 -12.870
  348XTA    HL627466  -3.227  29.361 -12.731
  348XTA    HL727467  -3.113  29.086 -12.789
  348XTA    HL827468  -3.069  29.205 -12.664
  348XTA    HL927469  -3.022  29.177 -12.961
  348XTA   HL1027470  -2.907  29.216 -12.836
  348XTA   HL1127471  -2.961  29.426 -12.987
  348XTA   HL1227472  -3.115  29.424 -12.914
  348XTA   HL1327473  -2.844  29.476 -12.796
  348XTA   HL1427474  -2.974  29.443 -12.689
  348XTA   HL1527475  -2.940  29.658 -12.879
  348XTA   HL1627476  -3.099  29.628 -12.792
  348XTA   HL1727477  -2.977  29.865 -12.771
  348XTA   HL1827478  -3.110  29.818 -12.690
  348XTA   HL1927479  -3.008  30.114 -12.494
  348XTA   HL2027480  -3.155  30.030 -12.519
  348XTA   HL2127481  -3.136  30.049 -12.762
  348XTA   HL2227482  -2.977  30.133 -12.740
  348XTA   HL2327483  -3.114  30.212 -12.676
  348XTA   HL2427484  -4.112  29.259 -12.079
  348XTA   HL2527485  -4.134  29.373 -11.945
  348XTA    CO627486  -2.813  29.942 -12.565
  348XTA    CO727487  -2.980  29.847 -12.427
  348XTA    OA527488  -2.960  29.905 -12.340
  348XTA   HL2627489  -2.799  30.008 -12.650
  348XTA   HL2727490  -2.774  30.017 -12.451
  348XTA   HL2827491  -2.911  29.757 -12.420
  348XTA   HL2927492  -3.084  29.804 -12.417
  349XTA     NT27493  -2.382  26.966  -3.948
  349XTA    CN127494  -2.424  26.995  -3.823
  349XTA     C127495  -2.354  27.092  -3.744
  349XTA     C227496  -2.407  27.131  -3.621
  349XTA     C327497  -2.527  27.075  -3.572
  349XTA     C427498  -2.589  26.981  -3.646
  349XTA     C527499  -2.535  26.931  -3.771
  349XTA    CN227500  -2.474  26.962  -4.047
  349XTA     C627501  -2.525  26.846  -4.097
  349XTA     C727502  -2.613  26.855  -4.207
  349XTA     C827503  -2.657  26.979  -4.265
  349XTA     C927504  -2.586  27.093  -4.220
  349XTA    C1027505  -2.497  27.084  -4.113
  349XTA    CN327506  -2.251  26.929  -3.966
  349XTA    C1127507  -2.161  27.018  -4.030
  349XTA    C1227508  -2.027  26.976  -4.058
  349XTA    C1327509  -1.988  26.847  -4.014
  349XTA    C1427510  -2.082  26.758  -3.952
  349XTA    C1527511  -2.211  26.803  -3.925
  349XTA     H127512  -2.262  27.128  -3.780
  349XTA     H227513  -2.352  27.187  -3.554
  349XTA     H327514  -2.671  26.922  -3.607
  349XTA     H427515  -2.596  26.867  -3.831
  349XTA     H527516  -2.504  26.757  -4.042
  349XTA     H627517  -2.664  26.764  -4.228
  349XTA     H727518  -2.610  27.191  -4.261
  349XTA     H827519  -2.448  27.175  -4.076
  349XTA     H927520  -2.201  27.111  -4.060
  349XTA    H1027521  -1.967  27.042  -4.101
  349XTA    H1127522  -2.050  26.653  -3.938
  349XTA    H1227523  -2.285  26.730  -3.881
  349XTA    OA127524  -2.572  27.135  -3.459
  349XTA    CO127525  -2.683  27.065  -3.406
  349XTA    OA227526  -2.750  26.996  -4.363
  349XTA    CO227527  -2.816  26.881  -4.408
  349XTA    CL127528  -2.919  26.917  -4.506
  349XTA    CL227529  -3.003  26.808  -4.561
  349XTA    CL327530  -3.141  26.850  -4.617
  349XTA    CL427531  -3.207  26.734  -4.691
  349XTA    CO327532  -3.303  26.667  -4.598
  349XTA    OA327533  -3.242  26.562  -4.521
  349XTA    CO427534  -3.338  26.477  -4.467
  349XTA    CT127535  -3.277  26.350  -4.413
  349XTA    CL527536  -3.237  26.243  -4.516
  349XTA    CL627537  -3.142  26.287  -4.620
  349XTA    OA427538  -1.861  26.817  -4.047
  349XTA    CO527539  -1.825  26.685  -4.029
  349XTA    HL127540  -1.903  26.623  -4.084
  349XTA    HL227541  -2.656  26.965  -3.377
  349XTA    HL327542  -2.728  27.115  -3.325
  349XTA    HL427543  -2.765  27.042  -3.474
  349XTA    HL527544  -2.749  26.809  -4.458
  349XTA    HL627545  -2.866  26.816  -4.328
  349XTA    HL727546  -2.887  26.981  -4.584
  349XTA    HL827547  -2.981  26.993  -4.457
  349XTA    HL927548  -3.023  26.732  -4.483
  349XTA   HL1027549  -2.941  26.751  -4.635
  349XTA   HL1127550  -3.201  26.888  -4.530
  349XTA   HL1227551  -3.126  26.933  -4.694
  349XTA   HL1327552  -3.135  26.670  -4.741
  349XTA   HL1427553  -3.270  26.784  -4.760
  349XTA   HL1527554  -3.348  26.740  -4.530
  349XTA   HL1627555  -3.377  26.634  -4.666
  349XTA   HL1727556  -3.386  26.527  -4.390
  349XTA   HL1827557  -3.409  26.446  -4.538
  349XTA   HL1927558  -3.327  26.191  -4.557
  349XTA   HL2027559  -3.204  26.157  -4.456
  349XTA   HL2127560  -3.154  26.393  -4.632
  349XTA   HL2227561  -3.155  26.234  -4.712
  349XTA   HL2327562  -3.046  26.264  -4.587
  349XTA   HL2427563  -1.814  26.645  -3.919
  349XTA   HL2527564  -1.735  26.653  -4.085
  349XTA    CO627565  -3.362  26.284  -4.302
  349XTA    CO727566  -3.173  26.379  -4.305
  349XTA    OA527567  -3.269  26.343  -4.206
  349XTA   HL2627568  -3.354  26.174  -4.317
  349XTA   HL2727569  -3.461  26.308  -4.299
  349XTA   HL2827570  -3.125  26.473  -4.306
  349XTA   HL2927571  -3.096  26.303  -4.312
  350XTA     NT27572  -4.793  26.776  -5.555
  350XTA    CN127573  -4.833  26.896  -5.507
  350XTA     C127574  -4.747  26.970  -5.428
  350XTA     C227575  -4.792  27.095  -5.370
  350XTA     C327576  -4.927  27.133  -5.381
  350XTA     C427577  -5.012  27.064  -5.467
  350XTA     C527578  -4.966  26.942  -5.525
  350XTA    CN227579  -4.778  26.669  -5.471
  350XTA     C627580  -4.667  26.658  -5.382
  350XTA     C727581  -4.649  26.546  -5.303
  350XTA     C827582  -4.750  26.445  -5.293
  350XTA     C927583  -4.854  26.454  -5.384
  350XTA    C1027584  -4.868  26.561  -5.477
  350XTA    CN327585  -4.747  26.748  -5.680
  350XTA    C1127586  -4.835  26.755  -5.783
  350XTA    C1227587  -4.788  26.742  -5.913
  350XTA    C1327588  -4.655  26.724  -5.942
  350XTA    C1427589  -4.562  26.702  -5.837
  350XTA    C1527590  -4.611  26.720  -5.706
  350XTA     H127591  -4.645  26.943  -5.420
  350XTA     H227592  -4.716  27.147  -5.318
  350XTA     H327593  -5.117  27.086  -5.479
  350XTA     H427594  -5.031  26.873  -5.572
  350XTA     H527595  -4.593  26.735  -5.374
  350XTA     H627596  -4.554  26.535  -5.251
  350XTA     H727597  -4.931  26.378  -5.389
  350XTA     H827598  -4.959  26.571  -5.541
  350XTA     H927599  -4.935  26.757  -5.758
  350XTA    H1027600  -4.863  26.758  -5.994
  350XTA    H1127601  -4.448  26.699  -5.861
  350XTA    H1227602  -4.544  26.710  -5.620
  350XTA    OA127603  -4.973  27.259  -5.346
  350XTA    CO127604  -4.946  27.298  -5.217
  350XTA    OA227605  -4.738  26.335  -5.205
  350XTA    CO227606  -4.632  26.351  -5.106
  350XTA    CL127607  -4.632  26.220  -5.026
  350XTA    CL227608  -4.515  26.178  -4.929
  350XTA    CL327609  -4.459  26.036  -4.938
  350XTA    CL427610  -4.370  26.027  -5.064
  350XTA    CO327611  -4.310  25.887  -5.096
  350XTA    OA327612  -4.422  25.818  -5.152
  350XTA    CO427613  -4.390  25.689  -5.194
  350XTA    CT127614  -4.513  25.651  -5.286
  350XTA    CL527615  -4.503  25.501  -5.325
  350XTA    CL627616  -4.395  25.467  -5.427
  350XTA    OA427617  -4.602  26.723  -6.064
  350XTA    CO527618  -4.701  26.700  -6.172
  350XTA    HL127619  -4.752  26.609  -6.143
  350XTA    HL227620  -5.010  27.232  -5.159
  350XTA    HL327621  -4.840  27.258  -5.189
  350XTA    HL427622  -4.940  27.399  -5.186
  350XTA    HL527623  -4.534  26.361  -5.154
  350XTA    HL627624  -4.659  26.427  -5.037
  350XTA    HL727625  -4.661  26.137  -5.093
  350XTA    HL827626  -4.729  26.225  -4.972
  350XTA    HL927627  -4.553  26.190  -4.827
  350XTA   HL1027628  -4.432  26.250  -4.937
  350XTA   HL1127629  -4.412  26.024  -4.835
  350XTA   HL1227630  -4.541  25.956  -4.937
  350XTA   HL1327631  -4.284  26.093  -5.066
  350XTA   HL1427632  -4.429  26.069  -5.145
  350XTA   HL1527633  -4.239  25.902  -5.174
  350XTA   HL1627634  -4.272  25.851  -5.005
  350XTA   HL1727635  -4.288  25.683  -5.236
  350XTA   HL1827636  -4.393  25.622  -5.110
  350XTA   HL1927637  -4.595  25.467  -5.371
  350XTA   HL2027638  -4.495  25.452  -5.233
  350XTA   HL2127639  -4.295  25.498  -5.402
  350XTA   HL2227640  -4.429  25.502  -5.521
  350XTA   HL2327641  -4.397  25.360  -5.440
  350XTA   HL2427642  -4.655  26.701  -6.267
  350XTA   HL2527643  -4.776  26.789  -6.176
  350XTA    CO627644  -4.516  25.737  -5.411
  350XTA    CO727645  -4.649  25.672  -5.210
  350XTA    OA527646  -4.734  25.617  -5.268
  350XTA   HL2627647  -4.550  25.836  -5.376
  350XTA   HL2727648  -4.384  25.783  -5.445
  350XTA   HL2827649  -4.663  25.779  -5.179
  350XTA   HL2927650  -4.651  25.621  -5.111
  351XTA     NT27651  -6.706  31.993  -6.514
  351XTA    CN127652  -6.657  31.910  -6.418
  351XTA     C127653  -6.523  31.870  -6.414
  351XTA     C227654  -6.477  31.774  -6.310
  351XTA     C327655  -6.566  31.736  -6.209
  351XTA     C427656  -6.700  31.780  -6.214
  351XTA     C527657  -6.742  31.855  -6.319
  351XTA    CN227658  -6.786  31.942  -6.605
  351XTA     C627659  -6.733  31.887  -6.717
  351XTA     C727660  -6.819  31.826  -6.815
  351XTA     C827661  -6.957  31.814  -6.795
  351XTA     C927662  -7.008  31.872  -6.682
  351XTA    C1027663  -6.926  31.937  -6.586
  351XTA    CN327664  -6.656  32.121  -6.525
  351XTA    C1127665  -6.688  32.216  -6.421
  351XTA    C1227666  -6.626  32.339  -6.402
  351XTA    C1327667  -6.532  32.370  -6.502
  351XTA    C1427668  -6.508  32.286  -6.613
  351XTA    C1527669  -6.566  32.154  -6.623
  351XTA     H127670  -6.455  31.901  -6.492
  351XTA     H227671  -6.377  31.739  -6.295
  351XTA     H327672  -6.766  31.753  -6.131
  351XTA     H427673  -6.852  31.876  -6.325
  351XTA     H527674  -6.629  31.900  -6.740
  351XTA     H627675  -6.771  31.772  -6.900
  351XTA     H727676  -7.115  31.869  -6.665
  351XTA     H827677  -6.962  31.981  -6.490
  351XTA     H927678  -6.766  32.189  -6.353
  351XTA    H1027679  -6.662  32.399  -6.323
  351XTA    H1127680  -6.428  32.319  -6.682
  351XTA    H1227681  -6.540  32.083  -6.708
  351XTA    OA127682  -6.523  31.659  -6.099
  351XTA    CO127683  -6.440  31.551  -6.144
  351XTA    OA227684  -7.047  31.746  -6.875
  351XTA    CO227685  -6.980  31.646  -6.951
  351XTA    CL127686  -7.085  31.539  -6.984
  351XTA    CL227687  -7.042  31.412  -7.065
  351XTA    CL327688  -6.989  31.444  -7.205
  351XTA    CL427689  -6.956  31.322  -7.296
  351XTA    CO327690  -7.073  31.248  -7.364
  351XTA    OA327691  -7.014  31.166  -7.460
  351XTA    CO427692  -6.966  31.049  -7.400
  351XTA    CT127693  -6.974  30.935  -7.504
  351XTA    CL527694  -6.922  30.800  -7.441
  351XTA    CL627695  -7.008  30.745  -7.328
  351XTA    OA427696  -6.466  32.490  -6.506
  351XTA    CO527697  -6.511  32.589  -6.413
  351XTA    HL127698  -6.453  32.683  -6.430
  351XTA    HL227699  -6.403  31.480  -6.074
  351XTA    HL327700  -6.486  31.506  -6.227
  351XTA    HL427701  -6.352  31.595  -6.189
  351XTA    HL527702  -6.952  31.686  -7.050
  351XTA    HL627703  -6.904  31.593  -6.895
  351XTA    HL727704  -7.168  31.583  -7.035
  351XTA    HL827705  -7.109  31.500  -6.883
  351XTA    HL927706  -7.128  31.340  -7.078
  351XTA   HL1027707  -6.961  31.346  -7.019
  351XTA   HL1127708  -7.064  31.512  -7.258
  351XTA   HL1227709  -6.893  31.507  -7.197
  351XTA   HL1327710  -6.899  31.254  -7.239
  351XTA   HL1427711  -6.889  31.361  -7.371
  351XTA   HL1527712  -7.139  31.199  -7.285
  351XTA   HL1627713  -7.148  31.327  -7.399
  351XTA   HL1727714  -6.863  31.066  -7.387
  351XTA   HL1827715  -7.015  31.029  -7.299
  351XTA   HL1927716  -6.817  30.807  -7.407
  351XTA   HL2027717  -6.919  30.733  -7.529
  351XTA   HL2127718  -7.110  30.748  -7.363
  351XTA   HL2227719  -7.010  30.815  -7.243
  351XTA   HL2327720  -6.985  30.651  -7.286
  351XTA   HL2427721  -6.509  32.556  -6.308
  351XTA   HL2527722  -6.615  32.611  -6.435
  351XTA    CO627723  -6.890  30.970  -7.625
  351XTA    CO727724  -7.126  30.917  -7.539
  351XTA    OA527725  -7.154  30.833  -7.609
  351XTA   HL2627726  -6.927  30.895  -7.695
  351XTA   HL2727727  -6.919  31.098  -7.674
  351XTA   HL2827728  -7.167  31.010  -7.576
  351XTA   HL2927729  -7.181  30.912  -7.441
  352XTA     NT27730  -4.332  29.243  -5.061
  352XTA    CN127731  -4.381  29.286  -4.941
  352XTA     C127732  -4.492  29.222  -4.887
  352XTA     C227733  -4.545  29.263  -4.769
  352XTA     C327734  -4.496  29.374  -4.697
  352XTA     C427735  -4.384  29.437  -4.754
  352XTA     C527736  -4.330  29.401  -4.879
  352XTA    CN227737  -4.387  29.294  -5.171
  352XTA     C627738  -4.486  29.215  -5.235
  352XTA     C727739  -4.550  29.275  -5.345
  352XTA     C827740  -4.527  29.400  -5.390
  352XTA     C927741  -4.433  29.480  -5.320
  352XTA    C1027742  -4.370  29.429  -5.208
  352XTA    CN327743  -4.241  29.148  -5.074
  352XTA    C1127744  -4.212  29.060  -4.973
  352XTA    C1227745  -4.104  28.969  -4.986
  352XTA    C1327746  -4.021  28.972  -5.101
  352XTA    C1427747  -4.061  29.058  -5.205
  352XTA    C1527748  -4.169  29.143  -5.195
  352XTA     H127749  -4.524  29.135  -4.940
  352XTA     H227750  -4.634  29.210  -4.738
  352XTA     H327751  -4.350  29.529  -4.711
  352XTA     H427752  -4.257  29.457  -4.936
  352XTA     H527753  -4.509  29.116  -5.199
  352XTA     H627754  -4.621  29.220  -5.396
  352XTA     H727755  -4.411  29.578  -5.353
  352XTA     H827756  -4.310  29.501  -5.156
  352XTA     H927757  -4.264  29.066  -4.880
  352XTA    H1027758  -4.076  28.901  -4.903
  352XTA    H1127759  -4.009  29.063  -5.296
  352XTA    H1227760  -4.186  29.212  -5.282
  352XTA    OA127761  -4.544  29.420  -4.571
  352XTA    CO127762  -4.598  29.318  -4.492
  352XTA    OA227763  -4.594  29.438  -5.503
  352XTA    CO227764  -4.647  29.572  -5.492
  352XTA    CL127765  -4.747  29.581  -5.600
  352XTA    CL227766  -4.816  29.718  -5.596
  352XTA    CL327767  -4.895  29.743  -5.475
  352XTA    CL427768  -4.840  29.856  -5.389
  352XTA    CO327769  -4.935  29.886  -5.269
  352XTA    OA327770  -4.918  30.024  -5.231
  352XTA    CO427771  -4.981  30.044  -5.101
  352XTA    CT127772  -5.015  30.197  -5.088
  352XTA    CL527773  -4.889  30.289  -5.079
  352XTA    CL627774  -4.787  30.266  -4.963
  352XTA    OA427775  -3.916  28.883  -5.101
  352XTA    CO527776  -3.834  28.877  -5.217
  352XTA    HL127777  -3.761  28.801  -5.202
  352XTA    HL227778  -4.614  29.370  -4.391
  352XTA    HL327779  -4.700  29.281  -4.525
  352XTA    HL427780  -4.534  29.234  -4.470
  352XTA    HL527781  -4.694  29.593  -5.393
  352XTA    HL627782  -4.570  29.648  -5.499
  352XTA    HL727783  -4.815  29.498  -5.598
  352XTA    HL827784  -4.682  29.566  -5.693
  352XTA    HL927785  -4.882  29.721  -5.677
  352XTA   HL1027786  -4.736  29.788  -5.614
  352XTA   HL1127787  -5.002  29.749  -5.499
  352XTA   HL1227788  -4.905  29.654  -5.411
  352XTA   HL1327789  -4.826  29.946  -5.452
  352XTA   HL1427790  -4.736  29.840  -5.351
  352XTA   HL1527791  -5.034  29.873  -5.293
  352XTA   HL1627792  -4.914  29.822  -5.180
  352XTA   HL1727793  -5.074  29.992  -5.093
  352XTA   HL1827794  -4.916  30.010  -5.023
  352XTA   HL1927795  -4.919  30.392  -5.094
  352XTA   HL2027796  -4.834  30.275  -5.167
  352XTA   HL2127797  -4.689  30.291  -4.998
  352XTA   HL2227798  -4.771  30.160  -4.935
  352XTA   HL2327799  -4.809  30.334  -4.875
  352XTA   HL2427800  -3.788  28.969  -5.222
  352XTA   HL2527801  -3.896  28.855  -5.306
  352XTA    CO627802  -5.113  30.227  -4.973
  352XTA    CO727803  -5.091  30.234  -5.214
  352XTA    OA527804  -5.053  30.178  -4.860
  352XTA   HL2627805  -5.213  30.173  -4.994
  352XTA   HL2727806  -5.125  30.334  -4.965
  352XTA   HL2827807  -5.135  30.330  -5.210
  352XTA   HL2927808  -5.010  30.254  -5.284
  353XTA     NT27809  -5.064  29.803  -9.976
  353XTA    CN127810  -5.084  29.675  -9.946
  353XTA     C127811  -5.132  29.635  -9.818
  353XTA     C227812  -5.155  29.500  -9.781
  353XTA     C327813  -5.133  29.398  -9.875
  353XTA     C427814  -5.084  29.439 -10.001
  353XTA     C527815  -5.062  29.574 -10.044
  353XTA    CN227816  -4.942  29.854  -9.947
  353XTA     C627817  -4.832  29.858 -10.040
  353XTA     C727818  -4.701  29.913 -10.002
  353XTA     C827819  -4.679  29.962  -9.874
  353XTA     C927820  -4.785  29.960  -9.785
  353XTA    C1027821  -4.915  29.914  -9.824
  353XTA    CN327822  -5.161  29.879 -10.032
  353XTA    C1127823  -5.206  29.852 -10.163
  353XTA    C1227824  -5.301  29.938 -10.230
  353XTA    C1327825  -5.360  30.049 -10.161
  353XTA    C1427826  -5.322  30.064 -10.025
  353XTA    C1527827  -5.218  29.994  -9.969
  353XTA     H127828  -5.151  29.717  -9.752
  353XTA     H227829  -5.186  29.480  -9.678
  353XTA     H327830  -5.052  29.367 -10.079
  353XTA     H427831  -5.044  29.586 -10.146
  353XTA     H527832  -4.860  29.828 -10.144
  353XTA     H627833  -4.620  29.906 -10.070
  353XTA     H727834  -4.768  30.002  -9.685
  353XTA     H827835  -4.997  29.928  -9.758
  353XTA     H927836  -5.166  29.773 -10.216
  353XTA    H1027837  -5.328  29.915 -10.336
  353XTA    H1127838  -5.366  30.135  -9.967
  353XTA    H1227839  -5.189  30.020  -9.870
  353XTA    OA127840  -5.148  29.269  -9.840
  353XTA    CO127841  -5.188  29.173  -9.936
  353XTA    OA227842  -4.557  30.013  -9.855
  353XTA    CO227843  -4.532  30.090  -9.743
  353XTA    CL127844  -4.392  30.137  -9.763
  353XTA    CL227845  -4.384  30.260  -9.859
  353XTA    CL327846  -4.412  30.227 -10.012
  353XTA    CL427847  -4.320  30.116 -10.060
  353XTA    CO327848  -4.304  30.110 -10.214
  353XTA    OA327849  -4.195  30.030 -10.252
  353XTA    CO427850  -4.239  29.899 -10.285
  353XTA    CT127851  -4.137  29.799 -10.237
  353XTA    CL527852  -4.194  29.656 -10.245
  353XTA    CL627853  -4.318  29.620 -10.163
  353XTA    OA427854  -5.469  30.115 -10.226
  353XTA    CO527855  -5.488  30.252 -10.203
  353XTA    HL127856  -5.499  30.272 -10.104
  353XTA    HL227857  -5.164  29.078  -9.894
  353XTA    HL327858  -5.290  29.184  -9.963
  353XTA    HL427859  -5.127  29.179 -10.023
  353XTA    HL527860  -4.598  30.172  -9.733
  353XTA    HL627861  -4.543  30.028  -9.658
  353XTA    HL727862  -4.324  30.056  -9.801
  353XTA    HL827863  -4.350  30.159  -9.663
  353XTA    HL927864  -4.288  30.305  -9.849
  353XTA   HL1027865  -4.456  30.335  -9.821
  353XTA   HL1127866  -4.519  30.208 -10.023
  353XTA   HL1227867  -4.380  30.319 -10.057
  353XTA   HL1327868  -4.361  30.020 -10.021
  353XTA   HL1427869  -4.225  30.127 -10.019
  353XTA   HL1527870  -4.397  30.076 -10.268
  353XTA   HL1627871  -4.288  30.215 -10.242
  353XTA   HL1727872  -4.333  29.871 -10.260
  353XTA   HL1827873  -4.245  29.884 -10.400
  353XTA   HL1927874  -4.115  29.585 -10.221
  353XTA   HL2027875  -4.218  29.630 -10.346
  353XTA   HL2127876  -4.305  29.624 -10.055
  353XTA   HL2227877  -4.320  29.514 -10.177
  353XTA   HL2327878  -4.416  29.662 -10.194
  353XTA   HL2427879  -5.572  30.282 -10.260
  353XTA   HL2527880  -5.414  30.318 -10.243
  353XTA    CO627881  -4.106  29.827 -10.086
  353XTA    CO727882  -4.002  29.817 -10.301
  353XTA    OA527883  -4.053  29.746 -10.039
  353XTA   HL2627884  -4.199  29.861 -10.031
  353XTA   HL2727885  -4.050  29.925 -10.081
  353XTA   HL2827886  -3.950  29.947 -10.284
  353XTA   HL2927887  -3.925  29.749 -10.254
  354XTA     NT27888  -5.270  27.995  -7.791
  354XTA    CN127889  -5.224  27.933  -7.898
  354XTA     C127890  -5.241  27.800  -7.918
  354XTA     C227891  -5.177  27.731  -8.021
  354XTA     C327892  -5.090  27.798  -8.109
  354XTA     C427893  -5.068  27.939  -8.095
  354XTA     C527894  -5.135  28.004  -7.986
  354XTA    CN227895  -5.201  28.019  -7.676
  354XTA     C627896  -5.123  28.131  -7.667
  354XTA     C727897  -5.050  28.156  -7.547
  354XTA     C827898  -5.077  28.080  -7.428
  354XTA     C927899  -5.168  27.974  -7.440
  354XTA    C1027900  -5.222  27.938  -7.561
  354XTA    CN327901  -5.396  28.047  -7.796
  354XTA    C1127902  -5.418  28.171  -7.855
  354XTA    C1227903  -5.547  28.207  -7.890
  354XTA    C1327904  -5.656  28.148  -7.824
  354XTA    C1427905  -5.638  28.038  -7.739
  354XTA    C1527906  -5.510  27.977  -7.738
  354XTA     H127907  -5.309  27.753  -7.850
  354XTA     H227908  -5.192  27.623  -8.024
  354XTA     H327909  -5.006  28.004  -8.156
  354XTA     H427910  -5.123  28.110  -7.976
  354XTA     H527911  -5.113  28.199  -7.744
  354XTA     H627912  -4.988  28.240  -7.551
  354XTA     H727913  -5.190  27.924  -7.349
  354XTA     H827914  -5.291  27.853  -7.571
  354XTA     H927915  -5.331  28.233  -7.876
  354XTA    H1027916  -5.567  28.288  -7.949
  354XTA    H1127917  -5.726  27.998  -7.689
  354XTA    H1227918  -5.497  27.885  -7.684
  354XTA    OA127919  -5.036  27.714  -8.206
  354XTA    CO127920  -4.958  27.783  -8.298
  354XTA    OA227921  -5.033  28.110  -7.301
  354XTA    CO227922  -4.934  28.207  -7.286
  354XTA    CL127923  -4.795  28.153  -7.329
  354XTA    CL227924  -4.682  28.256  -7.316
  354XTA    CL327925  -4.550  28.197  -7.383
  354XTA    CL427926  -4.528  28.265  -7.520
  354XTA    CO327927  -4.626  28.222  -7.621
  354XTA    OA327928  -4.636  28.082  -7.633
  354XTA    CO427929  -4.738  28.046  -7.728
  354XTA    CT127930  -4.765  27.902  -7.724
  354XTA    CL527931  -4.847  27.860  -7.844
  354XTA    CL627932  -4.870  27.709  -7.855
  354XTA    OA427933  -5.790  28.191  -7.831
  354XTA    CO527934  -5.801  28.338  -7.838
  354XTA    HL127935  -5.904  28.356  -7.823
  354XTA    HL227936  -5.004  27.878  -8.329
  354XTA    HL327937  -4.860  27.817  -8.261
  354XTA    HL427938  -4.954  27.717  -8.381
  354XTA    HL527939  -4.956  28.294  -7.342
  354XTA    HL627940  -4.933  28.229  -7.174
  354XTA    HL727941  -4.802  28.140  -7.432
  354XTA    HL827942  -4.790  28.062  -7.270
  354XTA    HL927943  -4.661  28.272  -7.208
  354XTA   HL1027944  -4.706  28.345  -7.370
  354XTA   HL1127945  -4.468  28.213  -7.319
  354XTA   HL1227946  -4.546  28.086  -7.390
  354XTA   HL1327947  -4.428  28.231  -7.538
  354XTA   HL1427948  -4.506  28.373  -7.521
  354XTA   HL1527949  -4.722  28.275  -7.606
  354XTA   HL1627950  -4.596  28.271  -7.716
  354XTA   HL1727951  -4.826  28.105  -7.692
  354XTA   HL1827952  -4.700  28.073  -7.828
  354XTA   HL1927953  -4.797  27.878  -7.943
  354XTA   HL2027954  -4.941  27.915  -7.843
  354XTA   HL2127955  -4.969  27.682  -7.883
  354XTA   HL2227956  -4.856  27.656  -7.757
  354XTA   HL2327957  -4.795  27.671  -7.923
  354XTA   HL2427958  -5.779  28.382  -7.933
  354XTA   HL2527959  -5.746  28.392  -7.764
  354XTA    CO627960  -4.841  27.878  -7.592
  354XTA    CO727961  -4.630  27.825  -7.739
  354XTA    OA527962  -4.803  27.753  -7.534
  354XTA   HL2627963  -4.949  27.879  -7.612
  354XTA   HL2727964  -4.831  27.968  -7.524
  354XTA   HL2827965  -4.567  27.873  -7.668
  354XTA   HL2927966  -4.644  27.719  -7.705
  355XTA     NT27967  -2.352  25.166 -12.342
  355XTA    CN127968  -2.220  25.190 -12.325
  355XTA     C127969  -2.135  25.090 -12.285
  355XTA     C227970  -1.996  25.113 -12.274
  355XTA     C327971  -1.935  25.232 -12.308
  355XTA     C427972  -2.019  25.332 -12.354
  355XTA     C527973  -2.161  25.315 -12.359
  355XTA    CN227974  -2.422  25.117 -12.235
  355XTA     C627975  -2.460  24.985 -12.226
  355XTA     C727976  -2.524  24.932 -12.111
  355XTA     C827977  -2.553  25.018 -12.007
  355XTA     C927978  -2.513  25.158 -12.016
  355XTA    C1027979  -2.453  25.205 -12.131
  355XTA    CN327980  -2.427  25.195 -12.451
  355XTA    C1127981  -2.494  25.312 -12.456
  355XTA    C1227982  -2.565  25.338 -12.577
  355XTA    C1327983  -2.552  25.264 -12.698
  355XTA    C1427984  -2.484  25.138 -12.687
  355XTA    C1527985  -2.419  25.105 -12.566
  355XTA     H127986  -2.168  24.987 -12.275
  355XTA     H227987  -1.926  25.040 -12.241
  355XTA     H327988  -1.964  25.419 -12.391
  355XTA     H427989  -2.221  25.401 -12.392
  355XTA     H527990  -2.423  24.922 -12.305
  355XTA     H627991  -2.540  24.823 -12.113
  355XTA     H727992  -2.549  25.230 -11.946
  355XTA     H827993  -2.445  25.309 -12.153
  355XTA     H927994  -2.484  25.386 -12.382
  355XTA    H1027995  -2.630  25.423 -12.574
  355XTA    H1127996  -2.486  25.062 -12.764
  355XTA    H1227997  -2.353  25.023 -12.572
  355XTA    OA127998  -1.796  25.253 -12.310
  355XTA    CO127999  -1.717  25.159 -12.237
  355XTA    OA228000  -2.616  24.968 -11.894
  355XTA    CO228001  -2.672  24.837 -11.903
  355XTA    CL128002  -2.749  24.801 -11.775
  355XTA    CL228003  -2.822  24.674 -11.807
  355XTA    CL328004  -2.943  24.657 -11.713
  355XTA    CL428005  -3.063  24.571 -11.768
  355XTA    CO328006  -3.171  24.567 -11.660
  355XTA    OA328007  -3.273  24.483 -11.698
  355XTA    CO428008  -3.227  24.347 -11.693
  355XTA    CT128009  -3.345  24.259 -11.656
  355XTA    CL528010  -3.395  24.302 -11.519
  355XTA    CL628011  -3.513  24.219 -11.465
  355XTA    OA428012  -2.615  25.315 -12.807
  355XTA    CO528013  -2.576  25.254 -12.926
  355XTA    HL128014  -2.599  25.310 -13.017
  355XTA    HL228015  -1.620  25.189 -12.236
  355XTA    HL328016  -1.744  25.149 -12.128
  355XTA    HL428017  -1.719  25.070 -12.297
  355XTA    HL528018  -2.747  24.830 -11.991
  355XTA    HL628019  -2.602  24.758 -11.904
  355XTA    HL728020  -2.819  24.885 -11.760
  355XTA    HL828021  -2.679  24.801 -11.686
  355XTA    HL928022  -2.753  24.591 -11.784
  355XTA   HL1028023  -2.855  24.681 -11.903
  355XTA   HL1128024  -2.908  24.631 -11.616
  355XTA   HL1228025  -2.984  24.761 -11.698
  355XTA   HL1328026  -3.031  24.477 -11.795
  355XTA   HL1428027  -3.100  24.614 -11.859
  355XTA   HL1528028  -3.132  24.553 -11.560
  355XTA   HL1628029  -3.214  24.671 -11.649
  355XTA   HL1728030  -3.191  24.321 -11.793
  355XTA   HL1828031  -3.144  24.329 -11.625
  355XTA   HL1928032  -3.432  24.401 -11.531
  355XTA   HL2028033  -3.311  24.295 -11.450
  355XTA   HL2128034  -3.594  24.202 -11.534
  355XTA   HL2228035  -3.550  24.253 -11.366
  355XTA   HL2328036  -3.481  24.112 -11.445
  355XTA   HL2428037  -2.632  25.160 -12.941
  355XTA   HL2528038  -2.478  25.216 -12.936
  355XTA    CO628039  -3.296  24.107 -11.657
  355XTA    CO728040  -3.458  24.275 -11.758
  355XTA    OA528041  -3.194  24.076 -11.564
  355XTA   HL2628042  -3.287  24.067 -11.759
  355XTA   HL2728043  -3.385  24.047 -11.628
  355XTA   HL2828044  -3.554  24.236 -11.734
  355XTA   HL2928045  -3.470  24.387 -11.783
  356XTA     NT28046  -2.629  27.347  -5.708
  356XTA    CN128047  -2.679  27.237  -5.651
  356XTA     C128048  -2.818  27.224  -5.630
  356XTA     C228049  -2.874  27.120  -5.550
  356XTA     C328050  -2.784  27.021  -5.503
  356XTA     C428051  -2.645  27.037  -5.516
  356XTA     C528052  -2.597  27.147  -5.589
  356XTA    CN228053  -2.544  27.356  -5.809
  356XTA     C628054  -2.595  27.386  -5.936
  356XTA     C728055  -2.508  27.414  -6.043
  356XTA     C828056  -2.370  27.416  -6.021
  356XTA     C928057  -2.319  27.378  -5.894
  356XTA    C1028058  -2.407  27.344  -5.791
  356XTA    CN328059  -2.652  27.463  -5.642
  356XTA    C1128060  -2.756  27.548  -5.687
  356XTA    C1228061  -2.786  27.665  -5.625
  356XTA    C1328062  -2.701  27.712  -5.525
  356XTA    C1428063  -2.589  27.635  -5.478
  356XTA    C1528064  -2.568  27.506  -5.535
  356XTA     H128065  -2.883  27.298  -5.667
  356XTA     H228066  -2.981  27.111  -5.540
  356XTA     H328067  -2.577  26.962  -5.486
  356XTA     H428068  -2.492  27.165  -5.585
  356XTA     H528069  -2.697  27.389  -5.939
  356XTA     H628070  -2.549  27.436  -6.139
  356XTA     H728071  -2.210  27.375  -5.889
  356XTA     H828072  -2.360  27.322  -5.694
  356XTA     H928073  -2.826  27.513  -5.770
  356XTA    H1028074  -2.881  27.714  -5.659
  356XTA    H1128075  -2.539  27.670  -5.387
  356XTA    H1228076  -2.497  27.440  -5.485
  356XTA    OA128077  -2.844  26.918  -5.432
  356XTA    CO128078  -2.764  26.814  -5.385
  356XTA    OA228079  -2.277  27.452  -6.116
  356XTA    CO228080  -2.317  27.512  -6.239
  356XTA    CL128081  -2.195  27.574  -6.308
  356XTA    CL228082  -2.233  27.668  -6.425
  356XTA    CL328083  -2.106  27.716  -6.502
  356XTA    CL428084  -2.140  27.808  -6.624
  356XTA    CO328085  -2.008  27.868  -6.663
  356XTA    OA328086  -1.962  27.969  -6.568
  356XTA    CO428087  -2.050  28.083  -6.572
  356XTA    CT128088  -1.988  28.213  -6.515
  356XTA    CL528089  -1.857  28.249  -6.590
  356XTA    CL628090  -1.882  28.273  -6.737
  356XTA    OA428091  -2.720  27.827  -5.461
  356XTA    CO528092  -2.854  27.848  -5.430
  356XTA    HL128093  -2.869  27.936  -5.369
  356XTA    HL228094  -2.699  26.765  -5.458
  356XTA    HL328095  -2.698  26.846  -5.302
  356XTA    HL428096  -2.836  26.733  -5.351
  356XTA    HL528097  -2.375  27.435  -6.293
  356XTA    HL628098  -2.386  27.597  -6.217
  356XTA    HL728099  -2.126  27.491  -6.346
  356XTA    HL828100  -2.134  27.630  -6.237
  356XTA    HL928101  -2.287  27.756  -6.390
  356XTA   HL1028102  -2.294  27.609  -6.495
  356XTA   HL1128103  -2.051  27.776  -6.430
  356XTA   HL1228104  -2.043  27.631  -6.531
  356XTA   HL1328105  -2.217  27.887  -6.608
  356XTA   HL1428106  -2.176  27.740  -6.703
  356XTA   HL1528107  -1.922  27.794  -6.677
  356XTA   HL1628108  -2.022  27.918  -6.755
  356XTA   HL1728109  -2.091  28.107  -6.671
  356XTA   HL1828110  -2.135  28.067  -6.505
  356XTA   HL1928111  -1.772  28.178  -6.575
  356XTA   HL2028112  -1.812  28.335  -6.555
  356XTA   HL2128113  -1.940  28.369  -6.744
  356XTA   HL2228114  -1.945  28.198  -6.784
  356XTA   HL2328115  -1.787  28.291  -6.792
  356XTA   HL2428116  -2.894  27.764  -5.372
  356XTA   HL2528117  -2.908  27.869  -5.523
  356XTA    CO628118  -1.966  28.186  -6.371
  356XTA    CO728119  -2.085  28.333  -6.523
  356XTA    OA528120  -1.895  28.289  -6.306
  356XTA   HL2628121  -1.913  28.087  -6.365
  356XTA   HL2728122  -2.060  28.162  -6.319
  356XTA   HL2828123  -2.095  28.364  -6.627
  356XTA   HL2928124  -2.037  28.421  -6.471
  357XTA     NT28125  -1.204  29.217 -11.607
  357XTA    CN128126  -1.119  29.114 -11.620
  357XTA     C128127  -1.023  29.111 -11.723
  357XTA     C228128  -0.920  29.016 -11.721
  357XTA     C328129  -0.922  28.916 -11.624
  357XTA     C428130  -1.031  28.904 -11.536
  357XTA     C528131  -1.126  29.003 -11.531
  357XTA    CN228132  -1.254  29.283 -11.715
  357XTA     C628133  -1.250  29.422 -11.727
  357XTA     C728134  -1.302  29.495 -11.838
  357XTA     C828135  -1.363  29.415 -11.945
  357XTA     C928136  -1.369  29.274 -11.929
  357XTA    C1028137  -1.315  29.210 -11.817
  357XTA    CN328138  -1.230  29.278 -11.485
  357XTA    C1128139  -1.343  29.244 -11.414
  357XTA    C1228140  -1.372  29.305 -11.291
  357XTA    C1328141  -1.285  29.403 -11.229
  357XTA    C1428142  -1.173  29.443 -11.311
  357XTA    C1528143  -1.147  29.379 -11.434
  357XTA     H128144  -1.032  29.180 -11.803
  357XTA     H228145  -0.850  29.023 -11.802
  357XTA     H328146  -1.032  28.818 -11.462
  357XTA     H428147  -1.202  29.002 -11.450
  357XTA     H528148  -1.218  29.492 -11.652
  357XTA     H628149  -1.297  29.598 -11.846
  357XTA     H728150  -1.410  29.211 -12.007
  357XTA     H828151  -1.320  29.103 -11.818
  357XTA     H928152  -1.404  29.168 -11.454
  357XTA    H1028153  -1.463  29.273 -11.241
  357XTA    H1128154  -1.093  29.504 -11.266
  357XTA    H1228155  -1.048  29.390 -11.480
  357XTA    OA128156  -0.814  28.834 -11.626
  357XTA    CO128157  -0.802  28.735 -11.526
  357XTA    OA228158  -1.431  29.464 -12.052
  357XTA    CO228159  -1.402  29.597 -12.098
  357XTA    CL128160  -1.479  29.604 -12.239
  357XTA    CL228161  -1.474  29.745 -12.300
  357XTA    CL328162  -1.541  29.757 -12.437
  357XTA    CL428163  -1.697  29.754 -12.430
  357XTA    CO328164  -1.765  29.749 -12.566
  357XTA    OA328165  -1.908  29.770 -12.561
  357XTA    CO428166  -1.973  29.650 -12.533
  357XTA    CT128167  -2.121  29.681 -12.485
  357XTA    CL528168  -2.115  29.812 -12.394
  357XTA    CL628169  -2.244  29.864 -12.328
  357XTA    OA428170  -1.298  29.446 -11.102
  357XTA    CO528171  -1.414  29.403 -11.032
  357XTA    HL128172  -1.430  29.474 -10.950
  357XTA    HL228173  -0.717  28.671 -11.560
  357XTA    HL328174  -0.795  28.794 -11.434
  357XTA    HL428175  -0.902  28.685 -11.516
  357XTA    HL528176  -1.440  29.665 -12.026
  357XTA    HL628177  -1.294  29.607 -12.102
  357XTA    HL728178  -1.588  29.570 -12.225
  357XTA    HL828179  -1.436  29.546 -12.314
  357XTA    HL928180  -1.374  29.777 -12.306
  357XTA   HL1028181  -1.523  29.808 -12.229
  357XTA   HL1128182  -1.523  29.849 -12.501
  357XTA   HL1228183  -1.501  29.669 -12.497
  357XTA   HL1328184  -1.737  29.838 -12.374
  357XTA   HL1428185  -1.734  29.663 -12.378
  357XTA   HL1528186  -1.720  29.828 -12.627
  357XTA   HL1628187  -1.737  29.662 -12.627
  357XTA   HL1728188  -1.975  29.593 -12.618
  357XTA   HL1828189  -1.919  29.587 -12.464
  357XTA   HL1928190  -2.075  29.904 -12.445
  357XTA   HL2028191  -2.058  29.805 -12.306
  357XTA   HL2128192  -2.317  29.883 -12.400
  357XTA   HL2228193  -2.229  29.955 -12.268
  357XTA   HL2328194  -2.287  29.793 -12.266
  357XTA   HL2428195  -1.411  29.302 -10.994
  357XTA   HL2528196  -1.497  29.415 -11.106
  357XTA    CO628197  -2.177  29.560 -12.407
  357XTA    CO728198  -2.209  29.697 -12.607
  357XTA    OA528199  -2.337  29.747 -12.579
  357XTA   HL2628200  -2.189  29.484 -12.489
  357XTA   HL2728201  -2.087  29.520 -12.363
  357XTA   HL2828202  -2.220  29.601 -12.667
  357XTA   HL2928203  -2.158  29.772 -12.669
  358XTA     NT28204  -6.730  24.117 -10.881
  358XTA    CN128205  -6.703  24.099 -11.016
  358XTA     C128206  -6.698  24.208 -11.108
  358XTA     C228207  -6.675  24.184 -11.243
  358XTA     C328208  -6.646  24.054 -11.293
  358XTA     C428209  -6.645  23.950 -11.203
  358XTA     C528210  -6.692  23.970 -11.071
  358XTA    CN228211  -6.750  24.243 -10.829
  358XTA     C628212  -6.643  24.321 -10.774
  358XTA     C728213  -6.656  24.456 -10.739
  358XTA     C828214  -6.779  24.515 -10.765
  358XTA     C928215  -6.892  24.439 -10.804
  358XTA    C1028216  -6.874  24.303 -10.840
  358XTA    CN328217  -6.781  24.014 -10.806
  358XTA    C1128218  -6.916  24.014 -10.753
  358XTA    C1228219  -6.968  23.919 -10.669
  358XTA    C1328220  -6.876  23.823 -10.615
  358XTA    C1428221  -6.745  23.821 -10.674
  358XTA    C1528222  -6.703  23.911 -10.769
  358XTA     H128223  -6.724  24.308 -11.074
  358XTA     H228224  -6.669  24.266 -11.315
  358XTA     H328225  -6.633  23.843 -11.234
  358XTA     H428226  -6.729  23.881 -11.012
  358XTA     H528227  -6.547  24.274 -10.775
  358XTA     H628228  -6.564  24.504 -10.703
  358XTA     H728229  -6.993  24.482 -10.817
  358XTA     H828230  -6.947  24.251 -10.901
  358XTA     H928231  -6.987  24.096 -10.772
  358XTA    H1028232  -7.075  23.934 -10.644
  358XTA    H1128233  -6.665  23.755 -10.640
  358XTA    H1228234  -6.602  23.899 -10.804
  358XTA    OA128235  -6.621  24.029 -11.424
  358XTA    CO128236  -6.606  23.899 -11.462
  358XTA    OA228237  -6.810  24.646 -10.738
  358XTA    CO228238  -6.704  24.743 -10.751
  358XTA    CL128239  -6.779  24.877 -10.759
  358XTA    CL228240  -6.680  24.994 -10.757
  358XTA    CL328241  -6.635  25.009 -10.897
  358XTA    CL428242  -6.565  25.137 -10.915
  358XTA    CO328243  -6.493  25.139 -11.049
  358XTA    OA328244  -6.420  25.263 -11.073
  358XTA    CO428245  -6.382  25.256 -11.204
  358XTA    CT128246  -6.343  25.394 -11.261
  358XTA    CL528247  -6.444  25.507 -11.226
  358XTA    CL628248  -6.589  25.481 -11.278
  358XTA    OA428249  -6.915  23.737 -10.515
  358XTA    CO528250  -6.802  23.698 -10.440
  358XTA    HL128251  -6.841  23.654 -10.347
  358XTA    HL228252  -6.514  23.854 -11.417
  358XTA    HL328253  -6.682  23.838 -11.430
  358XTA    HL428254  -6.605  23.884 -11.571
  358XTA    HL528255  -6.632  24.746 -10.665
  358XTA    HL628256  -6.646  24.727 -10.846
  358XTA    HL728257  -6.846  24.890 -10.677
  358XTA    HL828258  -6.842  24.881 -10.847
  358XTA    HL928259  -6.589  24.976 -10.698
  358XTA   HL1028260  -6.723  25.083 -10.717
  358XTA   HL1128261  -6.559  24.926 -10.922
  358XTA   HL1228262  -6.704  24.998 -10.971
  358XTA   HL1328263  -6.500  25.149 -10.827
  358XTA   HL1428264  -6.646  25.205 -10.918
  358XTA   HL1528265  -6.416  25.060 -11.041
  358XTA   HL1628266  -6.559  25.108 -11.132
  358XTA   HL1728267  -6.303  25.185 -11.216
  358XTA   HL1828268  -6.468  25.222 -11.258
  358XTA   HL1928269  -6.413  25.610 -11.260
  358XTA   HL2028270  -6.436  25.518 -11.118
  358XTA   HL2128271  -6.603  25.480 -11.388
  358XTA   HL2228272  -6.652  25.564 -11.248
  358XTA   HL2328273  -6.626  25.385 -11.252
  358XTA   HL2428274  -6.743  23.774 -10.404
  358XTA   HL2528275  -6.725  23.635 -10.488
  358XTA    CO628276  -6.341  25.387 -11.417
  358XTA    CO728277  -6.208  25.440 -11.208
  358XTA    OA528278  -6.159  25.518 -11.275
  358XTA   HL2628279  -6.305  25.477 -11.461
  358XTA   HL2728280  -6.472  25.351 -11.461
  358XTA   HL2828281  -6.137  25.363 -11.203
  358XTA   HL2928282  -6.218  25.471 -11.105
  359XTA     NT28283  -6.927  27.696  -6.879
  359XTA    CN128284  -7.057  27.713  -6.841
  359XTA     C128285  -7.155  27.749  -6.933
  359XTA     C228286  -7.283  27.771  -6.885
  359XTA     C328287  -7.316  27.759  -6.747
  359XTA     C428288  -7.220  27.692  -6.664
  359XTA     C528289  -7.090  27.669  -6.713
  359XTA    CN228290  -6.831  27.779  -6.822
  359XTA     C628291  -6.859  27.886  -6.744
  359XTA     C728292  -6.756  27.972  -6.694
  359XTA     C828293  -6.620  27.946  -6.717
  359XTA     C928294  -6.589  27.830  -6.796
  359XTA    C1028295  -6.694  27.752  -6.853
  359XTA    CN328296  -6.906  27.644  -7.000
  359XTA    C1128297  -6.874  27.727  -7.107
  359XTA    C1228298  -6.841  27.675  -7.232
  359XTA    C1328299  -6.839  27.535  -7.250
  359XTA    C1428300  -6.876  27.452  -7.144
  359XTA    C1528301  -6.915  27.506  -7.022
  359XTA     H128302  -7.138  27.759  -7.040
  359XTA     H228303  -7.360  27.808  -6.945
  359XTA     H328304  -7.243  27.668  -6.561
  359XTA     H428305  -7.010  27.622  -6.660
  359XTA     H528306  -6.964  27.904  -6.724
  359XTA     H628307  -6.786  28.060  -6.639
  359XTA     H728308  -6.484  27.814  -6.834
  359XTA     H828309  -6.667  27.661  -6.909
  359XTA     H928310  -6.888  27.836  -7.092
  359XTA    H1028311  -6.809  27.733  -7.315
  359XTA    H1128312  -6.881  27.340  -7.153
  359XTA    H1228313  -6.950  27.444  -6.935
  359XTA    OA128314  -7.449  27.793  -6.722
  359XTA    CO128315  -7.476  27.802  -6.583
  359XTA    OA228316  -6.524  28.040  -6.677
  359XTA    CO228317  -6.561  28.143  -6.586
  359XTA    CL128318  -6.596  28.086  -6.446
  359XTA    CL228319  -6.703  28.165  -6.379
  359XTA    CL328320  -6.755  28.094  -6.251
  359XTA    CL428321  -6.645  28.033  -6.166
  359XTA    CO328322  -6.689  27.976  -6.025
  359XTA    OA328323  -6.761  28.074  -5.952
  359XTA    CO428324  -6.691  28.104  -5.836
  359XTA    CT128325  -6.780  28.196  -5.750
  359XTA    CL528326  -6.911  28.128  -5.694
  359XTA    CL628327  -6.892  27.992  -5.627
  359XTA    OA428328  -6.802  27.471  -7.371
  359XTA    CO528329  -6.845  27.522  -7.495
  359XTA    HL128330  -6.945  27.495  -7.521
  359XTA    HL228331  -7.574  27.857  -6.567
  359XTA    HL328332  -7.498  27.705  -6.549
  359XTA    HL428333  -7.395  27.844  -6.520
  359XTA    HL528334  -6.477  28.211  -6.581
  359XTA    HL628335  -6.653  28.200  -6.630
  359XTA    HL728336  -6.501  28.085  -6.387
  359XTA    HL828337  -6.626  27.980  -6.453
  359XTA    HL928338  -6.788  28.195  -6.442
  359XTA   HL1028339  -6.660  28.257  -6.351
  359XTA   HL1128340  -6.805  28.167  -6.186
  359XTA   HL1228341  -6.837  28.027  -6.277
  359XTA   HL1328342  -6.573  28.109  -6.173
  359XTA   HL1428343  -6.604  27.955  -6.223
  359XTA   HL1528344  -6.751  27.891  -6.052
  359XTA   HL1628345  -6.599  27.933  -5.981
  359XTA   HL1728346  -6.668  28.011  -5.785
  359XTA   HL1828347  -6.593  28.153  -5.851
  359XTA   HL1928348  -6.973  28.111  -5.775
  359XTA   HL2028349  -6.959  28.195  -5.624
  359XTA   HL2128350  -6.983  27.952  -5.586
  359XTA   HL2228351  -6.837  27.983  -5.532
  359XTA   HL2328352  -6.844  27.925  -5.694
  359XTA   HL2428353  -6.781  27.468  -7.563
  359XTA   HL2528354  -6.854  27.629  -7.506
  359XTA    CO628355  -6.800  28.322  -5.832
  359XTA    CO728356  -6.690  28.242  -5.636
  359XTA    OA528357  -6.655  28.169  -5.563
  359XTA   HL2628358  -6.863  28.390  -5.772
  359XTA   HL2728359  -6.889  28.293  -5.941
  359XTA   HL2828360  -6.741  28.316  -5.572
  359XTA   HL2928361  -6.601  28.294  -5.666
  360XTA     NT28362  -2.812  31.779  -5.576
  360XTA    CN128363  -2.940  31.793  -5.626
  360XTA     C128364  -2.974  31.906  -5.708
  360XTA     C228365  -3.100  31.918  -5.765
  360XTA     C328366  -3.202  31.829  -5.729
  360XTA     C428367  -3.174  31.720  -5.641
  360XTA     C528368  -3.042  31.698  -5.592
  360XTA    CN228369  -2.725  31.730  -5.671
  360XTA     C628370  -2.669  31.820  -5.762
  360XTA     C728371  -2.599  31.765  -5.876
  360XTA     C828372  -2.594  31.626  -5.899
  360XTA     C928373  -2.637  31.533  -5.799
  360XTA    C1028374  -2.707  31.592  -5.695
  360XTA    CN328375  -2.780  31.790  -5.446
  360XTA    C1128376  -2.755  31.918  -5.385
  360XTA    C1228377  -2.717  31.921  -5.250
  360XTA    C1328378  -2.704  31.802  -5.176
  360XTA    C1428379  -2.736  31.676  -5.237
  360XTA    C1528380  -2.776  31.676  -5.370
  360XTA     H128381  -2.903  31.988  -5.726
  360XTA     H228382  -3.122  31.997  -5.831
  360XTA     H328383  -3.258  31.656  -5.631
  360XTA     H428384  -3.019  31.613  -5.526
  360XTA     H528385  -2.684  31.924  -5.739
  360XTA     H628386  -2.552  31.822  -5.957
  360XTA     H728387  -2.641  31.426  -5.812
  360XTA     H828388  -2.746  31.532  -5.619
  360XTA     H928389  -2.754  32.002  -5.449
  360XTA    H1028390  -2.704  32.019  -5.210
  360XTA    H1128391  -2.747  31.580  -5.190
  360XTA    H1228392  -2.789  31.575  -5.411
  360XTA    OA128393  -3.327  31.844  -5.799
  360XTA    CO128394  -3.400  31.720  -5.815
  360XTA    OA228395  -2.557  31.576  -6.020
  360XTA    CO228396  -2.538  31.657  -6.140
  360XTA    CL128397  -2.476  31.570  -6.256
  360XTA    CL228398  -2.448  31.660  -6.376
  360XTA    CL328399  -2.414  31.586  -6.500
  360XTA    CL428400  -2.273  31.525  -6.478
  360XTA    CO328401  -2.238  31.425  -6.581
  360XTA    OA328402  -2.327  31.319  -6.595
  360XTA    CO428403  -2.294  31.247  -6.707
  360XTA    CT128404  -2.362  31.105  -6.695
  360XTA    CL528405  -2.273  31.017  -6.603
  360XTA    CL628406  -2.258  31.074  -6.460
  360XTA    OA428407  -2.653  31.813  -5.046
  360XTA    CO528408  -2.664  31.707  -4.957
  360XTA    HL128409  -2.645  31.734  -4.855
  360XTA    HL228410  -3.497  31.722  -5.870
  360XTA    HL328411  -3.328  31.646  -5.859
  360XTA    HL428412  -3.429  31.700  -5.710
  360XTA    HL528413  -2.633  31.705  -6.154
  360XTA    HL628414  -2.469  31.747  -6.126
  360XTA    HL728415  -2.549  31.499  -6.286
  360XTA    HL828416  -2.392  31.504  -6.233
  360XTA    HL928417  -2.367  31.724  -6.352
  360XTA   HL1028418  -2.541  31.711  -6.397
  360XTA   HL1128419  -2.480  31.496  -6.516
  360XTA   HL1228420  -2.416  31.645  -6.593
  360XTA   HL1328421  -2.268  31.482  -6.377
  360XTA   HL1428422  -2.196  31.598  -6.489
  360XTA   HL1528423  -2.241  31.479  -6.677
  360XTA   HL1628424  -2.135  31.398  -6.562
  360XTA   HL1728425  -2.330  31.294  -6.800
  360XTA   HL1828426  -2.188  31.228  -6.716
  360XTA   HL1928427  -2.175  31.005  -6.644
  360XTA   HL2028428  -2.323  30.916  -6.594
  360XTA   HL2128429  -2.226  31.173  -6.458
  360XTA   HL2228430  -2.354  31.073  -6.409
  360XTA   HL2328431  -2.194  31.017  -6.392
  360XTA   HL2428432  -2.596  31.625  -4.974
  360XTA   HL2528433  -2.766  31.674  -4.964
  360XTA    CO628434  -2.369  31.045  -6.836
  360XTA    CO728435  -2.513  31.109  -6.638
  360XTA    OA528436  -2.566  30.980  -6.658
  360XTA   HL2628437  -2.417  31.123  -6.895
  360XTA   HL2728438  -2.430  30.951  -6.837
  360XTA   HL2828439  -2.582  31.177  -6.678
  360XTA   HL2928440  -2.506  31.113  -6.526
  361XTA     NT28441  -7.956  29.101  -6.943
  361XTA    CN128442  -7.929  29.233  -6.945
  361XTA     C128443  -8.008  29.317  -7.018
  361XTA     C228444  -7.976  29.455  -7.026
  361XTA     C328445  -7.874  29.510  -6.946
  361XTA     C428446  -7.804  29.420  -6.859
  361XTA     C528447  -7.824  29.282  -6.863
  361XTA    CN228448  -8.024  29.037  -6.850
  361XTA     C628449  -7.957  28.949  -6.761
  361XTA     C728450  -8.036  28.875  -6.671
  361XTA     C828451  -8.178  28.878  -6.670
  361XTA     C928452  -8.234  28.962  -6.767
  361XTA    C1028453  -8.161  29.044  -6.850
  361XTA    CN328454  -7.920  29.019  -7.046
  361XTA    C1128455  -8.003  29.002  -7.159
  361XTA    C1228456  -7.954  28.928  -7.269
  361XTA    C1328457  -7.826  28.865  -7.263
  361XTA    C1428458  -7.749  28.874  -7.148
  361XTA    C1528459  -7.792  28.962  -7.047
  361XTA     H128460  -8.090  29.278  -7.079
  361XTA     H228461  -8.039  29.508  -7.097
  361XTA     H328462  -7.727  29.449  -6.789
  361XTA     H428463  -7.768  29.212  -6.798
  361XTA     H528464  -7.855  28.935  -6.759
  361XTA     H628465  -7.979  28.811  -6.610
  361XTA     H728466  -8.343  28.967  -6.784
  361XTA     H828467  -8.206  29.116  -6.915
  361XTA     H928468  -8.105  29.045  -7.153
  361XTA    H1028469  -8.009  28.922  -7.351
  361XTA    H1128470  -7.653  28.829  -7.128
  361XTA    H1228471  -7.731  28.980  -6.968
  361XTA    OA128472  -7.840  29.646  -6.961
  361XTA    CO128473  -7.822  29.728  -6.847
  361XTA    OA228474  -8.244  28.790  -6.588
  361XTA    CO228475  -8.372  28.763  -6.625
  361XTA    CL128476  -8.413  28.630  -6.551
  361XTA    CL228477  -8.461  28.674  -6.412
  361XTA    CL328478  -8.581  28.597  -6.349
  361XTA    CL428479  -8.696  28.592  -6.447
  361XTA    CO328480  -8.819  28.516  -6.396
  361XTA    OA328481  -8.881  28.568  -6.281
  361XTA    CO428482  -8.941  28.693  -6.309
  361XTA    CT128483  -9.015  28.749  -6.191
  361XTA    CL528484  -8.948  28.727  -6.051
  361XTA    CL628485  -9.009  28.783  -5.919
  361XTA    OA428486  -7.789  28.787  -7.376
  361XTA    CO528487  -7.687  28.693  -7.345
  361XTA    HL128488  -7.594  28.745  -7.321
  361XTA    HL228489  -7.756  29.681  -6.781
  361XTA    HL328490  -7.789  29.827  -6.868
  361XTA    HL428491  -7.910  29.757  -6.791
  361XTA    HL528492  -8.442  28.841  -6.602
  361XTA    HL628493  -8.369  28.758  -6.735
  361XTA    HL728494  -8.339  28.553  -6.553
  361XTA    HL828495  -8.496  28.591  -6.612
  361XTA    HL928496  -8.490  28.778  -6.412
  361XTA   HL1028497  -8.381  28.665  -6.340
  361XTA   HL1128498  -8.543  28.492  -6.324
  361XTA   HL1228499  -8.623  28.631  -6.252
  361XTA   HL1328500  -8.663  28.533  -6.533
  361XTA   HL1428501  -8.725  28.693  -6.486
  361XTA   HL1528502  -8.889  28.497  -6.480
  361XTA   HL1628503  -8.781  28.416  -6.364
  361XTA   HL1728504  -8.865  28.769  -6.336
  361XTA   HL1828505  -9.004  28.684  -6.396
  361XTA   HL1928506  -8.839  28.756  -6.060
  361XTA   HL2028507  -8.938  28.622  -6.023
  361XTA   HL2128508  -9.074  28.874  -5.933
  361XTA   HL2228509  -8.935  28.805  -5.847
  361XTA   HL2328510  -9.076  28.709  -5.886
  361XTA   HL2428511  -7.669  28.624  -7.420
  361XTA   HL2528512  -7.720  28.630  -7.257
  361XTA    CO628513  -9.150  28.679  -6.184
  361XTA    CO728514  -9.041  28.894  -6.224
  361XTA    OA528515  -9.091  28.910  -6.319
  361XTA   HL2628516  -9.204  28.725  -6.094
  361XTA   HL2728517  -9.241  28.685  -6.291
  361XTA   HL2828518  -8.940  28.928  -6.216
  361XTA   HL2928519  -9.095  28.941  -6.145
  362XTA     NT28520  -8.115  29.186  -9.302
  362XTA    CN128521  -8.218  29.198  -9.220
  362XTA     C128522  -8.292  29.315  -9.212
  362XTA     C228523  -8.403  29.326  -9.124
  362XTA     C328524  -8.425  29.232  -9.018
  362XTA     C428525  -8.343  29.117  -9.025
  362XTA     C528526  -8.250  29.101  -9.121
  362XTA    CN228527  -8.130  29.130  -9.423
  362XTA     C628528  -8.041  29.032  -9.467
  362XTA     C728529  -8.061  28.972  -9.593
  362XTA     C828530  -8.165  29.014  -9.679
  362XTA     C928531  -8.259  29.108  -9.623
  362XTA    C1028532  -8.243  29.163  -9.503
  362XTA    CN328533  -7.992  29.236  -9.277
  362XTA    C1128534  -7.924  29.202  -9.154
  362XTA    C1228535  -7.787  29.234  -9.132
  362XTA    C1328536  -7.721  29.311  -9.233
  362XTA    C1428537  -7.791  29.346  -9.346
  362XTA    C1528538  -7.921  29.316  -9.371
  362XTA     H128539  -8.282  29.396  -9.281
  362XTA     H228540  -8.457  29.416  -9.131
  362XTA     H328541  -8.360  29.038  -8.953
  362XTA     H428542  -8.174  29.026  -9.106
  362XTA     H528543  -7.964  29.005  -9.404
  362XTA     H628544  -7.979  28.917  -9.628
  362XTA     H728545  -8.341  29.126  -9.687
  362XTA     H828546  -8.309  29.237  -9.463
  362XTA     H928547  -7.974  29.150  -9.074
  362XTA    H1028548  -7.746  29.200  -9.038
  362XTA    H1128549  -7.741  29.395  -9.422
  362XTA    H1228550  -7.964  29.345  -9.465
  362XTA    OA128551  -8.506  29.257  -8.908
  362XTA    CO128552  -8.496  29.379  -8.849
  362XTA    OA228553  -8.181  28.972  -9.806
  362XTA    CO228554  -8.097  28.861  -9.851
  362XTA    CL128555  -8.080  28.880 -10.001
  362XTA    CL228556  -7.995  29.004 -10.038
  362XTA    CL328557  -7.940  29.007 -10.177
  362XTA    CL428558  -7.846  29.128 -10.197
  362XTA    CO328559  -7.807  29.144 -10.346
  362XTA    OA328560  -7.676  29.104 -10.383
  362XTA    CO428561  -7.632  28.970 -10.337
  362XTA    CT128562  -7.485  28.936 -10.374
  362XTA    CL528563  -7.382  29.047 -10.331
  362XTA    CL628564  -7.399  29.082 -10.177
  362XTA    OA428565  -7.582  29.336  -9.232
  362XTA    CO528566  -7.520  29.321  -9.112
  362XTA    HL128567  -7.416  29.326  -9.135
  362XTA    HL228568  -8.552  29.368  -8.760
  362XTA    HL328569  -8.394  29.412  -8.821
  362XTA    HL428570  -8.562  29.455  -8.906
  362XTA    HL528571  -7.997  28.866  -9.810
  362XTA    HL628572  -8.133  28.764  -9.831
  362XTA    HL728573  -8.174  28.890 -10.055
  362XTA    HL828574  -8.028  28.792 -10.036
  362XTA    HL928575  -7.907  28.998  -9.979
  362XTA   HL1028576  -8.043  29.091  -9.998
  362XTA   HL1128577  -7.878  28.917 -10.185
  362XTA   HL1228578  -8.011  28.993 -10.260
  362XTA   HL1328579  -7.754  29.126 -10.136
  362XTA   HL1428580  -7.895  29.220 -10.174
  362XTA   HL1528581  -7.872  29.083 -10.420
  362XTA   HL1628582  -7.815  29.248 -10.370
  362XTA   HL1728583  -7.633  28.978 -10.231
  362XTA   HL1828584  -7.698  28.881 -10.356
  362XTA   HL1928585  -7.398  29.139 -10.392
  362XTA   HL2028586  -7.287  29.002 -10.346
  362XTA   HL2128587  -7.323  29.156 -10.139
  362XTA   HL2228588  -7.391  28.998 -10.112
  362XTA   HL2328589  -7.491  29.138 -10.158
  362XTA   HL2428590  -7.542  29.219  -9.064
  362XTA   HL2528591  -7.545  29.399  -9.037
  362XTA    CO628592  -7.472  28.914 -10.524
  362XTA    CO728593  -7.445  28.796 -10.312
  362XTA    OA528594  -7.498  28.785 -10.218
  362XTA   HL2628595  -7.563  28.877 -10.562
  362XTA   HL2728596  -7.457  29.035 -10.596
  362XTA   HL2828597  -7.336  28.784 -10.312
  362XTA   HL2928598  -7.486  28.723 -10.378
  363XTA     NT28599  -5.390  25.459 -12.204
  363XTA    CN128600  -5.404  25.587 -12.259
  363XTA     C128601  -5.479  25.599 -12.377
  363XTA     C228602  -5.504  25.722 -12.440
  363XTA     C328603  -5.446  25.839 -12.383
  363XTA     C428604  -5.358  25.826 -12.268
  363XTA     C528605  -5.334  25.701 -12.212
  363XTA    CN228606  -5.287  25.383 -12.238
  363XTA     C628607  -5.314  25.279 -12.331
  363XTA     C728608  -5.217  25.201 -12.392
  363XTA     C828609  -5.082  25.219 -12.347
  363XTA     C928610  -5.058  25.322 -12.252
  363XTA    C1028611  -5.153  25.412 -12.203
  363XTA    CN328612  -5.474  25.417 -12.113
  363XTA    C1128613  -5.439  25.436 -11.977
  363XTA    C1228614  -5.519  25.386 -11.873
  363XTA    C1328615  -5.636  25.315 -11.901
  363XTA    C1428616  -5.675  25.289 -12.037
  363XTA    C1528617  -5.589  25.337 -12.138
  363XTA     H128618  -5.524  25.507 -12.411
  363XTA     H228619  -5.569  25.736 -12.519
  363XTA     H328620  -5.310  25.913 -12.230
  363XTA     H428621  -5.270  25.702 -12.126
  363XTA     H528622  -5.415  25.257 -12.364
  363XTA     H628623  -5.248  25.149 -12.480
  363XTA     H728624  -4.955  25.328 -12.223
  363XTA     H828625  -5.130  25.497 -12.143
  363XTA     H928626  -5.351  25.488 -11.957
  363XTA    H1028627  -5.492  25.404 -11.771
  363XTA    H1128628  -5.767  25.240 -12.060
  363XTA    H1228629  -5.607  25.316 -12.244
  363XTA    OA128630  -5.498  25.956 -12.440
  363XTA    CO128631  -5.410  26.061 -12.430
  363XTA    OA228632  -4.981  25.145 -12.397
  363XTA    CO228633  -5.014  25.065 -12.511
  363XTA    CL128634  -5.031  25.151 -12.635
  363XTA    CL228635  -5.078  25.073 -12.754
  363XTA    CL328636  -5.091  25.171 -12.873
  363XTA    CL428637  -4.959  25.210 -12.952
  363XTA    CO328638  -4.960  25.335 -13.021
  363XTA    OA328639  -5.003  25.429 -12.928
  363XTA    CO428640  -4.911  25.471 -12.831
  363XTA    CT128641  -4.969  25.599 -12.760
  363XTA    CL528642  -5.110  25.574 -12.705
  363XTA    CL628643  -5.145  25.648 -12.573
  363XTA    OA428644  -5.732  25.268 -11.811
  363XTA    CO528645  -5.676  25.228 -11.687
  363XTA    HL128646  -5.747  25.189 -11.624
  363XTA    HL228647  -5.410  26.089 -12.323
  363XTA    HL328648  -5.309  26.034 -12.454
  363XTA    HL428649  -5.447  26.142 -12.496
  363XTA    HL528650  -4.930  24.993 -12.522
  363XTA    HL628651  -5.102  24.998 -12.480
  363XTA    HL728652  -4.937  25.195 -12.667
  363XTA    HL828653  -5.108  25.224 -12.614
  363XTA    HL928654  -5.178  25.038 -12.734
  363XTA   HL1028655  -5.016  24.987 -12.785
  363XTA   HL1128656  -5.162  25.127 -12.947
  363XTA   HL1228657  -5.124  25.274 -12.849
  363XTA   HL1328658  -4.944  25.132 -13.025
  363XTA   HL1428659  -4.871  25.207 -12.884
  363XTA   HL1528660  -4.861  25.362 -13.059
  363XTA   HL1628661  -5.027  25.336 -13.102
  363XTA   HL1728662  -4.901  25.401 -12.753
  363XTA   HL1828663  -4.811  25.490 -12.874
  363XTA   HL1928664  -5.138  25.469 -12.705
  363XTA   HL2028665  -5.182  25.618 -12.773
  363XTA   HL2128666  -5.244  25.631 -12.548
  363XTA   HL2228667  -5.134  25.749 -12.600
  363XTA   HL2328668  -5.089  25.607 -12.484
  363XTA   HL2428669  -5.629  25.313 -11.628
  363XTA   HL2528670  -5.595  25.153 -11.714
  363XTA    CO628671  -4.960  25.709 -12.859
  363XTA    CO728672  -4.863  25.637 -12.656
  363XTA    OA528673  -5.008  25.797 -12.818
  363XTA   HL2628674  -5.004  25.676 -12.955
  363XTA   HL2728675  -4.852  25.729 -12.879
  363XTA   HL2828676  -4.884  25.770 -12.609
  363XTA   HL2928677  -4.876  25.566 -12.569
  364XTA     NT28678  -4.696  28.690  -7.060
  364XTA    CN128679  -4.688  28.734  -6.932
  364XTA     C128680  -4.713  28.870  -6.895
  364XTA     C228681  -4.688  28.911  -6.766
  364XTA     C328682  -4.660  28.820  -6.657
  364XTA     C428683  -4.641  28.684  -6.693
  364XTA     C528684  -4.652  28.643  -6.831
  364XTA    CN228685  -4.827  28.661  -7.095
  364XTA     C628686  -4.877  28.540  -7.063
  364XTA     C728687  -5.008  28.500  -7.108
  364XTA     C828688  -5.083  28.593  -7.184
  364XTA     C928689  -5.032  28.723  -7.207
  364XTA    C1028690  -4.910  28.754  -7.161
  364XTA    CN328691  -4.593  28.681  -7.144
  364XTA    C1128692  -4.554  28.556  -7.195
  364XTA    C1228693  -4.460  28.548  -7.303
  364XTA    C1328694  -4.392  28.669  -7.338
  364XTA    C1428695  -4.440  28.795  -7.291
  364XTA    C1528696  -4.541  28.798  -7.198
  364XTA     H128697  -4.729  28.936  -6.975
  364XTA     H228698  -4.693  29.016  -6.751
  364XTA     H328699  -4.614  28.599  -6.636
  364XTA     H428700  -4.638  28.536  -6.854
  364XTA     H528701  -4.827  28.467  -7.004
  364XTA     H628702  -5.045  28.398  -7.092
  364XTA     H728703  -5.084  28.808  -7.239
  364XTA     H828704  -4.870  28.857  -7.184
  364XTA     H928705  -4.608  28.466  -7.165
  364XTA    H1028706  -4.432  28.449  -7.339
  364XTA    H1128707  -4.397  28.892  -7.314
  364XTA    H1228708  -4.591  28.894  -7.169
  364XTA    OA128709  -4.649  28.866  -6.530
  364XTA    CO128710  -4.630  28.773  -6.431
  364XTA    OA228711  -5.209  28.559  -7.219
  364XTA    CO228712  -5.260  28.618  -7.339
  364XTA    CL128713  -5.203  28.556  -7.466
  364XTA    CL228714  -5.302  28.563  -7.586
  364XTA    CL328715  -5.247  28.492  -7.714
  364XTA    CL428716  -5.323  28.538  -7.838
  364XTA    CO328717  -5.251  28.655  -7.906
  364XTA    OA328718  -5.340  28.758  -7.897
  364XTA    CO428719  -5.286  28.879  -7.947
  364XTA    CT128720  -5.396  28.983  -7.943
  364XTA    CL528721  -5.323  29.120  -7.980
  364XTA    CL628722  -5.414  29.236  -8.005
  364XTA    OA428723  -4.290  28.655  -7.434
  364XTA    CO528724  -4.215  28.771  -7.472
  364XTA    HL128725  -4.286  28.843  -7.516
  364XTA    HL228726  -4.533  28.731  -6.443
  364XTA    HL328727  -4.644  28.829  -6.335
  364XTA    HL428728  -4.695  28.685  -6.439
  364XTA    HL528729  -5.364  28.587  -7.333
  364XTA    HL628730  -5.250  28.725  -7.338
  364XTA    HL728731  -5.183  28.449  -7.436
  364XTA    HL828732  -5.107  28.606  -7.489
  364XTA    HL928733  -5.315  28.677  -7.589
  364XTA   HL1028734  -5.392  28.521  -7.548
  364XTA   HL1128735  -5.141  28.516  -7.718
  364XTA   HL1228736  -5.261  28.390  -7.700
  364XTA   HL1328737  -5.419  28.573  -7.813
  364XTA   HL1428738  -5.345  28.457  -7.907
  364XTA   HL1528739  -5.157  28.684  -7.849
  364XTA   HL1628740  -5.221  28.639  -8.008
  364XTA   HL1728741  -5.204  28.907  -7.885
  364XTA   HL1828742  -5.243  28.865  -8.046
  364XTA   HL1928743  -5.252  29.098  -8.059
  364XTA   HL2028744  -5.252  29.160  -7.903
  364XTA   HL2128745  -5.477  29.222  -8.094
  364XTA   HL2228746  -5.352  29.329  -8.011
  364XTA   HL2328747  -5.492  29.250  -7.923
  364XTA   HL2428748  -4.137  28.739  -7.528
  364XTA   HL2528749  -4.183  28.813  -7.373
  364XTA    CO628750  -5.452  28.997  -7.802
  364XTA    CO728751  -5.509  28.936  -8.037
  364XTA    OA528752  -5.378  29.038  -7.732
  364XTA   HL2628753  -5.476  28.898  -7.782
  364XTA   HL2728754  -5.541  29.063  -7.811
  364XTA   HL2828755  -5.463  28.946  -8.176
  364XTA   HL2928756  -5.522  28.829  -8.016
  365XTA     NT28757  -1.300  25.904 -10.265
  365XTA    CN128758  -1.217  25.816 -10.212
  365XTA     C128759  -1.155  25.706 -10.281
  365XTA     C228760  -1.061  25.623 -10.220
  365XTA     C328761  -1.032  25.634 -10.081
  365XTA     C428762  -1.094  25.736 -10.010
  365XTA     C528763  -1.187  25.825 -10.072
  365XTA    CN228764  -1.434  25.908 -10.242
  365XTA     C628765  -1.507  25.790 -10.212
  365XTA     C728766  -1.645  25.786 -10.185
  365XTA     C828767  -1.712  25.910 -10.176
  365XTA     C928768  -1.636  26.027 -10.199
  365XTA    C1028769  -1.500  26.029 -10.228
  365XTA    CN328770  -1.244  26.001 -10.340
  365XTA    C1128771  -1.280  26.014 -10.477
  365XTA    C1228772  -1.225  26.114 -10.555
  365XTA    C1328773  -1.127  26.199 -10.503
  365XTA    C1428774  -1.104  26.197 -10.368
  365XTA    C1528775  -1.159  26.099 -10.282
  365XTA     H128776  -1.179  25.704 -10.386
  365XTA     H228777  -1.014  25.546 -10.276
  365XTA     H328778  -1.069  25.752  -9.905
  365XTA     H428779  -1.230  25.905 -10.017
  365XTA     H528780  -1.460  25.694 -10.227
  365XTA     H628781  -1.694  25.688 -10.165
  365XTA     H728782  -1.683  26.120 -10.185
  365XTA     H828783  -1.445  26.125 -10.225
  365XTA     H928784  -1.337  25.932 -10.520
  365XTA    H1028785  -1.233  26.120 -10.658
  365XTA    H1128786  -1.039  26.272 -10.334
  365XTA    H1228787  -1.141  26.090 -10.172
  365XTA    OA128788  -0.943  25.545 -10.026
  365XTA    CO128789  -0.899  25.435 -10.103
  365XTA    OA228790  -1.847  25.926 -10.162
  365XTA    CO228791  -1.932  25.815 -10.181
  365XTA    CL128792  -2.068  25.850 -10.242
  365XTA    CL228793  -2.088  26.005 -10.284
  365XTA    CL328794  -2.007  26.013 -10.408
  365XTA    CL428795  -1.994  26.151 -10.473
  365XTA    CO328796  -1.885  26.239 -10.410
  365XTA    OA328797  -1.931  26.264 -10.276
  365XTA    CO428798  -1.872  26.373 -10.210
  365XTA    CT128799  -1.922  26.386 -10.066
  365XTA    CL528800  -2.070  26.342 -10.041
  365XTA    CL628801  -2.167  26.392 -10.138
  365XTA    OA428802  -1.060  26.297 -10.570
  365XTA    CO528803  -1.110  26.330 -10.697
  365XTA    HL128804  -1.107  26.240 -10.762
  365XTA    HL228805  -0.853  25.367 -10.032
  365XTA    HL328806  -0.984  25.380 -10.148
  365XTA    HL428807  -0.827  25.471 -10.183
  365XTA    HL528808  -1.882  25.756 -10.256
  365XTA    HL628809  -1.949  25.759 -10.090
  365XTA    HL728810  -2.149  25.834 -10.166
  365XTA    HL828811  -2.090  25.789 -10.325
  365XTA    HL928812  -2.070  26.082 -10.202
  365XTA   HL1028813  -2.196  26.035 -10.301
  365XTA   HL1128814  -1.904  25.966 -10.399
  365XTA   HL1228815  -2.047  25.947 -10.480
  365XTA   HL1328816  -2.095  26.197 -10.478
  365XTA   HL1428817  -1.962  26.133 -10.577
  365XTA   HL1528818  -1.795  26.186 -10.399
  365XTA   HL1628819  -1.874  26.326 -10.473
  365XTA   HL1728820  -1.761  26.363 -10.210
  365XTA   HL1828821  -1.888  26.458 -10.278
  365XTA   HL1928822  -2.083  26.366  -9.941
  365XTA   HL2028823  -2.080  26.233 -10.047
  365XTA   HL2128824  -2.151  26.497 -10.170
  365XTA   HL2228825  -2.262  26.388 -10.093
  365XTA   HL2328826  -2.174  26.321 -10.220
  365XTA   HL2428827  -1.060  26.407 -10.760
  365XTA   HL2528828  -1.212  26.367 -10.677
  365XTA    CO628829  -1.903  26.536 -10.029
  365XTA    CO728830  -1.823  26.315  -9.975
  365XTA    OA528831  -1.934  26.554  -9.892
  365XTA   HL2628832  -1.961  26.607 -10.091
  365XTA   HL2728833  -1.794  26.561 -10.043
  365XTA   HL2828834  -1.829  26.207 -10.009
  365XTA   HL2928835  -1.876  26.307  -9.880
  366XTA     NT28836  -4.383  26.547  -8.753
  366XTA    CN128837  -4.474  26.452  -8.777
  366XTA     C128838  -4.552  26.463  -8.892
  366XTA     C228839  -4.656  26.374  -8.926
  366XTA     C328840  -4.689  26.273  -8.834
  366XTA     C428841  -4.611  26.261  -8.716
  366XTA     C528842  -4.505  26.344  -8.691
  366XTA    CN228843  -4.266  26.540  -8.825
  366XTA     C628844  -4.179  26.426  -8.826
  366XTA     C728845  -4.086  26.418  -8.934
  366XTA     C828846  -4.078  26.524  -9.030
  366XTA     C928847  -4.158  26.637  -9.017
  366XTA    C1028848  -4.255  26.646  -8.917
  366XTA    CN328849  -4.397  26.639  -8.647
  366XTA    C1128850  -4.496  26.737  -8.658
  366XTA    C1228851  -4.497  26.842  -8.563
  366XTA    C1328852  -4.407  26.850  -8.457
  366XTA    C1428853  -4.308  26.744  -8.450
  366XTA    C1528854  -4.305  26.641  -8.541
  366XTA     H128855  -4.514  26.535  -8.963
  366XTA     H228856  -4.701  26.373  -9.026
  366XTA     H328857  -4.628  26.186  -8.641
  366XTA     H428858  -4.456  26.335  -8.592
  366XTA     H528859  -4.195  26.341  -8.758
  366XTA     H628860  -4.028  26.329  -8.942
  366XTA     H728861  -4.149  26.722  -9.081
  366XTA     H828862  -4.320  26.731  -8.924
  366XTA     H928863  -4.566  26.729  -8.747
  366XTA    H1028864  -4.572  26.920  -8.558
  366XTA    H1128865  -4.238  26.750  -8.370
  366XTA    H1228866  -4.234  26.566  -8.526
  366XTA    OA128867  -4.790  26.187  -8.874
  366XTA    CO128868  -4.827  26.099  -8.763
  366XTA    OA228869  -3.999  26.520  -9.141
  366XTA    CO228870  -3.893  26.422  -9.137
  366XTA    CL128871  -3.935  26.285  -9.196
  366XTA    CL228872  -3.806  26.203  -9.231
  366XTA    CL328873  -3.835  26.073  -9.321
  366XTA    CL428874  -3.940  25.983  -9.251
  366XTA    CO328875  -3.941  25.840  -9.299
  366XTA    OA328876  -3.850  25.763  -9.219
  366XTA    CO428877  -3.796  25.637  -9.266
  366XTA    CT128878  -3.654  25.639  -9.220
  366XTA    CL528879  -3.579  25.510  -9.262
  366XTA    CL628880  -3.661  25.389  -9.227
  366XTA    OA428881  -4.411  26.961  -8.373
  366XTA    CO528882  -4.436  27.086  -8.437
  366XTA    HL128883  -4.404  27.157  -8.362
  366XTA    HL228884  -4.918  26.046  -8.786
  366XTA    HL328885  -4.744  26.034  -8.750
  366XTA    HL428886  -4.846  26.159  -8.675
  366XTA    HL528887  -3.814  26.471  -9.191
  366XTA    HL628888  -3.838  26.407  -9.040
  366XTA    HL728889  -4.002  26.294  -9.282
  366XTA    HL828890  -4.003  26.231  -9.118
  366XTA    HL928891  -3.764  26.165  -9.129
  366XTA   HL1028892  -3.722  26.262  -9.276
  366XTA   HL1128893  -3.888  26.118  -9.413
  366XTA   HL1228894  -3.743  26.027  -9.343
  366XTA   HL1328895  -4.036  26.021  -9.266
  366XTA   HL1428896  -3.917  25.978  -9.145
  366XTA   HL1528897  -4.044  25.815  -9.293
  366XTA   HL1628898  -3.916  25.838  -9.406
  366XTA   HL1728899  -3.845  25.551  -9.224
  366XTA   HL1828900  -3.804  25.626  -9.369
  366XTA   HL1928901  -3.485  25.495  -9.216
  366XTA   HL2028902  -3.572  25.508  -9.372
  366XTA   HL2128903  -3.589  25.308  -9.219
  366XTA   HL2228904  -3.747  25.372  -9.289
  366XTA   HL2328905  -3.705  25.397  -9.134
  366XTA   HL2428906  -4.540  27.109  -8.452
  366XTA   HL2528907  -4.384  27.106  -8.536
  366XTA    CO628908  -3.628  25.654  -9.066
  366XTA    CO728909  -3.572  25.766  -9.280
  366XTA    OA528910  -3.521  25.646  -9.026
  366XTA   HL2628911  -3.688  25.573  -9.017
  366XTA   HL2728912  -3.673  25.751  -9.044
  366XTA   HL2828913  -3.619  25.886  -9.228
  366XTA   HL2928914  -3.468  25.754  -9.262
  367XTA     NT28915  -3.555  27.172  -7.163
  367XTA    CN128916  -3.473  27.097  -7.092
  367XTA     C128917  -3.346  27.082  -7.136
  367XTA     C228918  -3.245  27.005  -7.079
  367XTA     C328919  -3.268  26.951  -6.953
  367XTA     C428920  -3.393  26.984  -6.891
  367XTA     C528921  -3.492  27.048  -6.961
  367XTA    CN228922  -3.652  27.123  -7.241
  367XTA     C628923  -3.632  27.108  -7.379
  367XTA     C728924  -3.728  27.042  -7.458
  367XTA     C828925  -3.848  27.007  -7.403
  367XTA     C928926  -3.866  27.020  -7.266
  367XTA    C1028927  -3.772  27.081  -7.184
  367XTA    CN328928  -3.571  27.305  -7.125
  367XTA    C1128929  -3.513  27.406  -7.193
  367XTA    C1228930  -3.522  27.537  -7.146
  367XTA    C1328931  -3.591  27.570  -7.027
  367XTA    C1428932  -3.650  27.466  -6.958
  367XTA    C1528933  -3.637  27.338  -7.005
  367XTA     H128934  -3.334  27.120  -7.235
  367XTA     H228935  -3.157  26.991  -7.142
  367XTA     H328936  -3.419  26.956  -6.790
  367XTA     H428937  -3.584  27.057  -6.907
  367XTA     H528938  -3.532  27.135  -7.418
  367XTA     H628939  -3.713  27.006  -7.553
  367XTA     H728940  -3.951  26.980  -7.215
  367XTA     H828941  -3.782  27.098  -7.077
  367XTA     H928942  -3.470  27.379  -7.283
  367XTA    H1028943  -3.490  27.614  -7.209
  367XTA    H1128944  -3.696  27.481  -6.861
  367XTA    H1228945  -3.685  27.261  -6.950
  367XTA    OA128946  -3.173  26.863  -6.905
  367XTA    CO128947  -3.220  26.763  -6.809
  367XTA    OA228948  -3.943  26.942  -7.476
  367XTA    CO228949  -4.022  27.022  -7.555
  367XTA    CL128950  -4.125  26.923  -7.615
  367XTA    CL228951  -4.200  27.000  -7.732
  367XTA    CL328952  -4.284  27.118  -7.693
  367XTA    CL428953  -4.392  27.149  -7.802
  367XTA    CO328954  -4.481  27.272  -7.775
  367XTA    OA328955  -4.405  27.384  -7.834
  367XTA    CO428956  -4.473  27.513  -7.820
  367XTA    CT128957  -4.411  27.611  -7.925
  367XTA    CL528958  -4.483  27.598  -8.055
  367XTA    CL628959  -4.441  27.484  -8.147
  367XTA    OA428960  -3.594  27.703  -6.992
  367XTA    CO528961  -3.689  27.743  -6.893
  367XTA    HL128962  -3.784  27.685  -6.904
  367XTA    HL228963  -3.292  26.699  -6.864
  367XTA    HL328964  -3.136  26.704  -6.771
  367XTA    HL428965  -3.257  26.798  -6.718
  367XTA    HL528966  -4.080  27.098  -7.496
  367XTA    HL628967  -3.967  27.074  -7.628
  367XTA    HL728968  -4.205  26.891  -7.546
  367XTA    HL828969  -4.077  26.837  -7.657
  367XTA    HL928970  -4.251  26.916  -7.770
  367XTA   HL1028971  -4.124  27.012  -7.813
  367XTA   HL1128972  -4.337  27.087  -7.606
  367XTA   HL1228973  -4.230  27.210  -7.660
  367XTA   HL1328974  -4.450  27.055  -7.811
  367XTA   HL1428975  -4.342  27.154  -7.894
  367XTA   HL1528976  -4.580  27.260  -7.821
  367XTA   HL1628977  -4.492  27.288  -7.663
  367XTA   HL1728978  -4.572  27.490  -7.843
  367XTA   HL1828979  -4.453  27.551  -7.720
  367XTA   HL1928980  -4.468  27.684  -8.107
  367XTA   HL2028981  -4.592  27.604  -8.044
  367XTA   HL2128982  -4.502  27.459  -8.232
  367XTA   HL2228983  -4.424  27.402  -8.071
  367XTA   HL2328984  -4.343  27.506  -8.189
  367XTA   HL2428985  -3.719  27.854  -6.892
  367XTA   HL2528986  -3.663  27.714  -6.792
  367XTA    CO628987  -4.261  27.585  -7.920
  367XTA    CO728988  -4.428  27.751  -7.875
  367XTA    OA528989  -4.557  27.806  -7.862
  367XTA   HL2628990  -4.234  27.556  -7.815
  367XTA   HL2728991  -4.241  27.494  -7.971
  367XTA   HL2828992  -4.370  27.815  -7.944
  367XTA   HL2928993  -4.380  27.760  -7.773
  368XTA     NT28994  -4.436  25.140  -9.036
  368XTA    CN128995  -4.351  25.215  -9.109
  368XTA     C128996  -4.389  25.344  -9.154
  368XTA     C228997  -4.297  25.427  -9.225
  368XTA     C328998  -4.171  25.373  -9.267
  368XTA     C428999  -4.129  25.250  -9.211
  368XTA     C529000  -4.219  25.169  -9.136
  368XTA    CN229001  -4.495  25.028  -9.086
  368XTA     C629002  -4.436  24.901  -9.070
  368XTA     C729003  -4.505  24.788  -9.119
  368XTA     C829004  -4.628  24.799  -9.177
  368XTA     C929005  -4.685  24.928  -9.192
  368XTA    C1029006  -4.618  25.042  -9.147
  368XTA    CN329007  -4.466  25.193  -8.918
  368XTA    C1129008  -4.598  25.230  -8.893
  368XTA    C1229009  -4.641  25.285  -8.771
  368XTA    C1329010  -4.544  25.304  -8.673
  368XTA    C1429011  -4.408  25.273  -8.697
  368XTA    C1529012  -4.369  25.217  -8.819
  368XTA     H129013  -4.492  25.376  -9.129
  368XTA     H229014  -4.340  25.522  -9.261
  368XTA     H329015  -4.031  25.215  -9.248
  368XTA     H429016  -4.196  25.064  -9.102
  368XTA     H529017  -4.347  24.882  -9.011
  368XTA     H629018  -4.465  24.692  -9.094
  368XTA     H729019  -4.765  24.934  -9.260
  368XTA     H829020  -4.668  25.133  -9.160
  368XTA     H929021  -4.662  25.202  -8.971
  368XTA    H1029022  -4.746  25.302  -8.752
  368XTA    H1129023  -4.338  25.284  -8.620
  368XTA    H1229024  -4.267  25.182  -8.839
  368XTA    OA129025  -4.090  25.432  -9.356
  368XTA    CO129026  -4.149  25.525  -9.447
  368XTA    OA229027  -4.702  24.685  -9.215
  368XTA    CO229028  -4.814  24.680  -9.138
  368XTA    CL129029  -4.784  24.589  -9.022
  368XTA    CL229030  -4.908  24.525  -8.956
  368XTA    CL329031  -4.868  24.490  -8.806
  368XTA    CL429032  -4.840  24.614  -8.716
  368XTA    CO329033  -4.828  24.574  -8.569
  368XTA    OA329034  -4.833  24.689  -8.498
  368XTA    CO429035  -4.793  24.660  -8.371
  368XTA    CT129036  -4.834  24.770  -8.269
  368XTA    CL529037  -4.777  24.730  -8.126
  368XTA    CL629038  -4.625  24.702  -8.110
  368XTA    OA429039  -4.572  25.349  -8.551
  368XTA    CO529040  -4.700  25.315  -8.496
  368XTA    HL129041  -4.690  25.326  -8.387
  368XTA    HL229042  -4.074  25.560  -9.515
  368XTA    HL329043  -4.234  25.501  -9.509
  368XTA    HL429044  -4.184  25.619  -9.403
  368XTA    HL529045  -4.844  24.776  -9.105
  368XTA    HL629046  -4.898  24.637  -9.195
  368XTA    HL729047  -4.735  24.655  -8.946
  368XTA    HL829048  -4.712  24.508  -9.056
  368XTA    HL929049  -4.938  24.425  -8.999
  368XTA   HL1029050  -4.990  24.592  -8.962
  368XTA   HL1129051  -4.953  24.439  -8.770
  368XTA   HL1229052  -4.786  24.412  -8.801
  368XTA   HL1329053  -4.933  24.676  -8.721
  368XTA   HL1429054  -4.763  24.677  -8.754
  368XTA   HL1529055  -4.908  24.498  -8.549
  368XTA   HL1629056  -4.733  24.517  -8.561
  368XTA   HL1729057  -4.852  24.579  -8.334
  368XTA   HL1829058  -4.697  24.631  -8.362
  368XTA   HL1929059  -4.836  24.637  -8.094
  368XTA   HL2029060  -4.805  24.818  -8.064
  368XTA   HL2129061  -4.592  24.622  -8.182
  368XTA   HL2229062  -4.605  24.674  -8.009
  368XTA   HL2329063  -4.573  24.795  -8.132
  368XTA   HL2429064  -4.717  25.213  -8.522
  368XTA   HL2529065  -4.786  25.370  -8.531
  368XTA    CO629066  -4.983  24.793  -8.256
  368XTA    CO729067  -4.776  24.916  -8.310
  368XTA    OA529068  -4.779  24.994  -8.198
  368XTA   HL2629069  -5.040  24.705  -8.214
  368XTA   HL2729070  -4.993  24.865  -8.172
  368XTA   HL2829071  -4.835  24.964  -8.386
  368XTA   HL2929072  -4.666  24.910  -8.329
  369XTA     NT29073  -6.439  28.885  -9.292
  369XTA    CN129074  -6.510  28.882  -9.176
  369XTA     C129075  -6.642  28.835  -9.178
  369XTA     C229076  -6.715  28.822  -9.060
  369XTA     C329077  -6.670  28.886  -8.943
  369XTA     C429078  -6.545  28.948  -8.945
  369XTA     C529079  -6.455  28.943  -9.055
  369XTA    CN229080  -6.314  28.834  -9.280
  369XTA     C629081  -6.299  28.695  -9.277
  369XTA     C729082  -6.180  28.628  -9.273
  369XTA     C829083  -6.065  28.705  -9.276
  369XTA     C929084  -6.069  28.848  -9.274
  369XTA    C1029085  -6.197  28.913  -9.263
  369XTA    CN329086  -6.472  28.961  -9.395
  369XTA    C1129087  -6.437  29.097  -9.394
  369XTA    C1229088  -6.463  29.177  -9.508
  369XTA    C1329089  -6.529  29.126  -9.630
  369XTA    C1429090  -6.552  28.990  -9.630
  369XTA    C1529091  -6.531  28.911  -9.515
  369XTA     H129092  -6.681  28.806  -9.274
  369XTA     H229093  -6.808  28.771  -9.069
  369XTA     H329094  -6.520  29.002  -8.854
  369XTA     H429095  -6.357  28.991  -9.069
  369XTA     H529096  -6.393  28.639  -9.281
  369XTA     H629097  -6.193  28.523  -9.260
  369XTA     H729098  -5.972  28.902  -9.279
  369XTA     H829099  -6.197  29.019  -9.253
  369XTA     H929100  -6.385  29.149  -9.309
  369XTA    H1029101  -6.456  29.283  -9.504
  369XTA    H1129102  -6.587  28.930  -9.717
  369XTA    H1229103  -6.554  28.807  -9.531
  369XTA    OA129104  -6.741  28.883  -8.826
  369XTA    CO129105  -6.746  28.749  -8.779
  369XTA    OA229106  -5.938  28.651  -9.283
  369XTA    CO229107  -5.924  28.507  -9.248
  369XTA    CL129108  -5.772  28.480  -9.288
  369XTA    CL229109  -5.671  28.589  -9.241
  369XTA    CL329110  -5.527  28.576  -9.306
  369XTA    CL429111  -5.448  28.700  -9.288
  369XTA    CO329112  -5.497  28.816  -9.369
  369XTA    OA329113  -5.405  28.923  -9.334
  369XTA    CO429114  -5.413  29.033  -9.425
  369XTA    CT129115  -5.338  29.151  -9.375
  369XTA    CL529116  -5.333  29.267  -9.473
  369XTA    CL629117  -5.466  29.294  -9.540
  369XTA    OA429118  -6.558  29.221  -9.731
  369XTA    CO529119  -6.656  29.180  -9.829
  369XTA    HL129120  -6.671  29.267  -9.893
  369XTA    HL229121  -6.809  28.746  -8.692
  369XTA    HL329122  -6.792  28.692  -8.867
  369XTA    HL429123  -6.648  28.710  -8.755
  369XTA    HL529124  -5.948  28.512  -9.142
  369XTA    HL629125  -5.989  28.437  -9.297
  369XTA    HL729126  -5.759  28.482  -9.387
  369XTA    HL829127  -5.732  28.383  -9.264
  369XTA    HL929128  -5.667  28.592  -9.135
  369XTA   HL1029129  -5.712  28.692  -9.265
  369XTA   HL1129130  -5.466  28.495  -9.265
  369XTA   HL1229131  -5.535  28.558  -9.413
  369XTA   HL1329132  -5.349  28.679  -9.316
  369XTA   HL1429133  -5.431  28.723  -9.182
  369XTA   HL1529134  -5.487  28.794  -9.475
  369XTA   HL1629135  -5.607  28.823  -9.341
  369XTA   HL1729136  -5.367  28.997  -9.517
  369XTA   HL1829137  -5.513  29.070  -9.441
  369XTA   HL1929138  -5.263  29.240  -9.554
  369XTA   HL2029139  -5.300  29.364  -9.437
  369XTA   HL2129140  -5.507  29.216  -9.603
  369XTA   HL2229141  -5.458  29.385  -9.598
  369XTA   HL2329142  -5.538  29.317  -9.462
  369XTA   HL2429143  -6.742  29.165  -9.771
  369XTA   HL2529144  -6.627  29.092  -9.884
  369XTA    CO629145  -5.193  29.113  -9.345
  369XTA    CO729146  -5.407  29.195  -9.240
  369XTA    OA529147  -5.363  29.287  -9.197
  369XTA   HL2629148  -5.181  29.053  -9.259
  369XTA   HL2729149  -5.118  29.232  -9.295
  369XTA   HL2829150  -5.385  29.108  -9.180
  369XTA   HL2929151  -5.518  29.190  -9.238
  370XTA     NT29152  -3.726  26.696  -9.596
  370XTA    CN129153  -3.856  26.710  -9.565
  370XTA     C129154  -3.948  26.747  -9.667
  370XTA     C229155  -4.085  26.762  -9.636
  370XTA     C329156  -4.126  26.748  -9.501
  370XTA     C429157  -4.037  26.713  -9.401
  370XTA     C529158  -3.904  26.687  -9.436
  370XTA    CN229159  -3.689  26.590  -9.663
  370XTA     C629160  -3.631  26.603  -9.786
  370XTA     C729161  -3.553  26.502  -9.845
  370XTA     C829162  -3.535  26.380  -9.778
  370XTA     C929163  -3.600  26.355  -9.652
  370XTA    C1029164  -3.682  26.461  -9.599
  370XTA    CN329165  -3.633  26.781  -9.542
  370XTA    C1129166  -3.612  26.915  -9.595
  370XTA    C1229167  -3.494  26.990  -9.563
  370XTA    C1329168  -3.406  26.939  -9.468
  370XTA    C1429169  -3.433  26.808  -9.406
  370XTA    C1529170  -3.546  26.730  -9.445
  370XTA     H129171  -3.907  26.756  -9.767
  370XTA     H229172  -4.152  26.791  -9.718
  370XTA     H329173  -4.068  26.699  -9.303
  370XTA     H429174  -3.832  26.643  -9.362
  370XTA     H529175  -3.639  26.697  -9.837
  370XTA     H629176  -3.503  26.531  -9.932
  370XTA     H729177  -3.587  26.259  -9.603
  370XTA     H829178  -3.728  26.450  -9.493
  370XTA     H929179  -3.666  26.949  -9.682
  370XTA    H1029180  -3.471  27.086  -9.609
  370XTA    H1129181  -3.359  26.764  -9.341
  370XTA    H1229182  -3.554  26.626  -9.398
  370XTA    OA129183  -4.259  26.771  -9.471
  370XTA    CO129184  -4.357  26.754  -9.575
  370XTA    OA229185  -3.449  26.290  -9.825
  370XTA    CO229186  -3.438  26.281  -9.971
  370XTA    CL129187  -3.371  26.147 -10.013
  370XTA    CL229188  -3.420  26.096 -10.150
  370XTA    CL329189  -3.546  26.005 -10.127
  370XTA    CL429190  -3.515  25.861 -10.082
  370XTA    CO329191  -3.643  25.780 -10.094
  370XTA    OA329192  -3.690  25.802 -10.223
  370XTA    CO429193  -3.770  25.705 -10.281
  370XTA    CT129194  -3.791  25.728 -10.421
  370XTA    CL529195  -3.657  25.737 -10.503
  370XTA    CL629196  -3.561  25.854 -10.482
  370XTA    OA429197  -3.290  27.007  -9.431
  370XTA    CO529198  -3.222  27.084  -9.532
  370XTA    HL129199  -3.129  27.114  -9.483
  370XTA    HL229200  -4.367  26.652  -9.598
  370XTA    HL329201  -4.453  26.790  -9.532
  370XTA    HL429202  -4.342  26.818  -9.667
  370XTA    HL529203  -3.541  26.287 -10.013
  370XTA    HL629204  -3.392  26.371 -10.005
  370XTA    HL729205  -3.397  26.068  -9.940
  370XTA    HL829206  -3.267  26.169 -10.006
  370XTA    HL929207  -3.340  26.044 -10.206
  370XTA   HL1029208  -3.440  26.183 -10.218
  370XTA   HL1129209  -3.619  26.053 -10.063
  370XTA   HL1229210  -3.590  25.997 -10.230
  370XTA   HL1329211  -3.480  25.867  -9.982
  370XTA   HL1429212  -3.444  25.807 -10.139
  370XTA   HL1529213  -3.632  25.673 -10.078
  370XTA   HL1629214  -3.710  25.818 -10.025
  370XTA   HL1729215  -3.733  25.604 -10.270
  370XTA   HL1829216  -3.870  25.707 -10.235
  370XTA   HL1929217  -3.674  25.725 -10.611
  370XTA   HL2029218  -3.591  25.645 -10.493
  370XTA   HL2129219  -3.517  25.846 -10.379
  370XTA   HL2229220  -3.605  25.946 -10.495
  370XTA   HL2329221  -3.475  25.837 -10.546
  370XTA   HL2429222  -3.280  27.167  -9.574
  370XTA   HL2529223  -3.203  27.011  -9.605
  370XTA    CO629224  -3.880  25.852 -10.437
  370XTA    CO729225  -3.882  25.607 -10.472
  370XTA    OA529226  -3.817  25.486 -10.445
  370XTA   HL2629227  -3.993  25.828 -10.420
  370XTA   HL2729228  -3.846  25.938 -10.379
  370XTA   HL2829229  -3.897  25.625 -10.577
  370XTA   HL2929230  -3.979  25.611 -10.420
  371XTA     NT29231  -3.429  26.347  -6.817
  371XTA    CN129232  -3.422  26.261  -6.714
  371XTA     C129233  -3.496  26.143  -6.720
  371XTA     C229234  -3.504  26.055  -6.610
  371XTA     C329235  -3.432  26.086  -6.494
  371XTA     C429236  -3.353  26.202  -6.491
  371XTA     C529237  -3.346  26.291  -6.598
  371XTA    CN229238  -3.334  26.348  -6.913
  371XTA     C629239  -3.217  26.427  -6.888
  371XTA     C729240  -3.120  26.433  -6.988
  371XTA     C829241  -3.139  26.379  -7.113
  371XTA     C929242  -3.260  26.307  -7.146
  371XTA    C1029243  -3.354  26.288  -7.042
  371XTA    CN329244  -3.522  26.435  -6.829
  371XTA    C1129245  -3.503  26.555  -6.761
  371XTA    C1229246  -3.593  26.664  -6.787
  371XTA    C1329247  -3.701  26.644  -6.871
  371XTA    C1429248  -3.721  26.517  -6.928
  371XTA    C1529249  -3.633  26.407  -6.910
  371XTA     H129250  -3.557  26.130  -6.800
  371XTA     H229251  -3.567  25.967  -6.607
  371XTA     H329252  -3.302  26.228  -6.406
  371XTA     H429253  -3.283  26.377  -6.586
  371XTA     H529254  -3.196  26.477  -6.793
  371XTA     H629255  -3.026  26.477  -6.962
  371XTA     H729256  -3.269  26.262  -7.244
  371XTA     H829257  -3.442  26.234  -7.068
  371XTA     H929258  -3.418  26.559  -6.700
  371XTA    H1029259  -3.571  26.761  -6.752
  371XTA    H1129260  -3.804  26.497  -6.993
  371XTA    H1229261  -3.660  26.309  -6.948
  371XTA    OA129262  -3.445  26.001  -6.389
  371XTA    CO129263  -3.343  26.002  -6.297
  371XTA    OA229264  -3.031  26.389  -7.196
  371XTA    CO229265  -3.039  26.342  -7.329
  371XTA    CL129266  -2.895  26.345  -7.383
  371XTA    CL229267  -2.807  26.479  -7.370
  371XTA    CL329268  -2.683  26.451  -7.275
  371XTA    CL429269  -2.730  26.434  -7.131
  371XTA    CO329270  -2.617  26.417  -7.034
  371XTA    OA329271  -2.654  26.423  -6.899
  371XTA    CO429272  -2.739  26.320  -6.860
  371XTA    CT129273  -2.688  26.259  -6.722
  371XTA    CL529274  -2.542  26.204  -6.728
  371XTA    CL629275  -2.481  26.138  -6.608
  371XTA    OA429276  -3.785  26.751  -6.897
  371XTA    CO529277  -3.852  26.748  -7.021
  371XTA    HL129278  -3.897  26.841  -7.054
  371XTA    HL229279  -3.330  26.095  -6.241
  371XTA    HL329280  -3.359  25.918  -6.225
  371XTA    HL429281  -3.247  25.974  -6.351
  371XTA    HL529282  -3.082  26.246  -7.322
  371XTA    HL629283  -3.098  26.422  -7.378
  371XTA    HL729284  -2.903  26.315  -7.491
  371XTA    HL829285  -2.846  26.257  -7.343
  371XTA    HL929286  -2.871  26.551  -7.324
  371XTA   HL1029287  -2.773  26.518  -7.468
  371XTA   HL1129288  -2.622  26.365  -7.297
  371XTA   HL1229289  -2.611  26.530  -7.296
  371XTA   HL1329290  -2.797  26.345  -7.136
  371XTA   HL1429291  -2.788  26.520  -7.103
  371XTA   HL1529292  -2.564  26.324  -7.054
  371XTA   HL1629293  -2.547  26.500  -7.051
  371XTA   HL1729294  -2.842  26.357  -6.874
  371XTA   HL1829295  -2.730  26.237  -6.936
  371XTA   HL1929296  -2.466  26.266  -6.769
  371XTA   HL2029297  -2.550  26.124  -6.806
  371XTA   HL2129298  -2.540  26.048  -6.585
  371XTA   HL2229299  -2.480  26.200  -6.516
  371XTA   HL2329300  -2.377  26.112  -6.628
  371XTA   HL2429301  -3.933  26.671  -7.017
  371XTA   HL2529302  -3.797  26.714  -7.108
  371XTA    CO629303  -2.792  26.169  -6.677
  371XTA    CO729304  -2.720  26.340  -6.595
  371XTA    OA529305  -2.792  26.203  -6.570
  371XTA   HL2629306  -2.774  26.065  -6.687
  371XTA   HL2729307  -2.887  26.186  -6.733
  371XTA   HL2829308  -2.796  26.457  -6.618
  371XTA   HL2929309  -2.645  26.359  -6.522
  372XTA     NT29310  -3.098  29.717  -8.305
  372XTA    CN129311  -3.196  29.693  -8.394
  372XTA     C129312  -3.304  29.788  -8.406
  372XTA     C229313  -3.407  29.764  -8.493
  372XTA     C329314  -3.403  29.649  -8.574
  372XTA     C429315  -3.297  29.556  -8.558
  372XTA     C529316  -3.192  29.582  -8.470
  372XTA    CN229317  -3.119  29.707  -8.168
  372XTA     C629318  -3.182  29.807  -8.094
  372XTA     C729319  -3.212  29.785  -7.950
  372XTA     C829320  -3.178  29.657  -7.895
  372XTA     C929321  -3.108  29.567  -7.975
  372XTA    C1029322  -3.083  29.587  -8.108
  372XTA    CN329323  -2.983  29.762  -8.354
  372XTA    C1129324  -2.862  29.692  -8.331
  372XTA    C1229325  -2.739  29.746  -8.380
  372XTA    C1329326  -2.739  29.870  -8.446
  372XTA    C1429327  -2.858  29.935  -8.470
  372XTA    C1529328  -2.983  29.886  -8.427
  372XTA     H129329  -3.316  29.885  -8.351
  372XTA     H229330  -3.492  29.831  -8.510
  372XTA     H329331  -3.300  29.472  -8.625
  372XTA     H429332  -3.125  29.497  -8.454
  372XTA     H529333  -3.197  29.901  -8.138
  372XTA     H629334  -3.265  29.848  -7.890
  372XTA     H729335  -3.087  29.479  -7.926
  372XTA     H829336  -3.024  29.514  -8.161
  372XTA     H929337  -2.873  29.601  -8.272
  372XTA    H1029338  -2.650  29.687  -8.377
  372XTA    H1129339  -2.864  30.034  -8.516
  372XTA    H1229340  -3.077  29.942  -8.427
  372XTA    OA129341  -3.487  29.615  -8.671
  372XTA    CO129342  -3.593  29.703  -8.684
  372XTA    OA229343  -3.209  29.621  -7.765
  372XTA    CO229344  -3.252  29.724  -7.679
  372XTA    CL129345  -3.259  29.689  -7.534
  372XTA    CL229346  -3.394  29.626  -7.488
  372XTA    CL329347  -3.495  29.741  -7.482
  372XTA    CL429348  -3.634  29.681  -7.522
  372XTA    CO329349  -3.661  29.675  -7.680
  372XTA    OA329350  -3.642  29.792  -7.749
  372XTA    CO429351  -3.644  29.784  -7.886
  372XTA    CT129352  -3.703  29.917  -7.943
  372XTA    CL529353  -3.752  29.894  -8.091
  372XTA    CL629354  -3.653  29.840  -8.187
  372XTA    OA429355  -2.620  29.923  -8.493
  372XTA    CO529356  -2.501  29.857  -8.455
  372XTA    HL129357  -2.487  29.853  -8.343
  372XTA    HL229358  -3.654  29.653  -8.752
  372XTA    HL329359  -3.654  29.713  -8.591
  372XTA    HL429360  -3.568  29.805  -8.718
  372XTA    HL529361  -3.200  29.820  -7.696
  372XTA    HL629362  -3.355  29.742  -7.709
  372XTA    HL729363  -3.217  29.768  -7.469
  372XTA    HL829364  -3.190  29.605  -7.519
  372XTA    HL929365  -3.379  29.585  -7.391
  372XTA   HL1029366  -3.428  29.533  -7.545
  372XTA   HL1129367  -3.508  29.766  -7.375
  372XTA   HL1229368  -3.457  29.834  -7.517
  372XTA   HL1329369  -3.711  29.743  -7.481
  372XTA   HL1429370  -3.637  29.589  -7.465
  372XTA   HL1529371  -3.587  29.600  -7.723
  372XTA   HL1629372  -3.759  29.638  -7.700
  372XTA   HL1729373  -3.544  29.768  -7.919
  372XTA   HL1829374  -3.710  29.701  -7.923
  372XTA   HL1929375  -3.799  29.989  -8.125
  372XTA   HL2029376  -3.842  29.834  -8.082
  372XTA   HL2129377  -3.703  29.806  -8.279
  372XTA   HL2229378  -3.602  29.749  -8.153
  372XTA   HL2329379  -3.579  29.915  -8.215
  372XTA   HL2429380  -2.414  29.909  -8.496
  372XTA   HL2529381  -2.477  29.766  -8.502
  372XTA    CO629382  -3.580  30.018  -7.939
  372XTA    CO729383  -3.808  29.981  -7.856
  372XTA    OA529384  -3.916  29.962  -7.884
  372XTA   HL2629385  -3.620  30.101  -7.991
  372XTA   HL2729386  -3.466  29.969  -8.010
  372XTA   HL2829387  -3.776  30.083  -7.848
  372XTA   HL2929388  -3.800  29.961  -7.745
  373XTA     NT29389  -0.982  25.178 -12.055
  373XTA    CN129390  -0.914  25.071 -12.023
  373XTA     C129391  -0.866  24.984 -12.125
  373XTA     C229392  -0.780  24.883 -12.088
  373XTA     C329393  -0.739  24.866 -11.952
  373XTA     C429394  -0.803  24.944 -11.853
  373XTA     C529395  -0.888  25.052 -11.889
  373XTA    CN229396  -1.119  25.171 -12.052
  373XTA     C629397  -1.191  25.127 -12.168
  373XTA     C729398  -1.327  25.107 -12.154
  373XTA     C829399  -1.394  25.146 -12.028
  373XTA     C929400  -1.319  25.206 -11.916
  373XTA    C1029401  -1.182  25.220 -11.933
  373XTA    CN329402  -0.928  25.285 -12.110
  373XTA    C1129403  -0.906  25.284 -12.244
  373XTA    C1229404  -0.833  25.392 -12.301
  373XTA    C1329405  -0.793  25.506 -12.228
  373XTA    C1429406  -0.822  25.506 -12.090
  373XTA    C1529407  -0.883  25.391 -12.034
  373XTA     H129408  -0.892  24.997 -12.223
  373XTA     H229409  -0.749  24.820 -12.171
  373XTA     H329410  -0.789  24.931 -11.745
  373XTA     H429411  -0.942  25.122 -11.819
  373XTA     H529412  -1.140  25.089 -12.258
  373XTA     H629413  -1.390  25.060 -12.228
  373XTA     H729414  -1.368  25.249 -11.822
  373XTA     H829415  -1.123  25.256 -11.856
  373XTA     H929416  -0.940  25.188 -12.295
  373XTA    H1029417  -0.812  25.409 -12.405
  373XTA    H1129418  -0.798  25.588 -12.027
  373XTA    H1229419  -0.908  25.394 -11.926
  373XTA    OA129420  -0.644  24.772 -11.923
  373XTA    CO129421  -0.527  24.791 -11.995
  373XTA    OA229422  -1.530  25.128 -12.030
  373XTA    CO229423  -1.599  25.133 -11.905
  373XTA    CL129424  -1.584  25.006 -11.821
  373XTA    CL229425  -1.649  25.005 -11.683
  373XTA    CL329426  -1.663  24.868 -11.612
  373XTA    CL429427  -1.522  24.806 -11.602
  373XTA    CO329428  -1.507  24.693 -11.504
  373XTA    OA329429  -1.552  24.575 -11.562
  373XTA    CO429430  -1.546  24.475 -11.468
  373XTA    CT129431  -1.642  24.356 -11.518
  373XTA    CL529432  -1.660  24.260 -11.395
  373XTA    CL629433  -1.533  24.200 -11.333
  373XTA    OA429434  -0.728  25.611 -12.288
  373XTA    CO529435  -0.688  25.719 -12.203
  373XTA    HL129436  -0.777  25.757 -12.157
  373XTA    HL229437  -0.495  24.893 -11.991
  373XTA    HL329438  -0.452  24.724 -11.960
  373XTA    HL429439  -0.528  24.776 -12.101
  373XTA    HL529440  -1.561  25.213 -11.850
  373XTA    HL629441  -1.701  25.151 -11.932
  373XTA    HL729442  -1.482  24.982 -11.812
  373XTA    HL829443  -1.625  24.927 -11.876
  373XTA    HL929444  -1.749  25.043 -11.690
  373XTA   HL1029445  -1.592  25.065 -11.612
  373XTA   HL1129446  -1.701  24.880 -11.510
  373XTA   HL1229447  -1.739  24.800 -11.655
  373XTA   HL1329448  -1.439  24.867 -11.581
  373XTA   HL1429449  -1.508  24.769 -11.698
  373XTA   HL1529450  -1.401  24.668 -11.492
  373XTA   HL1629451  -1.558  24.713 -11.407
  373XTA   HL1729452  -1.447  24.443 -11.460
  373XTA   HL1829453  -1.582  24.514 -11.372
  373XTA   HL1929454  -1.727  24.169 -11.417
  373XTA   HL2029455  -1.719  24.314 -11.321
  373XTA   HL2129456  -1.468  24.175 -11.412
  373XTA   HL2229457  -1.552  24.120 -11.265
  373XTA   HL2329458  -1.488  24.281 -11.276
  373XTA   HL2429459  -0.647  25.790 -12.270
  373XTA   HL2529460  -0.605  25.698 -12.139
  373XTA    CO629461  -1.580  24.272 -11.639
  373XTA    CO729462  -1.785  24.402 -11.562
  373XTA    OA529463  -1.810  24.498 -11.466
  373XTA   HL2629464  -1.487  24.227 -11.620
  373XTA   HL2729465  -1.634  24.178 -11.650
  373XTA   HL2829466  -1.862  24.324 -11.551
  373XTA   HL2929467  -1.782  24.446 -11.660
  374XTA     NT29468  -5.174  27.357  -8.292
  374XTA    CN129469  -5.050  27.309  -8.270
  374XTA     C129470  -4.947  27.379  -8.205
  374XTA     C229471  -4.826  27.318  -8.187
  374XTA     C329472  -4.805  27.188  -8.227
  374XTA     C429473  -4.906  27.115  -8.284
  374XTA     C529474  -5.033  27.172  -8.314
  374XTA    CN229475  -5.277  27.299  -8.224
  374XTA     C629476  -5.380  27.232  -8.293
  374XTA     C729477  -5.491  27.177  -8.221
  374XTA     C829478  -5.491  27.180  -8.079
  374XTA     C929479  -5.385  27.241  -8.007
  374XTA    C1029480  -5.284  27.309  -8.081
  374XTA    CN329481  -5.205  27.447  -8.384
  374XTA    C1129482  -5.238  27.569  -8.336
  374XTA    C1229483  -5.295  27.664  -8.424
  374XTA    C1329484  -5.291  27.635  -8.557
  374XTA    C1429485  -5.246  27.512  -8.603
  374XTA    C1529486  -5.197  27.412  -8.517
  374XTA     H129487  -4.965  27.482  -8.187
  374XTA     H229488  -4.744  27.370  -8.137
  374XTA     H329489  -4.879  27.014  -8.319
  374XTA     H429490  -5.125  27.123  -8.355
  374XTA     H529491  -5.374  27.233  -8.405
  374XTA     H629492  -5.577  27.135  -8.276
  374XTA     H729493  -5.383  27.243  -7.903
  374XTA     H829494  -5.204  27.364  -8.027
  374XTA     H929495  -5.232  27.582  -8.232
  374XTA    H1029496  -5.336  27.751  -8.380
  374XTA    H1129497  -5.248  27.502  -8.712
  374XTA    H1229498  -5.165  27.315  -8.547
  374XTA    OA129499  -4.693  27.118  -8.192
  374XTA    CO129500  -4.637  27.133  -8.062
  374XTA    OA229501  -5.589  27.110  -8.019
  374XTA    CO229502  -5.579  27.104  -7.873
  374XTA    CL129503  -5.687  27.016  -7.810
  374XTA    CL229504  -5.705  26.873  -7.875
  374XTA    CL329505  -5.573  26.794  -7.889
  374XTA    CL429506  -5.576  26.661  -7.963
  374XTA    CO329507  -5.620  26.680  -8.107
  374XTA    OA329508  -5.592  26.568  -8.184
  374XTA    CO429509  -5.647  26.575  -8.318
  374XTA    CT129510  -5.676  26.431  -8.370
  374XTA    CL529511  -5.822  26.392  -8.325
  374XTA    CL629512  -5.864  26.256  -8.374
  374XTA    OA429513  -5.336  27.720  -8.653
  374XTA    CO529514  -5.387  27.852  -8.620
  374XTA    HL129515  -5.296  27.905  -8.578
  374XTA    HL229516  -4.554  27.067  -8.063
  374XTA    HL329517  -4.598  27.231  -8.041
  374XTA    HL429518  -4.697  27.112  -7.982
  374XTA    HL529519  -5.487  27.064  -7.837
  374XTA    HL629520  -5.585  27.207  -7.835
  374XTA    HL729521  -5.784  27.058  -7.819
  374XTA    HL829522  -5.665  27.011  -7.704
  374XTA    HL929523  -5.763  26.888  -7.964
  374XTA   HL1029524  -5.764  26.817  -7.803
  374XTA   HL1129525  -5.497  26.861  -7.928
  374XTA   HL1229526  -5.536  26.775  -7.791
  374XTA   HL1329527  -5.651  26.605  -7.910
  374XTA   HL1429528  -5.476  26.616  -7.963
  374XTA   HL1529529  -5.729  26.703  -8.120
  374XTA   HL1629530  -5.567  26.766  -8.144
  374XTA   HL1729531  -5.735  26.647  -8.322
  374XTA   HL1829532  -5.562  26.628  -8.376
  374XTA   HL1929533  -5.894  26.465  -8.365
  374XTA   HL2029534  -5.831  26.407  -8.214
  374XTA   HL2129535  -5.878  26.263  -8.479
  374XTA   HL2229536  -5.960  26.223  -8.341
  374XTA   HL2329537  -5.784  26.187  -8.355
  374XTA   HL2429538  -5.460  27.860  -8.542
  374XTA   HL2529539  -5.428  27.900  -8.709
  374XTA    CO629540  -5.574  26.334  -8.313
  374XTA    CO729541  -5.658  26.422  -8.526
  374XTA    OA529542  -5.760  26.508  -8.590
  374XTA   HL2629543  -5.593  26.247  -8.367
  374XTA   HL2729544  -5.587  26.317  -8.209
  374XTA   HL2829545  -5.664  26.324  -8.579
  374XTA   HL2929546  -5.558  26.442  -8.568
  375XTA     NT29547  -3.227  30.134  -9.262
  375XTA    CN129548  -3.155  30.019  -9.264
  375XTA     C129549  -3.108  29.956  -9.146
  375XTA     C229550  -3.027  29.840  -9.155
  375XTA     C329551  -2.995  29.791  -9.282
  375XTA     C429552  -3.039  29.855  -9.400
  375XTA     C529553  -3.116  29.967  -9.391
  375XTA    CN229554  -3.166  30.254  -9.290
  375XTA     C629555  -3.084  30.326  -9.199
  375XTA     C729556  -3.019  30.442  -9.238
  375XTA     C829557  -3.046  30.498  -9.363
  375XTA     C929558  -3.131  30.431  -9.452
  375XTA    C1029559  -3.199  30.311  -9.412
  375XTA    CN329560  -3.358  30.131  -9.230
  375XTA    C1129561  -3.400  30.129  -9.102
  375XTA    C1229562  -3.541  30.129  -9.063
  375XTA    C1329563  -3.640  30.130  -9.166
  375XTA    C1429564  -3.592  30.134  -9.302
  375XTA    C1529565  -3.454  30.139  -9.331
  375XTA     H129566  -3.133  30.002  -9.059
  375XTA     H229567  -2.990  29.790  -9.065
  375XTA     H329568  -3.030  29.796  -9.493
  375XTA     H429569  -3.148  30.019  -9.477
  375XTA     H529570  -3.066  30.290  -9.103
  375XTA     H629571  -2.947  30.486  -9.165
  375XTA     H729572  -3.164  30.486  -9.535
  375XTA     H829573  -3.272  30.261  -9.478
  375XTA     H929574  -3.325  30.135  -9.026
  375XTA    H1029575  -3.569  30.113  -8.960
  375XTA    H1129576  -3.662  30.139  -9.383
  375XTA    H1229577  -3.419  30.156  -9.436
  375XTA    OA129578  -2.926  29.670  -9.288
  375XTA    CO129579  -2.790  29.680  -9.337
  375XTA    OA229580  -2.982  30.602  -9.421
  375XTA    CO229581  -2.879  30.662  -9.345
  375XTA    CL129582  -2.840  30.797  -9.418
  375XTA    CL229583  -2.708  30.860  -9.362
  375XTA    CL329584  -2.665  30.995  -9.434
  375XTA    CL429585  -2.777  31.102  -9.443
  375XTA    CO329586  -2.805  31.185  -9.314
  375XTA    OA329587  -2.905  31.130  -9.232
  375XTA    CO429588  -3.030  31.120  -9.298
  375XTA    CT129589  -3.144  31.096  -9.200
  375XTA    CL529590  -3.276  31.070  -9.277
  375XTA    CL629591  -3.268  30.954  -9.389
  375XTA    OA429592  -3.777  30.124  -9.148
  375XTA    CO529593  -3.820  30.105  -9.008
  375XTA    HL129594  -3.777  30.184  -8.942
  375XTA    HL229595  -2.754  29.580  -9.365
  375XTA    HL329596  -2.770  29.763  -9.401
  375XTA    HL429597  -2.728  29.705  -9.251
  375XTA    HL529598  -2.912  30.690  -9.250
  375XTA    HL629599  -2.788  30.602  -9.341
  375XTA    HL729600  -2.925  30.859  -9.424
  375XTA    HL829601  -2.814  30.779  -9.520
  375XTA    HL929602  -2.627  30.785  -9.362
  375XTA   HL1029603  -2.717  30.890  -9.256
  375XTA   HL1129604  -2.582  31.023  -9.375
  375XTA   HL1229605  -2.631  30.966  -9.530
  375XTA   HL1329606  -2.870  31.064  -9.490
  375XTA   HL1429607  -2.744  31.175  -9.519
  375XTA   HL1529608  -2.708  31.180  -9.264
  375XTA   HL1629609  -2.829  31.290  -9.329
  375XTA   HL1729610  -3.051  31.201  -9.364
  375XTA   HL1829611  -3.029  31.039  -9.374
  375XTA   HL1929612  -3.307  31.164  -9.328
  375XTA   HL2029613  -3.352  31.045  -9.205
  375XTA   HL2129614  -3.363  30.939  -9.432
  375XTA   HL2229615  -3.245  30.856  -9.345
  375XTA   HL2329616  -3.199  30.967  -9.477
  375XTA   HL2429617  -3.792  30.003  -8.985
  375XTA   HL2529618  -3.926  30.106  -8.998
  375XTA    CO629619  -3.161  31.218  -9.104
  375XTA    CO729620  -3.111  30.971  -9.115
  375XTA    OA529621  -3.198  30.925  -9.066
  375XTA   HL2629622  -3.249  31.208  -9.048
  375XTA   HL2729623  -3.045  31.239  -9.019
  375XTA   HL2829624  -3.035  30.990  -9.036
  375XTA   HL2929625  -3.060  30.889  -9.163
  376XTA     NT29626  -5.999  32.712 -10.823
  376XTA    CN129627  -6.079  32.811 -10.765
  376XTA     C129628  -6.042  32.871 -10.649
  376XTA     C229629  -6.117  32.974 -10.590
  376XTA     C329630  -6.237  33.013 -10.649
  376XTA     C429631  -6.277  32.956 -10.772
  376XTA     C529632  -6.202  32.853 -10.826
  376XTA    CN229633  -6.050  32.598 -10.865
  376XTA     C629634  -6.054  32.562 -10.999
  376XTA     C729635  -6.114  32.436 -11.032
  376XTA     C829636  -6.177  32.352 -10.935
  376XTA     C929637  -6.171  32.392 -10.795
  376XTA    C1029638  -6.101  32.511 -10.768
  376XTA    CN329639  -5.872  32.741 -10.863
  376XTA    C1129640  -5.766  32.691 -10.783
  376XTA    C1229641  -5.631  32.728 -10.815
  376XTA    C1329642  -5.607  32.817 -10.920
  376XTA    C1429643  -5.717  32.877 -10.991
  376XTA    C1529644  -5.850  32.838 -10.965
  376XTA     H129645  -5.958  32.835 -10.592
  376XTA     H229646  -6.086  33.007 -10.493
  376XTA     H329647  -6.379  32.969 -10.813
  376XTA     H429648  -6.234  32.808 -10.918
  376XTA     H529649  -6.022  32.626 -11.081
  376XTA     H629650  -6.113  32.397 -11.129
  376XTA     H729651  -6.215  32.339 -10.716
  376XTA     H829652  -6.090  32.537 -10.665
  376XTA     H929653  -5.786  32.612 -10.704
  376XTA    H1029654  -5.554  32.698 -10.754
  376XTA    H1129655  -5.694  32.952 -11.071
  376XTA    H1229656  -5.928  32.887 -11.019
  376XTA    OA129657  -6.318  33.105 -10.579
  376XTA    CO129658  -6.434  33.148 -10.649
  376XTA    OA229659  -6.240  32.242 -10.977
  376XTA    CO229660  -6.232  32.126 -10.894
  376XTA    CL129661  -6.128  32.028 -10.947
  376XTA    CL229662  -5.985  32.081 -10.981
  376XTA    CL329663  -5.898  31.970 -11.038
  376XTA    CL429664  -5.876  31.861 -10.929
  376XTA    CO329665  -5.817  31.897 -10.790
  376XTA    OA329666  -5.777  31.785 -10.720
  376XTA    CO429667  -5.772  31.815 -10.583
  376XTA    CT129668  -5.698  31.716 -10.500
  376XTA    CL529669  -5.551  31.715 -10.553
  376XTA    CL629670  -5.465  31.614 -10.486
  376XTA    OA429671  -5.478  32.860 -10.939
  376XTA    CO529672  -5.456  32.932 -11.055
  376XTA    HL129673  -5.487  32.870 -11.137
  376XTA    HL229674  -6.409  33.191 -10.748
  376XTA    HL329675  -6.507  33.070 -10.665
  376XTA    HL429676  -6.490  33.216 -10.575
  376XTA    HL529677  -6.221  32.154 -10.791
  376XTA    HL629678  -6.312  32.062 -10.909
  376XTA    HL729679  -6.169  31.974 -11.032
  376XTA    HL829680  -6.106  31.949 -10.877
  376XTA    HL929681  -5.934  32.131 -10.902
  376XTA   HL1029682  -6.000  32.156 -11.064
  376XTA   HL1129683  -5.948  31.938 -11.132
  376XTA   HL1229684  -5.803  32.009 -11.069
  376XTA   HL1329685  -5.815  31.781 -10.971
  376XTA   HL1429686  -5.977  31.825 -10.899
  376XTA   HL1529687  -5.740  31.973 -10.797
  376XTA   HL1629688  -5.909  31.942 -10.742
  376XTA   HL1729689  -5.721  31.916 -10.568
  376XTA   HL1829690  -5.880  31.833 -10.550
  376XTA   HL1929691  -5.509  31.807 -10.524
  376XTA   HL2029692  -5.554  31.713 -10.665
  376XTA   HL2129693  -5.361  31.627 -10.507
  376XTA   HL2229694  -5.486  31.516 -10.530
  376XTA   HL2329695  -5.478  31.605 -10.381
  376XTA   HL2429696  -5.350  32.952 -11.074
  376XTA   HL2529697  -5.514  33.023 -11.065
  376XTA    CO629698  -5.761  31.575 -10.533
  376XTA    CO729699  -5.717  31.757 -10.352
  376XTA    OA529700  -5.694  31.452 -10.498
  376XTA   HL2629701  -5.787  31.564 -10.637
  376XTA   HL2729702  -5.860  31.577 -10.484
  376XTA   HL2829703  -5.633  31.820 -10.346
  376XTA   HL2929704  -5.698  31.669 -10.292
  377XTA     NT29705  -3.516  27.474  -4.414
  377XTA    CN129706  -3.520  27.344  -4.373
  377XTA     C129707  -3.506  27.316  -4.235
  377XTA     C229708  -3.544  27.185  -4.186
  377XTA     C329709  -3.610  27.092  -4.268
  377XTA     C429710  -3.620  27.121  -4.411
  377XTA     C529711  -3.573  27.243  -4.461
  377XTA    CN229712  -3.617  27.564  -4.377
  377XTA     C629713  -3.601  27.660  -4.283
  377XTA     C729714  -3.711  27.745  -4.250
  377XTA     C829715  -3.829  27.746  -4.333
  377XTA     C929716  -3.839  27.650  -4.437
  377XTA    C1029717  -3.737  27.551  -4.453
  377XTA    CN329718  -3.419  27.510  -4.500
  377XTA    C1129719  -3.287  27.517  -4.459
  377XTA    C1229720  -3.187  27.555  -4.549
  377XTA    C1329721  -3.217  27.591  -4.685
  377XTA    C1429722  -3.353  27.569  -4.728
  377XTA    C1529723  -3.456  27.536  -4.637
  377XTA     H129724  -3.468  27.388  -4.160
  377XTA     H229725  -3.532  27.173  -4.077
  377XTA     H329726  -3.658  27.051  -4.485
  377XTA     H429727  -3.578  27.277  -4.560
  377XTA     H529728  -3.507  27.658  -4.228
  377XTA     H629729  -3.713  27.810  -4.165
  377XTA     H729730  -3.928  27.636  -4.492
  377XTA     H829731  -3.741  27.457  -4.514
  377XTA     H929732  -3.263  27.480  -4.357
  377XTA    H1029733  -3.083  27.560  -4.520
  377XTA    H1129734  -3.376  27.591  -4.833
  377XTA    H1229735  -3.549  27.513  -4.673
  377XTA    OA129736  -3.655  26.968  -4.227
  377XTA    CO129737  -3.650  26.927  -4.091
  377XTA    OA229738  -3.928  27.845  -4.327
  377XTA    CO229739  -3.880  27.971  -4.295
  377XTA    CL129740  -3.970  28.081  -4.359
  377XTA    CL229741  -4.106  28.095  -4.294
  377XTA    CL329742  -4.227  28.134  -4.370
  377XTA    CL429743  -4.244  28.282  -4.400
  377XTA    CO329744  -4.164  28.309  -4.525
  377XTA    OA329745  -4.212  28.236  -4.632
  377XTA    CO429746  -4.144  28.236  -4.753
  377XTA    CT129747  -4.224  28.162  -4.855
  377XTA    CL529748  -4.187  28.011  -4.842
  377XTA    CL629749  -4.250  27.934  -4.720
  377XTA    OA429750  -3.118  27.606  -4.785
  377XTA    CO529751  -2.987  27.545  -4.767
  377XTA    HL129752  -2.949  27.567  -4.669
  377XTA    HL229753  -3.713  26.997  -4.046
  377XTA    HL329754  -3.682  26.825  -4.074
  377XTA    HL429755  -3.558  26.942  -4.042
  377XTA    HL529756  -3.874  27.987  -4.182
  377XTA    HL629757  -3.780  27.984  -4.338
  377XTA    HL729758  -3.978  28.046  -4.461
  377XTA    HL829759  -3.914  28.180  -4.362
  377XTA    HL929760  -4.094  28.163  -4.206
  377XTA   HL1029761  -4.135  27.996  -4.250
  377XTA   HL1129762  -4.234  28.075  -4.468
  377XTA   HL1229763  -4.314  28.104  -4.311
  377XTA   HL1329764  -4.212  28.341  -4.313
  377XTA   HL1429765  -4.344  28.301  -4.428
  377XTA   HL1529766  -4.177  28.407  -4.569
  377XTA   HL1629767  -4.058  28.287  -4.506
  377XTA   HL1729768  -4.124  28.341  -4.778
  377XTA   HL1829769  -4.051  28.178  -4.747
  377XTA   HL1929770  -4.076  28.002  -4.834
  377XTA   HL2029771  -4.216  27.963  -4.930
  377XTA   HL2129772  -4.193  27.958  -4.635
  377XTA   HL2229773  -4.226  27.833  -4.740
  377XTA   HL2329774  -4.348  27.930  -4.692
  377XTA   HL2429775  -2.926  27.589  -4.849
  377XTA   HL2529776  -2.999  27.440  -4.771
  377XTA    CO629777  -4.197  28.210  -5.006
  377XTA    CO729778  -4.376  28.199  -4.843
  377XTA    OA529779  -4.094  28.236  -5.031
  377XTA   HL2629780  -4.258  28.301  -5.021
  377XTA   HL2729781  -4.233  28.132  -5.075
  377XTA   HL2829782  -4.435  28.125  -4.736
  377XTA   HL2929783  -4.429  28.136  -4.916
  378XTA     NT29784  -1.882  24.217  -8.928
  378XTA    CN129785  -1.776  24.139  -8.896
  378XTA     C129786  -1.709  24.058  -8.989
  378XTA     C229787  -1.603  23.967  -8.955
  378XTA     C329788  -1.577  23.948  -8.816
  378XTA     C429789  -1.630  24.049  -8.723
  378XTA     C529790  -1.726  24.143  -8.764
  378XTA    CN229791  -1.852  24.319  -9.012
  378XTA     C629792  -1.803  24.440  -8.960
  378XTA     C729793  -1.764  24.547  -9.046
  378XTA     C829794  -1.774  24.533  -9.184
  378XTA     C929795  -1.822  24.408  -9.239
  378XTA    C1029796  -1.869  24.309  -9.152
  378XTA    CN329797  -2.012  24.185  -8.917
  378XTA    C1129798  -2.099  24.244  -8.828
  378XTA    C1229799  -2.235  24.202  -8.817
  378XTA    C1329800  -2.297  24.112  -8.909
  378XTA    C1429801  -2.210  24.051  -9.002
  378XTA    C1529802  -2.072  24.087  -9.005
  378XTA     H129803  -1.740  24.055  -9.092
  378XTA     H229804  -1.554  23.907  -9.031
  378XTA     H329805  -1.612  24.044  -8.616
  378XTA     H429806  -1.781  24.198  -8.691
  378XTA     H529807  -1.768  24.450  -8.855
  378XTA     H629808  -1.715  24.624  -9.000
  378XTA     H729809  -1.832  24.390  -9.341
  378XTA     H829810  -1.907  24.217  -9.193
  378XTA     H929811  -2.066  24.318  -8.767
  378XTA    H1029812  -2.291  24.242  -8.732
  378XTA    H1129813  -2.244  23.968  -9.063
  378XTA    H1229814  -2.015  24.046  -9.088
  378XTA    OA129815  -1.512  23.836  -8.783
  378XTA    CO129816  -1.549  23.784  -8.649
  378XTA    OA229817  -1.721  24.639  -9.261
  378XTA    CO229818  -1.676  24.609  -9.389
  378XTA    CL129819  -1.619  24.735  -9.448
  378XTA    CL229820  -1.477  24.758  -9.396
  378XTA    CL329821  -1.372  24.711  -9.500
  378XTA    CL429822  -1.368  24.568  -9.531
  378XTA    CO329823  -1.262  24.519  -9.628
  378XTA    OA329824  -1.135  24.585  -9.603
  378XTA    CO429825  -1.064  24.518  -9.502
  378XTA    CT129826  -0.963  24.414  -9.541
  378XTA    CL529827  -0.931  24.302  -9.435
  378XTA    CL629828  -0.895  24.360  -9.298
  378XTA    OA429829  -2.432  24.081  -8.906
  378XTA    CO529830  -2.517  24.182  -8.843
  378XTA    HL129831  -2.628  24.154  -8.850
  378XTA    HL229832  -1.494  23.698  -8.624
  378XTA    HL329833  -1.514  23.867  -8.586
  378XTA    HL429834  -1.650  23.745  -8.625
  378XTA    HL529835  -1.602  24.532  -9.369
  378XTA    HL629836  -1.754  24.573  -9.457
  378XTA    HL729837  -1.675  24.829  -9.423
  378XTA    HL829838  -1.616  24.731  -9.560
  378XTA    HL929839  -1.471  24.713  -9.295
  378XTA   HL1029840  -1.485  24.869  -9.377
  378XTA   HL1129841  -1.391  24.760  -9.587
  378XTA   HL1229842  -1.270  24.737  -9.474
  378XTA   HL1329843  -1.465  24.516  -9.547
  378XTA   HL1429844  -1.336  24.529  -9.434
  378XTA   HL1529845  -1.264  24.406  -9.627
  378XTA   HL1629846  -1.289  24.531  -9.731
  378XTA   HL1729847  -1.010  24.586  -9.436
  378XTA   HL1829848  -1.134  24.484  -9.426
  378XTA   HL1929849  -0.846  24.248  -9.470
  378XTA   HL2029850  -1.015  24.235  -9.434
  378XTA   HL2129851  -0.949  24.444  -9.266
  378XTA   HL2229852  -0.788  24.393  -9.290
  378XTA   HL2329853  -0.894  24.293  -9.210
  378XTA   HL2429854  -2.509  24.275  -8.907
  378XTA   HL2529855  -2.503  24.198  -8.735
  378XTA    CO629856  -0.831  24.496  -9.565
  378XTA    CO729857  -0.988  24.358  -9.682
  378XTA    OA529858  -1.079  24.298  -9.691
  378XTA   HL2629859  -0.762  24.421  -9.608
  378XTA   HL2729860  -0.836  24.595  -9.662
  378XTA   HL2829861  -0.911  24.280  -9.713
  378XTA   HL2929862  -0.989  24.445  -9.754
  379XTA     NT29863  -4.926  27.049  -8.795
  379XTA    CN129864  -4.910  26.923  -8.757
  379XTA     C129865  -4.914  26.899  -8.619
  379XTA     C229866  -4.882  26.765  -8.574
  379XTA     C329867  -4.849  26.662  -8.666
  379XTA     C429868  -4.838  26.696  -8.809
  379XTA     C529869  -4.868  26.828  -8.851
  379XTA    CN229870  -4.830  27.139  -8.775
  379XTA     C629871  -4.868  27.254  -8.705
  379XTA     C729872  -4.776  27.356  -8.674
  379XTA     C829873  -4.643  27.342  -8.727
  379XTA     C929874  -4.605  27.215  -8.788
  379XTA    C1029875  -4.697  27.116  -8.817
  379XTA    CN329876  -5.028  27.078  -8.871
  379XTA    C1129877  -5.025  27.093  -9.009
  379XTA    C1229878  -5.141  27.151  -9.074
  379XTA    C1329879  -5.255  27.186  -8.996
  379XTA    C1429880  -5.250  27.171  -8.859
  379XTA    C1529881  -5.140  27.114  -8.797
  379XTA     H129882  -4.955  26.973  -8.552
  379XTA     H229883  -4.887  26.745  -8.468
  379XTA     H329884  -4.811  26.627  -8.883
  379XTA     H429885  -4.859  26.839  -8.961
  379XTA     H529886  -4.969  27.274  -8.674
  379XTA     H629887  -4.817  27.443  -8.628
  379XTA     H729888  -4.502  27.205  -8.818
  379XTA     H829889  -4.671  27.027  -8.873
  379XTA     H929890  -4.940  27.072  -9.070
  379XTA    H1029891  -5.139  27.161  -9.179
  379XTA    H1129892  -5.338  27.202  -8.799
  379XTA    H1229893  -5.134  27.109  -8.689
  379XTA    OA129894  -4.823  26.535  -8.628
  379XTA    CO129895  -4.815  26.509  -8.493
  379XTA    OA229896  -4.562  27.446  -8.699
  379XTA    CO229897  -4.420  27.426  -8.716
  379XTA    CL129898  -4.337  27.520  -8.623
  379XTA    CL229899  -4.341  27.668  -8.657
  379XTA    CL329900  -4.251  27.758  -8.561
  379XTA    CL429901  -4.106  27.724  -8.577
  379XTA    CO329902  -4.010  27.815  -8.498
  379XTA    OA329903  -4.039  27.785  -8.359
  379XTA    CO429904  -3.944  27.725  -8.280
  379XTA    CT129905  -3.996  27.731  -8.138
  379XTA    CL529906  -3.880  27.672  -8.056
  379XTA    CL629907  -3.860  27.520  -8.049
  379XTA    OA429908  -5.365  27.244  -9.054
  379XTA    CO529909  -5.396  27.205  -9.185
  379XTA    HL129910  -5.482  27.259  -9.224
  379XTA    HL229911  -4.746  26.585  -8.450
  379XTA    HL329912  -4.910  26.527  -8.441
  379XTA    HL429913  -4.770  26.405  -8.476
  379XTA    HL529914  -4.377  27.322  -8.707
  379XTA    HL629915  -4.395  27.459  -8.814
  379XTA    HL729916  -4.241  27.476  -8.623
  379XTA    HL829917  -4.377  27.503  -8.524
  379XTA    HL929918  -4.440  27.713  -8.646
  379XTA   HL1029919  -4.302  27.681  -8.756
  379XTA   HL1129920  -4.264  27.863  -8.577
  379XTA   HL1229921  -4.287  27.749  -8.460
  379XTA   HL1329922  -4.088  27.736  -8.682
  379XTA   HL1429923  -4.080  27.620  -8.548
  379XTA   HL1529924  -3.908  27.795  -8.526
  379XTA   HL1629925  -4.042  27.917  -8.522
  379XTA   HL1729926  -3.926  27.623  -8.318
  379XTA   HL1829927  -3.849  27.771  -8.298
  379XTA   HL1929928  -3.898  27.697  -7.953
  379XTA   HL2029929  -3.784  27.699  -8.090
  379XTA   HL2129930  -3.835  27.462  -8.138
  379XTA   HL2229931  -3.944  27.474  -8.011
  379XTA   HL2329932  -3.780  27.508  -7.970
  379XTA   HL2429933  -5.418  27.100  -9.183
  379XTA   HL2529934  -5.318  27.233  -9.255
  379XTA    CO629935  -4.125  27.649  -8.115
  379XTA    CO729936  -4.026  27.873  -8.106
  379XTA    OA529937  -4.155  27.658  -7.974
  379XTA   HL2629938  -4.102  27.542  -8.139
  379XTA   HL2729939  -4.212  27.682  -8.175
  379XTA   HL2829940  -4.105  27.909  -8.171
  379XTA   HL2929941  -4.076  27.877  -8.012
  380XTA     NT29942  -4.930  31.399  -4.144
  380XTA    CN129943  -4.835  31.491  -4.168
  380XTA     C129944  -4.725  31.511  -4.081
  380XTA     C229945  -4.626  31.609  -4.108
  380XTA     C329946  -4.643  31.697  -4.220
  380XTA     C429947  -4.757  31.671  -4.304
  380XTA     C529948  -4.847  31.563  -4.285
  380XTA    CN229949  -4.910  31.270  -4.191
  380XTA     C629950  -4.937  31.236  -4.328
  380XTA     C729951  -4.918  31.101  -4.361
  380XTA     C829952  -4.862  31.011  -4.267
  380XTA     C929953  -4.822  31.056  -4.138
  380XTA    C1029954  -4.839  31.188  -4.106
  380XTA    CN329955  -5.042  31.444  -4.079
  380XTA    C1129956  -5.022  31.529  -3.964
  380XTA    C1229957  -5.137  31.577  -3.910
  380XTA    C1329958  -5.271  31.548  -3.950
  380XTA    C1429959  -5.287  31.462  -4.061
  380XTA    C1529960  -5.173  31.417  -4.123
  380XTA     H129961  -4.728  31.447  -3.997
  380XTA     H229962  -4.540  31.623  -4.042
  380XTA     H329963  -4.790  31.741  -4.381
  380XTA     H429964  -4.932  31.560  -4.347
  380XTA     H529965  -4.965  31.314  -4.395
  380XTA     H629966  -4.934  31.069  -4.463
  380XTA     H729967  -4.766  30.996  -4.076
  380XTA     H829968  -4.805  31.225  -4.010
  380XTA     H929969  -4.921  31.566  -3.941
  380XTA    H1029970  -5.130  31.651  -3.832
  380XTA    H1129971  -5.380  31.432  -4.094
  380XTA    H1229972  -5.191  31.341  -4.206
  380XTA    OA129973  -4.569  31.816  -4.232
  380XTA    CO129974  -4.586  31.887  -4.353
  380XTA    OA229975  -4.825  30.885  -4.311
  380XTA    CO229976  -4.938  30.811  -4.351
  380XTA    CL129977  -4.880  30.686  -4.410
  380XTA    CL229978  -4.824  30.702  -4.551
  380XTA    CL329979  -4.926  30.715  -4.664
  380XTA    CL429980  -4.854  30.744  -4.798
  380XTA    CO329981  -4.746  30.651  -4.854
  380XTA    OA329982  -4.617  30.680  -4.810
  380XTA    CO429983  -4.541  30.775  -4.880
  380XTA    CT129984  -4.432  30.840  -4.786
  380XTA    CL529985  -4.382  30.731  -4.692
  380XTA    CL629986  -4.302  30.620  -4.748
  380XTA    OA429987  -5.375  31.610  -3.888
  380XTA    CO529988  -5.498  31.608  -3.955
  380XTA    HL129989  -5.477  31.655  -4.054
  380XTA    HL229990  -4.560  31.822  -4.441
  380XTA    HL329991  -4.688  31.915  -4.375
  380XTA    HL429992  -4.532  31.978  -4.357
  380XTA    HL529993  -4.995  30.792  -4.257
  380XTA    HL629994  -4.996  30.856  -4.432
  380XTA    HL729995  -4.953  30.616  -4.418
  380XTA    HL829996  -4.806  30.647  -4.343
  380XTA    HL929997  -4.754  30.620  -4.569
  380XTA   HL1029998  -4.752  30.779  -4.554
  380XTA   HL1129999  -4.986  30.629  -4.660
  380XTA   HL1230000  -4.991  30.805  -4.652
  380XTA   HL1330001  -4.824  30.849  -4.779
  380XTA   HL1430002  -4.936  30.751  -4.866
  380XTA   HL1530003  -4.762  30.550  -4.816
  380XTA   HL1630004  -4.751  30.651  -4.961
  380XTA   HL1730005  -4.488  30.720  -4.960
  380XTA   HL1830006  -4.600  30.848  -4.929
  380XTA   HL1930007  -4.455  30.688  -4.633
  380XTA   HL2030008  -4.315  30.773  -4.613
  380XTA   HL2130009  -4.262  30.563  -4.668
  380XTA   HL2230010  -4.234  30.640  -4.828
  380XTA   HL2330011  -4.370  30.556  -4.806
  380XTA   HL2430012  -5.574  31.663  -3.903
  380XTA   HL2530013  -5.549  31.508  -3.975
  380XTA    CO630014  -4.499  30.956  -4.712
  380XTA    CO730015  -4.323  30.890  -4.875
  380XTA    OA530016  -4.355  30.955  -4.951
  380XTA   HL2630017  -4.508  31.044  -4.780
  380XTA   HL2730018  -4.630  30.933  -4.682
  380XTA   HL2830019  -4.278  30.809  -4.931
  380XTA   HL2930020  -4.243  30.930  -4.814
  381XTA     NT30021  -1.710  24.095  -5.635
  381XTA    CN130022  -1.835  24.080  -5.695
  381XTA     C130023  -1.873  24.150  -5.811
  381XTA     C230024  -1.994  24.121  -5.873
  381XTA     C330025  -2.084  24.031  -5.810
  381XTA     C430026  -2.049  23.960  -5.693
  381XTA     C530027  -1.924  23.983  -5.637
  381XTA    CN230028  -1.700  24.195  -5.545
  381XTA     C630029  -1.642  24.317  -5.584
  381XTA     C730030  -1.626  24.422  -5.494
  381XTA     C830031  -1.655  24.409  -5.359
  381XTA     C930032  -1.711  24.286  -5.317
  381XTA    C1030033  -1.747  24.181  -5.404
  381XTA    CN330034  -1.610  24.002  -5.638
  381XTA    C1130035  -1.499  23.996  -5.548
  381XTA    C1230036  -1.388  23.912  -5.572
  381XTA    C1330037  -1.389  23.824  -5.683
  381XTA    C1430038  -1.501  23.829  -5.769
  381XTA    C1530039  -1.605  23.918  -5.747
  381XTA     H130040  -1.814  24.235  -5.856
  381XTA     H230041  -2.022  24.183  -5.959
  381XTA     H330042  -2.109  23.898  -5.643
  381XTA     H430043  -1.896  23.932  -5.550
  381XTA     H530044  -1.603  24.324  -5.688
  381XTA     H630045  -1.575  24.514  -5.515
  381XTA     H730046  -1.737  24.285  -5.210
  381XTA     H830047  -1.786  24.091  -5.379
  381XTA     H930048  -1.493  24.064  -5.459
  381XTA    H1030049  -1.308  23.912  -5.502
  381XTA    H1130050  -1.495  23.769  -5.852
  381XTA    H1230051  -1.685  23.917  -5.817
  381XTA    OA130052  -2.212  24.014  -5.853
  381XTA    CO130053  -2.256  24.085  -5.962
  381XTA    OA230054  -1.632  24.511  -5.271
  381XTA    CO230055  -1.743  24.574  -5.214
  381XTA    CL130056  -1.727  24.592  -5.063
  381XTA    CL230057  -1.622  24.700  -5.045
  381XTA    CL330058  -1.566  24.703  -4.899
  381XTA    CL430059  -1.669  24.750  -4.788
  381XTA    CO330060  -1.611  24.755  -4.641
  381XTA    OA330061  -1.531  24.646  -4.621
  381XTA    CO430062  -1.525  24.578  -4.493
  381XTA    CT130063  -1.492  24.432  -4.506
  381XTA    CL530064  -1.596  24.347  -4.583
  381XTA    CL630065  -1.613  24.372  -4.732
  381XTA    OA430066  -1.283  23.739  -5.713
  381XTA    CO530067  -1.170  23.752  -5.624
  381XTA    HL130068  -1.137  23.849  -5.634
  381XTA    HL230069  -2.189  24.068  -6.041
  381XTA    HL330070  -2.348  24.038  -6.001
  381XTA    HL430071  -2.263  24.196  -5.946
  381XTA    HL530072  -1.747  24.675  -5.262
  381XTA    HL630073  -1.827  24.511  -5.239
  381XTA    HL730074  -1.699  24.499  -5.027
  381XTA    HL830075  -1.819  24.615  -5.007
  381XTA    HL930076  -1.655  24.790  -5.088
  381XTA   HL1030077  -1.539  24.683  -5.115
  381XTA   HL1130078  -1.534  24.602  -4.883
  381XTA   HL1230079  -1.477  24.769  -4.893
  381XTA   HL1330080  -1.754  24.685  -4.778
  381XTA   HL1430081  -1.708  24.848  -4.818
  381XTA   HL1530082  -1.548  24.842  -4.627
  381XTA   HL1630083  -1.693  24.774  -4.574
  381XTA   HL1730084  -1.451  24.633  -4.429
  381XTA   HL1830085  -1.626  24.588  -4.445
  381XTA   HL1930086  -1.698  24.367  -4.540
  381XTA   HL2030087  -1.564  24.245  -4.560
  381XTA   HL2130088  -1.526  24.342  -4.787
  381XTA   HL2230089  -1.647  24.471  -4.750
  381XTA   HL2330090  -1.686  24.299  -4.758
  381XTA   HL2430091  -1.094  23.683  -5.668
  381XTA   HL2530092  -1.195  23.721  -5.522
  381XTA    CO630093  -1.474  24.377  -4.358
  381XTA    CO730094  -1.360  24.410  -4.577
  381XTA    OA530095  -1.567  24.330  -4.321
  381XTA   HL2630096  -1.437  24.442  -4.289
  381XTA   HL2730097  -1.400  24.291  -4.356
  381XTA   HL2830098  -1.251  24.471  -4.512
  381XTA   HL2930099  -1.363  24.459  -4.673
  382XTA     NT30100  -2.659  25.788  -4.869
  382XTA    CN130101  -2.576  25.841  -4.956
  382XTA     C130102  -2.628  25.908  -5.073
  382XTA     C230103  -2.542  25.961  -5.167
  382XTA     C330104  -2.397  25.948  -5.154
  382XTA     C430105  -2.344  25.891  -5.035
  382XTA     C530106  -2.437  25.833  -4.935
  382XTA    CN230107  -2.693  25.866  -4.769
  382XTA     C630108  -2.827  25.917  -4.766
  382XTA     C730109  -2.877  25.992  -4.662
  382XTA     C830110  -2.796  26.012  -4.548
  382XTA     C930111  -2.664  25.972  -4.547
  382XTA    C1030112  -2.614  25.901  -4.659
  382XTA    CN330113  -2.716  25.666  -4.872
  382XTA    C1130114  -2.822  25.637  -4.961
  382XTA    C1230115  -2.874  25.504  -4.964
  382XTA    C1330116  -2.834  25.408  -4.870
  382XTA    C1430117  -2.731  25.441  -4.781
  382XTA    C1530118  -2.672  25.563  -4.786
  382XTA     H130119  -2.737  25.915  -5.078
  382XTA     H230120  -2.586  26.007  -5.247
  382XTA     H330121  -2.236  25.892  -5.025
  382XTA     H430122  -2.405  25.801  -4.838
  382XTA     H530123  -2.890  25.897  -4.847
  382XTA     H630124  -2.977  26.021  -4.683
  382XTA     H730125  -2.609  25.990  -4.459
  382XTA     H830126  -2.520  25.858  -4.647
  382XTA     H930127  -2.856  25.703  -5.036
  382XTA    H1030128  -2.954  25.477  -5.042
  382XTA    H1130129  -2.694  25.367  -4.715
  382XTA    H1230130  -2.593  25.578  -4.715
  382XTA    OA130131  -2.307  25.973  -5.254
  382XTA    CO130132  -2.352  26.021  -5.385
  382XTA    OA230133  -2.859  26.066  -4.434
  382XTA    CO230134  -2.782  26.092  -4.319
  382XTA    CL130135  -2.882  26.120  -4.208
  382XTA    CL230136  -2.986  26.004  -4.187
  382XTA    CL330137  -2.923  25.865  -4.180
  382XTA    CL430138  -3.030  25.756  -4.155
  382XTA    CO330139  -2.973  25.617  -4.170
  382XTA    OA330140  -2.874  25.585  -4.077
  382XTA    CO430141  -2.769  25.509  -4.140
  382XTA    CT130142  -2.678  25.437  -4.033
  382XTA    CL530143  -2.567  25.369  -4.111
  382XTA    CL630144  -2.481  25.450  -4.199
  382XTA    OA430145  -2.893  25.288  -4.864
  382XTA    CO530146  -2.815  25.187  -4.930
  382XTA    HL130147  -2.858  25.081  -4.931
  382XTA    HL230148  -2.266  26.051  -5.444
  382XTA    HL330149  -2.410  25.948  -5.445
  382XTA    HL430150  -2.412  26.110  -5.377
  382XTA    HL530151  -2.721  26.009  -4.288
  382XTA    HL630152  -2.711  26.170  -4.332
  382XTA    HL730153  -2.926  26.222  -4.222
  382XTA    HL830154  -2.825  26.128  -4.111
  382XTA    HL930155  -3.053  26.013  -4.269
  382XTA   HL1030156  -3.047  26.028  -4.097
  382XTA   HL1130157  -2.884  25.843  -4.279
  382XTA   HL1230158  -2.837  25.873  -4.115
  382XTA   HL1330159  -3.117  25.758  -4.230
  382XTA   HL1430160  -3.076  25.766  -4.061
  382XTA   HL1530161  -3.045  25.535  -4.155
  382XTA   HL1630162  -2.931  25.614  -4.274
  382XTA   HL1730163  -2.815  25.431  -4.200
  382XTA   HL1830164  -2.710  25.574  -4.201
  382XTA   HL1930165  -2.609  25.293  -4.174
  382XTA   HL2030166  -2.502  25.316  -4.044
  382XTA   HL2130167  -2.472  25.549  -4.161
  382XTA   HL2230168  -2.529  25.459  -4.295
  382XTA   HL2330169  -2.382  25.406  -4.220
  382XTA   HL2430170  -2.723  25.178  -4.876
  382XTA   HL2530171  -2.789  25.215  -5.031
  382XTA    CO630172  -2.747  25.348  -3.929
  382XTA    CO730173  -2.611  25.549  -3.947
  382XTA    OA530174  -2.793  25.266  -3.981
  382XTA   HL2630175  -2.815  25.414  -3.883
  382XTA   HL2730176  -2.677  25.311  -3.857
  382XTA   HL2830177  -2.587  25.664  -4.029
  382XTA   HL2930178  -2.678  25.588  -3.874
  383XTA     NT30179  -4.690  24.397 -10.893
  383XTA    CN130180  -4.717  24.288 -10.972
  383XTA     C130181  -4.636  24.265 -11.081
  383XTA     C230182  -4.655  24.158 -11.163
  383XTA     C330183  -4.760  24.067 -11.144
  383XTA     C430184  -4.836  24.077 -11.027
  383XTA     C530185  -4.821  24.193 -10.946
  383XTA    CN230186  -4.649  24.378 -10.761
  383XTA     C630187  -4.742  24.387 -10.661
  383XTA     C730188  -4.704  24.368 -10.526
  383XTA     C830189  -4.570  24.347 -10.501
  383XTA     C930190  -4.478  24.322 -10.604
  383XTA    C1030191  -4.522  24.339 -10.737
  383XTA    CN330192  -4.688  24.517 -10.959
  383XTA    C1130193  -4.568  24.590 -10.982
  383XTA    C1230194  -4.567  24.709 -11.058
  383XTA    C1330195  -4.691  24.763 -11.106
  383XTA    C1430196  -4.814  24.702 -11.061
  383XTA    C1530197  -4.809  24.578 -10.996
  383XTA     H130198  -4.558  24.339 -11.109
  383XTA     H230199  -4.600  24.143 -11.252
  383XTA     H330200  -4.904  23.997 -11.007
  383XTA     H430201  -4.879  24.206 -10.857
  383XTA     H530202  -4.843  24.400 -10.685
  383XTA     H630203  -4.774  24.390 -10.447
  383XTA     H730204  -4.375  24.291 -10.593
  383XTA     H830205  -4.456  24.331 -10.817
  383XTA     H930206  -4.475  24.548 -10.945
  383XTA    H1030207  -4.476  24.770 -11.083
  383XTA    H1130208  -4.909  24.747 -11.099
  383XTA    H1230209  -4.904  24.530 -10.975
  383XTA    OA130210  -4.763  23.950 -11.219
  383XTA    CO130211  -4.810  23.838 -11.152
  383XTA    OA230212  -4.529  24.332 -10.373
  383XTA    CO230213  -4.486  24.201 -10.333
  383XTA    CL130214  -4.584  24.161 -10.224
  383XTA    CL230215  -4.717  24.125 -10.289
  383XTA    CL330216  -4.833  24.095 -10.190
  383XTA    CL430217  -4.966  24.057 -10.258
  383XTA    CO330218  -5.050  24.180 -10.311
  383XTA    OA330219  -5.119  24.227 -10.201
  383XTA    CO430220  -5.164  24.352 -10.224
  383XTA    CT130221  -5.265  24.393 -10.119
  383XTA    CL530222  -5.394  24.307 -10.153
  383XTA    CL630223  -5.394  24.158 -10.118
  383XTA    OA430224  -4.685  24.885 -11.172
  383XTA    CO530225  -4.808  24.926 -11.226
  383XTA    HL130226  -4.846  24.850 -11.294
  383XTA    HL230227  -4.756  23.833 -11.058
  383XTA    HL330228  -4.921  23.838 -11.141
  383XTA    HL430229  -4.785  23.757 -11.213
  383XTA    HL530230  -4.502  24.133 -10.419
  383XTA    HL630231  -4.382  24.209 -10.301
  383XTA    HL730232  -4.592  24.225 -10.139
  383XTA    HL830233  -4.545  24.071 -10.170
  383XTA    HL930234  -4.696  24.039 -10.349
  383XTA   HL1030235  -4.753  24.200 -10.351
  383XTA   HL1130236  -4.792  24.007 -10.140
  383XTA   HL1230237  -4.843  24.178 -10.120
  383XTA   HL1330238  -5.031  24.004 -10.187
  383XTA   HL1430239  -4.951  23.990 -10.340
  383XTA   HL1530240  -4.992  24.261 -10.357
  383XTA   HL1630241  -5.126  24.151 -10.382
  383XTA   HL1730242  -5.076  24.420 -10.223
  383XTA   HL1830243  -5.209  24.360 -10.321
  383XTA   HL1930244  -5.413  24.329 -10.259
  383XTA   HL2030245  -5.485  24.341 -10.108
  383XTA   HL2130246  -5.391  24.131 -10.016
  383XTA   HL2230247  -5.307  24.116 -10.165
  383XTA   HL2330248  -5.485  24.104 -10.151
  383XTA   HL2430249  -4.814  25.027 -11.264
  383XTA   HL2530250  -4.881  24.939 -11.144
  383XTA    CO630251  -5.308  24.540 -10.122
  383XTA    CO730252  -5.215  24.361  -9.975
  383XTA    OA530253  -5.346  24.578 -10.218
  383XTA   HL2630254  -5.232  24.606 -10.085
  383XTA   HL2730255  -5.392  24.555 -10.055
  383XTA   HL2830256  -5.176  24.225  -9.961
  383XTA   HL2930257  -5.300  24.370  -9.905
  384XTA     NT30258  -4.633  26.127  -8.254
  384XTA    CN130259  -4.614  26.261  -8.238
  384XTA     C130260  -4.516  26.323  -8.314
  384XTA     C230261  -4.495  26.463  -8.306
  384XTA     C330262  -4.579  26.536  -8.222
  384XTA     C430263  -4.680  26.474  -8.153
  384XTA     C530264  -4.696  26.337  -8.159
  384XTA    CN230265  -4.531  26.042  -8.255
  384XTA     C630266  -4.483  25.997  -8.129
  384XTA     C730267  -4.402  25.879  -8.134
  384XTA     C830268  -4.343  25.826  -8.253
  384XTA     C930269  -4.387  25.882  -8.371
  384XTA    C1030270  -4.485  25.990  -8.374
  384XTA    CN330271  -4.760  26.084  -8.286
  384XTA    C1130272  -4.837  26.037  -8.178
  384XTA    C1230273  -4.968  25.986  -8.205
  384XTA    C1330274  -5.023  25.980  -8.335
  384XTA    C1430275  -4.942  26.034  -8.441
  384XTA    C1530276  -4.814  26.089  -8.417
  384XTA     H130277  -4.442  26.254  -8.359
  384XTA     H230278  -4.412  26.513  -8.350
  384XTA     H330279  -4.740  26.543  -8.095
  384XTA     H430280  -4.768  26.291  -8.097
  384XTA     H530281  -4.535  26.031  -8.042
  384XTA     H630282  -4.384  25.827  -8.044
  384XTA     H730283  -4.357  25.841  -8.466
  384XTA     H830284  -4.536  26.011  -8.467
  384XTA     H930285  -4.792  26.032  -8.079
  384XTA    H1030286  -5.028  25.958  -8.114
  384XTA    H1130287  -4.981  26.040  -8.542
  384XTA    H1230288  -4.750  26.149  -8.477
  384XTA    OA130289  -4.553  26.669  -8.218
  384XTA    CO130290  -4.663  26.754  -8.248
  384XTA    OA230291  -4.242  25.730  -8.253
  384XTA    CO230292  -4.143  25.730  -8.356
  384XTA    CL130293  -4.014  25.645  -8.326
  384XTA    CL230294  -3.938  25.706  -8.201
  384XTA    CL330295  -3.811  25.631  -8.164
  384XTA    CL430296  -3.691  25.679  -8.246
  384XTA    CO330297  -3.561  25.660  -8.170
  384XTA    OA330298  -3.553  25.763  -8.074
  384XTA    CO430299  -3.438  25.744  -7.996
  384XTA    CT130300  -3.462  25.828  -7.856
  384XTA    CL530301  -3.592  25.782  -7.796
  384XTA    CL630302  -3.642  25.854  -7.666
  384XTA    OA430303  -5.145  25.928  -8.360
  384XTA    CO530304  -5.194  25.932  -8.494
  384XTA    HL130305  -5.200  26.034  -8.519
  384XTA    HL230306  -4.741  26.734  -8.171
  384XTA    HL330307  -4.645  26.860  -8.237
  384XTA    HL430308  -4.703  26.744  -8.349
  384XTA    HL530309  -4.188  25.687  -8.451
  384XTA    HL630310  -4.121  25.834  -8.377
  384XTA    HL730311  -3.951  25.630  -8.411
  384XTA    HL830312  -4.044  25.543  -8.302
  384XTA    HL930313  -4.005  25.679  -8.123
  384XTA   HL1030314  -3.930  25.811  -8.208
  384XTA   HL1130315  -3.779  25.653  -8.065
  384XTA   HL1230316  -3.836  25.524  -8.164
  384XTA   HL1330317  -3.709  25.780  -8.281
  384XTA   HL1430318  -3.691  25.628  -8.339
  384XTA   HL1530319  -3.534  25.568  -8.116
  384XTA   HL1630320  -3.482  25.677  -8.243
  384XTA   HL1730321  -3.423  25.640  -7.955
  384XTA   HL1830322  -3.352  25.780  -8.052
  384XTA   HL1930323  -3.579  25.674  -7.766
  384XTA   HL2030324  -3.669  25.779  -7.872
  384XTA   HL2130325  -3.650  25.956  -7.697
  384XTA   HL2230326  -3.574  25.852  -7.587
  384XTA   HL2330327  -3.742  25.819  -7.643
  384XTA   HL2430328  -5.296  25.893  -8.495
  384XTA   HL2530329  -5.122  25.882  -8.559
  384XTA    CO630330  -3.461  25.973  -7.910
  384XTA    CO730331  -3.350  25.808  -7.756
  384XTA    OA530332  -3.343  25.696  -7.668
  384XTA   HL2630333  -3.539  25.977  -7.983
  384XTA   HL2730334  -3.493  26.038  -7.825
  384XTA   HL2830335  -3.336  25.904  -7.703
  384XTA   HL2930336  -3.259  25.804  -7.810
  385XTA     NT30337  -4.713  28.620  -5.328
  385XTA    CN130338  -4.808  28.580  -5.413
  385XTA     C130339  -4.798  28.583  -5.554
  385XTA     C230340  -4.901  28.538  -5.639
  385XTA     C330341  -5.025  28.498  -5.585
  385XTA     C430342  -5.042  28.506  -5.445
  385XTA     C530343  -4.936  28.544  -5.355
  385XTA    CN230344  -4.616  28.530  -5.317
  385XTA     C630345  -4.615  28.439  -5.212
  385XTA     C730346  -4.535  28.321  -5.217
  385XTA     C830347  -4.441  28.298  -5.316
  385XTA     C930348  -4.432  28.394  -5.419
  385XTA    C1030349  -4.518  28.512  -5.424
  385XTA    CN330350  -4.708  28.745  -5.274
  385XTA    C1130351  -4.689  28.753  -5.135
  385XTA    C1230352  -4.720  28.870  -5.068
  385XTA    C1330353  -4.761  28.986  -5.139
  385XTA    C1430354  -4.777  28.985  -5.276
  385XTA    C1530355  -4.760  28.861  -5.346
  385XTA     H130356  -4.712  28.615  -5.597
  385XTA     H230357  -4.885  28.538  -5.746
  385XTA     H330358  -5.140  28.497  -5.402
  385XTA     H430359  -4.959  28.546  -5.244
  385XTA     H530360  -4.700  28.441  -5.145
  385XTA     H630361  -4.557  28.248  -5.138
  385XTA     H730362  -4.362  28.378  -5.502
  385XTA     H830363  -4.517  28.566  -5.515
  385XTA     H930364  -4.659  28.663  -5.083
  385XTA    H1030365  -4.717  28.874  -4.968
  385XTA    H1130366  -4.808  29.067  -5.337
  385XTA    H1230367  -4.797  28.845  -5.447
  385XTA    OA130368  -5.135  28.473  -5.661
  385XTA    CO130369  -5.123  28.414  -5.793
  385XTA    OA230370  -4.367  28.182  -5.323
  385XTA    CO230371  -4.272  28.167  -5.425
  385XTA    CL130372  -4.206  28.040  -5.400
  385XTA    CL230373  -4.300  27.919  -5.409
  385XTA    CL330374  -4.210  27.795  -5.384
  385XTA    CL430375  -4.153  27.806  -5.247
  385XTA    CO330376  -4.148  27.681  -5.159
  385XTA    OA330377  -4.140  27.718  -5.021
  385XTA    CO430378  -4.097  27.615  -4.925
  385XTA    CT130379  -3.942  27.625  -4.892
  385XTA    CL530380  -3.861  27.616  -5.027
  385XTA    CL630381  -3.714  27.591  -5.014
  385XTA    OA430382  -4.804  29.104  -5.081
  385XTA    CO530383  -4.859  29.101  -4.945
  385XTA    HL130384  -4.885  29.203  -4.907
  385XTA    HL230385  -5.056  28.329  -5.788
  385XTA    HL330386  -5.213  28.401  -5.852
  385XTA    HL430387  -5.086  28.492  -5.859
  385XTA    HL530388  -4.311  28.177  -5.522
  385XTA    HL630389  -4.199  28.256  -5.409
  385XTA    HL730390  -4.159  28.047  -5.297
  385XTA    HL830391  -4.119  28.026  -5.454
  385XTA    HL930392  -4.347  27.918  -5.508
  385XTA   HL1030393  -4.383  27.928  -5.337
  385XTA   HL1130394  -4.277  27.711  -5.391
  385XTA   HL1230395  -4.130  27.777  -5.460
  385XTA   HL1330396  -4.208  27.881  -5.198
  385XTA   HL1430397  -4.057  27.845  -5.249
  385XTA   HL1530398  -4.251  27.634  -5.173
  385XTA   HL1630399  -4.078  27.607  -5.194
  385XTA   HL1730400  -4.145  27.620  -4.831
  385XTA   HL1830401  -4.112  27.509  -4.959
  385XTA   HL1930402  -3.879  27.714  -5.077
  385XTA   HL2030403  -3.910  27.533  -5.071
  385XTA   HL2130404  -3.668  27.591  -5.112
  385XTA   HL2230405  -3.682  27.496  -4.972
  385XTA   HL2330406  -3.659  27.661  -4.950
  385XTA   HL2430407  -4.786  29.063  -4.870
  385XTA   HL2530408  -4.948  29.036  -4.945
  385XTA    CO630409  -3.894  27.516  -4.799
  385XTA    CO730410  -3.928  27.766  -4.825
  385XTA    OA530411  -3.943  27.387  -4.813
  385XTA   HL2630412  -3.934  27.537  -4.697
  385XTA   HL2730413  -3.788  27.524  -4.771
  385XTA   HL2830414  -3.996  27.767  -4.737
  385XTA   HL2930415  -3.983  27.833  -4.893
  386XTH     NT30416  -8.765  23.363  -6.412
  386XTH    CN130417  -8.725  23.238  -6.368
  386XTH     C130418  -8.680  23.208  -6.239
  386XTH     C230419  -8.660  23.076  -6.193
  386XTH     C330420  -8.686  22.971  -6.284
  386XTH     C430421  -8.706  23.002  -6.422
  386XTH     C530422  -8.723  23.134  -6.459
  386XTH    CN230423  -8.897  23.402  -6.421
  386XTH     C630424  -8.942  23.512  -6.348
  386XTH     C730425  -9.083  23.545  -6.345
  386XTH     C830426  -9.175  23.456  -6.402
  386XTH     C930427  -9.124  23.346  -6.472
  386XTH    C1030428  -8.994  23.325  -6.491
  386XTH    CN330429  -8.664  23.448  -6.440
  386XTH    C1130430  -8.612  23.450  -6.570
  386XTH    C1230431  -8.502  23.533  -6.598
  386XTH    C1330432  -8.437  23.608  -6.503
  386XTH    C1430433  -8.490  23.606  -6.366
  386XTH    C1530434  -8.602  23.529  -6.338
  386XTH     H130435  -8.678  23.286  -6.164
  386XTH     H230436  -8.639  23.054  -6.088
  386XTH     H330437  -8.715  22.931  -6.507
  386XTH     H430438  -8.749  23.150  -6.564
  386XTH     H530439  -8.866  23.560  -6.286
  386XTH     H630440  -9.114  23.636  -6.299
  386XTH     H730441  -9.192  23.275  -6.512
  386XTH     H830442  -8.956  23.230  -6.540
  386XTH     H930443  -8.658  23.392  -6.645
  386XTH    H1030444  -8.467  23.534  -6.704
  386XTH    H1130445  -8.449  23.657  -6.280
  386XTH    H1230446  -8.648  23.529  -6.240
  386XTH    OA130447  -8.687  22.840  -6.234
  386XTH    CO130448  -8.679  22.746  -6.339
  386XTH    OA230449  -9.301  23.511  -6.399
  386XTH    CO230450  -9.399  23.438  -6.468
  386XTH    CL130451  -9.454  23.322  -6.379
  386XTH    CL230452  -9.587  23.263  -6.430
  386XTH    CL330453  -9.572  23.194  -6.567
  386XTH    CL430454  -9.702  23.140  -6.620
  386XTH    CO330455  -9.689  23.068  -6.754
  386XTH    OA330456  -9.605  23.151  -6.844
  386XTH    CO430457  -9.675  23.263  -6.882
  386XTH    CT130458  -9.577  23.348  -6.949
  386XTH    CL530459  -9.535  23.293  -7.088
  386XTH    CL630460  -9.449  23.167  -7.090
  386XTH    OA430461  -8.316  23.678  -6.524
  386XTH    CO530462  -8.248  23.660  -6.648
  386XTH    HL130463  -8.317  23.701  -6.725
  386XTH    HL230464  -8.642  22.653  -6.299
  386XTH    HL330465  -8.783  22.741  -6.385
  386XTH    HL430466  -8.605  22.768  -6.415
  386XTH    HL530467  -9.474  23.509  -6.496
  386XTH    HL630468  -9.357  23.393  -6.563
  386XTH    HL730469  -9.456  23.354  -6.278
  386XTH    HL830470  -9.390  23.234  -6.381
  386XTH    HL930471  -9.662  23.346  -6.463
  386XTH   HL1030472  -9.634  23.213  -6.352
  386XTH   HL1130473  -9.528  23.270  -6.636
  386XTH   HL1230474  -9.488  23.121  -6.566
  386XTH   HL1330475  -9.767  23.227  -6.633
  386XTH   HL1430476  -9.748  23.075  -6.548
  386XTH   HL1530477  -9.630  22.972  -6.736
  386XTH   HL1630478  -9.788  23.033  -6.799
  386XTH   HL1730479  -9.754  23.220  -6.944
  386XTH   HL1830480  -9.723  23.321  -6.802
  386XTH   HL1930481  -9.483  23.364  -7.155
  386XTH   HL2030482  -9.629  23.273  -7.135
  386XTH   HL2130483  -9.435  23.130  -7.200
  386XTH   HL2230484  -9.493  23.086  -7.037
  386XTH   HL2330485  -9.358  23.189  -7.040
  386XTH   HL2430486  -8.239  23.557  -6.674
  386XTH   HL2530487  -8.148  23.701  -6.640
  386XTH    CO630488  -9.460  23.396  -6.863
  386XTH    CO730489  -9.651  23.484  -6.979
  386XTH    OA530490  -9.680  23.572  -6.875
  386XTH   HL2630491  -9.492  23.459  -6.786
  386XTH   HL2730492  -9.418  23.309  -6.811
  386XTH   HL2830493  -9.742  23.451  -7.031
  386XTH   HL2930494  -9.596  23.535  -7.070
  387XTA     NT30495  -8.416  26.493  -8.800
  387XTA    CN130496  -8.485  26.583  -8.870
  387XTA     C130497  -8.487  26.570  -9.009
  387XTA     C230498  -8.566  26.652  -9.089
  387XTA     C330499  -8.641  26.754  -9.030
  387XTA     C430500  -8.636  26.774  -8.891
  387XTA     C530501  -8.564  26.677  -8.808
  387XTA    CN230502  -8.292  26.522  -8.758
  387XTA     C630503  -8.181  26.465  -8.827
  387XTA     C730504  -8.049  26.511  -8.801
  387XTA     C830505  -8.029  26.605  -8.700
  387XTA     C930506  -8.136  26.653  -8.618
  387XTA    C1030507  -8.267  26.619  -8.655
  387XTA    CN330508  -8.471  26.384  -8.745
  387XTA    C1130509  -8.478  26.270  -8.829
  387XTA    C1230510  -8.514  26.145  -8.779
  387XTA    C1330511  -8.563  26.136  -8.645
  387XTA    C1430512  -8.566  26.252  -8.562
  387XTA    C1530513  -8.520  26.377  -8.612
  387XTA     H130514  -8.419  26.497  -9.054
  387XTA     H230515  -8.560  26.639  -9.194
  387XTA     H330516  -8.700  26.846  -8.854
  387XTA     H430517  -8.564  26.686  -8.699
  387XTA     H530518  -8.209  26.387  -8.892
  387XTA     H630519  -7.971  26.466  -8.858
  387XTA     H730520  -8.113  26.730  -8.548
  387XTA     H830521  -8.355  26.663  -8.605
  387XTA     H930522  -8.429  26.286  -8.928
  387XTA    H1030523  -8.508  26.063  -8.840
  387XTA    H1130524  -8.601  26.238  -8.463
  387XTA    H1230525  -8.520  26.463  -8.553
  387XTA    OA130526  -8.729  26.832  -9.106
  387XTA    CO130527  -8.803  26.752  -9.197
  387XTA    OA230528  -7.901  26.654  -8.661
  387XTA    CO230529  -7.792  26.575  -8.698
  387XTA    CL130530  -7.729  26.603  -8.835
  387XTA    CL230531  -7.702  26.747  -8.857
  387XTA    CL330532  -7.672  26.788  -9.006
  387XTA    CL430533  -7.787  26.769  -9.104
  387XTA    CO330534  -7.769  26.828  -9.244
  387XTA    OA330535  -7.879  26.829  -9.333
  387XTA    CO430536  -7.903  26.705  -9.401
  387XTA    CT130537  -7.985  26.721  -9.533
  387XTA    CL530538  -8.097  26.821  -9.495
  387XTA    CL630539  -8.211  26.770  -9.399
  387XTA    OA430540  -8.603  26.012  -8.588
  387XTA    CO530541  -8.516  25.908  -8.625
  387XTA    HL130542  -8.415  25.945  -8.625
  387XTA    HL230543  -8.898  26.791  -9.242
  387XTA    HL330544  -8.740  26.723  -9.288
  387XTA    HL430545  -8.836  26.663  -9.147
  387XTA    HL530546  -7.708  26.613  -8.632
  387XTA    HL630547  -7.818  26.474  -8.689
  387XTA    HL730548  -7.800  26.574  -8.915
  387XTA    HL830549  -7.640  26.547  -8.850
  387XTA    HL930550  -7.627  26.774  -8.787
  387XTA   HL1030551  -7.793  26.797  -8.823
  387XTA   HL1130552  -7.651  26.893  -9.012
  387XTA   HL1230553  -7.579  26.739  -9.034
  387XTA   HL1330554  -7.876  26.824  -9.062
  387XTA   HL1430555  -7.809  26.667  -9.114
  387XTA   HL1530556  -7.760  26.935  -9.236
  387XTA   HL1630557  -7.679  26.800  -9.294
  387XTA   HL1730558  -7.800  26.664  -9.414
  387XTA   HL1830559  -7.959  26.631  -9.337
  387XTA   HL1930560  -8.146  26.849  -9.587
  387XTA   HL2030561  -8.062  26.924  -9.461
  387XTA   HL2130562  -8.263  26.674  -9.426
  387XTA   HL2230563  -8.282  26.850  -9.386
  387XTA   HL2330564  -8.157  26.754  -9.303
  387XTA   HL2430565  -8.542  25.886  -8.721
  387XTA   HL2530566  -8.526  25.822  -8.553
  387XTA    CO630567  -8.047  26.590  -9.581
  387XTA    CO730568  -7.888  26.769  -9.644
  387XTA    OA530569  -7.942  26.498  -9.586
  387XTA   HL2630570  -8.090  26.603  -9.683
  387XTA   HL2730571  -8.134  26.561  -9.517
  387XTA   HL2830572  -7.888  26.882  -9.616
  387XTA   HL2930573  -7.950  26.777  -9.736
  388XTA     NT30574  -3.613  27.449  -8.454
  388XTA    CN130575  -3.599  27.326  -8.402
  388XTA     C130576  -3.710  27.266  -8.346
  388XTA     C230577  -3.712  27.138  -8.297
  388XTA     C330578  -3.588  27.070  -8.290
  388XTA     C430579  -3.475  27.128  -8.352
  388XTA     C530580  -3.476  27.259  -8.396
  388XTA    CN230581  -3.672  27.462  -8.572
  388XTA     C630582  -3.800  27.524  -8.583
  388XTA     C730583  -3.859  27.529  -8.715
  388XTA     C830584  -3.800  27.474  -8.828
  388XTA     C930585  -3.673  27.417  -8.812
  388XTA    C1030586  -3.610  27.409  -8.684
  388XTA    CN330587  -3.534  27.548  -8.404
  388XTA    C1130588  -3.591  27.630  -8.304
  388XTA    C1230589  -3.516  27.728  -8.239
  388XTA    C1330590  -3.384  27.757  -8.285
  388XTA    C1430591  -3.322  27.683  -8.385
  388XTA    C1530592  -3.398  27.579  -8.445
  388XTA     H130593  -3.802  27.323  -8.352
  388XTA     H230594  -3.801  27.101  -8.253
  388XTA     H330595  -3.382  27.069  -8.353
  388XTA     H430596  -3.390  27.298  -8.439
  388XTA     H530597  -3.855  27.562  -8.502
  388XTA     H630598  -3.953  27.572  -8.722
  388XTA     H730599  -3.621  27.374  -8.898
  388XTA     H830600  -3.511  27.371  -8.665
  388XTA     H930601  -3.688  27.610  -8.291
  388XTA    H1030602  -3.546  27.777  -8.153
  388XTA    H1130603  -3.216  27.701  -8.409
  388XTA    H1230604  -3.347  27.519  -8.521
  388XTA    OA130605  -3.587  26.940  -8.235
  388XTA    CO130606  -3.716  26.876  -8.226
  388XTA    OA230607  -3.855  27.478  -8.945
  388XTA    CO230608  -3.996  27.491  -8.956
  388XTA    CL130609  -4.032  27.486  -9.103
  388XTA    CL230610  -4.183  27.478  -9.114
  388XTA    CL330611  -4.220  27.474  -9.257
  388XTA    CL430612  -4.370  27.478  -9.284
  388XTA    CO330613  -4.422  27.486  -9.433
  388XTA    OA330614  -4.319  27.438  -9.514
  388XTA    CO430615  -4.361  27.379  -9.635
  388XTA    CT130616  -4.233  27.321  -9.704
  388XTA    CL530617  -4.262  27.288  -9.856
  388XTA    CL630618  -4.358  27.172  -9.873
  388XTA    OA430619  -3.302  27.858  -8.226
  388XTA    CO530620  -3.365  27.954  -8.141
  388XTA    HL130621  -3.422  28.016  -8.212
  388XTA    HL230622  -3.758  26.866  -8.325
  388XTA    HL330623  -3.703  26.770  -8.193
  388XTA    HL430624  -3.783  26.916  -8.151
  388XTA    HL530625  -4.041  27.404  -8.903
  388XTA    HL630626  -4.014  27.589  -8.909
  388XTA    HL730627  -3.975  27.400  -9.154
  388XTA    HL830628  -4.000  27.577  -9.157
  388XTA    HL930629  -4.223  27.559  -9.060
  388XTA   HL1030630  -4.212  27.387  -9.056
  388XTA   HL1130631  -4.184  27.564  -9.304
  388XTA   HL1230632  -4.168  27.393  -9.298
  388XTA   HL1330633  -4.421  27.556  -9.224
  388XTA   HL1430634  -4.412  27.383  -9.261
  388XTA   HL1530635  -4.511  27.421  -9.451
  388XTA   HL1630636  -4.452  27.582  -9.465
  388XTA   HL1730637  -4.425  27.283  -9.616
  388XTA   HL1830638  -4.405  27.452  -9.699
  388XTA   HL1930639  -4.162  27.266  -9.902
  388XTA   HL2030640  -4.299  27.381  -9.908
  388XTA   HL2130641  -4.445  27.187  -9.804
  388XTA   HL2230642  -4.314  27.079  -9.842
  388XTA   HL2330643  -4.397  27.165  -9.976
  388XTA   HL2430644  -3.291  28.023  -8.112
  388XTA   HL2530645  -3.412  27.917  -8.056
  388XTA    CO630646  -4.165  27.219  -9.624
  388XTA    CO730647  -4.108  27.406  -9.689
  388XTA    OA530648  -4.067  27.266  -9.638
  388XTA   HL2630649  -4.182  27.119  -9.669
  388XTA   HL2730650  -4.198  27.202  -9.516
  388XTA   HL2830651  -4.127  27.515  -9.605
  388XTA   HL2930652  -4.056  27.421  -9.788
  389XTA     NT30653  -6.415  30.998  -8.835
  389XTA    CN130654  -6.529  31.003  -8.764
  389XTA     C130655  -6.656  31.002  -8.832
  389XTA     C230656  -6.777  31.003  -8.758
  389XTA     C330657  -6.776  31.019  -8.619
  389XTA     C430658  -6.652  31.018  -8.550
  389XTA     C530659  -6.531  31.010  -8.625
  389XTA    CN230660  -6.330  30.889  -8.818
  389XTA     C630661  -6.212  30.912  -8.744
  389XTA     C730662  -6.135  30.798  -8.709
  389XTA     C830663  -6.168  30.666  -8.749
  389XTA     C930664  -6.281  30.651  -8.830
  389XTA    C1030665  -6.357  30.760  -8.868
  389XTA    CN330666  -6.362  31.085  -8.918
  389XTA    C1130667  -6.406  31.078  -9.056
  389XTA    C1230668  -6.357  31.178  -9.146
  389XTA    C1330669  -6.252  31.266  -9.106
  389XTA    C1430670  -6.210  31.266  -8.976
  389XTA    C1530671  -6.275  31.186  -8.880
  389XTA     H130672  -6.648  31.006  -8.942
  389XTA     H230673  -6.865  31.011  -8.822
  389XTA     H330674  -6.645  31.039  -8.443
  389XTA     H430675  -6.438  31.017  -8.567
  389XTA     H530676  -6.183  31.008  -8.700
  389XTA     H630677  -6.035  30.808  -8.661
  389XTA     H730678  -6.322  30.557  -8.857
  389XTA     H830679  -6.444  30.751  -8.935
  389XTA     H930680  -6.472  30.997  -9.078
  389XTA    H1030681  -6.402  31.171  -9.243
  389XTA    H1130682  -6.132  31.331  -8.944
  389XTA    H1230683  -6.231  31.192  -8.789
  389XTA    OA130684  -6.887  31.049  -8.550
  389XTA    CO130685  -7.009  31.038  -8.610
  389XTA    OA230686  -6.086  30.562  -8.716
  389XTA    CO230687  -6.158  30.467  -8.632
  389XTA    CL130688  -6.200  30.496  -8.482
  389XTA    CL230689  -6.273  30.630  -8.457
  389XTA    CL330690  -6.318  30.635  -8.308
  389XTA    CL430691  -6.369  30.782  -8.281
  389XTA    CO330692  -6.411  30.805  -8.135
  389XTA    OA330693  -6.327  30.754  -8.033
  389XTA    CO430694  -6.356  30.807  -7.905
  389XTA    CT130695  -6.314  30.716  -7.786
  389XTA    CL530696  -6.165  30.667  -7.793
  389XTA    CL630697  -6.117  30.560  -7.693
  389XTA    OA430698  -6.197  31.345  -9.207
  389XTA    CO530699  -6.055  31.356  -9.203
  389XTA    HL130700  -6.010  31.337  -9.109
  389XTA    HL230701  -7.024  30.934  -8.643
  389XTA    HL330702  -7.093  31.062  -8.544
  389XTA    HL430703  -7.007  31.110  -8.684
  389XTA    HL530704  -6.246  30.436  -8.684
  389XTA    HL630705  -6.095  30.372  -8.632
  389XTA    HL730706  -6.104  30.500  -8.424
  389XTA    HL830707  -6.262  30.412  -8.439
  389XTA    HL930708  -6.361  30.637  -8.529
  389XTA   HL1030709  -6.223  30.721  -8.477
  389XTA   HL1130710  -6.379  30.547  -8.279
  389XTA   HL1230711  -6.225  30.629  -8.251
  389XTA   HL1330712  -6.457  30.811  -8.339
  389XTA   HL1430713  -6.282  30.840  -8.302
  389XTA   HL1530714  -6.395  30.907  -8.103
  389XTA   HL1630715  -6.516  30.775  -8.112
  389XTA   HL1730716  -6.308  30.907  -7.904
  389XTA   HL1830717  -6.461  30.830  -7.898
  389XTA   HL1930718  -6.108  30.760  -7.781
  389XTA   HL2030719  -6.153  30.606  -7.881
  389XTA   HL2130720  -6.116  30.586  -7.585
  389XTA   HL2230721  -6.018  30.524  -7.720
  389XTA   HL2330722  -6.181  30.479  -7.713
  389XTA   HL2430723  -6.029  31.457  -9.229
  389XTA   HL2530724  -6.012  31.275  -9.255
  389XTA    CO630725  -6.398  30.587  -7.788
  389XTA    CO730726  -6.329  30.791  -7.650
  389XTA    OA530727  -6.431  30.842  -7.656
  389XTA   HL2630728  -6.357  30.526  -7.863
  389XTA   HL2730729  -6.382  30.510  -7.674
  389XTA   HL2830730  -6.246  30.857  -7.642
  389XTA   HL2930731  -6.317  30.709  -7.571
  390XTA     NT30732   0.706  24.911  -7.834
  390XTA    CN130733   0.773  24.793  -7.847
  390XTA     C130734   0.836  24.741  -7.730
  390XTA     C230735   0.908  24.615  -7.725
  390XTA     C330736   0.910  24.543  -7.845
  390XTA     C430737   0.845  24.589  -7.964
  390XTA     C530738   0.773  24.716  -7.964
  390XTA    CN230739   0.603  24.922  -7.744
  390XTA     C630740   0.490  24.838  -7.765
  390XTA     C730741   0.372  24.852  -7.689
  390XTA     C830742   0.365  24.950  -7.593
  390XTA     C930743   0.479  25.024  -7.560
  390XTA    C1030744   0.597  25.013  -7.638
  390XTA    CN330745   0.755  25.025  -7.890
  390XTA    C1130746   0.692  25.085  -8.002
  390XTA    C1230747   0.745  25.199  -8.059
  390XTA    C1330748   0.862  25.253  -8.013
  390XTA    C1430749   0.930  25.196  -7.901
  390XTA    C1530750   0.878  25.082  -7.844
  390XTA     H130751   0.827  24.806  -7.643
  390XTA     H230752   0.941  24.575  -7.629
  390XTA     H330753   0.847  24.516  -8.049
  390XTA     H430754   0.726  24.759  -8.054
  390XTA     H530755   0.506  24.767  -7.843
  390XTA     H630756   0.283  24.786  -7.706
  390XTA     H730757   0.475  25.095  -7.480
  390XTA     H830758   0.673  25.089  -7.624
  390XTA     H930759   0.607  25.032  -8.048
  390XTA    H1030760   0.687  25.242  -8.136
  390XTA    H1130761   1.017  25.230  -7.863
  390XTA    H1230762   0.925  25.036  -7.760
  390XTA    OA130763   0.950  24.411  -7.852
  390XTA    CO130764   1.021  24.357  -7.744
  390XTA    OA230765   0.253  24.960  -7.518
  390XTA    CO230766   0.219  25.093  -7.476
  390XTA    CL130767   0.067  25.111  -7.458
  390XTA    CL230768   0.015  25.258  -7.453
  390XTA    CL330769  -0.135  25.281  -7.439
  390XTA    CL430770  -0.188  25.240  -7.307
  390XTA    CO330771  -0.338  25.267  -7.297
  390XTA    OA330772  -0.383  25.232  -7.169
  390XTA    CO430773  -0.526  25.227  -7.160
  390XTA    CT130774  -0.570  25.152  -7.029
  390XTA    CL530775  -0.480  25.025  -7.012
  390XTA    CL630776  -0.512  24.948  -6.886
  390XTA    OA430777   0.916  25.368  -8.061
  390XTA    CO530778   0.826  25.450  -8.134
  390XTA    HL130779   0.897  25.528  -8.157
  390XTA    HL230780   0.959  24.352  -7.651
  390XTA    HL330781   1.050  24.262  -7.767
  390XTA    HL430782   1.109  24.423  -7.720
  390XTA    HL530783   0.269  25.111  -7.379
  390XTA    HL630784   0.248  25.173  -7.548
  390XTA    HL730785   0.050  25.066  -7.360
  390XTA    HL830786   0.001  25.051  -7.525
  390XTA    HL930787   0.048  25.305  -7.551
  390XTA   HL1030788   0.061  25.308  -7.369
  390XTA   HL1130789  -0.133  25.391  -7.444
  390XTA   HL1230790  -0.177  25.238  -7.533
  390XTA   HL1330791  -0.130  25.296  -7.235
  390XTA   HL1430792  -0.181  25.141  -7.292
  390XTA   HL1530793  -0.353  25.377  -7.309
  390XTA   HL1630794  -0.393  25.223  -7.384
  390XTA   HL1730795  -0.565  25.326  -7.164
  390XTA   HL1830796  -0.561  25.177  -7.250
  390XTA   HL1930797  -0.373  25.053  -7.009
  390XTA   HL2030798  -0.490  24.951  -7.098
  390XTA   HL2130799  -0.457  24.855  -6.892
  390XTA   HL2230800  -0.619  24.940  -6.870
  390XTA   HL2330801  -0.468  24.996  -6.802
  390XTA   HL2430802   0.749  25.486  -8.067
  390XTA   HL2530803   0.773  25.408  -8.218
  390XTA    CO630804  -0.722  25.120  -7.031
  390XTA    CO730805  -0.561  25.246  -6.901
  390XTA    OA530806  -0.739  25.042  -7.103
  390XTA   HL2630807  -0.786  25.210  -7.051
  390XTA   HL2730808  -0.748  25.083  -6.936
  390XTA   HL2830809  -0.667  25.343  -6.890
  390XTA   HL2930810  -0.581  25.181  -6.827
  391XTA     NT30811  -4.571  25.392  -7.393
  391XTA    CN130812  -4.695  25.435  -7.360
  391XTA     C130813  -4.730  25.571  -7.366
  391XTA     C230814  -4.854  25.618  -7.315
  391XTA     C330815  -4.941  25.524  -7.253
  391XTA     C430816  -4.901  25.393  -7.235
  391XTA     C530817  -4.784  25.348  -7.298
  391XTA    CN230818  -4.493  25.339  -7.302
  391XTA     C630819  -4.425  25.222  -7.340
  391XTA     C730820  -4.340  25.160  -7.247
  391XTA     C830821  -4.315  25.209  -7.117
  391XTA     C930822  -4.387  25.325  -7.085
  391XTA    C1030823  -4.470  25.394  -7.176
  391XTA    CN330824  -4.515  25.434  -7.505
  391XTA    C1130825  -4.442  25.552  -7.510
  391XTA    C1230826  -4.383  25.595  -7.630
  391XTA    C1330827  -4.390  25.522  -7.745
  391XTA    C1430828  -4.457  25.396  -7.744
  391XTA    C1530829  -4.515  25.353  -7.619
  391XTA     H130830  -4.662  25.643  -7.412
  391XTA     H230831  -4.889  25.717  -7.311
  391XTA     H330832  -4.965  25.322  -7.195
  391XTA     H430833  -4.754  25.246  -7.288
  391XTA     H530834  -4.444  25.181  -7.442
  391XTA     H630835  -4.292  25.067  -7.278
  391XTA     H730836  -4.380  25.377  -6.992
  391XTA     H830837  -4.537  25.478  -7.137
  391XTA     H930838  -4.440  25.610  -7.427
  391XTA    H1030839  -4.335  25.686  -7.624
  391XTA    H1130840  -4.483  25.339  -7.835
  391XTA    H1230841  -4.570  25.259  -7.627
  391XTA    OA130842  -5.062  25.578  -7.206
  391XTA    CO130843  -5.136  25.501  -7.111
  391XTA    OA230844  -4.234  25.138  -7.036
  391XTA    CO230845  -4.227  25.181  -6.901
  391XTA    CL130846  -4.127  25.090  -6.837
  391XTA    CL230847  -3.981  25.120  -6.882
  391XTA    CL330848  -3.926  25.251  -6.833
  391XTA    CL430849  -3.775  25.258  -6.807
  391XTA    CO330850  -3.692  25.217  -6.920
  391XTA    OA330851  -3.558  25.251  -6.898
  391XTA    CO430852  -3.466  25.247  -7.002
  391XTA    CT130853  -3.331  25.298  -6.947
  391XTA    CL530854  -3.343  25.435  -6.872
  391XTA    CL630855  -3.402  25.551  -6.955
  391XTA    OA430856  -4.339  25.574  -7.858
  391XTA    CO530857  -4.368  25.501  -7.984
  391XTA    HL130858  -4.344  25.395  -7.964
  391XTA    HL230859  -5.218  25.560  -7.078
  391XTA    HL330860  -5.195  25.414  -7.154
  391XTA    HL430861  -5.089  25.472  -7.019
  391XTA    HL530862  -4.211  25.289  -6.883
  391XTA    HL630863  -4.331  25.159  -6.865
  391XTA    HL730864  -4.148  24.989  -6.864
  391XTA    HL830865  -4.138  25.095  -6.726
  391XTA    HL930866  -3.979  25.118  -6.993
  391XTA   HL1030867  -3.917  25.039  -6.852
  391XTA   HL1130868  -3.959  25.334  -6.892
  391XTA   HL1230869  -3.963  25.255  -6.729
  391XTA   HL1330870  -3.759  25.192  -6.724
  391XTA   HL1430871  -3.751  25.362  -6.775
  391XTA   HL1530872  -3.716  25.113  -6.951
  391XTA   HL1630873  -3.712  25.279  -7.006
  391XTA   HL1730874  -3.454  25.146  -7.038
  391XTA   HL1830875  -3.514  25.314  -7.074
  391XTA   HL1930876  -3.245  25.470  -6.841
  391XTA   HL2030877  -3.410  25.425  -6.782
  391XTA   HL2130878  -3.343  25.571  -7.051
  391XTA   HL2230879  -3.411  25.648  -6.901
  391XTA   HL2330880  -3.502  25.522  -6.996
  391XTA   HL2430881  -4.313  25.552  -8.065
  391XTA   HL2530882  -4.478  25.500  -7.999
  391XTA    CO630883  -3.232  25.309  -7.063
  391XTA    CO730884  -3.280  25.184  -6.849
  391XTA    OA530885  -3.247  25.095  -6.905
  391XTA   HL2630886  -3.225  25.206  -7.104
  391XTA   HL2730887  -3.273  25.389  -7.170
  391XTA   HL2830888  -3.359  25.155  -6.781
  391XTA   HL2930889  -3.200  25.224  -6.790
  392XTA     NT30890  -4.723  27.781  -9.064
  392XTA    CN130891  -4.851  27.803  -9.030
  392XTA     C130892  -4.895  27.752  -8.908
  392XTA     C230893  -5.027  27.788  -8.864
  392XTA     C330894  -5.114  27.868  -8.947
  392XTA     C430895  -5.064  27.914  -9.073
  392XTA     C530896  -4.939  27.877  -9.117
  392XTA    CN230897  -4.699  27.655  -9.112
  392XTA     C630898  -4.742  27.625  -9.239
  392XTA     C730899  -4.746  27.493  -9.283
  392XTA     C830900  -4.705  27.388  -9.200
  392XTA     C930901  -4.655  27.419  -9.070
  392XTA    C1030902  -4.650  27.552  -9.031
  392XTA    CN330903  -4.613  27.844  -9.004
  392XTA    C1130904  -4.504  27.889  -9.086
  392XTA    C1230905  -4.393  27.957  -9.024
  392XTA    C1330906  -4.392  27.992  -8.890
  392XTA    C1430907  -4.503  27.954  -8.811
  392XTA    C1530908  -4.607  27.875  -8.870
  392XTA     H130909  -4.829  27.687  -8.845
  392XTA     H230910  -5.058  27.743  -8.770
  392XTA     H330911  -5.125  27.964  -9.139
  392XTA     H430912  -4.902  27.909  -9.210
  392XTA     H530913  -4.793  27.704  -9.294
  392XTA     H630914  -4.782  27.469  -9.376
  392XTA     H730915  -4.628  27.342  -9.002
  392XTA     H830916  -4.612  27.577  -8.929
  392XTA     H930917  -4.499  27.873  -9.189
  392XTA    H1030918  -4.308  27.974  -9.088
  392XTA    H1130919  -4.499  27.969  -8.700
  392XTA    H1230920  -4.684  27.843  -8.802
  392XTA    OA130921  -5.235  27.890  -8.897
  392XTA    CO130922  -5.340  27.921  -8.990
  392XTA    OA230923  -4.712  27.261  -9.257
  392XTA    CO230924  -4.666  27.142  -9.184
  392XTA    CL130925  -4.663  27.023  -9.276
  392XTA    CL230926  -4.618  26.899  -9.199
  392XTA    CL330927  -4.588  26.763  -9.269
  392XTA    CL430928  -4.568  26.648  -9.170
  392XTA    CO330929  -4.494  26.524  -9.226
  392XTA    OA330930  -4.537  26.494  -9.354
  392XTA    CO430931  -4.666  26.443  -9.358
  392XTA    CT130932  -4.717  26.428  -9.504
  392XTA    CL530933  -4.617  26.347  -9.591
  392XTA    CL630934  -4.597  26.203  -9.568
  392XTA    OA430935  -4.289  28.060  -8.827
  392XTA    CO530936  -4.163  28.052  -8.891
  392XTA    HL130937  -4.156  28.098  -8.992
  392XTA    HL230938  -5.360  27.836  -9.053
  392XTA    HL330939  -5.431  27.942  -8.929
  392XTA    HL430940  -5.319  28.011  -9.044
  392XTA    HL530941  -4.570  27.172  -9.150
  392XTA    HL630942  -4.734  27.119  -9.097
  392XTA    HL730943  -4.588  27.030  -9.356
  392XTA    HL830944  -4.764  26.998  -9.320
  392XTA    HL930945  -4.711  26.880  -9.146
  392XTA   HL1030946  -4.545  26.931  -9.124
  392XTA   HL1130947  -4.652  26.748  -9.355
  392XTA   HL1230948  -4.490  26.777  -9.321
  392XTA   HL1330949  -4.660  26.622  -9.118
  392XTA   HL1430950  -4.514  26.693  -9.087
  392XTA   HL1530951  -4.390  26.555  -9.234
  392XTA   HL1630952  -4.480  26.442  -9.155
  392XTA   HL1730953  -4.675  26.341  -9.307
  392XTA   HL1830954  -4.748  26.502  -9.311
  392XTA   HL1930955  -4.519  26.400  -9.581
  392XTA   HL2030956  -4.648  26.351  -9.694
  392XTA   HL2130957  -4.586  26.179  -9.455
  392XTA   HL2230958  -4.508  26.164  -9.612
  392XTA   HL2330959  -4.680  26.146  -9.608
  392XTA   HL2430960  -4.139  27.949  -8.917
  392XTA   HL2530961  -4.087  28.086  -8.815
  392XTA    CO630962  -4.759  26.563  -9.565
  392XTA    CO730963  -4.857  26.352  -9.500
  392XTA    OA530964  -4.682  26.636  -9.579
  392XTA   HL2630965  -4.827  26.611  -9.495
  392XTA   HL2730966  -4.809  26.540  -9.653
  392XTA   HL2830967  -4.842  26.223  -9.451
  392XTA   HL2930968  -4.929  26.405  -9.436
  393XTA     NT30969  -7.068  22.916  -8.207
  393XTA    CN130970  -7.161  22.871  -8.306
  393XTA     C130971  -7.243  22.967  -8.374
  393XTA     C230972  -7.337  22.925  -8.474
  393XTA     C330973  -7.350  22.782  -8.502
  393XTA     C430974  -7.271  22.688  -8.430
  393XTA     C530975  -7.175  22.732  -8.334
  393XTA    CN230976  -7.079  22.858  -8.090
  393XTA     C630977  -6.974  22.785  -8.025
  393XTA     C730978  -6.994  22.731  -7.897
  393XTA     C830979  -7.116  22.741  -7.831
  393XTA     C930980  -7.216  22.807  -7.900
  393XTA    C1030981  -7.203  22.872  -8.019
  393XTA    CN330982  -7.015  23.042  -8.215
  393XTA    C1130983  -7.076  23.159  -8.156
  393XTA    C1230984  -7.023  23.288  -8.182
  393XTA    C1330985  -6.896  23.295  -8.255
  393XTA    C1430986  -6.842  23.179  -8.320
  393XTA    C1530987  -6.901  23.052  -8.298
  393XTA     H130988  -7.238  23.081  -8.363
  393XTA     H230989  -7.393  23.001  -8.531
  393XTA     H330990  -7.281  22.594  -8.469
  393XTA     H430991  -7.126  22.661  -8.275
  393XTA     H530992  -6.875  22.776  -8.073
  393XTA     H630993  -6.914  22.685  -7.838
  393XTA     H730994  -7.314  22.820  -7.853
  393XTA     H830995  -7.279  22.928  -8.067
  393XTA     H930996  -7.174  23.146  -8.113
  393XTA    H1030997  -7.064  23.380  -8.138
  393XTA    H1130998  -6.748  23.189  -8.383
  393XTA    H1230999  -6.864  22.967  -8.348
  393XTA    OA131000  -7.444  22.734  -8.590
  393XTA    CO131001  -7.555  22.806  -8.619
  393XTA    OA231002  -7.130  22.690  -7.701
  393XTA    CO231003  -7.250  22.726  -7.629
  393XTA    CL131004  -7.223  22.688  -7.482
  393XTA    CL231005  -7.323  22.758  -7.390
  393XTA    CL331006  -7.310  22.718  -7.245
  393XTA    CL431007  -7.416  22.777  -7.164
  393XTA    CO331008  -7.388  22.740  -7.019
  393XTA    OA331009  -7.251  22.743  -6.989
  393XTA    CO431010  -7.221  22.739  -6.853
  393XTA    CT131011  -7.072  22.765  -6.822
  393XTA    CL531012  -6.986  22.633  -6.856
  393XTA    CL631013  -6.961  22.602  -7.005
  393XTA    OA431014  -6.835  23.408  -8.300
  393XTA    CO531015  -6.856  23.529  -8.232
  393XTA    HL131016  -6.830  23.518  -8.126
  393XTA    HL231017  -7.539  22.899  -8.665
  393XTA    HL331018  -7.619  22.741  -8.683
  393XTA    HL431019  -7.619  22.819  -8.533
  393XTA    HL531020  -7.259  22.836  -7.625
  393XTA    HL631021  -7.341  22.674  -7.671
  393XTA    HL731022  -7.130  22.723  -7.448
  393XTA    HL831023  -7.222  22.583  -7.466
  393XTA    HL931024  -7.428  22.733  -7.429
  393XTA   HL1031025  -7.313  22.866  -7.405
  393XTA   HL1131026  -7.300  22.614  -7.230
  393XTA   HL1231027  -7.214  22.747  -7.203
  393XTA   HL1331028  -7.504  22.727  -7.199
  393XTA   HL1431029  -7.426  22.883  -7.180
  393XTA   HL1531030  -7.442  22.808  -6.955
  393XTA   HL1631031  -7.426  22.636  -6.998
  393XTA   HL1731032  -7.277  22.829  -6.796
  393XTA   HL1831033  -7.265  22.646  -6.820
  393XTA   HL1931034  -7.047  22.547  -6.824
  393XTA   HL2031035  -6.900  22.636  -6.798
  393XTA   HL2131036  -6.892  22.668  -7.046
  393XTA   HL2231037  -7.052  22.592  -7.068
  393XTA   HL2331038  -6.918  22.502  -7.012
  393XTA   HL2431039  -6.963  23.547  -8.229
  393XTA   HL2531040  -6.799  23.613  -8.272
  393XTA    CO631041  -7.063  22.797  -6.670
  393XTA    CO731042  -7.022  22.883  -6.900
  393XTA    OA531043  -6.936  22.799  -6.622
  393XTA   HL2631044  -7.125  22.723  -6.610
  393XTA   HL2731045  -7.104  22.896  -6.650
  393XTA   HL2831046  -6.918  22.879  -6.887
  393XTA   HL2931047  -7.063  22.871  -7.000
  394XTA     NT31048  -1.530  24.001  -8.004
  394XTA    CN131049  -1.445  23.986  -8.106
  394XTA     C131050  -1.478  24.033  -8.243
  394XTA     C231051  -1.375  24.024  -8.335
  394XTA     C331052  -1.252  23.960  -8.310
  394XTA     C431053  -1.227  23.902  -8.182
  394XTA     C531054  -1.319  23.922  -8.081
  394XTA    CN231055  -1.544  23.903  -7.912
  394XTA     C631056  -1.597  23.774  -7.946
  394XTA     C731057  -1.610  23.668  -7.859
  394XTA     C831058  -1.566  23.687  -7.728
  394XTA     C931059  -1.520  23.809  -7.682
  394XTA    C1031060  -1.507  23.914  -7.777
  394XTA    CN331061  -1.588  24.119  -7.987
  394XTA    C1131062  -1.526  24.242  -8.022
  394XTA    C1231063  -1.580  24.363  -7.974
  394XTA    C1331064  -1.705  24.366  -7.910
  394XTA    C1431065  -1.772  24.244  -7.893
  394XTA    C1531066  -1.714  24.120  -7.929
  394XTA     H131067  -1.576  24.078  -8.265
  394XTA     H231068  -1.377  24.088  -8.425
  394XTA     H331069  -1.131  23.860  -8.166
  394XTA     H431070  -1.296  23.892  -7.981
  394XTA     H531071  -1.622  23.758  -8.047
  394XTA     H631072  -1.652  23.573  -7.892
  394XTA     H731073  -1.496  23.820  -7.583
  394XTA     H831074  -1.454  24.000  -7.732
  394XTA     H931075  -1.437  24.240  -8.079
  394XTA    H1031076  -1.520  24.453  -7.990
  394XTA    H1131077  -1.859  24.237  -7.843
  394XTA    H1231078  -1.769  24.036  -7.902
  394XTA    OA131079  -1.160  23.959  -8.416
  394XTA    CO131080  -1.083  23.839  -8.430
  394XTA    OA231081  -1.575  23.584  -7.641
  394XTA    CO231082  -1.454  23.522  -7.594
  394XTA    CL131083  -1.479  23.427  -7.481
  394XTA    CL231084  -1.581  23.493  -7.382
  394XTA    CL331085  -1.520  23.595  -7.282
  394XTA    CL431086  -1.621  23.705  -7.260
  394XTA    CO331087  -1.582  23.780  -7.133
  394XTA    OA331088  -1.573  23.707  -7.018
  394XTA    CO431089  -1.699  23.642  -6.985
  394XTA    CT131090  -1.679  23.544  -6.868
  394XTA    CL531091  -1.606  23.422  -6.907
  394XTA    CL631092  -1.659  23.289  -6.844
  394XTA    OA431093  -1.743  24.481  -7.842
  394XTA    CO531094  -1.783  24.457  -7.714
  394XTA    HL131095  -1.752  24.366  -7.665
  394XTA    HL231096  -1.007  23.838  -8.499
  394XTA    HL331097  -1.052  23.797  -8.335
  394XTA    HL431098  -1.159  23.772  -8.467
  394XTA    HL531099  -1.408  23.463  -7.680
  394XTA    HL631100  -1.384  23.601  -7.562
  394XTA    HL731101  -1.387  23.396  -7.430
  394XTA    HL831102  -1.519  23.339  -7.521
  394XTA    HL931103  -1.634  23.415  -7.331
  394XTA   HL1031104  -1.665  23.539  -7.430
  394XTA   HL1131105  -1.497  23.555  -7.182
  394XTA   HL1231106  -1.421  23.644  -7.316
  394XTA   HL1331107  -1.725  23.660  -7.256
  394XTA   HL1431108  -1.614  23.773  -7.351
  394XTA   HL1531109  -1.486  23.828  -7.144
  394XTA   HL1631110  -1.636  23.864  -7.119
  394XTA   HL1731111  -1.778  23.714  -6.963
  394XTA   HL1831112  -1.737  23.582  -7.070
  394XTA   HL1931113  -1.497  23.432  -6.876
  394XTA   HL2031114  -1.614  23.401  -7.017
  394XTA   HL2131115  -1.763  23.254  -6.863
  394XTA   HL2231116  -1.662  23.296  -6.735
  394XTA   HL2331117  -1.588  23.214  -6.864
  394XTA   HL2431118  -1.892  24.456  -7.727
  394XTA   HL2531119  -1.759  24.551  -7.664
  394XTA    CO631120  -1.824  23.509  -6.821
  394XTA    CO731121  -1.607  23.612  -6.752
  394XTA    OA531122  -1.897  23.454  -6.933
  394XTA   HL2631123  -1.870  23.598  -6.782
  394XTA   HL2731124  -1.803  23.446  -6.737
  394XTA   HL2831125  -1.502  23.643  -6.771
  394XTA   HL2931126  -1.593  23.538  -6.674
  395XTA     NT31127  -6.021  30.124 -10.022
  395XTA    CN131128  -5.949  30.230 -10.051
  395XTA     C131129  -5.876  30.229 -10.176
  395XTA     C231130  -5.807  30.343 -10.217
  395XTA     C331131  -5.788  30.450 -10.134
  395XTA     C431132  -5.853  30.443 -10.009
  395XTA     C531133  -5.938  30.337  -9.966
  395XTA    CN231134  -6.004  30.077  -9.895
  395XTA     C631135  -5.878  30.049  -9.838
  395XTA     C731136  -5.872  30.000  -9.711
  395XTA     C831137  -5.983  30.005  -9.628
  395XTA     C931138  -6.108  30.040  -9.681
  395XTA    C1031139  -6.120  30.066  -9.818
  395XTA    CN331140  -6.125  30.080 -10.096
  395XTA    C1131141  -6.111  29.956 -10.159
  395XTA    C1231142  -6.220  29.907 -10.237
  395XTA    C1331143  -6.343  29.976 -10.236
  395XTA    C1431144  -6.356  30.100 -10.167
  395XTA    C1531145  -6.247  30.147 -10.095
  395XTA     H131146  -5.880  30.141 -10.242
  395XTA     H231147  -5.756  30.361 -10.314
  395XTA     H331148  -5.847  30.526  -9.935
  395XTA     H431149  -5.985  30.333  -9.869
  395XTA     H531150  -5.788  30.053  -9.896
  395XTA     H631151  -5.773  29.982  -9.674
  395XTA     H731152  -6.191  30.035  -9.617
  395XTA     H831153  -6.216  30.085  -9.862
  395XTA     H931154  -6.020  29.900 -10.163
  395XTA    H1031155  -6.215  29.811 -10.289
  395XTA    H1131156  -6.442  30.168 -10.168
  395XTA    H1231157  -6.255  30.245 -10.047
  395XTA    OA131158  -5.705  30.552 -10.171
  395XTA    CO131159  -5.638  30.628 -10.072
  395XTA    OA231160  -5.973  29.963  -9.497
  395XTA    CO231161  -5.847  29.942  -9.450
  395XTA    CL131162  -5.866  29.898  -9.311
  395XTA    CL231163  -5.734  29.866  -9.237
  395XTA    CL331164  -5.641  29.984  -9.212
  395XTA    CL431165  -5.546  29.961  -9.091
  395XTA    CO331166  -5.445  30.069  -9.075
  395XTA    OA331167  -5.387  30.050  -8.945
  395XTA    CO431168  -5.454  30.132  -8.839
  395XTA    CT131169  -5.363  30.141  -8.704
  395XTA    CL531170  -5.221  30.199  -8.746
  395XTA    CL631171  -5.128  30.117  -8.832
  395XTA    OA431172  -6.447  29.924 -10.314
  395XTA    CO531173  -6.558  30.005 -10.358
  395XTA    HL131174  -6.620  29.958 -10.441
  395XTA    HL231175  -5.576  30.705 -10.124
  395XTA    HL331176  -5.704  30.671  -9.994
  395XTA    HL431177  -5.573  30.559 -10.022
  395XTA    HL531178  -5.787  29.874  -9.503
  395XTA    HL631179  -5.797  30.036  -9.450
  395XTA    HL731180  -5.924  29.812  -9.314
  395XTA    HL831181  -5.922  29.973  -9.262
  395XTA    HL931182  -5.689  29.787  -9.294
  395XTA   HL1031183  -5.759  29.811  -9.136
  395XTA   HL1131184  -5.579  30.004  -9.311
  395XTA   HL1231185  -5.698  30.070  -9.194
  395XTA   HL1331186  -5.491  29.866  -9.105
  395XTA   HL1431187  -5.602  29.951  -8.997
  395XTA   HL1531188  -5.363  30.049  -9.145
  395XTA   HL1631189  -5.476  30.170  -9.102
  395XTA   HL1731190  -5.457  30.239  -8.884
  395XTA   HL1831191  -5.555  30.102  -8.834
  395XTA   HL1931192  -5.174  30.226  -8.655
  395XTA   HL2031193  -5.243  30.291  -8.798
  395XTA   HL2131194  -5.162  30.133  -8.938
  395XTA   HL2231195  -5.130  30.006  -8.820
  395XTA   HL2331196  -5.030  30.155  -8.842
  395XTA   HL2431197  -6.515  30.097 -10.397
  395XTA   HL2531198  -6.616  30.046 -10.274
  395XTA    CO631199  -5.338  30.011  -8.623
  395XTA    CO731200  -5.436  30.240  -8.606
  395XTA    OA531201  -5.552  30.202  -8.546
  395XTA   HL2631202  -5.431  29.996  -8.568
  395XTA   HL2731203  -5.257  30.021  -8.553
  395XTA   HL2831204  -5.469  30.332  -8.654
  395XTA   HL2931205  -5.362  30.277  -8.535
  396XTA     NT31206  -7.951  26.867 -11.426
  396XTA    CN131207  -7.902  26.963 -11.506
  396XTA     C131208  -7.771  26.947 -11.551
  396XTA     C231209  -7.731  27.031 -11.662
  396XTA     C331210  -7.817  27.132 -11.716
  396XTA     C431211  -7.939  27.150 -11.654
  396XTA     C531212  -7.986  27.064 -11.548
  396XTA    CN231213  -7.919  26.737 -11.453
  396XTA     C631214  -8.013  26.678 -11.533
  396XTA     C731215  -7.988  26.550 -11.586
  396XTA     C831216  -7.875  26.475 -11.538
  396XTA     C931217  -7.785  26.529 -11.444
  396XTA    C1031218  -7.812  26.663 -11.407
  396XTA    CN331219  -7.993  26.899 -11.306
  396XTA    C1131220  -8.107  26.846 -11.245
  396XTA    C1231221  -8.146  26.875 -11.116
  396XTA    C1331222  -8.069  26.962 -11.039
  396XTA    C1431223  -7.953  27.020 -11.095
  396XTA    C1531224  -7.917  26.982 -11.223
  396XTA     H131225  -7.700  26.874 -11.518
  396XTA     H231226  -7.633  27.021 -11.694
  396XTA     H331227  -8.005  27.227 -11.686
  396XTA     H431228  -8.090  27.071 -11.509
  396XTA     H531229  -8.092  26.731 -11.582
  396XTA     H631230  -8.064  26.512 -11.655
  396XTA     H731231  -7.711  26.476 -11.384
  396XTA     H831232  -7.758  26.720 -11.338
  396XTA     H931233  -8.174  26.781 -11.306
  396XTA    H1031234  -8.244  26.831 -11.089
  396XTA    H1131235  -7.896  27.093 -11.038
  396XTA    H1231236  -7.825  27.020 -11.269
  396XTA    OA131237  -7.768  27.227 -11.804
  396XTA    CO131238  -7.657  27.188 -11.888
  396XTA    OA231239  -7.863  26.345 -11.582
  396XTA    CO231240  -7.775  26.252 -11.514
  396XTA    CL131241  -7.788  26.102 -11.557
  396XTA    CL231242  -7.686  26.000 -11.498
  396XTA    CL331243  -7.709  25.972 -11.347
  396XTA    CL431244  -7.602  25.874 -11.296
  396XTA    CO331245  -7.596  25.852 -11.147
  396XTA    OA331246  -7.466  25.803 -11.113
  396XTA    CO431247  -7.441  25.826 -10.975
  396XTA    CT131248  -7.347  25.943 -10.949
  396XTA    CL531249  -7.261  25.915 -10.831
  396XTA    CL631250  -7.318  25.902 -10.692
  396XTA    OA431251  -8.121  26.979 -10.912
  396XTA    CO531252  -8.035  27.036 -10.817
  396XTA    HL131253  -7.968  27.121 -10.840
  396XTA    HL231254  -7.574  27.162 -11.827
  396XTA    HL331255  -7.685  27.104 -11.952
  396XTA    HL431256  -7.634  27.278 -11.946
  396XTA    HL531257  -7.672  26.291 -11.520
  396XTA    HL631258  -7.805  26.247 -11.416
  396XTA    HL731259  -7.765  26.128 -11.664
  396XTA    HL831260  -7.885  26.070 -11.543
  396XTA    HL931261  -7.584  26.037 -11.512
  396XTA   HL1031262  -7.687  25.906 -11.552
  396XTA   HL1131263  -7.696  26.065 -11.287
  396XTA   HL1231264  -7.811  25.926 -11.344
  396XTA   HL1331265  -7.501  25.901 -11.324
  396XTA   HL1431266  -7.628  25.781 -11.352
  396XTA   HL1531267  -7.619  25.951 -11.100
  396XTA   HL1631268  -7.669  25.782 -11.106
  396XTA   HL1731269  -7.526  25.823 -10.915
  396XTA   HL1831270  -7.393  25.733 -10.948
  396XTA   HL1931271  -7.196  26.001 -10.818
  396XTA   HL2031272  -7.199  25.825 -10.852
  396XTA   HL2131273  -7.398  25.830 -10.683
  396XTA   HL2231274  -7.362  26.000 -10.671
  396XTA   HL2331275  -7.229  25.885 -10.632
  396XTA   HL2431276  -7.978  26.958 -10.759
  396XTA   HL2531277  -8.106  27.079 -10.742
  396XTA    CO631278  -7.431  26.076 -10.940
  396XTA    CO731279  -7.255  25.976 -11.066
  396XTA    OA531280  -7.515  26.064 -10.872
  396XTA   HL2631281  -7.471  26.088 -11.044
  396XTA   HL2731282  -7.365  26.164 -10.932
  396XTA   HL2831283  -7.167  25.863 -11.089
  396XTA   HL2931284  -7.313  25.989 -11.155
  397XTA     NT31285  -6.132  26.470  -9.841
  397XTA    CN131286  -6.158  26.345  -9.807
  397XTA     C131287  -6.228  26.307  -9.694
  397XTA     C231288  -6.238  26.168  -9.660
  397XTA     C331289  -6.171  26.068  -9.738
  397XTA     C431290  -6.093  26.109  -9.846
  397XTA     C531291  -6.089  26.248  -9.875
  397XTA    CN231292  -6.024  26.533  -9.795
  397XTA     C631293  -5.983  26.533  -9.662
  397XTA     C731294  -5.869  26.613  -9.618
  397XTA     C831295  -5.788  26.683  -9.718
  397XTA     C931296  -5.827  26.670  -9.853
  397XTA    C1031297  -5.942  26.597  -9.892
  397XTA    CN331298  -6.222  26.545  -9.908
  397XTA    C1131299  -6.230  26.523 -10.044
  397XTA    C1231300  -6.323  26.593 -10.124
  397XTA    C1331301  -6.402  26.699 -10.070
  397XTA    C1431302  -6.394  26.727  -9.933
  397XTA    C1531303  -6.308  26.649  -9.854
  397XTA     H131304  -6.278  26.381  -9.637
  397XTA     H231305  -6.302  26.147  -9.576
  397XTA     H331306  -6.045  26.045  -9.915
  397XTA     H431307  -6.028  26.277  -9.959
  397XTA     H531308  -6.046  26.482  -9.595
  397XTA     H631309  -5.833  26.610  -9.514
  397XTA     H731310  -5.766  26.718  -9.932
  397XTA     H831311  -5.969  26.600  -9.989
  397XTA     H931312  -6.163  26.448 -10.076
  397XTA    H1031313  -6.322  26.567 -10.231
  397XTA    H1131314  -6.460  26.807  -9.888
  397XTA    H1231315  -6.307  26.678  -9.753
  397XTA    OA131316  -6.194  25.934  -9.724
  397XTA    CO131317  -6.273  25.890  -9.618
  397XTA    OA231318  -5.675  26.755  -9.676
  397XTA    CO231319  -5.632  26.860  -9.759
  397XTA    CL131320  -5.500  26.917  -9.706
  397XTA    CL231321  -5.391  26.813  -9.681
  397XTA    CL331322  -5.263  26.877  -9.629
  397XTA    CL431323  -5.167  26.922  -9.749
  397XTA    CO331324  -5.073  26.805  -9.780
  397XTA    OA331325  -4.942  26.863  -9.777
  397XTA    CO431326  -4.844  26.777  -9.838
  397XTA    CT131327  -4.710  26.794  -9.775
  397XTA    CL531328  -4.648  26.935  -9.808
  397XTA    CL631329  -4.678  27.008  -9.938
  397XTA    OA431330  -6.482  26.770 -10.148
  397XTA    CO531331  -6.536  26.892 -10.104
  397XTA    HL131332  -6.461  26.960 -10.067
  397XTA    HL231333  -6.377  25.931  -9.640
  397XTA    HL331334  -6.273  25.782  -9.604
  397XTA    HL431335  -6.231  25.930  -9.530
  397XTA    HL531336  -5.632  26.827  -9.862
  397XTA    HL631337  -5.709  26.938  -9.757
  397XTA    HL731338  -5.523  26.975  -9.619
  397XTA    HL831339  -5.467  26.995  -9.776
  397XTA    HL931340  -5.357  26.761  -9.777
  397XTA   HL1031341  -5.424  26.730  -9.620
  397XTA   HL1131342  -5.282  26.969  -9.577
  397XTA   HL1231343  -5.219  26.805  -9.559
  397XTA   HL1331344  -5.115  27.011  -9.733
  397XTA   HL1431345  -5.218  26.947  -9.844
  397XTA   HL1531346  -5.070  26.725  -9.705
  397XTA   HL1631347  -5.113  26.765  -9.875
  397XTA   HL1731348  -4.872  26.671  -9.825
  397XTA   HL1831349  -4.852  26.784  -9.943
  397XTA   HL1931350  -4.542  26.932  -9.763
  397XTA   HL2031351  -4.689  26.998  -9.728
  397XTA   HL2131352  -4.645  26.944 -10.023
  397XTA   HL2231353  -4.622  27.101  -9.935
  397XTA   HL2331354  -4.784  27.026  -9.938
  397XTA   HL2431355  -6.600  26.865 -10.024
  397XTA   HL2531356  -6.590  26.945 -10.178
  397XTA    CO631357  -4.614  26.684  -9.830
  397XTA    CO731358  -4.721  26.762  -9.623
  397XTA    OA531359  -4.553  26.698  -9.964
  397XTA   HL2631360  -4.666  26.588  -9.822
  397XTA   HL2731361  -4.533  26.657  -9.756
  397XTA   HL2831362  -4.807  26.804  -9.572
  397XTA   HL2931363  -4.644  26.825  -9.584
  398XTA     NT31364  -4.537  29.391  -6.303
  398XTA    CN131365  -4.614  29.284  -6.290
  398XTA     C131366  -4.705  29.249  -6.393
  398XTA     C231367  -4.785  29.130  -6.381
  398XTA     C331368  -4.777  29.063  -6.259
  398XTA     C431369  -4.685  29.093  -6.157
  398XTA     C531370  -4.597  29.203  -6.178
  398XTA    CN231371  -4.414  29.394  -6.357
  398XTA     C631372  -4.405  29.401  -6.499
  398XTA     C731373  -4.272  29.417  -6.554
  398XTA     C831374  -4.158  29.399  -6.477
  398XTA     C931375  -4.168  29.396  -6.334
  398XTA    C1031376  -4.299  29.391  -6.280
  398XTA    CN331377  -4.591  29.508  -6.259
  398XTA    C1131378  -4.665  29.519  -6.149
  398XTA    C1231379  -4.733  29.639  -6.116
  398XTA    C1331380  -4.729  29.751  -6.200
  398XTA    C1431381  -4.653  29.738  -6.322
  398XTA    C1531382  -4.584  29.619  -6.345
  398XTA     H131383  -4.707  29.301  -6.488
  398XTA     H231384  -4.857  29.105  -6.463
  398XTA     H331385  -4.684  29.030  -6.065
  398XTA     H431386  -4.513  29.221  -6.113
  398XTA     H531387  -4.493  29.406  -6.566
  398XTA     H631388  -4.261  29.439  -6.660
  398XTA     H731389  -4.079  29.388  -6.271
  398XTA     H831390  -4.311  29.378  -6.173
  398XTA     H931391  -4.666  29.434  -6.079
  398XTA    H1031392  -4.792  29.640  -6.028
  398XTA    H1131393  -4.654  29.821  -6.396
  398XTA    H1231394  -4.539  29.609  -6.443
  398XTA    OA131395  -4.862  28.953  -6.223
  398XTA    CO131396  -4.983  28.945  -6.288
  398XTA    OA231397  -4.037  29.393  -6.547
  398XTA    CO231398  -3.932  29.344  -6.466
  398XTA    CL131399  -3.804  29.315  -6.542
  398XTA    CL231400  -3.701  29.428  -6.530
  398XTA    CL331401  -3.595  29.409  -6.639
  398XTA    CL431402  -3.533  29.262  -6.655
  398XTA    CO331403  -3.385  29.250  -6.709
  398XTA    OA331404  -3.354  29.107  -6.713
  398XTA    CO431405  -3.220  29.093  -6.740
  398XTA    CT131406  -3.198  28.940  -6.775
  398XTA    CL531407  -3.049  28.913  -6.796
  398XTA    CL631408  -2.959  28.957  -6.677
  398XTA    OA431409  -4.801  29.866  -6.166
  398XTA    CO531410  -4.730  29.988  -6.207
  398XTA    HL131411  -4.629  29.987  -6.165
  398XTA    HL231412  -4.983  28.844  -6.336
  398XTA    HL331413  -5.064  28.945  -6.214
  398XTA    HL431414  -5.002  29.033  -6.353
  398XTA    HL531415  -3.908  29.423  -6.396
  398XTA    HL631416  -3.955  29.254  -6.410
  398XTA    HL731417  -3.838  29.298  -6.647
  398XTA    HL831418  -3.763  29.226  -6.491
  398XTA    HL931419  -3.659  29.429  -6.426
  398XTA   HL1031420  -3.742  29.527  -6.550
  398XTA   HL1131421  -3.633  29.445  -6.730
  398XTA   HL1231422  -3.512  29.481  -6.605
  398XTA   HL1331423  -3.595  29.188  -6.709
  398XTA   HL1431424  -3.540  29.229  -6.550
  398XTA   HL1531425  -3.387  29.301  -6.802
  398XTA   HL1631426  -3.338  29.307  -6.633
  398XTA   HL1731427  -3.194  29.164  -6.816
  398XTA   HL1831428  -3.173  29.121  -6.646
  398XTA   HL1931429  -3.025  28.963  -6.889
  398XTA   HL2031430  -3.034  28.805  -6.808
  398XTA   HL2131431  -2.861  28.926  -6.696
  398XTA   HL2231432  -2.984  28.912  -6.588
  398XTA   HL2331433  -2.953  29.064  -6.666
  398XTA   HL2431434  -4.786  30.075  -6.164
  398XTA   HL2531435  -4.725  30.001  -6.309
  398XTA    CO631436  -3.280  28.867  -6.877
  398XTA    CO731437  -3.257  28.843  -6.671
  398XTA    OA531438  -3.339  28.788  -6.772
  398XTA   HL2631439  -3.220  28.795  -6.930
  398XTA   HL2731440  -3.348  28.920  -6.939
  398XTA   HL2831441  -3.306  28.889  -6.587
  398XTA   HL2931442  -3.187  28.772  -6.635
  399XTA     NT31443  -0.929  29.305  -4.683
  399XTA    CN131444  -0.915  29.373  -4.567
  399XTA     C131445  -0.960  29.507  -4.545
  399XTA     C231446  -0.932  29.576  -4.422
  399XTA     C331447  -0.879  29.505  -4.314
  399XTA     C431448  -0.841  29.374  -4.339
  399XTA     C531449  -0.850  29.304  -4.458
  399XTA    CN231450  -0.854  29.325  -4.789
  399XTA     C631451  -0.838  29.450  -4.847
  399XTA     C731452  -0.759  29.461  -4.960
  399XTA     C831453  -0.700  29.347  -5.019
  399XTA     C931454  -0.704  29.226  -4.952
  399XTA    C1031455  -0.784  29.215  -4.842
  399XTA    CN331456  -1.045  29.236  -4.696
  399XTA    C1131457  -1.054  29.104  -4.652
  399XTA    C1231458  -1.176  29.038  -4.686
  399XTA    C1331459  -1.282  29.099  -4.754
  399XTA    C1431460  -1.271  29.235  -4.794
  399XTA    C1531461  -1.151  29.300  -4.761
  399XTA     H131462  -1.017  29.557  -4.625
  399XTA     H231463  -0.958  29.679  -4.406
  399XTA     H331464  -0.792  29.323  -4.261
  399XTA     H431465  -0.808  29.206  -4.477
  399XTA     H531466  -0.888  29.531  -4.804
  399XTA     H631467  -0.734  29.559  -4.999
  399XTA     H731468  -0.656  29.142  -4.991
  399XTA     H831469  -0.789  29.115  -4.800
  399XTA     H931470  -0.980  29.048  -4.602
  399XTA    H1031471  -1.199  28.941  -4.657
  399XTA    H1131472  -1.352  29.301  -4.829
  399XTA    H1231473  -1.135  29.399  -4.794
  399XTA    OA131474  -0.865  29.559  -4.186
  399XTA    CO131475  -0.879  29.699  -4.172
  399XTA    OA231476  -0.616  29.349  -5.126
  399XTA    CO231477  -0.668  29.437  -5.229
  399XTA    CL131478  -0.554  29.450  -5.327
  399XTA    CL231479  -0.584  29.554  -5.436
  399XTA    CL331480  -0.472  29.567  -5.530
  399XTA    CL431481  -0.428  29.440  -5.608
  399XTA    CO331482  -0.356  29.485  -5.738
  399XTA    OA331483  -0.212  29.462  -5.733
  399XTA    CO431484  -0.149  29.554  -5.641
  399XTA    CT131485  -0.023  29.610  -5.705
  399XTA    CL531486   0.063  29.484  -5.735
  399XTA    CL631487   0.181  29.517  -5.829
  399XTA    OA431488  -1.394  29.026  -4.786
  399XTA    CO531489  -1.479  29.076  -4.876
  399XTA    HL131490  -1.565  29.015  -4.885
  399XTA    HL231491  -0.821  29.741  -4.251
  399XTA    HL331492  -0.978  29.730  -4.176
  399XTA    HL431493  -0.849  29.744  -4.072
  399XTA    HL531494  -0.752  29.386  -5.275
  399XTA    HL631495  -0.699  29.533  -5.190
  399XTA    HL731496  -0.535  29.347  -5.358
  399XTA    HL831497  -0.470  29.487  -5.272
  399XTA    HL931498  -0.601  29.655  -5.394
  399XTA   HL1031499  -0.672  29.534  -5.495
  399XTA   HL1131500  -0.473  29.657  -5.593
  399XTA   HL1231501  -0.383  29.587  -5.458
  399XTA   HL1331502  -0.520  29.394  -5.648
  399XTA   HL1431503  -0.376  29.361  -5.560
  399XTA   HL1531504  -0.387  29.411  -5.816
  399XTA   HL1631505  -0.383  29.582  -5.761
  399XTA   HL1731506  -0.217  29.641  -5.618
  399XTA   HL1831507  -0.134  29.510  -5.544
  399XTA   HL1931508   0.001  29.405  -5.797
  399XTA   HL2031509   0.098  29.431  -5.645
  399XTA   HL2131510   0.231  29.611  -5.807
  399XTA   HL2231511   0.140  29.524  -5.929
  399XTA   HL2331512   0.255  29.434  -5.818
  399XTA   HL2431513  -1.425  29.099  -4.973
  399XTA   HL2531514  -1.509  29.178  -4.842
  399XTA    CO631515   0.062  29.693  -5.612
  399XTA    CO731516  -0.060  29.679  -5.837
  399XTA    OA531517  -0.161  29.770  -5.798
  399XTA   HL2631518   0.152  29.729  -5.669
  399XTA   HL2731519   0.092  29.625  -5.538
  399XTA   HL2831520  -0.100  29.601  -5.912
  399XTA   HL2931521   0.018  29.742  -5.883
  400XTA     NT31522  -7.805  27.543 -10.556
  400XTA    CN131523  -7.901  27.486 -10.623
  400XTA     C131524  -7.940  27.540 -10.747
  400XTA     C231525  -8.051  27.489 -10.819
  400XTA     C331526  -8.125  27.378 -10.766
  400XTA     C431527  -8.073  27.319 -10.648
  400XTA     C531528  -7.962  27.368 -10.580
  400XTA    CN231529  -7.837  27.634 -10.464
  400XTA     C631530  -7.799  27.767 -10.479
  400XTA     C731531  -7.835  27.862 -10.381
  400XTA     C831532  -7.879  27.817 -10.256
  400XTA     C931533  -7.917  27.687 -10.236
  400XTA    C1031534  -7.890  27.594 -10.342
  400XTA    CN331535  -7.678  27.519 -10.584
  400XTA    C1131536  -7.612  27.422 -10.502
  400XTA    C1231537  -7.485  27.381 -10.532
  400XTA    C1331538  -7.421  27.428 -10.648
  400XTA    C1431539  -7.488  27.524 -10.732
  400XTA    C1531540  -7.619  27.562 -10.698
  400XTA     H131541  -7.889  27.630 -10.778
  400XTA     H231542  -8.075  27.551 -10.908
  400XTA     H331543  -8.126  27.233 -10.606
  400XTA     H431544  -7.944  27.316 -10.484
  400XTA     H531545  -7.745  27.802 -10.570
  400XTA     H631546  -7.821  27.971 -10.402
  400XTA     H731547  -7.953  27.649 -10.146
  400XTA     H831548  -7.900  27.488 -10.336
  400XTA     H931549  -7.669  27.375 -10.427
  400XTA    H1031550  -7.442  27.305 -10.469
  400XTA    H1131551  -7.443  27.554 -10.820
  400XTA    H1231552  -7.670  27.625 -10.766
  400XTA    OA131553  -8.244  27.328 -10.824
  400XTA    CO131554  -8.257  27.323 -10.966
  400XTA    OA231555  -7.911  27.915 -10.163
  400XTA    CO231556  -8.007  27.875 -10.065
  400XTA    CL131557  -8.055  28.006  -9.994
  400XTA    CL231558  -7.939  28.067  -9.911
  400XTA    CL331559  -7.982  28.217  -9.875
  400XTA    CL431560  -8.104  28.227  -9.784
  400XTA    CO331561  -8.073  28.150  -9.657
  400XTA    OA331562  -7.935  28.170  -9.613
  400XTA    CO431563  -7.882  28.060  -9.532
  400XTA    CT131564  -7.751  28.097  -9.469
  400XTA    CL531565  -7.701  27.965  -9.391
  400XTA    CL631566  -7.788  27.931  -9.265
  400XTA    OA431567  -7.291  27.399 -10.679
  400XTA    CO531568  -7.227  27.288 -10.618
  400XTA    HL131569  -7.295  27.200 -10.618
  400XTA    HL231570  -8.345  27.268 -10.998
  400XTA    HL331571  -8.259  27.426 -10.996
  400XTA    HL431572  -8.157  27.287 -10.997
  400XTA    HL531573  -8.091  27.828 -10.105
  400XTA    HL631574  -7.953  27.814  -9.998
  400XTA    HL731575  -8.135  27.983  -9.922
  400XTA    HL831576  -8.080  28.073 -10.074
  400XTA    HL931577  -7.846  28.061  -9.973
  400XTA   HL1031578  -7.920  28.022  -9.822
  400XTA   HL1131579  -7.887  28.263  -9.855
  400XTA   HL1231580  -8.015  28.274  -9.961
  400XTA   HL1331581  -8.200  28.203  -9.831
  400XTA   HL1431582  -8.130  28.334  -9.755
  400XTA   HL1531583  -8.151  28.176  -9.577
  400XTA   HL1631584  -8.068  28.044  -9.681
  400XTA   HL1731585  -7.956  28.046  -9.454
  400XTA   HL1831586  -7.858  27.973  -9.590
  400XTA   HL1931587  -7.594  27.972  -9.369
  400XTA   HL2031588  -7.710  27.877  -9.456
  400XTA   HL2131589  -7.897  27.936  -9.280
  400XTA   HL2231590  -7.759  28.002  -9.184
  400XTA   HL2331591  -7.768  27.834  -9.218
  400XTA   HL2431592  -7.189  27.316 -10.519
  400XTA   HL2531593  -7.141  27.260 -10.678
  400XTA    CO631594  -7.772  28.219  -9.370
  400XTA    CO731595  -7.649  28.136  -9.579
  400XTA    OA531596  -7.671  28.252  -9.336
  400XTA   HL2631597  -7.836  28.198  -9.289
  400XTA   HL2731598  -7.821  28.298  -9.421
  400XTA   HL2831599  -7.544  28.217  -9.528
  400XTA   HL2931600  -7.709  28.195  -9.654
  401XTA     NT31601  -2.239  27.418  -8.976
  401XTA    CN131602  -2.185  27.296  -8.959
  401XTA     C131603  -2.233  27.213  -8.849
  401XTA     C231604  -2.170  27.088  -8.830
  401XTA     C331605  -2.060  27.044  -8.915
  401XTA     C431606  -2.032  27.122  -9.029
  401XTA     C531607  -2.098  27.246  -9.054
  401XTA    CN231608  -2.319  27.438  -9.085
  401XTA     C631609  -2.445  27.374  -9.100
  401XTA     C731610  -2.523  27.398  -9.212
  401XTA     C831611  -2.472  27.475  -9.318
  401XTA     C931612  -2.352  27.548  -9.302
  401XTA    C1031613  -2.272  27.522  -9.188
  401XTA    CN331614  -2.242  27.513  -8.878
  401XTA    C1131615  -2.361  27.538  -8.807
  401XTA    C1231616  -2.349  27.635  -8.706
  401XTA    C1331617  -2.229  27.707  -8.685
  401XTA    C1431618  -2.121  27.691  -8.766
  401XTA    C1531619  -2.129  27.591  -8.858
  401XTA     H131620  -2.312  27.240  -8.782
  401XTA     H231621  -2.200  27.036  -8.733
  401XTA     H331622  -1.960  27.107  -9.102
  401XTA     H431623  -2.073  27.307  -9.143
  401XTA     H531624  -2.484  27.306  -9.028
  401XTA     H631625  -2.615  27.353  -9.219
  401XTA     H731626  -2.323  27.606  -9.389
  401XTA     H831627  -2.167  27.560  -9.186
  401XTA     H931628  -2.448  27.480  -8.820
  401XTA    H1031629  -2.441  27.654  -8.653
  401XTA    H1131630  -2.025  27.732  -8.746
  401XTA    H1231631  -2.050  27.572  -8.927
  401XTA    OA131632  -1.985  26.930  -8.890
  401XTA    CO131633  -1.868  26.920  -8.963
  401XTA    OA231634  -2.540  27.494  -9.438
  401XTA    CO231635  -2.658  27.431  -9.464
  401XTA    CL131636  -2.773  27.500  -9.386
  401XTA    CL231637  -2.906  27.427  -9.399
  401XTA    CL331638  -2.914  27.307  -9.312
  401XTA    CL431639  -2.936  27.331  -9.167
  401XTA    CO331640  -2.863  27.227  -9.080
  401XTA    OA331641  -2.904  27.097  -9.124
  401XTA    CO431642  -2.846  26.996  -9.046
  401XTA    CT131643  -2.877  26.855  -9.103
  401XTA    CL531644  -2.863  26.857  -9.260
  401XTA    CL631645  -2.731  26.919  -9.316
  401XTA    OA431646  -2.232  27.799  -8.581
  401XTA    CO531647  -2.142  27.911  -8.590
  401XTA    HL131648  -2.043  27.861  -8.572
  401XTA    HL231649  -1.783  26.854  -8.948
  401XTA    HL331650  -1.896  26.895  -9.067
  401XTA    HL431651  -1.824  27.018  -8.960
  401XTA    HL531652  -2.685  27.431  -9.564
  401XTA    HL631653  -2.669  27.330  -9.432
  401XTA    HL731654  -2.789  27.603  -9.423
  401XTA    HL831655  -2.755  27.509  -9.278
  401XTA    HL931656  -2.927  27.392  -9.496
  401XTA   HL1031657  -2.992  27.487  -9.377
  401XTA   HL1131658  -2.996  27.245  -9.352
  401XTA   HL1231659  -2.822  27.245  -9.330
  401XTA   HL1331660  -3.038  27.321  -9.147
  401XTA   HL1431661  -2.897  27.423  -9.137
  401XTA   HL1531662  -2.754  27.224  -9.081
  401XTA   HL1631663  -2.892  27.214  -8.973
  401XTA   HL1731664  -2.739  27.024  -9.052
  401XTA   HL1831665  -2.875  27.007  -8.939
  401XTA   HL1931666  -2.949  26.923  -9.297
  401XTA   HL2031667  -2.882  26.762  -9.298
  401XTA   HL2131668  -2.694  27.007  -9.266
  401XTA   HL2231669  -2.746  26.939  -9.423
  401XTA   HL2331670  -2.655  26.843  -9.320
  401XTA   HL2431671  -2.169  27.989  -8.513
  401XTA   HL2531672  -2.149  27.952  -8.690
  401XTA    CO631673  -3.022  26.823  -9.063
  401XTA    CO731674  -2.771  26.760  -9.043
  401XTA    OA531675  -2.802  26.630  -9.088
  401XTA   HL2631676  -3.045  26.732  -9.116
  401XTA   HL2731677  -3.016  26.798  -8.957
  401XTA   HL2831678  -2.767  26.761  -8.939
  401XTA   HL2931679  -2.676  26.796  -9.074
  402XTA     NT31680  -3.782  28.578 -11.738
  402XTA    CN131681  -3.668  28.528 -11.782
  402XTA     C131682  -3.579  28.601 -11.863
  402XTA     C231683  -3.454  28.547 -11.895
  402XTA     C331684  -3.425  28.417 -11.846
  402XTA     C431685  -3.514  28.338 -11.778
  402XTA     C531686  -3.638  28.392 -11.748
  402XTA    CN231687  -3.836  28.538 -11.619
  402XTA     C631688  -3.780  28.593 -11.497
  402XTA     C731689  -3.850  28.585 -11.372
  402XTA     C831690  -3.967  28.500 -11.367
  402XTA     C931691  -4.013  28.438 -11.483
  402XTA    C1031692  -3.951  28.459 -11.607
  402XTA    CN331693  -3.858  28.649 -11.824
  402XTA    C1131694  -3.903  28.592 -11.942
  402XTA    C1231695  -3.991  28.660 -12.021
  402XTA    C1331696  -4.044  28.788 -11.984
  402XTA    C1431697  -3.990  28.850 -11.868
  402XTA    C1531698  -3.898  28.779 -11.790
  402XTA     H131699  -3.607  28.695 -11.886
  402XTA     H231700  -3.383  28.598 -11.948
  402XTA     H331701  -3.487  28.238 -11.743
  402XTA     H431702  -3.708  28.328 -11.694
  402XTA     H531703  -3.687  28.657 -11.494
  402XTA     H631704  -3.811  28.630 -11.284
  402XTA     H731705  -4.104  28.382 -11.474
  402XTA     H831706  -3.987  28.399 -11.685
  402XTA     H931707  -3.874  28.496 -11.986
  402XTA    H1031708  -4.025  28.607 -12.108
  402XTA    H1131709  -4.032  28.940 -11.840
  402XTA    H1231710  -3.860  28.811 -11.698
  402XTA    OA131711  -3.298  28.361 -11.868
  402XTA    CO131712  -3.230  28.391 -11.989
  402XTA    OA231713  -4.028  28.469 -11.245
  402XTA    CO231714  -4.032  28.584 -11.152
  402XTA    CL131715  -4.146  28.570 -11.059
  402XTA    CL231716  -4.199  28.694 -10.986
  402XTA    CL331717  -4.326  28.655 -10.903
  402XTA    CL431718  -4.374  28.772 -10.823
  402XTA    CO331719  -4.481  28.735 -10.721
  402XTA    OA331720  -4.432  28.631 -10.632
  402XTA    CO431721  -4.356  28.678 -10.524
  402XTA    CT131722  -4.304  28.563 -10.441
  402XTA    CL531723  -4.240  28.458 -10.534
  402XTA    CL631724  -4.143  28.356 -10.467
  402XTA    OA431725  -4.144  28.831 -12.069
  402XTA    CO531726  -4.236  28.915 -12.017
  402XTA    HL131727  -4.268  28.872 -11.914
  402XTA    HL231728  -3.135  28.341 -12.005
  402XTA    HL331729  -3.291  28.359 -12.082
  402XTA    HL431730  -3.215  28.497 -11.996
  402XTA    HL531731  -3.937  28.581 -11.104
  402XTA    HL631732  -4.035  28.671 -11.221
  402XTA    HL731733  -4.106  28.504 -10.990
  402XTA    HL831734  -4.231  28.520 -11.110
  402XTA    HL931735  -4.224  28.775 -11.054
  402XTA   HL1031736  -4.124  28.736 -10.920
  402XTA   HL1131737  -4.404  28.605 -10.958
  402XTA   HL1231738  -4.290  28.576 -10.836
  402XTA   HL1331739  -4.423  28.846 -10.880
  402XTA   HL1431740  -4.285  28.804 -10.767
  402XTA   HL1531741  -4.534  28.804 -10.659
  402XTA   HL1631742  -4.557  28.679 -10.776
  402XTA   HL1731743  -4.274  28.745 -10.561
  402XTA   HL1831744  -4.411  28.741 -10.450
  402XTA   HL1931745  -4.171  28.509 -10.596
  402XTA   HL2031746  -4.311  28.411 -10.606
  402XTA   HL2131747  -4.162  28.322 -10.367
  402XTA   HL2231748  -4.046  28.403 -10.464
  402XTA   HL2331749  -4.138  28.264 -10.527
  402XTA   HL2431750  -4.319  28.918 -12.076
  402XTA   HL2531751  -4.184  29.010 -12.008
  402XTA    CO631752  -4.422  28.499 -10.377
  402XTA    CO731753  -4.207  28.605 -10.327
  402XTA    OA531754  -4.503  28.588 -10.298
  402XTA   HL2631755  -4.383  28.423 -10.318
  402XTA   HL2731756  -4.487  28.441 -10.443
  402XTA   HL2831757  -4.108  28.629 -10.358
  402XTA   HL2931758  -4.248  28.698 -10.282
  403XTA     NT31759  -1.861  22.670  -7.469
  403XTA    CN131760  -1.881  22.635  -7.601
  403XTA     C131761  -1.793  22.681  -7.708
  403XTA     C231762  -1.808  22.631  -7.842
  403XTA     C331763  -1.918  22.546  -7.871
  403XTA     C431764  -2.010  22.512  -7.769
  403XTA     C531765  -1.993  22.554  -7.640
  403XTA    CN231766  -1.964  22.727  -7.404
  403XTA     C631767  -2.014  22.670  -7.284
  403XTA     C731768  -2.113  22.735  -7.208
  403XTA     C831769  -2.171  22.856  -7.256
  403XTA     C931770  -2.119  22.907  -7.375
  403XTA    C1031771  -2.022  22.841  -7.451
  403XTA    CN331772  -1.731  22.671  -7.428
  403XTA    C1131773  -1.663  22.553  -7.429
  403XTA    C1231774  -1.534  22.548  -7.378
  403XTA    C1331775  -1.471  22.665  -7.324
  403XTA    C1431776  -1.547  22.782  -7.320
  403XTA    C1531777  -1.679  22.785  -7.365
  403XTA     H131778  -1.702  22.737  -7.689
  403XTA     H231779  -1.725  22.650  -7.910
  403XTA     H331780  -2.101  22.459  -7.797
  403XTA     H431781  -2.065  22.514  -7.570
  403XTA     H531782  -1.971  22.580  -7.235
  403XTA     H631783  -2.141  22.694  -7.115
  403XTA     H731784  -2.155  23.008  -7.397
  403XTA     H831785  -1.987  22.892  -7.537
  403XTA     H931786  -1.719  22.458  -7.447
  403XTA    H1031787  -1.488  22.448  -7.364
  403XTA    H1131788  -1.507  22.871  -7.271
  403XTA    H1231789  -1.738  22.872  -7.373
  403XTA    OA131790  -1.930  22.490  -7.993
  403XTA    CO131791  -1.828  22.521  -8.091
  403XTA    OA231792  -2.257  22.936  -7.189
  403XTA    CO231793  -2.354  22.870  -7.105
  403XTA    CL131794  -2.460  22.815  -7.202
  403XTA    CL231795  -2.542  22.920  -7.284
  403XTA    CL331796  -2.603  22.864  -7.410
  403XTA    CL431797  -2.706  22.957  -7.480
  403XTA    CO331798  -2.744  22.891  -7.619
  403XTA    OA331799  -2.849  22.979  -7.665
  403XTA    CO431800  -2.891  22.949  -7.790
  403XTA    CT131801  -3.010  23.034  -7.819
  403XTA    CL531802  -3.063  23.013  -7.965
  403XTA    CL631803  -2.995  23.098  -8.067
  403XTA    OA431804  -1.345  22.658  -7.285
  403XTA    CO531805  -1.302  22.764  -7.204
  403XTA    HL131806  -1.209  22.738  -7.155
  403XTA    HL231807  -1.734  22.464  -8.065
  403XTA    HL331808  -1.863  22.477  -8.183
  403XTA    HL431809  -1.797  22.623  -8.105
  403XTA    HL531810  -2.311  22.790  -7.040
  403XTA    HL631811  -2.406  22.939  -7.035
  403XTA    HL731812  -2.523  22.741  -7.139
  403XTA    HL831813  -2.407  22.751  -7.270
  403XTA    HL931814  -2.484  22.998  -7.314
  403XTA   HL1031815  -2.619  22.954  -7.216
  403XTA   HL1131816  -2.516  22.845  -7.472
  403XTA   HL1231817  -2.646  22.769  -7.390
  403XTA   HL1331818  -2.668  23.061  -7.493
  403XTA   HL1431819  -2.794  22.962  -7.417
  403XTA   HL1531820  -2.654  22.898  -7.680
  403XTA   HL1631821  -2.776  22.784  -7.619
  403XTA   HL1731822  -2.818  22.952  -7.871
  403XTA   HL1831823  -2.927  22.845  -7.785
  403XTA   HL1931824  -3.166  23.046  -7.977
  403XTA   HL2031825  -3.059  22.902  -7.986
  403XTA   HL2131826  -2.890  23.067  -8.081
  403XTA   HL2231827  -2.996  23.204  -8.049
  403XTA   HL2331828  -3.039  23.073  -8.164
  403XTA   HL2431829  -1.357  22.808  -7.123
  403XTA   HL2531830  -1.268  22.853  -7.261
  403XTA    CO631831  -2.971  23.180  -7.790
  403XTA    CO731832  -3.131  23.002  -7.726
  403XTA    OA531833  -3.187  22.905  -7.752
  403XTA   HL2631834  -2.886  23.216  -7.852
  403XTA   HL2731835  -2.916  23.191  -7.654
  403XTA   HL2831836  -3.191  23.090  -7.724
  403XTA   HL2931837  -3.093  22.991  -7.629
  404XTA     NT31838  -6.455  27.103 -10.456
  404XTA    CN131839  -6.422  27.188 -10.552
  404XTA     C131840  -6.372  27.316 -10.516
  404XTA     C231841  -6.326  27.409 -10.613
  404XTA     C331842  -6.318  27.364 -10.746
  404XTA     C431843  -6.364  27.239 -10.783
  404XTA     C531844  -6.421  27.150 -10.687
  404XTA    CN231845  -6.587  27.078 -10.438
  404XTA     C631846  -6.668  27.177 -10.385
  404XTA     C731847  -6.801  27.144 -10.349
  404XTA     C831848  -6.855  27.018 -10.376
  404XTA     C931849  -6.771  26.918 -10.419
  404XTA    C1031850  -6.643  26.954 -10.466
  404XTA    CN331851  -6.352  27.040 -10.397
  404XTA    C1131852  -6.294  26.919 -10.440
  404XTA    C1231853  -6.181  26.865 -10.381
  404XTA    C1331854  -6.126  26.924 -10.266
  404XTA    C1431855  -6.187  27.038 -10.212
  404XTA    C1531856  -6.303  27.092 -10.272
  404XTA     H131857  -6.364  27.340 -10.413
  404XTA     H231858  -6.276  27.503 -10.578
  404XTA     H331859  -6.353  27.208 -10.887
  404XTA     H431860  -6.456  27.053 -10.706
  404XTA     H531861  -6.620  27.269 -10.344
  404XTA     H631862  -6.865  27.209 -10.293
  404XTA     H731863  -6.806  26.812 -10.436
  404XTA     H831864  -6.583  26.869 -10.505
  404XTA     H931865  -6.338  26.867 -10.522
  404XTA    H1031866  -6.132  26.786 -10.425
  404XTA    H1131867  -6.153  27.093 -10.126
  404XTA    H1231868  -6.335  27.189 -10.233
  404XTA    OA131869  -6.260  27.441 -10.843
  404XTA    CO131870  -6.203  27.571 -10.807
  404XTA    OA231871  -6.983  26.982 -10.342
  404XTA    CO231872  -7.076  27.088 -10.309
  404XTA    CL131873  -7.215  27.021 -10.302
  404XTA    CL231874  -7.326  27.118 -10.288
  404XTA    CL331875  -7.459  27.055 -10.301
  404XTA    CL431876  -7.495  27.039 -10.450
  404XTA    CO331877  -7.604  26.934 -10.479
  404XTA    OA331878  -7.592  26.885 -10.614
  404XTA    CO431879  -7.693  26.799 -10.652
  404XTA    CT131880  -7.646  26.727 -10.781
  404XTA    CL531881  -7.717  26.591 -10.787
  404XTA    CL631882  -7.865  26.600 -10.782
  404XTA    OA431883  -5.999  26.879 -10.217
  404XTA    CO531884  -5.962  26.944 -10.099
  404XTA    HL131885  -5.963  27.054 -10.111
  404XTA    HL231886  -6.127  27.561 -10.732
  404XTA    HL331887  -6.169  27.623 -10.899
  404XTA    HL431888  -6.281  27.639 -10.777
  404XTA    HL531889  -7.053  27.133 -10.222
  404XTA    HL631890  -7.085  27.156 -10.391
  404XTA    HL731891  -7.211  26.940 -10.226
  404XTA    HL831892  -7.227  26.965 -10.399
  404XTA    HL931893  -7.323  27.195 -10.370
  404XTA   HL1031894  -7.311  27.161 -10.190
  404XTA   HL1131895  -7.463  26.961 -10.236
  404XTA   HL1231896  -7.527  27.120 -10.243
  404XTA   HL1331897  -7.411  27.016 -10.514
  404XTA   HL1431898  -7.516  27.133 -10.489
  404XTA   HL1531899  -7.590  26.866 -10.397
  404XTA   HL1631900  -7.705  26.973 -10.466
  404XTA   HL1731901  -7.726  26.728 -10.572
  404XTA   HL1831902  -7.773  26.868 -10.675
  404XTA   HL1931903  -7.679  26.528 -10.704
  404XTA   HL2031904  -7.692  26.530 -10.872
  404XTA   HL2131905  -7.911  26.502 -10.781
  404XTA   HL2231906  -7.915  26.642 -10.871
  404XTA   HL2331907  -7.898  26.667 -10.702
  404XTA   HL2431908  -5.856  26.908 -10.090
  404XTA   HL2531909  -6.019  26.914 -10.017
  404XTA    CO631910  -7.492  26.707 -10.791
  404XTA    CO731911  -7.692  26.810 -10.902
  404XTA    OA531912  -7.428  26.622 -10.699
  404XTA   HL2631913  -7.446  26.801 -10.767
  404XTA   HL2731914  -7.459  26.678 -10.889
  404XTA   HL2831915  -7.652  26.756 -10.989
  404XTA   HL2931916  -7.798  26.809 -10.915
  405XTA     NT31917  -6.395  29.290  -6.499
  405XTA    CN131918  -6.483  29.187  -6.511
  405XTA     C131919  -6.475  29.080  -6.417
  405XTA     C231920  -6.570  28.978  -6.427
  405XTA     C331921  -6.675  28.984  -6.525
  405XTA     C431922  -6.675  29.081  -6.626
  405XTA     C531923  -6.579  29.186  -6.615
  405XTA    CN231924  -6.314  29.323  -6.601
  405XTA     C631925  -6.316  29.455  -6.658
  405XTA     C731926  -6.226  29.481  -6.764
  405XTA     C831927  -6.145  29.372  -6.818
  405XTA     C931928  -6.160  29.245  -6.763
  405XTA    C1031929  -6.236  29.222  -6.651
  405XTA    CN331930  -6.402  29.368  -6.389
  405XTA    C1131931  -6.295  29.334  -6.299
  405XTA    C1231932  -6.273  29.420  -6.187
  405XTA    C1331933  -6.356  29.531  -6.156
  405XTA    C1431934  -6.456  29.561  -6.252
  405XTA    C1531935  -6.481  29.478  -6.365
  405XTA     H131936  -6.397  29.076  -6.340
  405XTA     H231937  -6.571  28.901  -6.353
  405XTA     H331938  -6.755  29.084  -6.696
  405XTA     H431939  -6.585  29.261  -6.685
  405XTA     H531940  -6.375  29.532  -6.610
  405XTA     H631941  -6.219  29.583  -6.797
  405XTA     H731942  -6.109  29.160  -6.807
  405XTA     H831943  -6.244  29.125  -6.598
  405XTA     H931944  -6.241  29.239  -6.314
  405XTA    H1031945  -6.192  29.379  -6.127
  405XTA    H1131946  -6.519  29.644  -6.224
  405XTA    H1231947  -6.560  29.509  -6.442
  405XTA    OA131948  -6.769  28.888  -6.507
  405XTA    CO131949  -6.881  28.897  -6.583
  405XTA    OA231950  -6.061  29.399  -6.926
  405XTA    CO231951  -5.977  29.300  -6.971
  405XTA    CL131952  -6.033  29.208  -7.083
  405XTA    CL231953  -5.947  29.084  -7.128
  405XTA    CL331954  -5.944  28.986  -7.015
  405XTA    CL431955  -5.956  28.844  -7.070
  405XTA    CO331956  -6.097  28.800  -7.114
  405XTA    OA331957  -6.083  28.686  -7.197
  405XTA    CO431958  -6.199  28.644  -7.273
  405XTA    CT131959  -6.152  28.656  -7.419
  405XTA    CL531960  -6.050  28.545  -7.455
  405XTA    CL631961  -6.103  28.397  -7.446
  405XTA    OA431962  -6.340  29.615  -6.049
  405XTA    CO531963  -6.231  29.598  -5.963
  405XTA    HL131964  -6.144  29.578  -6.021
  405XTA    HL231965  -6.929  28.802  -6.568
  405XTA    HL331966  -6.945  28.983  -6.565
  405XTA    HL431967  -6.846  28.887  -6.684
  405XTA    HL531968  -5.891  29.356  -7.014
  405XTA    HL631969  -5.947  29.240  -6.888
  405XTA    HL731970  -6.062  29.268  -7.169
  405XTA    HL831971  -6.130  29.177  -7.047
  405XTA    HL931972  -5.848  29.103  -7.169
  405XTA   HL1031973  -6.006  29.039  -7.210
  405XTA   HL1131974  -5.847  29.002  -6.968
  405XTA   HL1231975  -6.024  28.998  -6.942
  405XTA   HL1331976  -5.923  28.772  -6.994
  405XTA   HL1431977  -5.876  28.840  -7.147
  405XTA   HL1531978  -6.149  28.783  -7.021
  405XTA   HL1631979  -6.153  28.880  -7.163
  405XTA   HL1731980  -6.238  28.549  -7.243
  405XTA   HL1831981  -6.276  28.724  -7.252
  405XTA   HL1931982  -5.961  28.548  -7.389
  405XTA   HL2031983  -6.010  28.566  -7.553
  405XTA   HL2131984  -6.029  28.327  -7.497
  405XTA   HL2231985  -6.197  28.389  -7.490
  405XTA   HL2331986  -6.107  28.361  -7.343
  405XTA   HL2431987  -6.252  29.526  -5.878
  405XTA   HL2531988  -6.212  29.696  -5.926
  405XTA    CO631989  -6.089  28.786  -7.443
  405XTA    CO731990  -6.266  28.654  -7.520
  405XTA    OA531991  -6.053  28.825  -7.574
  405XTA   HL2631992  -6.003  28.799  -7.383
  405XTA   HL2731993  -6.149  28.873  -7.407
  405XTA   HL2831994  -6.220  28.612  -7.613
  405XTA   HL2931995  -6.305  28.755  -7.537
  406XTA     NT31996  -3.431  26.998  -5.699
  406XTA    CN131997  -3.472  27.123  -5.726
  406XTA     C131998  -3.562  27.148  -5.831
  406XTA     C231999  -3.606  27.273  -5.869
  406XTA     C332000  -3.559  27.381  -5.793
  406XTA     C432001  -3.479  27.364  -5.678
  406XTA     C532002  -3.433  27.236  -5.651
  406XTA    CN232003  -3.331  26.944  -5.775
  406XTA     C632004  -3.361  26.884  -5.901
  406XTA     C732005  -3.253  26.851  -5.980
  406XTA     C832006  -3.120  26.871  -5.941
  406XTA     C932007  -3.094  26.936  -5.819
  406XTA    C1032008  -3.199  26.973  -5.737
  406XTA    CN332009  -3.504  26.917  -5.617
  406XTA    C1132010  -3.447  26.871  -5.495
  406XTA    C1232011  -3.514  26.771  -5.424
  406XTA    C1332012  -3.635  26.720  -5.462
  406XTA    C1432013  -3.695  26.770  -5.584
  406XTA    C1532014  -3.623  26.865  -5.661
  406XTA     H132015  -3.601  27.061  -5.894
  406XTA     H232016  -3.665  27.276  -5.961
  406XTA     H332017  -3.449  27.450  -5.627
  406XTA     H432018  -3.370  27.227  -5.560
  406XTA     H532019  -3.460  26.871  -5.933
  406XTA     H632020  -3.262  26.802  -6.075
  406XTA     H732021  -2.989  26.955  -5.793
  406XTA     H832022  -3.183  27.027  -5.642
  406XTA     H932023  -3.353  26.912  -5.455
  406XTA    H1032024  -3.458  26.735  -5.339
  406XTA    H1132025  -3.791  26.730  -5.612
  406XTA    H1232026  -3.679  26.888  -5.749
  406XTA    OA132027  -3.579  27.509  -5.839
  406XTA    CO132028  -3.669  27.532  -5.953
  406XTA    OA232029  -3.014  26.842  -6.029
  406XTA    CO232030  -3.036  26.773  -6.156
  406XTA    CL132031  -2.899  26.735  -6.216
  406XTA    CL232032  -2.811  26.658  -6.121
  406XTA    CL332033  -2.663  26.632  -6.160
  406XTA    CL432034  -2.596  26.541  -6.054
  406XTA    CO332035  -2.441  26.548  -6.065
  406XTA    OA332036  -2.394  26.508  -6.192
  406XTA    CO432037  -2.296  26.596  -6.246
  406XTA    CT132038  -2.274  26.553  -6.396
  406XTA    CL532039  -2.412  26.558  -6.461
  406XTA    CL632040  -2.397  26.540  -6.615
  406XTA    OA432041  -3.689  26.621  -5.383
  406XTA    CO532042  -3.817  26.569  -5.422
  406XTA    HL132043  -3.849  26.488  -5.354
  406XTA    HL232044  -3.770  27.498  -5.943
  406XTA    HL332045  -3.672  27.636  -5.960
  406XTA    HL432046  -3.632  27.485  -6.040
  406XTA    HL532047  -3.098  26.682  -6.139
  406XTA    HL632048  -3.091  26.829  -6.222
  406XTA    HL732049  -2.847  26.830  -6.235
  406XTA    HL832050  -2.898  26.689  -6.319
  406XTA    HL932051  -2.852  26.556  -6.098
  406XTA   HL1032052  -2.816  26.707  -6.033
  406XTA   HL1132053  -2.663  26.585  -6.257
  406XTA   HL1232054  -2.612  26.728  -6.160
  406XTA   HL1332055  -2.632  26.438  -6.053
  406XTA   HL1432056  -2.620  26.564  -5.952
  406XTA   HL1532057  -2.408  26.645  -6.045
  406XTA   HL1632058  -2.396  26.479  -6.001
  406XTA   HL1732059  -2.334  26.699  -6.234
  406XTA   HL1832060  -2.192  26.589  -6.197
  406XTA   HL1932061  -2.454  26.654  -6.445
  406XTA   HL2032062  -2.475  26.486  -6.406
  406XTA   HL2132063  -2.492  26.512  -6.666
  406XTA   HL2232064  -2.330  26.459  -6.651
  406XTA   HL2332065  -2.356  26.629  -6.649
  406XTA   HL2432066  -3.804  26.519  -5.517
  406XTA   HL2532067  -3.892  26.645  -5.420
  406XTA    CO632068  -2.220  26.410  -6.405
  406XTA    CO732069  -2.171  26.654  -6.462
  406XTA    OA532070  -2.241  26.782  -6.446
  406XTA   HL2632071  -2.133  26.416  -6.332
  406XTA   HL2732072  -2.284  26.334  -6.366
  406XTA   HL2832073  -2.147  26.635  -6.561
  406XTA   HL2932074  -2.080  26.650  -6.411
  407XTA     NT32075  -3.339  27.839 -10.896
  407XTA    CN132076  -3.242  27.920 -10.941
  407XTA     C132077  -3.183  28.022 -10.868
  407XTA     C232078  -3.084  28.099 -10.921
  407XTA     C332079  -3.038  28.078 -11.051
  407XTA     C432080  -3.097  27.978 -11.130
  407XTA     C532081  -3.201  27.897 -11.073
  407XTA    CN232082  -3.319  27.767 -10.785
  407XTA     C632083  -3.264  27.636 -10.790
  407XTA     C732084  -3.268  27.563 -10.672
  407XTA     C832085  -3.318  27.614 -10.552
  407XTA     C932086  -3.371  27.743 -10.549
  407XTA    C1032087  -3.368  27.826 -10.665
  407XTA    CN332088  -3.462  27.827 -10.960
  407XTA    C1132089  -3.513  27.702 -11.009
  407XTA    C1232090  -3.644  27.701 -11.058
  407XTA    C1332091  -3.722  27.814 -11.066
  407XTA    C1432092  -3.670  27.933 -11.010
  407XTA    C1532093  -3.543  27.944 -10.957
  407XTA     H132094  -3.201  28.032 -10.763
  407XTA     H232095  -3.045  28.173 -10.853
  407XTA     H332096  -3.075  27.965 -11.234
  407XTA     H432097  -3.244  27.811 -11.118
  407XTA     H532098  -3.226  27.580 -10.879
  407XTA     H632099  -3.229  27.461 -10.677
  407XTA     H732100  -3.411  27.779 -10.450
  407XTA     H832101  -3.415  27.920 -10.665
  407XTA     H932102  -3.458  27.613 -10.997
  407XTA    H1032103  -3.681  27.604 -11.094
  407XTA    H1132104  -3.738  28.020 -10.992
  407XTA    H1232105  -3.509  28.027 -10.898
  407XTA    OA132106  -2.936  28.157 -11.098
  407XTA    CO132107  -2.862  28.120 -11.211
  407XTA    OA232108  -3.305  27.540 -10.437
  407XTA    CO232109  -3.393  27.581 -10.327
  407XTA    CL132110  -3.376  27.484 -10.215
  407XTA    CL232111  -3.467  27.511 -10.095
  407XTA    CL332112  -3.469  27.397  -9.999
  407XTA    CL432113  -3.572  27.384  -9.883
  407XTA    CO332114  -3.562  27.269  -9.788
  407XTA    OA332115  -3.625  27.304  -9.664
  407XTA    CO432116  -3.761  27.274  -9.668
  407XTA    CT132117  -3.834  27.337  -9.548
  407XTA    CL532118  -3.828  27.488  -9.568
  407XTA    CL632119  -3.893  27.565  -9.450
  407XTA    OA432120  -3.852  27.806 -11.114
  407XTA    CO532121  -3.887  27.927 -11.178
  407XTA    HL132122  -3.820  27.952 -11.250
  407XTA    HL232123  -2.784  28.195 -11.246
  407XTA    HL332124  -2.813  28.029 -11.200
  407XTA    HL432125  -2.932  28.112 -11.297
  407XTA    HL532126  -3.372  27.683 -10.282
  407XTA    HL632127  -3.500  27.598 -10.355
  407XTA    HL732128  -3.275  27.477 -10.191
  407XTA    HL832129  -3.402  27.388 -10.250
  407XTA    HL932130  -3.569  27.537 -10.122
  407XTA   HL1032131  -3.437  27.593 -10.037
  407XTA   HL1132132  -3.500  27.313 -10.066
  407XTA   HL1232133  -3.362  27.389  -9.962
  407XTA   HL1332134  -3.668  27.410  -9.925
  407XTA   HL1432135  -3.551  27.476  -9.828
  407XTA   HL1532136  -3.607  27.182  -9.841
  407XTA   HL1632137  -3.463  27.227  -9.776
  407XTA   HL1732138  -3.805  27.328  -9.751
  407XTA   HL1832139  -3.789  27.164  -9.671
  407XTA   HL1932140  -3.885  27.508  -9.660
  407XTA   HL2032141  -3.721  27.526  -9.571
  407XTA   HL2132142  -3.891  27.671  -9.469
  407XTA   HL2232143  -3.844  27.552  -9.352
  407XTA   HL2332144  -3.990  27.528  -9.431
  407XTA   HL2432145  -3.896  28.007 -11.106
  407XTA   HL2532146  -3.988  27.911 -11.223
  407XTA    CO632147  -3.763  27.296  -9.411
  407XTA    CO732148  -3.979  27.268  -9.528
  407XTA    OA532149  -3.661  27.333  -9.398
  407XTA   HL2632150  -3.755  27.186  -9.420
  407XTA   HL2732151  -3.817  27.324  -9.329
  407XTA   HL2832152  -3.968  27.130  -9.493
  407XTA   HL2932153  -4.019  27.312  -9.437
  408XTA     NT32154  -4.209  22.873  -4.494
  408XTA    CN132155  -4.267  22.808  -4.392
  408XTA     C132156  -4.247  22.673  -4.377
  408XTA     C232157  -4.307  22.608  -4.270
  408XTA     C332158  -4.387  22.675  -4.175
  408XTA     C432159  -4.404  22.809  -4.188
  408XTA     C532160  -4.347  22.876  -4.300
  408XTA    CN232161  -4.113  22.950  -4.464
  408XTA     C632162  -4.129  23.087  -4.445
  408XTA     C732163  -4.025  23.176  -4.439
  408XTA     C832164  -3.896  23.125  -4.429
  408XTA     C932165  -3.869  22.987  -4.446
  408XTA    C1032166  -3.982  22.900  -4.461
  408XTA    CN332167  -4.250  22.858  -4.624
  408XTA    C1132168  -4.168  22.805  -4.720
  408XTA    C1232169  -4.211  22.784  -4.852
  408XTA    C1332170  -4.346  22.804  -4.891
  408XTA    C1432171  -4.430  22.860  -4.789
  408XTA    C1532172  -4.385  22.893  -4.655
  408XTA     H132173  -4.201  22.622  -4.459
  408XTA     H232174  -4.295  22.502  -4.266
  408XTA     H332175  -4.456  22.861  -4.111
  408XTA     H432176  -4.349  22.977  -4.302
  408XTA     H532177  -4.238  23.114  -4.433
  408XTA     H632178  -4.039  23.278  -4.439
  408XTA     H732179  -3.766  22.956  -4.439
  408XTA     H832180  -3.964  22.799  -4.470
  408XTA     H932181  -4.071  22.758  -4.690
  408XTA    H1032182  -4.137  22.743  -4.918
  408XTA    H1132183  -4.533  22.882  -4.816
  408XTA    H1232184  -4.456  22.928  -4.578
  408XTA    OA132185  -4.453  22.608  -4.077
  408XTA    CO132186  -4.404  22.485  -4.038
  408XTA    OA232187  -3.801  23.223  -4.419
  408XTA    CO232188  -3.664  23.177  -4.402
  408XTA    CL132189  -3.637  23.117  -4.259
  408XTA    CL232190  -3.716  23.206  -4.156
  408XTA    CL332191  -3.678  23.348  -4.164
  408XTA    CL432192  -3.762  23.431  -4.061
  408XTA    CO332193  -3.907  23.449  -4.117
  408XTA    OA332194  -3.908  23.526  -4.238
  408XTA    CO432195  -4.036  23.549  -4.297
  408XTA    CT132196  -4.041  23.664  -4.401
  408XTA    CL532197  -4.026  23.810  -4.345
  408XTA    CL632198  -4.024  23.923  -4.447
  408XTA    OA432199  -4.400  22.794  -5.018
  408XTA    CO532200  -4.312  22.763  -5.129
  408XTA    HL132201  -4.226  22.830  -5.135
  408XTA    HL232202  -4.304  22.498  -4.020
  408XTA    HL332203  -4.453  22.463  -3.939
  408XTA    HL432204  -4.407  22.402  -4.112
  408XTA    HL532205  -3.629  23.111  -4.487
  408XTA    HL632206  -3.598  23.259  -4.418
  408XTA    HL732207  -3.533  23.115  -4.236
  408XTA    HL832208  -3.674  23.015  -4.252
  408XTA    HL932209  -3.702  23.170  -4.053
  408XTA   HL1032210  -3.819  23.185  -4.178
  408XTA   HL1132211  -3.571  23.357  -4.151
  408XTA   HL1232212  -3.695  23.387  -4.267
  408XTA   HL1332213  -3.703  23.526  -4.044
  408XTA   HL1432214  -3.778  23.373  -3.974
  408XTA   HL1532215  -3.952  23.354  -4.129
  408XTA   HL1632216  -3.978  23.501  -4.043
  408XTA   HL1732217  -4.062  23.446  -4.333
  408XTA   HL1832218  -4.099  23.580  -4.224
  408XTA   HL1932219  -3.929  23.812  -4.295
  408XTA   HL2032220  -4.108  23.829  -4.281
  408XTA   HL2132221  -4.016  24.021  -4.403
  408XTA   HL2232222  -4.117  23.925  -4.495
  408XTA   HL2332223  -3.934  23.920  -4.513
  408XTA   HL2432224  -4.366  22.767  -5.219
  408XTA   HL2532225  -4.257  22.670  -5.127
  408XTA    CO632226  -4.171  23.650  -4.486
  408XTA    CO732227  -3.929  23.638  -4.504
  408XTA    OA532228  -4.261  23.677  -4.426
  408XTA   HL2632229  -4.183  23.550  -4.536
  408XTA   HL2732230  -4.164  23.717  -4.570
  408XTA   HL2832231  -3.948  23.724  -4.619
  408XTA   HL2932232  -3.920  23.540  -4.543
  409XTA     NT32233  -8.383  26.762  -6.935
  409XTA    CN132234  -8.357  26.776  -6.809
  409XTA     C132235  -8.463  26.762  -6.716
  409XTA     C232236  -8.434  26.771  -6.579
  409XTA     C332237  -8.302  26.787  -6.533
  409XTA     C432238  -8.199  26.794  -6.625
  409XTA     C532239  -8.220  26.798  -6.761
  409XTA    CN232240  -8.297  26.688  -7.013
  409XTA     C632241  -8.202  26.758  -7.095
  409XTA     C732242  -8.112  26.692  -7.179
  409XTA     C832243  -8.122  26.554  -7.191
  409XTA     C932244  -8.211  26.486  -7.103
  409XTA    C1032245  -8.293  26.552  -7.007
  409XTA    CN332246  -8.478  26.837  -6.998
  409XTA    C1132247  -8.481  26.976  -6.978
  409XTA    C1232248  -8.571  27.061  -7.049
  409XTA    C1332249  -8.669  27.003  -7.133
  409XTA    C1432250  -8.660  26.865  -7.162
  409XTA    C1532251  -8.567  26.787  -7.095
  409XTA     H132252  -8.564  26.734  -6.749
  409XTA     H232253  -8.503  26.743  -6.499
  409XTA     H332254  -8.098  26.811  -6.595
  409XTA     H432255  -8.141  26.813  -6.829
  409XTA     H532256  -8.202  26.869  -7.095
  409XTA     H632257  -8.046  26.745  -7.245
  409XTA     H732258  -8.224  26.377  -7.118
  409XTA     H832259  -8.367  26.489  -6.953
  409XTA     H932260  -8.413  27.032  -6.922
  409XTA    H1032261  -8.580  27.160  -7.018
  409XTA    H1132262  -8.716  26.823  -7.239
  409XTA    H1232263  -8.566  26.681  -7.122
  409XTA    OA132264  -8.271  26.790  -6.398
  409XTA    CO132265  -8.369  26.816  -6.310
  409XTA    OA232266  -8.039  26.490  -7.281
  409XTA    CO232267  -8.067  26.356  -7.314
  409XTA    CL132268  -7.987  26.295  -7.434
  409XTA    CL232269  -8.029  26.366  -7.559
  409XTA    CL332270  -8.177  26.356  -7.589
  409XTA    CL432271  -8.217  26.415  -7.723
  409XTA    CO332272  -8.217  26.565  -7.722
  409XTA    OA332273  -8.263  26.615  -7.848
  409XTA    CO432274  -8.160  26.617  -7.945
  409XTA    CT132275  -8.211  26.654  -8.085
  409XTA    CL532276  -8.310  26.547  -8.127
  409XTA    CL632277  -8.437  26.525  -8.037
  409XTA    OA432278  -8.756  27.082  -7.207
  409XTA    CO532279  -8.879  27.019  -7.249
  409XTA    HL132280  -8.928  26.970  -7.161
  409XTA    HL232281  -8.451  26.737  -6.301
  409XTA    HL332282  -8.330  26.816  -6.205
  409XTA    HL432283  -8.412  26.912  -6.330
  409XTA    HL532284  -8.045  26.294  -7.229
  409XTA    HL632285  -8.170  26.347  -7.323
  409XTA    HL732286  -8.030  26.193  -7.439
  409XTA    HL832287  -7.880  26.295  -7.418
  409XTA    HL932288  -7.978  26.326  -7.648
  409XTA   HL1032289  -7.996  26.473  -7.562
  409XTA   HL1132290  -8.215  26.252  -7.580
  409XTA   HL1232291  -8.228  26.421  -7.515
  409XTA   HL1332292  -8.316  26.376  -7.758
  409XTA   HL1432293  -8.139  26.389  -7.795
  409XTA   HL1532294  -8.282  26.598  -7.639
  409XTA   HL1632295  -8.115  26.595  -7.700
  409XTA   HL1732296  -8.086  26.687  -7.909
  409XTA   HL1832297  -8.109  26.522  -7.952
  409XTA   HL1932298  -8.254  26.451  -8.136
  409XTA   HL2032299  -8.353  26.571  -8.225
  409XTA   HL2132300  -8.509  26.469  -8.093
  409XTA   HL2232301  -8.485  26.618  -8.008
  409XTA   HL2332302  -8.409  26.469  -7.952
  409XTA   HL2432303  -8.864  26.941  -7.328
  409XTA   HL2532304  -8.952  27.089  -7.284
  409XTA    CO632305  -8.084  26.675  -8.176
  409XTA    CO732306  -8.275  26.796  -8.078
  409XTA    OA532307  -8.317  26.837  -8.214
  409XTA   HL2632308  -8.127  26.682  -8.282
  409XTA   HL2732309  -8.040  26.774  -8.155
  409XTA   HL2832310  -8.200  26.867  -8.033
  409XTA   HL2932311  -8.360  26.798  -8.011
  410XTA     NT32312  -1.296  26.171 -11.395
  410XTA    CN132313  -1.180  26.182 -11.464
  410XTA     C132314  -1.172  26.149 -11.601
  410XTA     C232315  -1.052  26.164 -11.674
  410XTA     C332316  -0.944  26.230 -11.611
  410XTA     C432317  -0.947  26.249 -11.464
  410XTA     C532318  -1.070  26.230 -11.396
  410XTA    CN232319  -1.421  26.211 -11.448
  410XTA     C632320  -1.451  26.344 -11.438
  410XTA     C732321  -1.555  26.403 -11.514
  410XTA     C832322  -1.648  26.318 -11.573
  410XTA     C932323  -1.634  26.177 -11.559
  410XTA    C1032324  -1.506  26.124 -11.513
  410XTA    CN332325  -1.295  26.087 -11.285
  410XTA    C1132326  -1.270  26.141 -11.154
  410XTA    C1232327  -1.276  26.058 -11.040
  410XTA    C1332328  -1.298  25.923 -11.056
  410XTA    C1432329  -1.316  25.864 -11.179
  410XTA    C1532330  -1.315  25.943 -11.298
  410XTA     H132331  -1.255  26.111 -11.654
  410XTA     H232332  -1.048  26.156 -11.780
  410XTA     H332333  -0.868  26.295 -11.398
  410XTA     H432334  -1.077  26.252 -11.283
  410XTA     H532335  -1.385  26.413 -11.389
  410XTA     H632336  -1.564  26.514 -11.524
  410XTA     H732337  -1.704  26.111 -11.602
  410XTA     H832338  -1.487  26.022 -11.517
  410XTA     H932339  -1.254  26.249 -11.156
  410XTA    H1032340  -1.254  26.095 -10.939
  410XTA    H1132341  -1.329  25.759 -11.186
  410XTA    H1232342  -1.328  25.907 -11.399
  410XTA    OA132343  -0.828  26.256 -11.686
  410XTA    CO132344  -0.712  26.260 -11.615
  410XTA    OA232345  -1.761  26.380 -11.628
  410XTA    CO232346  -1.864  26.300 -11.674
  410XTA    CL132347  -1.979  26.398 -11.703
  410XTA    CL232348  -1.971  26.489 -11.826
  410XTA    CL332349  -2.035  26.447 -11.950
  410XTA    CL432350  -2.042  26.557 -12.059
  410XTA    CO332351  -2.059  26.494 -12.204
  410XTA    OA332352  -2.016  26.594 -12.301
  410XTA    CO432353  -1.873  26.605 -12.305
  410XTA    CT132354  -1.829  26.734 -12.382
  410XTA    CL532355  -1.869  26.863 -12.291
  410XTA    CL632356  -2.015  26.905 -12.311
  410XTA    OA432357  -1.296  25.854 -10.937
  410XTA    CO532358  -1.299  25.708 -10.940
  410XTA    HL132359  -1.389  25.679 -10.999
  410XTA    HL232360  -0.717  26.343 -11.553
  410XTA    HL332361  -0.689  26.168 -11.564
  410XTA    HL432362  -0.638  26.272 -11.705
  410XTA    HL532363  -1.846  26.236 -11.765
  410XTA    HL632364  -1.902  26.229 -11.597
  410XTA    HL732365  -2.001  26.466 -11.618
  410XTA    HL832366  -2.073  26.334 -11.708
  410XTA    HL932367  -1.868  26.519 -11.844
  410XTA   HL1032368  -2.024  26.579 -11.804
  410XTA   HL1132369  -1.987  26.362 -11.989
  410XTA   HL1232370  -2.139  26.408 -11.933
  410XTA   HL1332371  -1.951  26.615 -12.051
  410XTA   HL1432372  -2.109  26.635 -12.039
  410XTA   HL1532373  -2.001  26.405 -12.210
  410XTA   HL1632374  -2.163  26.462 -12.207
  410XTA   HL1732375  -1.827  26.597 -12.206
  410XTA   HL1832376  -1.848  26.510 -12.360
  410XTA   HL1932377  -1.811  26.945 -12.326
  410XTA   HL2032378  -1.859  26.855 -12.181
  410XTA   HL2132379  -2.074  26.820 -12.277
  410XTA   HL2232380  -2.023  26.924 -12.418
  410XTA   HL2332381  -2.036  26.994 -12.246
  410XTA   HL2432382  -1.325  25.674 -10.841
  410XTA   HL2532383  -1.200  25.675 -10.974
  410XTA    CO632384  -1.896  26.726 -12.525
  410XTA    CO732385  -1.677  26.735 -12.394
  410XTA    OA532386  -1.826  26.629 -12.594
  410XTA   HL2632387  -1.873  26.814 -12.579
  410XTA   HL2732388  -2.000  26.708 -12.515
  410XTA   HL2832389  -1.640  26.648 -12.438
  410XTA   HL2932390  -1.634  26.741 -12.292
  411XTA     NT32391  -2.119  26.466  -8.322
  411XTA    CN132392  -2.044  26.520  -8.221
  411XTA     C132393  -2.054  26.450  -8.091
  411XTA     C232394  -1.982  26.498  -7.981
  411XTA     C332395  -1.886  26.601  -8.000
  411XTA     C432396  -1.864  26.651  -8.127
  411XTA     C532397  -1.947  26.619  -8.235
  411XTA    CN232398  -2.086  26.343  -8.377
  411XTA     C632399  -1.953  26.310  -8.396
  411XTA     C732400  -1.916  26.199  -8.472
  411XTA     C832401  -2.015  26.119  -8.542
  411XTA     C932402  -2.143  26.146  -8.519
  411XTA    C1032403  -2.185  26.257  -8.438
  411XTA    CN332404  -2.180  26.555  -8.406
  411XTA    C1132405  -2.309  26.594  -8.366
  411XTA    C1232406  -2.380  26.684  -8.441
  411XTA    C1332407  -2.320  26.738  -8.564
  411XTA    C1432408  -2.192  26.696  -8.602
  411XTA    C1532409  -2.121  26.597  -8.528
  411XTA     H132410  -2.127  26.364  -8.077
  411XTA     H232411  -1.997  26.471  -7.879
  411XTA     H332412  -1.796  26.730  -8.145
  411XTA     H432413  -1.917  26.664  -8.331
  411XTA     H532414  -1.879  26.370  -8.345
  411XTA     H632415  -1.819  26.175  -8.485
  411XTA     H732416  -2.219  26.090  -8.572
  411XTA     H832417  -2.289  26.288  -8.442
  411XTA     H932418  -2.362  26.546  -8.279
  411XTA    H1032419  -2.479  26.703  -8.410
  411XTA    H1132420  -2.140  26.736  -8.688
  411XTA    H1232421  -2.015  26.569  -8.552
  411XTA    OA132422  -1.826  26.642  -7.884
  411XTA    CO132423  -1.694  26.695  -7.888
  411XTA    OA232424  -1.976  26.010  -8.610
  411XTA    CO232425  -1.849  26.020  -8.675
  411XTA    CL132426  -1.841  25.890  -8.758
  411XTA    CL232427  -1.936  25.886  -8.873
  411XTA    CL332428  -1.883  25.801  -8.989
  411XTA    CL432429  -1.966  25.775  -9.112
  411XTA    CO332430  -2.048  25.643  -9.099
  411XTA    OA332431  -2.077  25.607  -8.965
  411XTA    CO432432  -2.193  25.525  -8.949
  411XTA    CT132433  -2.211  25.482  -8.800
  411XTA    CL532434  -2.092  25.396  -8.746
  411XTA    CL632435  -1.953  25.457  -8.749
  411XTA    OA432436  -2.378  26.837  -8.645
  411XTA    CO532437  -2.515  26.848  -8.623
  411XTA    HL132438  -2.571  26.760  -8.660
  411XTA    HL232439  -1.648  26.688  -7.786
  411XTA    HL332440  -1.640  26.631  -7.956
  411XTA    HL432441  -1.694  26.798  -7.923
  411XTA    HL532442  -1.852  26.113  -8.732
  411XTA    HL632443  -1.770  26.028  -8.609
  411XTA    HL732444  -1.841  25.800  -8.697
  411XTA    HL832445  -1.746  25.885  -8.808
  411XTA    HL932446  -1.947  25.988  -8.914
  411XTA   HL1032447  -2.036  25.855  -8.848
  411XTA   HL1132448  -1.781  25.836  -9.013
  411XTA   HL1232449  -1.874  25.699  -8.944
  411XTA   HL1332450  -1.905  25.769  -9.201
  411XTA   HL1432451  -2.036  25.852  -9.121
  411XTA   HL1532452  -2.143  25.661  -9.153
  411XTA   HL1632453  -1.990  25.562  -9.140
  411XTA   HL1732454  -2.290  25.571  -8.982
  411XTA   HL1832455  -2.166  25.432  -9.001
  411XTA   HL1932456  -2.090  25.299  -8.795
  411XTA   HL2032457  -2.119  25.380  -8.643
  411XTA   HL2132458  -1.923  25.471  -8.851
  411XTA   HL2232459  -1.883  25.380  -8.702
  411XTA   HL2332460  -1.936  25.551  -8.699
  411XTA   HL2432461  -2.549  26.934  -8.681
  411XTA   HL2532462  -2.550  26.883  -8.526
  411XTA    CO632463  -2.337  25.406  -8.786
  411XTA    CO732464  -2.215  25.609  -8.707
  411XTA    OA532465  -2.341  25.318  -8.854
  411XTA   HL2632466  -2.423  25.471  -8.802
  411XTA   HL2732467  -2.337  25.374  -8.676
  411XTA   HL2832468  -2.090  25.671  -8.701
  411XTA   HL2932469  -2.228  25.570  -8.609
  412XTA     NT32470  -6.706  26.232  -9.721
  412XTA    CN132471  -6.646  26.213  -9.839
  412XTA     C132472  -6.526  26.276  -9.865
  412XTA     C232473  -6.458  26.258  -9.993
  412XTA     C332474  -6.515  26.172 -10.086
  412XTA     C432475  -6.634  26.102 -10.056
  412XTA     C532476  -6.697  26.123  -9.933
  412XTA    CN232477  -6.664  26.164  -9.616
  412XTA     C632478  -6.576  26.223  -9.530
  412XTA     C732479  -6.535  26.148  -9.413
  412XTA     C832480  -6.594  26.017  -9.389
  412XTA     C932481  -6.691  25.968  -9.477
  412XTA    C1032482  -6.720  26.038  -9.590
  412XTA    CN332483  -6.781  26.346  -9.703
  412XTA    C1132484  -6.909  26.333  -9.658
  412XTA    C1232485  -6.984  26.448  -9.627
  412XTA    C1332486  -6.931  26.578  -9.647
  412XTA    C1432487  -6.802  26.588  -9.690
  412XTA    C1532488  -6.725  26.473  -9.722
  412XTA     H132489  -6.476  26.341  -9.785
  412XTA     H232490  -6.374  26.324  -9.999
  412XTA     H332491  -6.664  26.018 -10.122
  412XTA     H432492  -6.789  26.069  -9.915
  412XTA     H532493  -6.546  26.319  -9.542
  412XTA     H632494  -6.463  26.184  -9.346
  412XTA     H732495  -6.747  25.878  -9.449
  412XTA     H832496  -6.799  25.999  -9.650
  412XTA     H932497  -6.960  26.236  -9.654
  412XTA    H1032498  -7.078  26.440  -9.586
  412XTA    H1132499  -6.763  26.688  -9.705
  412XTA    H1232500  -6.622  26.477  -9.750
  412XTA    OA132501  -6.452  26.133 -10.204
  412XTA    CO132502  -6.318  26.179 -10.222
  412XTA    OA232503  -6.559  25.943  -9.281
  412XTA    CO232504  -6.551  26.021  -9.167
  412XTA    CL132505  -6.578  25.939  -9.042
  412XTA    CL232506  -6.705  25.850  -9.058
  412XTA    CL332507  -6.834  25.923  -9.087
  412XTA    CL432508  -6.956  25.848  -9.038
  412XTA    CO332509  -7.080  25.941  -9.036
  412XTA    OA332510  -7.194  25.890  -8.981
  412XTA    CO432511  -7.307  25.975  -9.000
  412XTA    CT132512  -7.433  25.912  -8.927
  412XTA    CL532513  -7.524  26.029  -8.889
  412XTA    CL632514  -7.645  25.997  -8.790
  412XTA    OA432515  -7.009  26.690  -9.617
  412XTA    CO532516  -6.945  26.810  -9.597
  412XTA    HL132517  -6.897  26.849  -9.683
  412XTA    HL232518  -6.250  26.134 -10.151
  412XTA    HL332519  -6.277  26.151 -10.320
  412XTA    HL432520  -6.319  26.282 -10.217
  412XTA    HL532521  -6.450  26.060  -9.159
  412XTA    HL632522  -6.629  26.105  -9.165
  412XTA    HL732523  -6.577  26.014  -8.956
  412XTA    HL832524  -6.495  25.871  -9.006
  412XTA    HL932525  -6.714  25.794  -8.964
  412XTA   HL1032526  -6.700  25.770  -9.125
  412XTA   HL1132527  -6.817  26.011  -9.023
  412XTA   HL1232528  -6.843  25.946  -9.191
  412XTA   HL1332529  -6.934  25.805  -8.938
  412XTA   HL1432530  -6.968  25.756  -9.094
  412XTA   HL1532531  -7.060  26.033  -8.985
  412XTA   HL1632532  -7.115  25.961  -9.137
  412XTA   HL1732533  -7.280  26.076  -8.961
  412XTA   HL1832534  -7.324  26.002  -9.109
  412XTA   HL1932535  -7.560  26.097  -8.966
  412XTA   HL2032536  -7.464  26.097  -8.826
  412XTA   HL2132537  -7.693  25.902  -8.821
  412XTA   HL2232538  -7.716  26.076  -8.785
  412XTA   HL2332539  -7.607  25.980  -8.684
  412XTA   HL2432540  -6.878  26.807  -9.508
  412XTA   HL2532541  -7.017  26.892  -9.576
  412XTA    CO632542  -7.397  25.824  -8.807
  412XTA    CO732543  -7.502  25.815  -9.023
  412XTA    OA532544  -7.365  25.882  -8.719
  412XTA   HL2632545  -7.306  25.761  -8.829
  412XTA   HL2732546  -7.474  25.753  -8.789
  412XTA   HL2832547  -7.631  25.780  -8.986
  412XTA   HL2932548  -7.518  25.859  -9.121
  413XTH     NT32549  -4.958  27.578  -6.289
  413XTH    CN132550  -4.874  27.485  -6.264
  413XTH     C132551  -4.832  27.396  -6.361
  413XTH     C232552  -4.747  27.290  -6.331
  413XTH     C332553  -4.714  27.266  -6.195
  413XTH     C432554  -4.756  27.355  -6.099
  413XTH     C532555  -4.840  27.467  -6.130
  413XTH    CN232556  -4.936  27.689  -6.366
  413XTH     C632557  -4.849  27.794  -6.325
  413XTH     C732558  -4.822  27.900  -6.416
  413XTH     C832559  -4.889  27.911  -6.539
  413XTH     C932560  -4.978  27.813  -6.576
  413XTH    C1032561  -4.996  27.702  -6.492
  413XTH    CN332562  -5.075  27.579  -6.229
  413XTH    C1132563  -5.161  27.469  -6.254
  413XTH    C1232564  -5.289  27.459  -6.185
  413XTH    C1332565  -5.313  27.558  -6.088
  413XTH    C1432566  -5.219  27.652  -6.050
  413XTH    C1532567  -5.098  27.662  -6.120
  413XTH     H132568  -4.855  27.423  -6.461
  413XTH     H232569  -4.716  27.228  -6.414
  413XTH     H332570  -4.717  27.345  -5.998
  413XTH     H432571  -4.871  27.537  -6.059
  413XTH     H532572  -4.795  27.791  -6.231
  413XTH     H632573  -4.749  27.977  -6.388
  413XTH     H732574  -5.034  27.814  -6.670
  413XTH     H832575  -5.058  27.617  -6.525
  413XTH     H932576  -5.132  27.398  -6.328
  413XTH    H1032577  -5.362  27.387  -6.215
  413XTH    H1132578  -5.235  27.713  -5.961
  413XTH    H1232579  -5.015  27.720  -6.098
  413XTH    OA132580  -4.626  27.166  -6.167
  413XTH    CO132581  -4.539  27.178  -6.058
  413XTH    OA232582  -4.857  28.011  -6.627
  413XTH    CO232583  -4.902  27.988  -6.765
  413XTH    CL132584  -4.839  28.105  -6.850
  413XTH    CL232585  -4.693  28.130  -6.831
  413XTH    CL332586  -4.612  28.010  -6.856
  413XTH    CL432587  -4.606  27.956  -7.003
  413XTH    CO332588  -4.674  27.823  -7.017
  413XTH    OA332589  -4.685  27.781  -7.152
  413XTH    CO432590  -4.784  27.679  -7.165
  413XTH    CT132591  -4.781  27.639  -7.316
  413XTH    CL532592  -4.639  27.585  -7.339
  413XTH    CL632593  -4.615  27.520  -7.478
  413XTH    OA432594  -5.432  27.559  -6.014
  413XTH    CO532595  -5.544  27.529  -6.085
  413XTH    HL132596  -5.635  27.570  -6.048
  413XTH    HL232597  -4.459  27.101  -6.064
  413XTH    HL332598  -4.488  27.279  -6.039
  413XTH    HL432599  -4.588  27.159  -5.964
  413XTH    HL532600  -4.859  27.893  -6.798
  413XTH    HL632601  -5.008  27.971  -6.783
  413XTH    HL732602  -4.898  28.193  -6.825
  413XTH    HL832603  -4.858  28.078  -6.952
  413XTH    HL932604  -4.670  28.155  -6.725
  413XTH   HL1032605  -4.666  28.213  -6.899
  413XTH   HL1132606  -4.517  28.048  -6.816
  413XTH   HL1232607  -4.638  27.935  -6.777
  413XTH   HL1332608  -4.504  27.957  -7.040
  413XTH   HL1432609  -4.655  28.028  -7.059
  413XTH   HL1532610  -4.608  27.752  -6.963
  413XTH   HL1632611  -4.763  27.808  -6.953
  413XTH   HL1732612  -4.777  27.594  -7.104
  413XTH   HL1832613  -4.878  27.718  -7.136
  413XTH   HL1932614  -4.612  27.500  -7.266
  413XTH   HL2032615  -4.556  27.662  -7.320
  413XTH   HL2132616  -4.655  27.420  -7.483
  413XTH   HL2232617  -4.506  27.502  -7.491
  413XTH   HL2332618  -4.652  27.578  -7.564
  413XTH   HL2432619  -5.556  27.420  -6.094
  413XTH   HL2532620  -5.531  27.566  -6.186
  413XTH    CO632621  -4.813  27.764  -7.396
  413XTH    CO732622  -4.881  27.525  -7.339
  413XTH    OA532623  -4.982  27.548  -7.300
  413XTH   HL2632624  -4.911  27.797  -7.365
  413XTH   HL2732625  -4.728  27.867  -7.356
  413XTH   HL2832626  -4.834  27.430  -7.305
  413XTH   HL2932627  -4.902  27.524  -7.453
  414XTA     NT32628  -2.725  29.468 -10.714
  414XTA    CN132629  -2.758  29.423 -10.592
  414XTA     C132630  -2.864  29.338 -10.564
  414XTA     C232631  -2.891  29.293 -10.432
  414XTA     C332632  -2.813  29.336 -10.326
  414XTA     C432633  -2.705  29.429 -10.352
  414XTA     C532634  -2.686  29.480 -10.482
  414XTA    CN232635  -2.815  29.546 -10.781
  414XTA     C632636  -2.827  29.679 -10.745
  414XTA     C732637  -2.943  29.748 -10.792
  414XTA     C832638  -3.030  29.688 -10.890
  414XTA     C932639  -3.001  29.560 -10.935
  414XTA    C1032640  -2.895  29.488 -10.884
  414XTA    CN332641  -2.607  29.449 -10.774
  414XTA    C1132642  -2.587  29.351 -10.869
  414XTA    C1232643  -2.459  29.323 -10.925
  414XTA    C1332644  -2.347  29.393 -10.887
  414XTA    C1432645  -2.367  29.503 -10.791
  414XTA    C1532646  -2.494  29.525 -10.732
  414XTA     H132647  -2.928  29.312 -10.648
  414XTA     H232648  -2.977  29.239 -10.404
  414XTA     H332649  -2.626  29.463 -10.274
  414XTA     H432650  -2.606  29.549 -10.487
  414XTA     H532651  -2.753  29.720 -10.671
  414XTA     H632652  -2.952  29.854 -10.768
  414XTA     H732653  -3.070  29.513 -10.996
  414XTA     H832654  -2.885  29.384 -10.896
  414XTA     H932655  -2.674  29.295 -10.902
  414XTA    H1032656  -2.457  29.247 -11.002
  414XTA    H1132657  -2.285  29.558 -10.757
  414XTA    H1232658  -2.501  29.607 -10.653
  414XTA    OA132659  -2.833  29.290 -10.196
  414XTA    CO132660  -2.771  29.359 -10.091
  414XTA    OA232661  -3.130  29.762 -10.934
  414XTA    CO232662  -3.164  29.757 -11.071
  414XTA    CL132663  -3.266  29.865 -11.105
  414XTA    CL232664  -3.401  29.814 -11.061
  414XTA    CL332665  -3.424  29.745 -10.925
  414XTA    CL432666  -3.576  29.746 -10.890
  414XTA    CO332667  -3.595  29.677 -10.758
  414XTA    OA332668  -3.718  29.730 -10.706
  414XTA    CO432669  -3.826  29.642 -10.684
  414XTA    CT132670  -3.952  29.725 -10.643
  414XTA    CL532671  -4.070  29.629 -10.655
  414XTA    CL632672  -4.128  29.595 -10.798
  414XTA    OA432673  -2.229  29.349 -10.934
  414XTA    CO532674  -2.118  29.431 -10.902
  414XTA    HL132675  -2.026  29.379 -10.927
  414XTA    HL232676  -2.663  29.359 -10.101
  414XTA    HL332677  -2.795  29.464 -10.085
  414XTA    HL432678  -2.796  29.309 -10.004
  414XTA    HL532679  -3.071  29.770 -11.132
  414XTA    HL632680  -3.208  29.661 -11.094
  414XTA    HL732681  -3.278  29.861 -11.211
  414XTA    HL832682  -3.247  29.968 -11.073
  414XTA    HL932683  -3.440  29.757 -11.145
  414XTA   HL1032684  -3.454  29.911 -11.068
  414XTA   HL1132685  -3.389  29.642 -10.937
  414XTA   HL1232686  -3.372  29.791 -10.849
  414XTA   HL1332687  -3.622  29.697 -10.976
  414XTA   HL1432688  -3.616  29.842 -10.885
  414XTA   HL1532689  -3.600  29.567 -10.760
  414XTA   HL1632690  -3.517  29.709 -10.685
  414XTA   HL1732691  -3.854  29.585 -10.770
  414XTA   HL1832692  -3.806  29.570 -10.605
  414XTA   HL1932693  -4.147  29.667 -10.585
  414XTA   HL2032694  -4.031  29.530 -10.616
  414XTA   HL2132695  -4.174  29.680 -10.835
  414XTA   HL2232696  -4.201  29.515 -10.796
  414XTA   HL2332697  -4.051  29.569 -10.873
  414XTA   HL2432698  -2.107  29.454 -10.801
  414XTA   HL2532699  -2.120  29.521 -10.958
  414XTA    CO632700  -3.976  29.857 -10.721
  414XTA    CO732701  -3.915  29.760 -10.493
  414XTA    OA532702  -4.002  29.793 -10.441
  414XTA   HL2632703  -3.879  29.916 -10.716
  414XTA   HL2732704  -3.983  29.847 -10.860
  414XTA   HL2832705  -3.827  29.820 -10.475
  414XTA   HL2932706  -3.900  29.653 -10.447
  415XTA     NT32707  -2.439  27.960  -9.708
  415XTA    CN132708  -2.354  27.955  -9.601
  415XTA     C132709  -2.287  27.841  -9.561
  415XTA     C232710  -2.187  27.834  -9.456
  415XTA     C332711  -2.159  27.961  -9.381
  415XTA     C432712  -2.236  28.078  -9.426
  415XTA     C532713  -2.332  28.073  -9.528
  415XTA    CN232714  -2.511  27.851  -9.730
  415XTA     C632715  -2.618  27.820  -9.654
  415XTA     C732716  -2.704  27.717  -9.690
  415XTA     C832717  -2.672  27.630  -9.797
  415XTA     C932718  -2.556  27.652  -9.870
  415XTA    C1032719  -2.477  27.765  -9.835
  415XTA    CN332720  -2.471  28.075  -9.771
  415XTA    C1132721  -2.606  28.103  -9.806
  415XTA    C1232722  -2.641  28.214  -9.883
  415XTA    C1332723  -2.541  28.298  -9.929
  415XTA    C1432724  -2.403  28.272  -9.903
  415XTA    C1532725  -2.367  28.161  -9.825
  415XTA     H132726  -2.313  27.739  -9.605
  415XTA     H232727  -2.134  27.744  -9.442
  415XTA     H332728  -2.216  28.179  -9.384
  415XTA     H432729  -2.385  28.163  -9.553
  415XTA     H532730  -2.632  27.885  -9.571
  415XTA     H632731  -2.794  27.693  -9.633
  415XTA     H732732  -2.524  27.590  -9.956
  415XTA     H832733  -2.392  27.790  -9.897
  415XTA     H932734  -2.684  28.033  -9.782
  415XTA    H1032735  -2.739  28.234  -9.921
  415XTA    H1132736  -2.339  28.337  -9.963
  415XTA    H1232737  -2.259  28.131  -9.824
  415XTA    OA132738  -2.065  27.966  -9.281
  415XTA    CO132739  -2.022  27.838  -9.232
  415XTA    OA232740  -2.744  27.515  -9.830
  415XTA    CO232741  -2.878  27.508  -9.783
  415XTA    CL132742  -2.942  27.378  -9.839
  415XTA    CL232743  -3.099  27.367  -9.851
  415XTA    CL332744  -3.175  27.376  -9.718
  415XTA    CL432745  -3.205  27.517  -9.666
  415XTA    CO332746  -3.338  27.528  -9.584
  415XTA    OA332747  -3.344  27.435  -9.475
  415XTA    CO432748  -3.435  27.494  -9.388
  415XTA    CT132749  -3.474  27.405  -9.266
  415XTA    CL532750  -3.568  27.489  -9.174
  415XTA    CL632751  -3.495  27.580  -9.066
  415XTA    OA432752  -2.565  28.396 -10.023
  415XTA    CO532753  -2.697  28.455 -10.025
  415XTA    HL132754  -2.725  28.455  -9.923
  415XTA    HL232755  -1.969  27.790  -9.309
  415XTA    HL332756  -1.962  27.844  -9.141
  415XTA    HL432757  -2.100  27.761  -9.203
  415XTA    HL532758  -2.886  27.512  -9.671
  415XTA    HL632759  -2.924  27.590  -9.830
  415XTA    HL732760  -2.905  27.292  -9.778
  415XTA    HL832761  -2.895  27.358  -9.934
  415XTA    HL932762  -3.126  27.273  -9.910
  415XTA   HL1032763  -3.135  27.442  -9.926
  415XTA   HL1132764  -3.271  27.323  -9.739
  415XTA   HL1232765  -3.128  27.323  -9.632
  415XTA   HL1332766  -3.191  27.609  -9.735
  415XTA   HL1432767  -3.120  27.535  -9.595
  415XTA   HL1532768  -3.334  27.636  -9.550
  415XTA   HL1632769  -3.421  27.522  -9.660
  415XTA   HL1732770  -3.388  27.591  -9.350
  415XTA   HL1832771  -3.529  27.522  -9.435
  415XTA   HL1932772  -3.635  27.419  -9.124
  415XTA   HL2032773  -3.627  27.558  -9.229
  415XTA   HL2132774  -3.574  27.638  -9.018
  415XTA   HL2232775  -3.431  27.652  -9.112
  415XTA   HL2332776  -3.441  27.524  -8.989
  415XTA   HL2432777  -2.772  28.409 -10.089
  415XTA   HL2532778  -2.702  28.564 -10.047
  415XTA    CO632779  -3.350  27.345  -9.196
  415XTA    CO732780  -3.554  27.280  -9.320
  415XTA    OA532781  -3.386  27.267  -9.120
  415XTA   HL2632782  -3.309  27.430  -9.143
  415XTA   HL2732783  -3.276  27.308  -9.269
  415XTA   HL2832784  -3.597  27.204  -9.210
  415XTA   HL2932785  -3.494  27.220  -9.386
  416XTA     NT32786  -4.847  29.029 -11.471
  416XTA    CN132787  -4.794  29.148 -11.426
  416XTA     C132788  -4.837  29.267 -11.489
  416XTA     C232789  -4.787  29.393 -11.452
  416XTA     C332790  -4.685  29.396 -11.357
  416XTA     C432791  -4.630  29.275 -11.296
  416XTA     C532792  -4.702  29.153 -11.321
  416XTA    CN232793  -4.957  28.977 -11.417
  416XTA     C632794  -5.059  29.062 -11.375
  416XTA     C732795  -5.171  29.009 -11.308
  416XTA     C832796  -5.177  28.869 -11.274
  416XTA     C932797  -5.068  28.786 -11.314
  416XTA    C1032798  -4.960  28.842 -11.379
  416XTA    CN332799  -4.824  28.994 -11.602
  416XTA    C1132800  -4.924  29.002 -11.693
  416XTA    C1232801  -4.899  28.982 -11.829
  416XTA    C1332802  -4.767  28.954 -11.873
  416XTA    C1432803  -4.681  28.916 -11.766
  416XTA    C1532804  -4.701  28.939 -11.632
  416XTA     H132805  -4.914  29.252 -11.569
  416XTA     H232806  -4.812  29.483 -11.501
  416XTA     H332807  -4.541  29.283 -11.229
  416XTA     H432808  -4.678  29.063 -11.275
  416XTA     H532809  -5.046  29.166 -11.377
  416XTA     H632810  -5.255  29.070 -11.274
  416XTA     H732811  -5.057  28.680 -11.282
  416XTA     H832812  -4.873  28.777 -11.404
  416XTA     H932813  -5.019  29.030 -11.671
  416XTA    H1032814  -4.978  28.994 -11.897
  416XTA    H1132815  -4.587  28.868 -11.789
  416XTA    H1232816  -4.630  28.930 -11.549
  416XTA    OA132817  -4.602  29.508 -11.326
  416XTA    CO132818  -4.632  29.622 -11.407
  416XTA    OA232819  -5.286  28.822 -11.201
  416XTA    CO232820  -5.258  28.703 -11.126
  416XTA    CL132821  -5.359  28.683 -11.004
  416XTA    CL232822  -5.405  28.541 -10.980
  416XTA    CL332823  -5.530  28.500 -11.056
  416XTA    CL432824  -5.571  28.355 -11.035
  416XTA    CO332825  -5.648  28.328 -10.913
  416XTA    OA332826  -5.786  28.355 -10.938
  416XTA    CO432827  -5.840  28.464 -10.864
  416XTA    CT132828  -5.969  28.516 -10.931
  416XTA    CL532829  -6.082  28.407 -10.921
  416XTA    CL632830  -6.070  28.285 -11.018
  416XTA    OA432831  -4.740  28.939 -12.006
  416XTA    CO532832  -4.609  28.969 -12.058
  416XTA    HL132833  -4.536  28.926 -11.995
  416XTA    HL232834  -4.641  29.593 -11.513
  416XTA    HL332835  -4.729  29.666 -11.381
  416XTA    HL432836  -4.554  29.698 -11.392
  416XTA    HL532837  -5.244  28.618 -11.198
  416XTA    HL632838  -5.157  28.704 -11.077
  416XTA    HL732839  -5.450  28.748 -11.005
  416XTA    HL832840  -5.308  28.703 -10.910
  416XTA    HL932841  -5.427  28.531 -10.870
  416XTA   HL1032842  -5.328  28.460 -11.000
  416XTA   HL1132843  -5.614  28.572 -11.036
  416XTA   HL1232844  -5.504  28.508 -11.159
  416XTA   HL1332845  -5.481  28.305 -11.047
  416XTA   HL1432846  -5.636  28.319 -11.121
  416XTA   HL1532847  -5.637  28.223 -10.885
  416XTA   HL1632848  -5.604  28.375 -10.823
  416XTA   HL1732849  -5.859  28.437 -10.765
  416XTA   HL1832850  -5.769  28.540 -10.877
  416XTA   HL1932851  -6.176  28.453 -10.930
  416XTA   HL2032852  -6.079  28.370 -10.821
  416XTA   HL2132853  -5.966  28.238 -11.019
  416XTA   HL2232854  -6.095  28.306 -11.122
  416XTA   HL2332855  -6.141  28.203 -10.995
  416XTA   HL2432856  -4.575  29.069 -12.051
  416XTA   HL2532857  -4.584  28.937 -12.156
  416XTA    CO632858  -5.934  28.560 -11.080
  416XTA    CO732859  -6.023  28.641 -10.851
  416XTA    OA532860  -6.132  28.662 -10.865
  416XTA   HL2632861  -5.881  28.474 -11.127
  416XTA   HL2732862  -5.848  28.669 -11.080
  416XTA   HL2832863  -5.959  28.723 -10.875
  416XTA   HL2932864  -6.007  28.617 -10.746
  417XTA     NT32865  -6.121  27.581  -7.008
  417XTA    CN132866  -6.034  27.488  -6.976
  417XTA     C132867  -5.903  27.509  -6.920
  417XTA     C232868  -5.840  27.412  -6.844
  417XTA     C332869  -5.889  27.285  -6.830
  417XTA     C432870  -6.017  27.254  -6.884
  417XTA     C532871  -6.090  27.356  -6.956
  417XTA    CN232872  -6.173  27.586  -7.130
  417XTA     C632873  -6.090  27.605  -7.244
  417XTA     C732874  -6.158  27.610  -7.365
  417XTA     C832875  -6.296  27.581  -7.381
  417XTA     C932876  -6.374  27.579  -7.266
  417XTA    C1032877  -6.315  27.581  -7.139
  417XTA    CN332878  -6.122  27.696  -6.926
  417XTA    C1132879  -6.066  27.822  -6.964
  417XTA    C1232880  -6.093  27.931  -6.879
  417XTA    C1332881  -6.155  27.912  -6.751
  417XTA    C1432882  -6.198  27.782  -6.712
  417XTA    C1532883  -6.182  27.675  -6.798
  417XTA     H132884  -5.876  27.613  -6.919
  417XTA     H232885  -5.744  27.437  -6.797
  417XTA     H332886  -6.062  27.158  -6.861
  417XTA     H432887  -6.191  27.332  -6.991
  417XTA     H532888  -5.984  27.611  -7.235
  417XTA     H632889  -6.100  27.615  -7.458
  417XTA     H732890  -6.476  27.564  -7.263
  417XTA     H832891  -6.374  27.561  -7.050
  417XTA     H932892  -6.006  27.837  -7.057
  417XTA    H1032893  -6.060  28.027  -6.913
  417XTA    H1132894  -6.238  27.765  -6.613
  417XTA    H1232895  -6.212  27.574  -6.777
  417XTA    OA132896  -5.825  27.179  -6.773
  417XTA    CO132897  -5.703  27.200  -6.702
  417XTA    OA232898  -6.347  27.577  -7.509
  417XTA    CO232899  -6.483  27.526  -7.513
  417XTA    CL132900  -6.516  27.520  -7.665
  417XTA    CL232901  -6.428  27.419  -7.741
  417XTA    CL332902  -6.440  27.433  -7.892
  417XTA    CL432903  -6.310  27.381  -7.954
  417XTA    CO332904  -6.267  27.457  -8.078
  417XTA    OA332905  -6.355  27.424  -8.185
  417XTA    CO432906  -6.297  27.342  -8.291
  417XTA    CT132907  -6.398  27.249  -8.368
  417XTA    CL532908  -6.528  27.333  -8.409
  417XTA    CL632909  -6.499  27.446  -8.500
  417XTA    OA432910  -6.176  28.012  -6.658
  417XTA    CO532911  -6.193  28.139  -6.708
  417XTA    HL132912  -6.183  28.203  -6.621
  417XTA    HL232913  -5.642  27.116  -6.680
  417XTA    HL332914  -5.643  27.257  -6.770
  417XTA    HL432915  -5.744  27.255  -6.617
  417XTA    HL532916  -6.484  27.422  -7.475
  417XTA    HL632917  -6.547  27.600  -7.464
  417XTA    HL732918  -6.500  27.625  -7.694
  417XTA    HL832919  -6.622  27.502  -7.680
  417XTA    HL932920  -6.458  27.318  -7.710
  417XTA   HL1032921  -6.331  27.441  -7.706
  417XTA   HL1132922  -6.529  27.370  -7.921
  417XTA   HL1232923  -6.467  27.528  -7.936
  417XTA   HL1332924  -6.309  27.273  -7.963
  417XTA   HL1432925  -6.230  27.417  -7.891
  417XTA   HL1532926  -6.264  27.564  -8.061
  417XTA   HL1632927  -6.164  27.426  -8.086
  417XTA   HL1732928  -6.262  27.420  -8.360
  417XTA   HL1832929  -6.211  27.285  -8.249
  417XTA   HL1932930  -6.570  27.363  -8.313
  417XTA   HL2032931  -6.611  27.271  -8.453
  417XTA   HL2132932  -6.458  27.421  -8.590
  417XTA   HL2232933  -6.434  27.519  -8.453
  417XTA   HL2332934  -6.590  27.505  -8.522
  417XTA   HL2432935  -6.280  28.147  -6.776
  417XTA   HL2532936  -6.102  28.157  -6.772
  417XTA    CO632937  -6.439  27.130  -8.270
  417XTA    CO732938  -6.318  27.190  -8.494
  417XTA    OA532939  -6.511  27.059  -8.318
  417XTA   HL2632940  -6.495  27.171  -8.185
  417XTA   HL2732941  -6.341  27.080  -8.239
  417XTA   HL2832942  -6.233  27.284  -8.555
  417XTA   HL2932943  -6.396  27.153  -8.566
  418XTA     NT32944  -3.331  24.890  -5.754
  418XTA    CN132945  -3.227  24.938  -5.834
  418XTA     C132946  -3.238  25.071  -5.883
  418XTA     C232947  -3.124  25.121  -5.952
  418XTA     C332948  -3.005  25.051  -5.974
  418XTA     C432949  -2.999  24.920  -5.926
  418XTA     C532950  -3.106  24.865  -5.855
  418XTA    CN232951  -3.447  24.866  -5.810
  418XTA     C632952  -3.457  24.815  -5.943
  418XTA     C732953  -3.579  24.807  -6.006
  418XTA     C832954  -3.696  24.850  -5.940
  418XTA     C932955  -3.682  24.897  -5.809
  418XTA    C1032956  -3.564  24.920  -5.752
  418XTA    CN332957  -3.304  24.825  -5.641
  418XTA    C1132958  -3.323  24.687  -5.635
  418XTA    C1232959  -3.293  24.602  -5.524
  418XTA    C1332960  -3.234  24.668  -5.410
  418XTA    C1432961  -3.226  24.811  -5.407
  418XTA    C1532962  -3.262  24.889  -5.524
  418XTA     H132963  -3.319  25.133  -5.851
  418XTA     H232964  -3.117  25.224  -5.996
  418XTA     H332965  -2.909  24.860  -5.924
  418XTA     H432966  -3.106  24.768  -5.817
  418XTA     H532967  -3.364  24.779  -5.991
  418XTA     H632968  -3.587  24.772  -6.113
  418XTA     H732969  -3.783  24.927  -5.761
  418XTA     H832970  -3.571  24.982  -5.661
  418XTA     H932971  -3.369  24.635  -5.716
  418XTA    H1032972  -3.309  24.499  -5.525
  418XTA    H1132973  -3.179  24.865  -5.326
  418XTA    H1232974  -3.238  24.994  -5.525
  418XTA    OA132975  -2.904  25.118  -6.037
  418XTA    CO132976  -2.770  25.063  -6.028
  418XTA    OA232977  -3.823  24.847  -5.988
  418XTA    CO232978  -3.845  24.835  -6.127
  418XTA    CL132979  -3.795  24.951  -6.202
  418XTA    CL232980  -3.781  24.922  -6.352
  418XTA    CL332981  -3.759  25.053  -6.431
  418XTA    CL432982  -3.619  25.107  -6.414
  418XTA    CO332983  -3.566  25.194  -6.528
  418XTA    OA332984  -3.422  25.215  -6.513
  418XTA    CO432985  -3.397  25.302  -6.404
  418XTA    CT132986  -3.243  25.318  -6.384
  418XTA    CL532987  -3.205  25.400  -6.252
  418XTA    CL632988  -3.295  25.520  -6.218
  418XTA    OA432989  -3.179  24.605  -5.303
  418XTA    CO532990  -3.090  24.491  -5.340
  418XTA    HL132991  -3.014  24.520  -5.414
  418XTA    HL232992  -2.734  25.039  -5.930
  418XTA    HL332993  -2.749  24.971  -6.084
  418XTA    HL432994  -2.706  25.129  -6.080
  418XTA    HL532995  -3.803  24.737  -6.164
  418XTA    HL632996  -3.950  24.827  -6.147
  418XTA    HL732997  -3.702  24.984  -6.160
  418XTA    HL832998  -3.857  25.035  -6.180
  418XTA    HL932999  -3.866  24.870  -6.385
  418XTA   HL1033000  -3.695  24.855  -6.367
  418XTA   HL1133001  -3.783  25.027  -6.537
  418XTA   HL1233002  -3.827  25.130  -6.392
  418XTA   HL1333003  -3.553  25.016  -6.408
  418XTA   HL1433004  -3.610  25.157  -6.317
  418XTA   HL1533005  -3.593  25.144  -6.624
  418XTA   HL1633006  -3.620  25.294  -6.526
  418XTA   HL1733007  -3.445  25.398  -6.419
  418XTA   HL1833008  -3.429  25.267  -6.312
  418XTA   HL1933009  -3.098  25.413  -6.256
  418XTA   HL2033010  -3.246  25.340  -6.175
  418XTA   HL2133011  -3.401  25.492  -6.231
  418XTA   HL2233012  -3.285  25.598  -6.293
  418XTA   HL2333013  -3.282  25.553  -6.115
  418XTA   HL2433014  -3.142  24.420  -5.408
  418XTA   HL2533015  -3.052  24.447  -5.251
  418XTA    CO633016  -3.181  25.397  -6.501
  418XTA    CO733017  -3.180  25.177  -6.374
  418XTA    OA533018  -3.067  25.173  -6.381
  418XTA   HL2633019  -3.083  25.347  -6.525
  418XTA   HL2733020  -3.263  25.394  -6.618
  418XTA   HL2833021  -3.218  25.115  -6.461
  418XTA   HL2933022  -3.209  25.133  -6.276
  419XTA     NT33023  -5.613  27.418 -10.870
  419XTA    CN133024  -5.541  27.307 -10.878
  419XTA     C133025  -5.609  27.188 -10.869
  419XTA     C233026  -5.544  27.069 -10.871
  419XTA     C333027  -5.410  27.060 -10.906
  419XTA     C433028  -5.341  27.183 -10.917
  419XTA     C533029  -5.404  27.308 -10.898
  419XTA    CN233030  -5.565  27.525 -10.801
  419XTA     C633031  -5.579  27.539 -10.666
  419XTA     C733032  -5.551  27.667 -10.610
  419XTA     C833033  -5.500  27.773 -10.691
  419XTA     C933034  -5.488  27.755 -10.822
  419XTA    C1033035  -5.522  27.634 -10.880
  419XTA    CN333036  -5.720  27.433 -10.955
  419XTA    C1133037  -5.854  27.406 -10.914
  419XTA    C1233038  -5.960  27.428 -11.006
  419XTA    C1333039  -5.929  27.458 -11.139
  419XTA    C1433040  -5.798  27.472 -11.184
  419XTA    C1533041  -5.694  27.457 -11.094
  419XTA     H133042  -5.712  27.193 -10.851
  419XTA     H233043  -5.601  26.974 -10.853
  419XTA     H333044  -5.241  27.190 -10.944
  419XTA     H433045  -5.340  27.394 -10.917
  419XTA     H533046  -5.624  27.454 -10.614
  419XTA     H633047  -5.566  27.680 -10.501
  419XTA     H733048  -5.450  27.827 -10.898
  419XTA     H833049  -5.515  27.625 -10.985
  419XTA     H933050  -5.874  27.368 -10.812
  419XTA    H1033051  -6.064  27.420 -10.980
  419XTA    H1133052  -5.772  27.492 -11.287
  419XTA    H1233053  -5.592  27.478 -11.126
  419XTA    OA133054  -5.355  26.937 -10.932
  419XTA    CO133055  -5.242  26.939 -11.017
  419XTA    OA233056  -5.495  27.907 -10.651
  419XTA    CO233057  -5.547  27.929 -10.523
  419XTA    CL133058  -5.541  28.082 -10.511
  419XTA    CL233059  -5.677  28.134 -10.468
  419XTA    CL333060  -5.691  28.280 -10.445
  419XTA    CL433061  -5.831  28.326 -10.395
  419XTA    CO333062  -5.859  28.482 -10.389
  419XTA    OA333063  -6.002  28.482 -10.354
  419XTA    CO433064  -6.073  28.472 -10.476
  419XTA    CT133065  -6.229  28.469 -10.442
  419XTA    CL533066  -6.298  28.382 -10.551
  419XTA    CL633067  -6.253  28.233 -10.552
  419XTA    OA433068  -6.025  27.485 -11.227
  419XTA    CO533069  -6.157  27.438 -11.210
  419XTA    HL133070  -6.165  27.328 -11.207
  419XTA    HL233071  -5.164  27.004 -10.984
  419XTA    HL333072  -5.198  26.838 -11.020
  419XTA    HL433073  -5.269  26.957 -11.119
  419XTA    HL533074  -5.655  27.899 -10.527
  419XTA    HL633075  -5.486  27.872 -10.454
  419XTA    HL733076  -5.502  28.130 -10.600
  419XTA    HL833077  -5.471  28.121 -10.436
  419XTA    HL933078  -5.710  28.073 -10.384
  419XTA   HL1033079  -5.747  28.116 -10.543
  419XTA   HL1133080  -5.622  28.316 -10.372
  419XTA   HL1233081  -5.672  28.333 -10.541
  419XTA   HL1333082  -5.854  28.288 -10.297
  419XTA   HL1433083  -5.907  28.279 -10.464
  419XTA   HL1533084  -5.802  28.536 -10.320
  419XTA   HL1633085  -5.835  28.522 -10.485
  419XTA   HL1733086  -6.046  28.557 -10.540
  419XTA   HL1833087  -6.045  28.388 -10.531
  419XTA   HL1933088  -6.267  28.423 -10.650
  419XTA   HL2033089  -6.404  28.400 -10.551
  419XTA   HL2133090  -6.157  28.219 -10.606
  419XTA   HL2233091  -6.331  28.183 -10.605
  419XTA   HL2333092  -6.250  28.179 -10.459
  419XTA   HL2433093  -6.217  27.482 -11.294
  419XTA   HL2533094  -6.199  27.473 -11.118
  419XTA    CO633095  -6.279  28.611 -10.435
  419XTA    CO733096  -6.253  28.409 -10.297
  419XTA    OA533097  -6.360  28.383 -10.294
  419XTA   HL2633098  -6.241  28.664 -10.348
  419XTA   HL2733099  -6.421  28.613 -10.428
  419XTA   HL2833100  -6.221  28.481 -10.219
  419XTA   HL2933101  -6.178  28.329 -10.289
  420XTA     NT33102  -4.578  23.131  -9.237
  420XTA    CN133103  -4.496  23.100  -9.124
  420XTA     C133104  -4.413  22.983  -9.128
  420XTA     C233105  -4.332  22.939  -9.023
  420XTA     C333106  -4.335  23.015  -8.904
  420XTA     C433107  -4.412  23.132  -8.898
  420XTA     C533108  -4.483  23.182  -9.007
  420XTA    CN233109  -4.712  23.130  -9.212
  420XTA     C633110  -4.776  23.017  -9.153
  420XTA     C733111  -4.910  23.011  -9.111
  420XTA     C833112  -4.990  23.127  -9.124
  420XTA     C933113  -4.933  23.239  -9.187
  420XTA    C1033114  -4.792  23.245  -9.217
  420XTA    CN333115  -4.538  23.179  -9.361
  420XTA    C1133116  -4.489  23.312  -9.354
  420XTA    C1233117  -4.456  23.368  -9.476
  420XTA    C1333118  -4.476  23.305  -9.599
  420XTA    C1433119  -4.521  23.173  -9.609
  420XTA    C1533120  -4.551  23.112  -9.483
  420XTA     H133121  -4.422  22.924  -9.215
  420XTA     H233122  -4.267  22.858  -9.034
  420XTA     H333123  -4.400  23.194  -8.810
  420XTA     H433124  -4.531  23.279  -8.992
  420XTA     H533125  -4.709  22.933  -9.147
  420XTA     H633126  -4.955  22.913  -9.074
  420XTA     H733127  -5.004  23.324  -9.210
  420XTA     H833128  -4.747  23.333  -9.255
  420XTA     H933129  -4.506  23.370  -9.266
  420XTA    H1033130  -4.426  23.470  -9.477
  420XTA    H1133131  -4.536  23.124  -9.701
  420XTA    H1233132  -4.595  23.017  -9.476
  420XTA    OA133133  -4.260  22.989  -8.799
  420XTA    CO133134  -4.149  22.907  -8.802
  420XTA    OA233135  -5.126  23.135  -9.098
  420XTA    CO233136  -5.159  23.084  -8.972
  420XTA    CL133137  -5.259  23.178  -8.906
  420XTA    CL233138  -5.189  23.317  -8.894
  420XTA    CL333139  -5.289  23.438  -8.861
  420XTA    CL433140  -5.370  23.480  -8.987
  420XTA    CO333141  -5.452  23.607  -8.985
  420XTA    OA333142  -5.497  23.624  -9.114
  420XTA    CO433143  -5.572  23.743  -9.120
  420XTA    CT133144  -5.633  23.771  -9.260
  420XTA    CL533145  -5.715  23.898  -9.258
  420XTA    CL633146  -5.630  24.030  -9.215
  420XTA    OA433147  -4.433  23.366  -9.711
  420XTA    CO533148  -4.331  23.462  -9.697
  420XTA    HL133149  -4.284  23.492  -9.797
  420XTA    HL233150  -4.095  22.881  -8.714
  420XTA    HL333151  -4.183  22.808  -8.827
  420XTA    HL433152  -4.075  22.936  -8.879
  420XTA    HL533153  -5.197  22.986  -8.987
  420XTA    HL633154  -5.077  23.072  -8.906
  420XTA    HL733155  -5.312  23.141  -8.821
  420XTA    HL833156  -5.335  23.204  -8.982
  420XTA    HL933157  -5.166  23.346  -8.996
  420XTA   HL1033158  -5.096  23.310  -8.829
  420XTA   HL1133159  -5.350  23.413  -8.772
  420XTA   HL1233160  -5.232  23.526  -8.823
  420XTA   HL1333161  -5.435  23.388  -9.010
  420XTA   HL1433162  -5.311  23.482  -9.083
  420XTA   HL1533163  -5.526  23.608  -8.911
  420XTA   HL1633164  -5.379  23.680  -8.960
  420XTA   HL1733165  -5.655  23.739  -9.053
  420XTA   HL1833166  -5.510  23.830  -9.099
  420XTA   HL1933167  -5.782  23.883  -9.174
  420XTA   HL2033168  -5.764  23.918  -9.350
  420XTA   HL2133169  -5.692  24.122  -9.219
  420XTA   HL2233170  -5.544  24.048  -9.275
  420XTA   HL2333171  -5.600  24.024  -9.108
  420XTA   HL2433172  -4.241  23.439  -9.648
  420XTA   HL2533173  -4.379  23.546  -9.655
  420XTA    CO633174  -5.717  23.650  -9.304
  420XTA    CO733175  -5.524  23.781  -9.362
  420XTA    OA533176  -5.440  23.851  -9.347
  420XTA   HL2633177  -5.781  23.681  -9.384
  420XTA   HL2733178  -5.625  23.548  -9.343
  420XTA   HL2833179  -5.565  23.799  -9.468
  420XTA   HL2933180  -5.483  23.675  -9.368
  421XTA     NT33181  -4.610  27.720  -9.753
  421XTA    CN133182  -4.656  27.794  -9.853
  421XTA     C133183  -4.782  27.859  -9.831
  421XTA     C233184  -4.837  27.933  -9.932
  421XTA     C333185  -4.770  27.953 -10.058
  421XTA     C433186  -4.641  27.905 -10.073
  421XTA     C533187  -4.582  27.831  -9.968
  421XTA    CN233188  -4.493  27.745  -9.690
  421XTA     C633189  -4.370  27.706  -9.750
  421XTA     C733190  -4.252  27.736  -9.682
  421XTA     C833191  -4.248  27.790  -9.547
  421XTA     C933192  -4.375  27.818  -9.489
  421XTA    C1033193  -4.494  27.802  -9.562
  421XTA    CN333194  -4.659  27.595  -9.742
  421XTA    C1133195  -4.617  27.498  -9.839
  421XTA    C1233196  -4.675  27.370  -9.829
  421XTA    C1333197  -4.770  27.340  -9.732
  421XTA    C1433198  -4.805  27.435  -9.628
  421XTA    C1533199  -4.753  27.564  -9.636
  421XTA     H133200  -4.845  27.847  -9.744
  421XTA     H233201  -4.933  27.974  -9.907
  421XTA     H333202  -4.583  27.914 -10.165
  421XTA     H433203  -4.484  27.789  -9.991
  421XTA     H533204  -4.374  27.655  -9.848
  421XTA     H633205  -4.158  27.713  -9.730
  421XTA     H733206  -4.382  27.868  -9.390
  421XTA     H833207  -4.591  27.832  -9.516
  421XTA     H933208  -4.550  27.522  -9.913
  421XTA    H1033209  -4.640  27.285  -9.895
  421XTA    H1133210  -4.878  27.421  -9.556
  421XTA    H1233211  -4.783  27.637  -9.558
  421XTA    OA133212  -4.829  28.036 -10.149
  421XTA    CO133213  -4.822  27.995 -10.278
  421XTA    OA233214  -4.125  27.815  -9.493
  421XTA    CO233215  -4.137  27.848  -9.353
  421XTA    CL133216  -3.999  27.833  -9.291
  421XTA    CL233217  -4.000  27.873  -9.144
  421XTA    CL333218  -3.861  27.871  -9.089
  421XTA    CL433219  -3.864  27.919  -8.947
  421XTA    CO333220  -3.736  27.927  -8.881
  421XTA    OA333221  -3.755  28.005  -8.772
  421XTA    CO433222  -3.628  28.060  -8.741
  421XTA    CT133223  -3.652  28.148  -8.615
  421XTA    CL533224  -3.514  28.208  -8.584
  421XTA    CL633225  -3.406  28.107  -8.541
  421XTA    OA433226  -4.820  27.208  -9.734
  421XTA    CO533227  -4.889  27.169  -9.619
  421XTA    HL133228  -4.892  27.066  -9.609
  421XTA    HL233229  -4.862  28.067 -10.352
  421XTA    HL333230  -4.723  27.964 -10.315
  421XTA    HL433231  -4.894  27.909 -10.289
  421XTA    HL533232  -4.176  27.944  -9.330
  421XTA    HL633233  -4.207  27.781  -9.314
  421XTA    HL733234  -3.934  27.899  -9.355
  421XTA    HL833235  -3.960  27.733  -9.287
  421XTA    HL933236  -4.062  27.799  -9.090
  421XTA   HL1033237  -4.053  27.967  -9.146
  421XTA   HL1133238  -3.831  27.764  -9.079
  421XTA   HL1233239  -3.796  27.935  -9.145
  421XTA   HL1333240  -3.949  27.875  -8.889
  421XTA   HL1433241  -3.908  28.023  -8.955
  421XTA   HL1533242  -3.691  27.834  -8.850
  421XTA   HL1633243  -3.659  27.967  -8.947
  421XTA   HL1733244  -3.560  27.984  -8.720
  421XTA   HL1833245  -3.593  28.128  -8.821
  421XTA   HL1933246  -3.533  28.270  -8.492
  421XTA   HL2033247  -3.486  28.271  -8.671
  421XTA   HL2133248  -3.426  28.050  -8.455
  421XTA   HL2233249  -3.304  28.153  -8.512
  421XTA   HL2333250  -3.385  28.033  -8.612
  421XTA   HL2433251  -4.992  27.200  -9.629
  421XTA   HL2533252  -4.846  27.210  -9.525
  421XTA    CO633253  -3.710  28.061  -8.501
  421XTA    CO733254  -3.755  28.267  -8.648
  421XTA    OA533255  -3.726  28.117  -8.413
  421XTA   HL2633256  -3.662  27.967  -8.479
  421XTA   HL2733257  -3.804  28.030  -8.535
  421XTA   HL2833258  -3.769  28.354  -8.541
  421XTA   HL2933259  -3.846  28.214  -8.657
  422XTA     NT33260  -1.813  27.845  -9.893
  422XTA    CN133261  -1.879  27.968  -9.911
  422XTA     C133262  -1.967  27.984 -10.016
  422XTA     C233263  -2.035  28.110 -10.025
  422XTA     C333264  -2.004  28.219  -9.944
  422XTA     C433265  -1.912  28.195  -9.840
  422XTA     C533266  -1.847  28.074  -9.828
  422XTA    CN233267  -1.861  27.766  -9.792
  422XTA     C633268  -1.783  27.737  -9.676
  422XTA     C733269  -1.836  27.644  -9.581
  422XTA     C833270  -1.963  27.581  -9.600
  422XTA     C933271  -2.032  27.613  -9.721
  422XTA    C1033272  -1.990  27.718  -9.804
  422XTA    CN333273  -1.741  27.787  -9.986
  422XTA    C1133274  -1.796  27.711 -10.088
  422XTA    C1233275  -1.729  27.690 -10.209
  422XTA    C1333276  -1.591  27.723 -10.214
  422XTA    C1433277  -1.527  27.785 -10.104
  422XTA    C1533278  -1.598  27.820  -9.994
  422XTA     H133279  -1.975  27.901 -10.081
  422XTA     H233280  -2.104  28.120 -10.103
  422XTA     H333281  -1.897  28.267  -9.761
  422XTA     H433282  -1.795  28.064  -9.734
  422XTA     H533283  -1.689  27.791  -9.659
  422XTA     H633284  -1.771  27.613  -9.502
  422XTA     H733285  -2.109  27.560  -9.751
  422XTA     H833286  -2.053  27.754  -9.884
  422XTA     H933287  -1.901  27.676 -10.086
  422XTA    H1033288  -1.776  27.641 -10.289
  422XTA    H1133289  -1.424  27.806 -10.114
  422XTA    H1233290  -1.560  27.883  -9.917
  422XTA    OA133291  -2.070  28.339  -9.969
  422XTA    CO133292  -2.101  28.415  -9.851
  422XTA    OA233293  -2.008  27.493  -9.506
  422XTA    CO233294  -2.112  27.403  -9.545
  422XTA    CL133295  -2.109  27.283  -9.454
  422XTA    CL233296  -1.981  27.194  -9.485
  422XTA    CL333297  -1.990  27.062  -9.405
  422XTA    CL433298  -1.852  26.999  -9.391
  422XTA    CO333299  -1.776  26.960  -9.514
  422XTA    OA333300  -1.834  26.848  -9.576
  422XTA    CO433301  -1.930  26.871  -9.678
  422XTA    CT133302  -1.988  26.732  -9.733
  422XTA    CL533303  -2.003  26.636  -9.613
  422XTA    CL633304  -2.084  26.700  -9.506
  422XTA    OA433305  -1.505  27.698 -10.324
  422XTA    CO533306  -1.569  27.636 -10.436
  422XTA    HL133307  -1.589  27.531 -10.405
  422XTA    HL233308  -2.021  28.458  -9.794
  422XTA    HL333309  -2.173  28.488  -9.884
  422XTA    HL433310  -2.168  28.351  -9.783
  422XTA    HL533311  -2.197  27.471  -9.535
  422XTA    HL633312  -2.094  27.376  -9.648
  422XTA    HL733313  -2.200  27.229  -9.468
  422XTA    HL833314  -2.113  27.329  -9.353
  422XTA    HL933315  -1.891  27.241  -9.469
  422XTA   HL1033316  -1.973  27.172  -9.593
  422XTA   HL1133317  -2.037  27.083  -9.309
  422XTA   HL1233318  -2.057  26.989  -9.445
  422XTA   HL1333319  -1.845  26.927  -9.317
  422XTA   HL1433320  -1.798  27.082  -9.339
  422XTA   HL1533321  -1.759  27.044  -9.574
  422XTA   HL1633322  -1.686  26.917  -9.481
  422XTA   HL1733323  -2.013  26.926  -9.638
  422XTA   HL1833324  -1.882  26.921  -9.759
  422XTA   HL1933325  -1.897  26.604  -9.599
  422XTA   HL2033326  -2.050  26.545  -9.634
  422XTA   HL2133327  -2.105  26.629  -9.429
  422XTA   HL2233328  -2.181  26.733  -9.542
  422XTA   HL2333329  -2.037  26.778  -9.442
  422XTA   HL2433330  -1.496  27.630 -10.515
  422XTA   HL2533331  -1.659  27.678 -10.478
  422XTA    CO633332  -1.887  26.672  -9.826
  422XTA    CO733333  -2.110  26.743  -9.815
  422XTA    OA533334  -2.096  26.824  -9.894
  422XTA   HL2633335  -1.871  26.750  -9.905
  422XTA   HL2733336  -1.761  26.639  -9.765
  422XTA   HL2833337  -2.192  26.778  -9.746
  422XTA   HL2933338  -2.139  26.646  -9.859
  423XTA     NT33339  -1.913  30.707 -10.361
  423XTA    CN133340  -1.874  30.826 -10.315
  423XTA     C133341  -1.745  30.881 -10.337
  423XTA     C233342  -1.721  31.020 -10.307
  423XTA     C333343  -1.824  31.101 -10.261
  423XTA     C433344  -1.949  31.050 -10.226
  423XTA     C533345  -1.967  30.907 -10.250
  423XTA    CN233346  -1.859  30.589 -10.323
  423XTA     C633347  -1.743  30.550 -10.384
  423XTA     C733348  -1.695  30.418 -10.356
  423XTA     C833349  -1.762  30.331 -10.256
  423XTA     C933350  -1.878  30.384 -10.197
  423XTA    C1033351  -1.932  30.511 -10.226
  423XTA    CN333352  -1.978  30.702 -10.474
  423XTA    C1133353  -1.924  30.713 -10.603
  423XTA    C1233354  -2.009  30.680 -10.716
  423XTA    C1333355  -2.146  30.645 -10.701
  423XTA    C1433356  -2.196  30.630 -10.575
  423XTA    C1533357  -2.116  30.673 -10.464
  423XTA     H133358  -1.671  30.814 -10.374
  423XTA     H233359  -1.620  31.061 -10.317
  423XTA     H333360  -2.022  31.120 -10.194
  423XTA     H433361  -2.061  30.857 -10.228
  423XTA     H533362  -1.695  30.612 -10.457
  423XTA     H633363  -1.609  30.388 -10.409
  423XTA     H733364  -1.939  30.318 -10.136
  423XTA     H833365  -2.023  30.555 -10.194
  423XTA     H933366  -1.820  30.722 -10.624
  423XTA    H1033367  -1.974  30.686 -10.814
  423XTA    H1133368  -2.298  30.601 -10.557
  423XTA    H1233369  -2.161  30.692 -10.366
  423XTA    OA133370  -1.796  31.227 -10.219
  423XTA    CO133371  -1.669  31.244 -10.153
  423XTA    OA233372  -1.714  30.205 -10.229
  423XTA    CO233373  -1.635  30.150 -10.332
  423XTA    CL133374  -1.631  29.993 -10.307
  423XTA    CL233375  -1.530  29.910 -10.383
  423XTA    CL333376  -1.489  29.979 -10.516
  423XTA    CL433377  -1.410  29.883 -10.607
  423XTA    CO333378  -1.378  29.936 -10.750
  423XTA    OA333379  -1.296  29.837 -10.792
  423XTA    CO433380  -1.214  29.872 -10.903
  423XTA    CT133381  -1.087  29.796 -10.910
  423XTA    CL533382  -0.981  29.842 -10.805
  423XTA    CL633383  -1.033  29.833 -10.664
  423XTA    OA433384  -2.229  30.607 -10.805
  423XTA    CO533385  -2.180  30.603 -10.937
  423XTA    HL133386  -2.257  30.562 -10.997
  423XTA    HL233387  -1.673  31.340 -10.096
  423XTA    HL333388  -1.648  31.170 -10.079
  423XTA    HL433389  -1.588  31.244 -10.229
  423XTA    HL533390  -1.670  30.161 -10.438
  423XTA    HL633391  -1.533  30.191 -10.321
  423XTA    HL733392  -1.730  29.962 -10.336
  423XTA    HL833393  -1.618  29.974 -10.197
  423XTA    HL933394  -1.567  29.805 -10.399
  423XTA   HL1033395  -1.447  29.913 -10.313
  423XTA   HL1133396  -1.579  30.021 -10.569
  423XTA   HL1233397  -1.435  30.069 -10.496
  423XTA   HL1333398  -1.459  29.789 -10.613
  423XTA   HL1433399  -1.318  29.851 -10.554
  423XTA   HL1533400  -1.466  29.934 -10.812
  423XTA   HL1633401  -1.341  30.035 -10.749
  423XTA   HL1733402  -1.263  29.867 -10.997
  423XTA   HL1833403  -1.182  29.978 -10.885
  423XTA   HL1933404  -0.975  29.946 -10.829
  423XTA   HL2033405  -0.880  29.789 -10.820
  423XTA   HL2133406  -0.963  29.882 -10.599
  423XTA   HL2233407  -1.034  29.724 -10.628
  423XTA   HL2333408  -1.135  29.879 -10.653
  423XTA   HL2433409  -2.094  30.544 -10.960
  423XTA   HL2533410  -2.160  30.704 -10.981
  423XTA    CO633411  -1.032  29.815 -11.054
  423XTA    CO733412  -1.107  29.641 -10.905
  423XTA    OA533413  -1.011  29.957 -11.070
  423XTA   HL2633414  -1.105  29.778 -11.118
  423XTA   HL2733415  -0.929  29.773 -11.077
  423XTA   HL2833416  -1.186  29.622 -10.967
  423XTA   HL2933417  -1.150  29.620 -10.804
  424XTA     NT33418  -4.075  30.615  -5.162
  424XTA    CN133419  -4.193  30.654  -5.202
  424XTA     C133420  -4.307  30.598  -5.140
  424XTA     C233421  -4.424  30.639  -5.191
  424XTA     C333422  -4.439  30.746  -5.281
  424XTA     C433423  -4.323  30.801  -5.340
  424XTA     C533424  -4.199  30.745  -5.304
  424XTA    CN233425  -4.016  30.512  -5.226
  424XTA     C633426  -3.996  30.512  -5.363
  424XTA     C733427  -3.928  30.403  -5.423
  424XTA     C833428  -3.895  30.290  -5.348
  424XTA     C933429  -3.910  30.297  -5.205
  424XTA    C1033430  -3.977  30.405  -5.145
  424XTA    CN333431  -3.993  30.695  -5.087
  424XTA    C1133432  -3.918  30.802  -5.147
  424XTA    C1233433  -3.840  30.897  -5.073
  424XTA    C1333434  -3.843  30.886  -4.930
  424XTA    C1433435  -3.916  30.784  -4.868
  424XTA    C1533436  -3.989  30.692  -4.946
  424XTA     H133437  -4.297  30.535  -5.054
  424XTA     H233438  -4.504  30.606  -5.138
  424XTA     H333439  -4.325  30.876  -5.420
  424XTA     H433440  -4.103  30.775  -5.345
  424XTA     H533441  -4.047  30.588  -5.425
  424XTA     H633442  -3.929  30.388  -5.533
  424XTA     H733443  -3.882  30.211  -5.146
  424XTA     H833444  -3.994  30.409  -5.043
  424XTA     H933445  -3.915  30.803  -5.255
  424XTA    H1033446  -3.796  30.980  -5.123
  424XTA    H1133447  -3.913  30.769  -4.758
  424XTA    H1233448  -4.035  30.613  -4.890
  424XTA    OA133449  -4.564  30.793  -5.299
  424XTA    CO133450  -4.588  30.882  -5.406
  424XTA    OA233451  -3.854  30.173  -5.402
  424XTA    CO233452  -3.775  30.183  -5.516
  424XTA    CL133453  -3.709  30.044  -5.536
  424XTA    CL233454  -3.658  30.026  -5.687
  424XTA    CL333455  -3.507  30.043  -5.717
  424XTA    CL433456  -3.447  30.186  -5.735
  424XTA    CO333457  -3.292  30.191  -5.752
  424XTA    OA333458  -3.258  30.328  -5.793
  424XTA    CO433459  -3.112  30.334  -5.798
  424XTA    CT133460  -3.054  30.472  -5.830
  424XTA    CL533461  -2.900  30.467  -5.788
  424XTA    CL633462  -2.827  30.368  -5.876
  424XTA    OA433463  -3.771  30.974  -4.855
  424XTA    CO533464  -3.679  31.062  -4.924
  424XTA    HL133465  -3.625  31.110  -4.842
  424XTA    HL233466  -4.555  30.857  -5.506
  424XTA    HL333467  -4.694  30.892  -5.407
  424XTA    HL433468  -4.546  30.976  -5.379
  424XTA    HL533469  -3.836  30.209  -5.602
  424XTA    HL633470  -3.693  30.243  -5.497
  424XTA    HL733471  -3.776  29.959  -5.511
  424XTA    HL833472  -3.622  30.046  -5.475
  424XTA    HL933473  -3.724  30.061  -5.767
  424XTA   HL1033474  -3.666  29.920  -5.696
  424XTA   HL1133475  -3.448  29.993  -5.641
  424XTA   HL1233476  -3.477  29.983  -5.802
  424XTA   HL1333477  -3.474  30.236  -5.640
  424XTA   HL1433478  -3.491  30.234  -5.825
  424XTA   HL1533479  -3.256  30.155  -5.656
  424XTA   HL1633480  -3.256  30.119  -5.820
  424XTA   HL1733481  -3.076  30.305  -5.692
  424XTA   HL1833482  -3.074  30.264  -5.865
  424XTA   HL1933483  -2.901  30.437  -5.682
  424XTA   HL2033484  -2.849  30.564  -5.803
  424XTA   HL2133485  -2.877  30.358  -5.971
  424XTA   HL2233486  -2.805  30.271  -5.831
  424XTA   HL2333487  -2.727  30.401  -5.899
  424XTA   HL2433488  -3.721  31.138  -4.989
  424XTA   HL2533489  -3.594  31.014  -4.976
  424XTA    CO633490  -3.123  30.584  -5.752
  424XTA    CO733491  -3.071  30.506  -5.988
  424XTA    OA533492  -3.072  30.680  -5.775
  424XTA   HL2633493  -3.108  30.539  -5.657
  424XTA   HL2733494  -3.234  30.589  -5.779
  424XTA   HL2833495  -3.088  30.391  -6.057
  424XTA   HL2933496  -3.163  30.559  -6.004
  425XTA     NT33497  -6.759  29.367  -9.089
  425XTA    CN133498  -6.745  29.478  -9.160
  425XTA     C133499  -6.771  29.599  -9.098
  425XTA     C233500  -6.731  29.723  -9.162
  425XTA     C333501  -6.681  29.716  -9.297
  425XTA     C433502  -6.652  29.589  -9.353
  425XTA     C533503  -6.703  29.471  -9.293
  425XTA    CN233504  -6.852  29.274  -9.126
  425XTA     C633505  -6.814  29.164  -9.210
  425XTA     C733506  -6.916  29.074  -9.252
  425XTA     C833507  -7.055  29.093  -9.210
  425XTA     C933508  -7.077  29.191  -9.120
  425XTA    C1033509  -6.983  29.284  -9.080
  425XTA    CN333510  -6.690  29.359  -8.976
  425XTA    C1133511  -6.551  29.342  -9.003
  425XTA    C1233512  -6.471  29.334  -8.890
  425XTA    C1333513  -6.521  29.345  -8.759
  425XTA    C1433514  -6.662  29.359  -8.742
  425XTA    C1533515  -6.748  29.364  -8.850
  425XTA     H133516  -6.807  29.592  -8.998
  425XTA     H233517  -6.746  29.817  -9.112
  425XTA     H333518  -6.607  29.577  -9.454
  425XTA     H433519  -6.697  29.379  -9.349
  425XTA     H533520  -6.706  29.163  -9.242
  425XTA     H633521  -6.884  28.989  -9.304
  425XTA     H733522  -7.172  29.220  -9.083
  425XTA     H833523  -7.018  29.369  -9.027
  425XTA     H933524  -6.500  29.353  -9.093
  425XTA    H1033525  -6.366  29.332  -8.902
  425XTA    H1133526  -6.710  29.360  -8.644
  425XTA    H1233527  -6.852  29.375  -8.846
  425XTA    OA133528  -6.638  29.826  -9.367
  425XTA    CO133529  -6.610  29.943  -9.291
  425XTA    OA233530  -7.148  29.006  -9.261
  425XTA    CO233531  -7.280  29.030  -9.214
  425XTA    CL133532  -7.368  28.913  -9.270
  425XTA    CL233533  -7.512  28.943  -9.242
  425XTA    CL333534  -7.619  28.842  -9.280
  425XTA    CL433535  -7.759  28.883  -9.241
  425XTA    CO333536  -7.793  28.885  -9.092
  425XTA    OA333537  -7.743  28.769  -9.035
  425XTA    CO433538  -7.759  28.774  -8.896
  425XTA    CT133539  -7.737  28.632  -8.829
  425XTA    CL533540  -7.714  28.635  -8.679
  425XTA    CL633541  -7.822  28.693  -8.584
  425XTA    OA433542  -6.441  29.340  -8.652
  425XTA    CO533543  -6.494  29.302  -8.529
  425XTA    HL133544  -6.422  29.257  -8.467
  425XTA    HL233545  -6.701  29.989  -9.247
  425XTA    HL333546  -6.544  29.932  -9.204
  425XTA    HL433547  -6.565  30.019  -9.359
  425XTA    HL533548  -7.284  29.026  -9.102
  425XTA    HL633549  -7.312  29.126  -9.254
  425XTA    HL733550  -7.332  28.829  -9.222
  425XTA    HL833551  -7.369  28.902  -9.372
  425XTA    HL933552  -7.536  29.034  -9.293
  425XTA   HL1033553  -7.509  28.953  -9.136
  425XTA   HL1133554  -7.604  28.827  -9.386
  425XTA   HL1233555  -7.592  28.744  -9.236
  425XTA   HL1333556  -7.835  28.813  -9.282
  425XTA   HL1433557  -7.790  28.978  -9.294
  425XTA   HL1533558  -7.744  28.973  -9.052
  425XTA   HL1633559  -7.901  28.906  -9.074
  425XTA   HL1733560  -7.691  28.839  -8.859
  425XTA   HL1833561  -7.858  28.809  -8.874
  425XTA   HL1933562  -7.620  28.692  -8.662
  425XTA   HL2033563  -7.680  28.537  -8.637
  425XTA   HL2133564  -7.908  28.622  -8.565
  425XTA   HL2233565  -7.877  28.778  -8.625
  425XTA   HL2333566  -7.791  28.725  -8.482
  425XTA   HL2433567  -6.575  29.232  -8.543
  425XTA   HL2533568  -6.532  29.386  -8.470
  425XTA    CO633569  -7.622  28.562  -8.903
  425XTA    CO733570  -7.868  28.548  -8.850
  425XTA    OA533571  -7.980  28.626  -8.810
  425XTA   HL2633572  -7.553  28.638  -8.931
  425XTA   HL2733573  -7.566  28.505  -8.832
  425XTA   HL2833574  -7.869  28.452  -8.794
  425XTA   HL2933575  -7.870  28.521  -8.954
  426XTA     NT33576  -4.941  28.705  -8.997
  426XTA    CN133577  -4.907  28.833  -8.996
  426XTA     C133578  -4.825  28.877  -8.897
  426XTA     C233579  -4.783  29.013  -8.888
  426XTA     C333580  -4.816  29.100  -8.990
  426XTA     C433581  -4.902  29.053  -9.096
  426XTA     C533582  -4.943  28.916  -9.099
  426XTA    CN233583  -4.860  28.615  -9.052
  426XTA     C633584  -4.753  28.565  -8.983
  426XTA     C733585  -4.654  28.488  -9.046
  426XTA     C833586  -4.675  28.450  -9.179
  426XTA     C933587  -4.794  28.494  -9.246
  426XTA    C1033588  -4.885  28.583  -9.184
  426XTA    CN333589  -5.048  28.656  -8.935
  426XTA    C1133590  -5.176  28.684  -8.977
  426XTA    C1233591  -5.289  28.632  -8.911
  426XTA    C1333592  -5.270  28.567  -8.788
  426XTA    C1433593  -5.141  28.548  -8.734
  426XTA    C1533594  -5.034  28.595  -8.805
  426XTA     H133595  -4.800  28.819  -8.815
  426XTA     H233596  -4.726  29.039  -8.794
  426XTA     H333597  -4.918  29.118  -9.186
  426XTA     H433598  -4.989  28.875  -9.191
  426XTA     H533599  -4.732  28.610  -8.889
  426XTA     H633600  -4.567  28.442  -9.001
  426XTA     H733601  -4.805  28.466  -9.353
  426XTA     H833602  -4.972  28.620  -9.238
  426XTA     H933603  -5.192  28.744  -9.065
  426XTA    H1033604  -5.387  28.651  -8.953
  426XTA    H1133605  -5.119  28.506  -8.633
  426XTA    H1233606  -4.939  28.582  -8.756
  426XTA    OA133607  -4.762  29.230  -9.005
  426XTA    CO133608  -4.707  29.293  -8.891
  426XTA    OA233609  -4.567  28.397  -9.238
  426XTA    CO233610  -4.602  28.306  -9.343
  426XTA    CL133611  -4.472  28.241  -9.377
  426XTA    CL233612  -4.486  28.137  -9.483
  426XTA    CL333613  -4.530  28.202  -9.611
  426XTA    CL433614  -4.561  28.119  -9.732
  426XTA    CO333615  -4.541  28.202  -9.861
  426XTA    OA333616  -4.604  28.331  -9.839
  426XTA    CO433617  -4.747  28.328  -9.834
  426XTA    CT133618  -4.803  28.472  -9.803
  426XTA    CL533619  -4.792  28.489  -9.637
  426XTA    CL633620  -4.664  28.545  -9.586
  426XTA    OA433621  -5.381  28.519  -8.719
  426XTA    CO533622  -5.499  28.598  -8.704
  426XTA    HL133623  -5.573  28.535  -8.653
  426XTA    HL233624  -4.634  29.230  -8.840
  426XTA    HL333625  -4.649  29.384  -8.915
  426XTA    HL433626  -4.790  29.328  -8.822
  426XTA    HL533627  -4.682  28.239  -9.320
  426XTA    HL633628  -4.636  28.373  -9.428
  426XTA    HL733629  -4.439  28.210  -9.276
  426XTA    HL833630  -4.405  28.320  -9.410
  426XTA    HL933631  -4.543  28.048  -9.451
  426XTA   HL1033632  -4.382  28.099  -9.499
  426XTA   HL1133633  -4.621  28.259  -9.608
  426XTA   HL1233634  -4.452  28.271  -9.644
  426XTA   HL1333635  -4.667  28.081  -9.732
  426XTA   HL1433636  -4.497  28.032  -9.732
  426XTA   HL1533637  -4.435  28.223  -9.877
  426XTA   HL1633638  -4.568  28.144  -9.953
  426XTA   HL1733639  -4.757  28.309  -9.940
  426XTA   HL1833640  -4.797  28.249  -9.780
  426XTA   HL1933641  -4.819  28.402  -9.584
  426XTA   HL2033642  -4.869  28.561  -9.607
  426XTA   HL2133643  -4.649  28.649  -9.632
  426XTA   HL2233644  -4.587  28.473  -9.624
  426XTA   HL2333645  -4.655  28.551  -9.478
  426XTA   HL2433646  -5.545  28.639  -8.796
  426XTA   HL2533647  -5.487  28.684  -8.637
  426XTA    CO633648  -4.952  28.471  -9.850
  426XTA    CO733649  -4.721  28.584  -9.868
  426XTA    OA533650  -5.041  28.564  -9.781
  426XTA   HL2633651  -4.988  28.376  -9.853
  426XTA   HL2733652  -4.957  28.492  -9.957
  426XTA   HL2833653  -4.751  28.676  -9.817
  426XTA   HL2933654  -4.613  28.568  -9.851
  427XTA     NT33655  -1.525  27.461 -11.992
  427XTA    CN133656  -1.445  27.390 -11.912
  427XTA     C133657  -1.490  27.342 -11.788
  427XTA     C233658  -1.403  27.267 -11.703
  427XTA     C333659  -1.274  27.236 -11.743
  427XTA     C433660  -1.236  27.275 -11.872
  427XTA     C533661  -1.315  27.357 -11.954
  427XTA    CN233662  -1.575  27.585 -11.954
  427XTA     C633663  -1.704  27.603 -11.904
  427XTA     C733664  -1.748  27.733 -11.870
  427XTA     C833665  -1.667  27.849 -11.879
  427XTA     C933666  -1.542  27.835 -11.935
  427XTA    C1033667  -1.501  27.705 -11.973
  427XTA    CN333668  -1.561  27.415 -12.105
  427XTA    C1133669  -1.514  27.481 -12.225
  427XTA    C1233670  -1.566  27.442 -12.350
  427XTA    C1333671  -1.657  27.335 -12.355
  427XTA    C1433672  -1.699  27.264 -12.239
  427XTA    C1533673  -1.653  27.310 -12.113
  427XTA     H133674  -1.596  27.345 -11.766
  427XTA     H233675  -1.432  27.242 -11.602
  427XTA     H333676  -1.138  27.249 -11.900
  427XTA     H433677  -1.277  27.393 -12.045
  427XTA     H533678  -1.763  27.516 -11.889
  427XTA     H633679  -1.850  27.747 -11.838
  427XTA     H733680  -1.482  27.923 -11.945
  427XTA     H833681  -1.398  27.705 -12.023
  427XTA     H933682  -1.447  27.569 -12.222
  427XTA    H1033683  -1.531  27.490 -12.446
  427XTA    H1133684  -1.763  27.176 -12.242
  427XTA    H1233685  -1.668  27.276 -12.011
  427XTA    OA133686  -1.178  27.169 -11.666
  427XTA    CO133687  -1.214  27.121 -11.532
  427XTA    OA233688  -1.723  27.968 -11.843
  427XTA    CO233689  -1.648  28.082 -11.888
  427XTA    CL133690  -1.734  28.206 -11.859
  427XTA    CL233691  -1.651  28.337 -11.856
  427XTA    CL333692  -1.735  28.466 -11.832
  427XTA    CL433693  -1.652  28.591 -11.804
  427XTA    CO333694  -1.730  28.719 -11.759
  427XTA    OA333695  -1.780  28.795 -11.864
  427XTA    CO433696  -1.849  28.908 -11.826
  427XTA    CT133697  -1.937  28.979 -11.932
  427XTA    CL533698  -1.850  28.999 -12.064
  427XTA    CL633699  -1.738  29.102 -12.067
  427XTA    OA433700  -1.717  27.326 -12.479
  427XTA    CO533701  -1.803  27.220 -12.490
  427XTA    HL133702  -1.898  27.225 -12.428
  427XTA    HL233703  -1.300  27.068 -11.527
  427XTA    HL333704  -1.142  27.054 -11.488
  427XTA    HL433705  -1.217  27.207 -11.465
  427XTA    HL533706  -1.558  28.082 -11.833
  427XTA    HL633707  -1.619  28.078 -11.998
  427XTA    HL733708  -1.787  28.208 -11.770
  427XTA    HL833709  -1.820  28.210 -11.934
  427XTA    HL933710  -1.595  28.337 -11.949
  427XTA   HL1033711  -1.579  28.323 -11.774
  427XTA   HL1133712  -1.800  28.482 -11.911
  427XTA   HL1233713  -1.802  28.436 -11.750
  427XTA   HL1333714  -1.586  28.617 -11.894
  427XTA   HL1433715  -1.582  28.582 -11.724
  427XTA   HL1533716  -1.804  28.687 -11.692
  427XTA   HL1633717  -1.677  28.785 -11.686
  427XTA   HL1733718  -1.913  28.877 -11.743
  427XTA   HL1833719  -1.776  28.979 -11.774
  427XTA   HL1933720  -1.915  29.036 -12.146
  427XTA   HL2033721  -1.798  28.908 -12.094
  427XTA   HL2133722  -1.689  29.117 -11.969
  427XTA   HL2233723  -1.774  29.203 -12.090
  427XTA   HL2333724  -1.653  29.095 -12.138
  427XTA   HL2433725  -1.752  27.127 -12.483
  427XTA   HL2533726  -1.833  27.209 -12.592
  427XTA    CO633727  -2.009  29.108 -11.898
  427XTA    CO733728  -2.042  28.877 -11.974
  427XTA    OA533729  -2.108  28.931 -12.089
  427XTA   HL2633730  -1.940  29.172 -11.852
  427XTA   HL2733731  -2.028  29.148 -11.995
  427XTA   HL2833732  -2.107  28.851 -11.897
  427XTA   HL2933733  -1.994  28.781 -12.000
  428XTA     NT33734  -5.704  31.426 -11.813
  428XTA    CN133735  -5.604  31.335 -11.825
  428XTA     C133736  -5.529  31.307 -11.708
  428XTA     C233737  -5.410  31.222 -11.721
  428XTA     C333738  -5.378  31.176 -11.850
  428XTA     C433739  -5.461  31.203 -11.958
  428XTA     C533740  -5.569  31.286 -11.952
  428XTA    CN233741  -5.662  31.548 -11.765
  428XTA     C633742  -5.541  31.612 -11.800
  428XTA     C733743  -5.502  31.733 -11.744
  428XTA     C833744  -5.592  31.804 -11.658
  428XTA     C933745  -5.721  31.752 -11.645
  428XTA    C1033746  -5.755  31.626 -11.695
  428XTA    CN333747  -5.821  31.404 -11.873
  428XTA    C1133748  -5.875  31.491 -11.964
  428XTA    C1233749  -5.998  31.468 -12.020
  428XTA    C1333750  -6.081  31.364 -11.966
  428XTA    C1433751  -6.035  31.277 -11.863
  428XTA    C1533752  -5.899  31.303 -11.818
  428XTA     H133753  -5.563  31.341 -11.608
  428XTA     H233754  -5.362  31.182 -11.628
  428XTA     H333755  -5.436  31.151 -12.050
  428XTA     H433756  -5.639  31.305 -12.036
  428XTA     H533757  -5.467  31.557 -11.857
  428XTA     H633758  -5.411  31.786 -11.774
  428XTA     H733759  -5.780  31.807 -11.578
  428XTA     H833760  -5.847  31.588 -11.669
  428XTA     H933761  -5.810  31.561 -12.005
  428XTA    H1033762  -6.027  31.533 -12.099
  428XTA    H1133763  -6.092  31.201 -11.815
  428XTA    H1233764  -5.852  31.243 -11.739
  428XTA    OA133765  -5.278  31.079 -11.860
  428XTA    CO133766  -5.240  31.034 -11.989
  428XTA    OA233767  -5.572  31.928 -11.598
  428XTA    CO233768  -5.433  31.955 -11.558
  428XTA    CL133769  -5.425  32.062 -11.445
  428XTA    CL233770  -5.485  32.006 -11.318
  428XTA    CL333771  -5.377  31.924 -11.238
  428XTA    CL433772  -5.446  31.831 -11.136
  428XTA    CO333773  -5.532  31.908 -11.044
  428XTA    OA333774  -5.451  31.976 -10.943
  428XTA    CO433775  -5.482  32.116 -10.937
  428XTA    CT133776  -5.410  32.177 -10.812
  428XTA    CL533777  -5.282  32.099 -10.774
  428XTA    CL633778  -5.157  32.098 -10.871
  428XTA    OA433779  -6.211  31.337 -12.005
  428XTA    CO533780  -6.266  31.437 -12.093
  428XTA    HL133781  -6.258  31.538 -12.066
  428XTA    HL233782  -5.142  30.978 -11.996
  428XTA    HL333783  -5.321  30.959 -12.016
  428XTA    HL433784  -5.238  31.111 -12.069
  428XTA    HL533785  -5.408  31.850 -11.512
  428XTA    HL633786  -5.367  31.978 -11.640
  428XTA    HL733787  -5.481  32.148 -11.469
  428XTA    HL833788  -5.322  32.099 -11.431
  428XTA    HL933789  -5.567  31.936 -11.344
  428XTA   HL1033790  -5.522  32.085 -11.257
  428XTA   HL1133791  -5.337  31.855 -11.306
  428XTA   HL1233792  -5.286  31.973 -11.197
  428XTA   HL1333793  -5.374  31.778 -11.070
  428XTA   HL1433794  -5.510  31.758 -11.177
  428XTA   HL1533795  -5.593  31.972 -11.099
  428XTA   HL1633796  -5.601  31.850 -10.984
  428XTA   HL1733797  -5.438  32.159 -11.029
  428XTA   HL1833798  -5.581  32.167 -10.946
  428XTA   HL1933799  -5.306  31.996 -10.756
  428XTA   HL2033800  -5.246  32.133 -10.675
  428XTA   HL2133801  -5.073  32.038 -10.837
  428XTA   HL2233802  -5.109  32.192 -10.878
  428XTA   HL2333803  -5.192  32.071 -10.970
  428XTA   HL2433804  -6.375  31.417 -12.104
  428XTA   HL2533805  -6.220  31.414 -12.190
  428XTA    CO633806  -5.503  32.156 -10.695
  428XTA    CO733807  -5.390  32.330 -10.806
  428XTA    OA533808  -5.306  32.353 -10.881
  428XTA   HL2633809  -5.599  32.200 -10.721
  428XTA   HL2733810  -5.533  32.017 -10.674
  428XTA   HL2833811  -5.376  32.376 -10.705
  428XTA   HL2933812  -5.486  32.372 -10.823
  429XTH     NT33813  -2.582  26.415 -12.124
  429XTH    CN133814  -2.585  26.513 -12.220
  429XTH     C133815  -2.669  26.499 -12.330
  429XTH     C233816  -2.653  26.574 -12.447
  429XTH     C333817  -2.550  26.669 -12.458
  429XTH     C433818  -2.466  26.692 -12.343
  429XTH     C533819  -2.477  26.607 -12.229
  429XTH    CN233820  -2.658  26.444 -12.013
  429XTH     C633821  -2.597  26.482 -11.892
  429XTH     C733822  -2.679  26.501 -11.778
  429XTH     C833823  -2.822  26.494 -11.792
  429XTH     C933824  -2.876  26.473 -11.915
  429XTH    C1033825  -2.798  26.455 -12.024
  429XTH    CN333826  -2.494  26.312 -12.133
  429XTH    C1133827  -2.412  26.268 -12.030
  429XTH    C1233828  -2.311  26.176 -12.043
  429XTH    C1333829  -2.298  26.114 -12.164
  429XTH    C1433830  -2.381  26.155 -12.272
  429XTH    C1533831  -2.474  26.255 -12.260
  429XTH     H133832  -2.740  26.424 -12.328
  429XTH     H233833  -2.717  26.552 -12.532
  429XTH     H333834  -2.390  26.767 -12.331
  429XTH     H433835  -2.410  26.621 -12.146
  429XTH     H533836  -2.494  26.506 -11.880
  429XTH     H633837  -2.632  26.514 -11.684
  429XTH     H733838  -2.989  26.480 -11.927
  429XTH     H833839  -2.847  26.447 -12.114
  429XTH     H933840  -2.424  26.299 -11.927
  429XTH    H1033841  -2.271  26.127 -11.956
  429XTH    H1133842  -2.372  26.107 -12.368
  429XTH    H1233843  -2.534  26.282 -12.340
  429XTH    OA133844  -2.545  26.741 -12.568
  429XTH    CO133845  -2.459  26.852 -12.577
  429XTH    OA233846  -2.908  26.520 -11.691
  429XTH    CO233847  -2.845  26.532 -11.564
  429XTH    CL133848  -2.954  26.560 -11.457
  429XTH    CL233849  -2.891  26.526 -11.318
  429XTH    CL333850  -2.744  26.572 -11.292
  429XTH    CL433851  -2.701  26.561 -11.142
  429XTH    CO333852  -2.791  26.633 -11.042
  429XTH    OA333853  -2.829  26.552 -10.926
  429XTH    CO433854  -2.949  26.483 -10.951
  429XTH    CT133855  -3.008  26.417 -10.826
  429XTH    CL533856  -2.908  26.317 -10.765
  429XTH    CL633857  -2.766  26.374 -10.715
  429XTH    OA433858  -2.209  26.012 -12.193
  429XTH    CO533859  -2.165  25.933 -12.082
  429XTH    HL133860  -2.079  25.972 -12.032
  429XTH    HL233861  -2.360  26.805 -12.596
  429XTH    HL333862  -2.487  26.925 -12.662
  429XTH    HL433863  -2.462  26.905 -12.482
  429XTH    HL533864  -2.785  26.443 -11.546
  429XTH    HL633865  -2.767  26.603 -11.568
  429XTH    HL733866  -3.043  26.505 -11.476
  429XTH    HL833867  -2.989  26.667 -11.464
  429XTH    HL933868  -2.877  26.417 -11.299
  429XTH   HL1033869  -2.958  26.576 -11.254
  429XTH   HL1133870  -2.679  26.522 -11.367
  429XTH   HL1233871  -2.731  26.677 -11.332
  429XTH   HL1333872  -2.593  26.593 -11.121
  429XTH   HL1433873  -2.695  26.451 -11.113
  429XTH   HL1533874  -2.730  26.714 -11.012
  429XTH   HL1633875  -2.877  26.663 -11.096
  429XTH   HL1733876  -3.022  26.555 -10.986
  429XTH   HL1833877  -2.923  26.404 -11.018
  429XTH   HL1933878  -2.885  26.254 -10.852
  429XTH   HL2033879  -2.949  26.260 -10.685
  429XTH   HL2133880  -2.696  26.299 -10.668
  429XTH   HL2233881  -2.776  26.458 -10.645
  429XTH   HL2333882  -2.714  26.409 -10.803
  429XTH   HL2433883  -2.140  25.832 -12.103
  429XTH   HL2533884  -2.239  25.925 -12.008
  429XTH    CO633885  -3.136  26.344 -10.870
  429XTH    CO733886  -3.054  26.523 -10.724
  429XTH    OA533887  -3.124  26.466 -10.614
  429XTH   HL2633888  -3.180  26.287 -10.790
  429XTH   HL2733889  -3.106  26.289 -10.962
  429XTH   HL2833890  -3.127  26.591 -10.763
  429XTH   HL2933891  -2.964  26.587 -10.696
  430XTA     NT33892  -3.086  24.855 -10.204
  430XTA    CN133893  -3.021  24.977 -10.196
  430XTA     C133894  -3.069  25.090 -10.263
  430XTA     C233895  -3.009  25.212 -10.249
  430XTA     C333896  -2.892  25.229 -10.174
  430XTA     C433897  -2.831  25.110 -10.127
  430XTA     C533898  -2.901  24.985 -10.139
  430XTA    CN233899  -3.195  24.834 -10.128
  430XTA     C633900  -3.319  24.813 -10.195
  430XTA     C733901  -3.439  24.810 -10.119
  430XTA     C833902  -3.442  24.799  -9.983
  430XTA     C933903  -3.316  24.803  -9.918
  430XTA    C1033904  -3.196  24.827  -9.988
  430XTA    CN333905  -3.036  24.749 -10.261
  430XTA    C1133906  -3.007  24.759 -10.400
  430XTA    C1233907  -2.977  24.642 -10.478
  430XTA    C1333908  -2.973  24.509 -10.411
  430XTA    C1433909  -2.989  24.507 -10.271
  430XTA    C1533910  -3.012  24.623 -10.195
  430XTA     H133911  -3.160  25.083 -10.325
  430XTA     H233912  -3.050  25.308 -10.288
  430XTA     H333913  -2.742  25.116 -10.079
  430XTA     H433914  -2.853  24.892 -10.108
  430XTA     H533915  -3.316  24.827 -10.295
  430XTA     H633916  -3.532  24.815 -10.176
  430XTA     H733917  -3.312  24.791  -9.807
  430XTA     H833918  -3.103  24.846  -9.937
  430XTA     H933919  -3.013  24.862 -10.441
  430XTA    H1033920  -2.960  24.647 -10.582
  430XTA    H1133921  -2.980  24.407 -10.221
  430XTA    H1233922  -3.024  24.602 -10.092
  430XTA    OA133923  -2.846  25.357 -10.143
  430XTA    CO133924  -2.822  25.388 -10.010
  430XTA    OA233925  -3.559  24.801  -9.911
  430XTA    CO233926  -3.553  24.745  -9.778
  430XTA    CL133927  -3.685  24.671  -9.753
  430XTA    CL233928  -3.664  24.554  -9.650
  430XTA    CL333929  -3.693  24.596  -9.509
  430XTA    CL433930  -3.646  24.500  -9.396
  430XTA    CO333931  -3.667  24.568  -9.252
  430XTA    OA333932  -3.598  24.496  -9.152
  430XTA    CO433933  -3.653  24.364  -9.116
  430XTA    CT133934  -3.545  24.294  -9.034
  430XTA    CL533935  -3.576  24.148  -9.028
  430XTA    CL633936  -3.719  24.109  -8.974
  430XTA    OA433937  -2.939  24.398 -10.476
  430XTA    CO533938  -2.907  24.407 -10.610
  430XTA    HL133939  -2.871  24.317 -10.643
  430XTA    HL233940  -2.775  25.486 -10.014
  430XTA    HL333941  -2.915  25.390  -9.954
  430XTA    HL433942  -2.754  25.318  -9.971
  430XTA    HL533943  -3.475  24.668  -9.777
  430XTA    HL633944  -3.536  24.834  -9.711
  430XTA    HL733945  -3.724  24.623  -9.843
  430XTA    HL833946  -3.762  24.736  -9.712
  430XTA    HL933947  -3.556  24.519  -9.656
  430XTA   HL1033948  -3.719  24.459  -9.671
  430XTA   HL1133949  -3.639  24.694  -9.494
  430XTA   HL1233950  -3.795  24.618  -9.486
  430XTA   HL1333951  -3.547  24.472  -9.409
  430XTA   HL1433952  -3.703  24.412  -9.405
  430XTA   HL1533953  -3.609  24.655  -9.268
  430XTA   HL1633954  -3.772  24.590  -9.226
  430XTA   HL1733955  -3.752  24.379  -9.071
  430XTA   HL1833956  -3.667  24.311  -9.217
  430XTA   HL1933957  -3.506  24.090  -8.967
  430XTA   HL2033958  -3.556  24.099  -9.128
  430XTA   HL2133959  -3.722  24.135  -8.867
  430XTA   HL2233960  -3.743  24.004  -8.983
  430XTA   HL2333961  -3.804  24.153  -9.026
  430XTA   HL2433962  -2.827  24.484 -10.626
  430XTA   HL2533963  -2.992  24.422 -10.674
  430XTA    CO633964  -3.540  24.365  -8.898
  430XTA    CO733965  -3.405  24.303  -9.103
  430XTA    OA533966  -3.322  24.239  -9.085
  430XTA   HL2633967  -3.453  24.330  -8.844
  430XTA   HL2733968  -3.509  24.499  -8.921
  430XTA   HL2833969  -3.370  24.407  -9.091
  430XTA   HL2933970  -3.435  24.289  -9.209
  431XTA     NT33971  -7.079  27.756 -10.288
  431XTA    CN133972  -7.008  27.687 -10.382
  431XTA     C133973  -7.002  27.739 -10.513
  431XTA     C233974  -6.927  27.676 -10.609
  431XTA     C333975  -6.849  27.562 -10.572
  431XTA     C433976  -6.859  27.504 -10.445
  431XTA     C533977  -6.943  27.563 -10.351
  431XTA    CN233978  -7.205  27.711 -10.266
  431XTA     C633979  -7.221  27.592 -10.189
  431XTA     C733980  -7.348  27.536 -10.169
  431XTA     C833981  -7.465  27.591 -10.229
  431XTA     C933982  -7.445  27.709 -10.300
  431XTA    C1033983  -7.317  27.767 -10.331
  431XTA    CN333984  -7.021  27.833 -10.190
  431XTA    C1133985  -7.005  27.972 -10.209
  431XTA    C1233986  -6.944  28.048 -10.111
  431XTA    C1333987  -6.909  27.990  -9.989
  431XTA    C1433988  -6.921  27.857  -9.966
  431XTA    C1533989  -6.976  27.773 -10.071
  431XTA     H133990  -7.061  27.823 -10.538
  431XTA     H233991  -6.925  27.709 -10.709
  431XTA     H333992  -6.798  27.423 -10.417
  431XTA     H433993  -6.953  27.521 -10.249
  431XTA     H533994  -7.143  27.540 -10.135
  431XTA     H633995  -7.363  27.459 -10.101
  431XTA     H733996  -7.528  27.748 -10.359
  431XTA     H833997  -7.309  27.862 -10.379
  431XTA     H933998  -7.045  28.022 -10.292
  431XTA    H1033999  -6.935  28.156 -10.129
  431XTA    H1134000  -6.906  27.800  -9.873
  431XTA    H1234001  -6.984  27.672 -10.055
  431XTA    OA134002  -6.766  27.510 -10.668
  431XTA    CO134003  -6.681  27.404 -10.630
  431XTA    OA234004  -7.591  27.541 -10.211
  431XTA    CO234005  -7.617  27.422 -10.140
  431XTA    CL134006  -7.753  27.378 -10.110
  431XTA    CL234007  -7.762  27.249 -10.025
  431XTA    CL334008  -7.721  27.265  -9.883
  431XTA    CL434009  -7.677  27.139  -9.816
  431XTA    CO334010  -7.527  27.110  -9.844
  431XTA    OA334011  -7.490  26.981  -9.795
  431XTA    CO434012  -7.535  26.869  -9.873
  431XTA    CT134013  -7.549  26.746  -9.779
  431XTA    CL534014  -7.584  26.613  -9.846
  431XTA    CL634015  -7.489  26.561  -9.951
  431XTA    OA434016  -6.857  28.084  -9.903
  431XTA    CO534017  -6.783  28.042  -9.790
  431XTA    HL134018  -6.695  27.987  -9.827
  431XTA    HL234019  -6.729  27.309 -10.611
  431XTA    HL334020  -6.630  27.401 -10.731
  431XTA    HL434021  -6.613  27.424 -10.555
  431XTA    HL534022  -7.570  27.336 -10.199
  431XTA    HL634023  -7.554  27.431 -10.049
  431XTA    HL734024  -7.791  27.342 -10.214
  431XTA    HL834025  -7.817  27.457 -10.081
  431XTA    HL934026  -7.698  27.163 -10.068
  431XTA   HL1034027  -7.863  27.205 -10.029
  431XTA   HL1134028  -7.651  27.347  -9.862
  431XTA   HL1234029  -7.814  27.297  -9.831
  431XTA   HL1334030  -7.740  27.053  -9.846
  431XTA   HL1434031  -7.702  27.151  -9.709
  431XTA   HL1534032  -7.495  27.129  -9.952
  431XTA   HL1634033  -7.466  27.175  -9.786
  431XTA   HL1734034  -7.637  26.890  -9.909
  431XTA   HL1834035  -7.475  26.856  -9.964
  431XTA   HL1934036  -7.683  26.622  -9.903
  431XTA   HL2034037  -7.613  26.539  -9.771
  431XTA   HL2134038  -7.489  26.618 -10.040
  431XTA   HL2234039  -7.508  26.457  -9.996
  431XTA   HL2334040  -7.382  26.565  -9.918
  431XTA   HL2434041  -6.847  27.975  -9.740
  431XTA   HL2534042  -6.748  28.119  -9.721
  431XTA    CO634043  -7.677  26.760  -9.680
  431XTA    CO734044  -7.427  26.739  -9.687
  431XTA    OA534045  -7.776  26.722  -9.711
  431XTA   HL2634046  -7.682  26.871  -9.672
  431XTA   HL2734047  -7.650  26.721  -9.584
  431XTA   HL2834048  -7.307  26.726  -9.761
  431XTA   HL2934049  -7.435  26.822  -9.620
  432XTA     NT34050  -3.006  27.311  -4.166
  432XTA    CN134051  -3.060  27.190  -4.162
  432XTA     C134052  -3.186  27.155  -4.209
  432XTA     C234053  -3.240  27.026  -4.199
  432XTA     C334054  -3.160  26.919  -4.155
  432XTA     C434055  -3.026  26.948  -4.120
  432XTA     C534056  -2.978  27.079  -4.119
  432XTA    CN234057  -2.923  27.321  -4.270
  432XTA     C634058  -2.796  27.389  -4.247
  432XTA     C734059  -2.703  27.398  -4.349
  432XTA     C834060  -2.726  27.343  -4.474
  432XTA     C934061  -2.857  27.294  -4.503
  432XTA    C1034062  -2.953  27.279  -4.399
  432XTA    CN334063  -3.047  27.422  -4.094
  432XTA    C1134064  -3.060  27.411  -3.955
  432XTA    C1234065  -3.122  27.513  -3.877
  432XTA    C1334066  -3.186  27.623  -3.946
  432XTA    C1434067  -3.183  27.623  -4.088
  432XTA    C1534068  -3.106  27.529  -4.159
  432XTA     H134069  -3.244  27.234  -4.259
  432XTA     H234070  -3.345  27.011  -4.229
  432XTA     H334071  -2.965  26.877  -4.081
  432XTA     H434072  -2.885  27.112  -4.075
  432XTA     H534073  -2.777  27.427  -4.146
  432XTA     H634074  -2.604  27.436  -4.325
  432XTA     H734075  -2.888  27.285  -4.607
  432XTA     H834076  -3.048  27.238  -4.422
  432XTA     H934077  -3.016  27.323  -3.893
  432XTA    H1034078  -3.134  27.519  -3.767
  432XTA    H1134079  -3.221  27.701  -4.142
  432XTA    H1234080  -3.086  27.539  -4.263
  432XTA    OA134081  -3.211  26.788  -4.149
  432XTA    CO134082  -3.302  26.750  -4.242
  432XTA    OA234083  -2.641  27.360  -4.577
  432XTA    CO234084  -2.658  27.274  -4.686
  432XTA    CL134085  -2.528  27.250  -4.766
  432XTA    CL234086  -2.468  27.108  -4.787
  432XTA    CL334087  -2.370  27.071  -4.676
  432XTA    CL434088  -2.429  27.046  -4.533
  432XTA    CO334089  -2.311  27.036  -4.435
  432XTA    OA334090  -2.221  27.146  -4.437
  432XTA    CO434091  -2.284  27.271  -4.410
  432XTA    CT134092  -2.181  27.388  -4.421
  432XTA    CL534093  -2.084  27.386  -4.295
  432XTA    CL634094  -1.974  27.289  -4.297
  432XTA    OA434095  -3.252  27.711  -3.866
  432XTA    CO534096  -3.329  27.803  -3.941
  432XTA    HL134097  -3.353  27.875  -3.869
  432XTA    HL234098  -3.341  26.648  -4.229
  432XTA    HL334099  -3.385  26.823  -4.242
  432XTA    HL434100  -3.255  26.752  -4.337
  432XTA    HL534101  -2.698  27.176  -4.661
  432XTA    HL634102  -2.739  27.324  -4.744
  432XTA    HL734103  -2.450  27.311  -4.726
  432XTA    HL834104  -2.549  27.291  -4.864
  432XTA    HL934105  -2.420  27.105  -4.886
  432XTA   HL1034106  -2.546  27.033  -4.793
  432XTA   HL1134107  -2.298  26.982  -4.699
  432XTA   HL1234108  -2.303  27.156  -4.669
  432XTA   HL1334109  -2.479  26.948  -4.528
  432XTA   HL1434110  -2.504  27.123  -4.505
  432XTA   HL1534111  -2.352  27.006  -4.335
  432XTA   HL1634112  -2.248  26.948  -4.454
  432XTA   HL1734113  -2.362  27.287  -4.482
  432XTA   HL1834114  -2.341  27.266  -4.324
  432XTA   HL1934115  -2.136  27.367  -4.194
  432XTA   HL2034116  -2.052  27.485  -4.277
  432XTA   HL2134117  -1.903  27.306  -4.217
  432XTA   HL2234118  -1.928  27.307  -4.388
  432XTA   HL2334119  -2.012  27.185  -4.300
  432XTA   HL2434120  -3.424  27.771  -3.973
  432XTA   HL2534121  -3.268  27.850  -4.014
  432XTA    CO634122  -2.260  27.523  -4.420
  432XTA    CO734123  -2.109  27.374  -4.562
  432XTA    OA534124  -2.036  27.451  -4.577
  432XTA   HL2634125  -2.276  27.546  -4.527
  432XTA   HL2734126  -2.161  27.619  -4.394
  432XTA   HL2834127  -2.189  27.377  -4.641
  432XTA   HL2934128  -2.060  27.278  -4.570
  433XTA     NT34129  -5.840  25.645  -6.729
  433XTA    CN134130  -5.932  25.578  -6.806
  433XTA     C134131  -5.913  25.572  -6.950
  433XTA     C234132  -6.007  25.501  -7.027
  433XTA     C334133  -6.131  25.452  -6.971
  433XTA     C434134  -6.150  25.467  -6.833
  433XTA     C534135  -6.047  25.516  -6.750
  433XTA    CN234136  -5.891  25.739  -6.645
  433XTA     C634137  -5.925  25.871  -6.683
  433XTA     C734138  -5.991  25.962  -6.601
  433XTA     C834139  -6.019  25.920  -6.468
  433XTA     C934140  -5.981  25.789  -6.424
  433XTA    C1034141  -5.909  25.704  -6.511
  433XTA    CN334142  -5.713  25.590  -6.705
  433XTA    C1134143  -5.602  25.638  -6.762
  433XTA    C1234144  -5.475  25.584  -6.743
  433XTA    C1334145  -5.467  25.477  -6.659
  433XTA    C1434146  -5.582  25.419  -6.596
  433XTA    C1534147  -5.708  25.479  -6.615
  433XTA     H134148  -5.828  25.606  -6.996
  433XTA     H234149  -5.996  25.486  -7.137
  433XTA     H334150  -6.244  25.442  -6.786
  433XTA     H434151  -6.065  25.518  -6.641
  433XTA     H534152  -5.896  25.911  -6.780
  433XTA     H634153  -6.005  26.063  -6.628
  433XTA     H734154  -5.985  25.750  -6.326
  433XTA     H834155  -5.881  25.607  -6.477
  433XTA     H934156  -5.609  25.711  -6.835
  433XTA    H1034157  -5.383  25.611  -6.797
  433XTA    H1134158  -5.568  25.327  -6.538
  433XTA    H1234159  -5.797  25.435  -6.578
  433XTA    OA134160  -6.236  25.388  -7.030
  433XTA    CO134161  -6.227  25.370  -7.174
  433XTA    OA234162  -6.074  26.006  -6.374
  433XTA    CO234163  -6.197  25.968  -6.317
  433XTA    CL134164  -6.256  26.085  -6.230
  433XTA    CL234165  -6.405  26.084  -6.186
  433XTA    CL334166  -6.431  25.988  -6.075
  433XTA    CL434167  -6.446  25.844  -6.121
  433XTA    CO334168  -6.474  25.748  -5.998
  433XTA    OA334169  -6.367  25.753  -5.914
  433XTA    CO434170  -6.264  25.661  -5.954
  433XTA    CT134171  -6.130  25.701  -5.895
  433XTA    CL534172  -6.111  25.852  -5.905
  433XTA    CL634173  -6.189  25.940  -5.799
  433XTA    OA434174  -5.352  25.413  -6.624
  433XTA    CO534175  -5.234  25.474  -6.675
  433XTA    HL134176  -5.226  25.577  -6.632
  433XTA    HL234177  -6.151  25.303  -7.213
  433XTA    HL334178  -6.319  25.346  -7.215
  433XTA    HL434179  -6.209  25.460  -7.220
  433XTA    HL534180  -6.272  25.950  -6.396
  433XTA    HL634181  -6.187  25.876  -6.264
  433XTA    HL734182  -6.265  26.176  -6.291
  433XTA    HL834183  -6.183  26.110  -6.153
  433XTA    HL934184  -6.478  26.070  -6.264
  433XTA   HL1034185  -6.422  26.184  -6.154
  433XTA   HL1134186  -6.352  25.991  -5.999
  433XTA   HL1234187  -6.533  26.011  -6.042
  433XTA   HL1334188  -6.361  25.799  -6.174
  433XTA   HL1434189  -6.538  25.838  -6.184
  433XTA   HL1534190  -6.562  25.785  -5.942
  433XTA   HL1634191  -6.498  25.646  -6.021
  433XTA   HL1734192  -6.286  25.554  -5.934
  433XTA   HL1834193  -6.261  25.666  -6.063
  433XTA   HL1934194  -6.131  25.886  -6.009
  433XTA   HL2034195  -6.006  25.870  -5.881
  433XTA   HL2134196  -6.182  26.042  -5.826
  433XTA   HL2234197  -6.146  25.921  -5.703
  433XTA   HL2334198  -6.291  25.919  -5.790
  433XTA   HL2434199  -5.226  25.471  -6.781
  433XTA   HL2534200  -5.149  25.417  -6.634
  433XTA    CO634201  -6.019  25.628  -5.967
  433XTA    CO734202  -6.114  25.652  -5.755
  433XTA    OA534203  -5.998  25.709  -5.688
  433XTA   HL2634204  -6.024  25.655  -6.075
  433XTA   HL2734205  -6.023  25.523  -5.967
  433XTA   HL2834206  -6.116  25.537  -5.743
  433XTA   HL2934207  -6.196  25.690  -5.699
  434XTA     NT34208  -2.969  31.575  -9.757
  434XTA    CN134209  -3.055  31.659  -9.818
  434XTA     C134210  -3.144  31.738  -9.742
  434XTA     C234211  -3.233  31.830  -9.799
  434XTA     C334212  -3.240  31.830  -9.935
  434XTA     C434213  -3.152  31.748 -10.015
  434XTA     C534214  -3.054  31.671  -9.957
  434XTA    CN234215  -2.845  31.629  -9.724
  434XTA     C634216  -2.741  31.638  -9.820
  434XTA     C734217  -2.613  31.689  -9.800
  434XTA     C834218  -2.588  31.741  -9.668
  434XTA     C934219  -2.684  31.734  -9.569
  434XTA    C1034220  -2.808  31.673  -9.597
  434XTA    CN334221  -2.989  31.449  -9.731
  434XTA    C1134222  -3.100  31.410  -9.648
  434XTA    C1234223  -3.128  31.278  -9.621
  434XTA    C1334224  -3.055  31.175  -9.679
  434XTA    C1434225  -2.954  31.206  -9.769
  434XTA    C1534226  -2.920  31.343  -9.798
  434XTA     H134227  -3.148  31.731  -9.631
  434XTA     H234228  -3.288  31.892  -9.738
  434XTA     H334229  -3.160  31.745 -10.121
  434XTA     H434230  -2.985  31.607 -10.012
  434XTA     H534231  -2.762  31.607  -9.912
  434XTA     H634232  -2.537  31.683  -9.873
  434XTA     H734233  -2.669  31.778  -9.474
  434XTA     H834234  -2.888  31.659  -9.524
  434XTA     H934235  -3.151  31.488  -9.594
  434XTA    H1034236  -3.191  31.236  -9.533
  434XTA    H1134237  -2.887  31.133  -9.821
  434XTA    H1234238  -2.838  31.375  -9.859
  434XTA    OA134239  -3.336  31.914  -9.988
  434XTA    CO134240  -3.340  31.924 -10.124
  434XTA    OA234241  -2.470  31.803  -9.640
  434XTA    CO234242  -2.366  31.821  -9.747
  434XTA    CL134243  -2.258  31.914  -9.685
  434XTA    CL234244  -2.185  31.867  -9.560
  434XTA    CL334245  -2.083  31.965  -9.507
  434XTA    CL434246  -2.153  32.072  -9.414
  434XTA    CO334247  -2.060  32.195  -9.425
  434XTA    OA334248  -2.081  32.288  -9.325
  434XTA    CO434249  -2.039  32.248  -9.195
  434XTA    CT134250  -1.988  32.370  -9.111
  434XTA    CL534251  -1.958  32.326  -8.969
  434XTA    CL634252  -1.901  32.433  -8.872
  434XTA    OA434253  -3.104  31.046  -9.656
  434XTA    CO534254  -3.037  30.938  -9.722
  434XTA    HL134255  -3.091  30.842  -9.717
  434XTA    HL234256  -3.337  31.834 -10.185
  434XTA    HL334257  -3.426  31.977 -10.154
  434XTA    HL434258  -3.257  31.987 -10.167
  434XTA    HL534259  -2.316  31.729  -9.780
  434XTA    HL634260  -2.407  31.870  -9.833
  434XTA    HL734261  -2.288  32.018  -9.671
  434XTA    HL834262  -2.192  31.917  -9.773
  434XTA    HL934263  -2.133  31.779  -9.586
  434XTA   HL1034264  -2.252  31.861  -9.483
  434XTA   HL1134265  -1.997  31.923  -9.461
  434XTA   HL1234266  -2.042  32.022  -9.590
  434XTA   HL1334267  -2.142  32.038  -9.314
  434XTA   HL1434268  -2.253  32.087  -9.445
  434XTA   HL1534269  -1.961  32.167  -9.420
  434XTA   HL1634270  -2.056  32.253  -9.519
  434XTA   HL1734271  -2.123  32.209  -9.142
  434XTA   HL1834272  -1.953  32.174  -9.205
  434XTA   HL1934273  -1.893  32.240  -8.976
  434XTA   HL2034274  -2.052  32.281  -8.936
  434XTA   HL2134275  -1.948  32.527  -8.863
  434XTA   HL2234276  -1.800  32.454  -8.886
  434XTA   HL2334277  -1.915  32.389  -8.774
  434XTA   HL2434278  -2.947  30.919  -9.673
  434XTA   HL2534279  -3.012  30.954  -9.825
  434XTA    CO634280  -2.088  32.489  -9.114
  434XTA    CO734281  -1.853  32.417  -9.180
  434XTA    OA534282  -1.823  32.527  -9.157
  434XTA   HL2634283  -2.041  32.586  -9.088
  434XTA   HL2734284  -2.133  32.519  -9.237
  434XTA   HL2834285  -1.869  32.399  -9.282
  434XTA   HL2934286  -1.781  32.344  -9.148
  435XTA     NT34287  -5.363  29.391  -5.756
  435XTA    CN134288  -5.262  29.366  -5.668
  435XTA     C134289  -5.281  29.388  -5.532
  435XTA     C234290  -5.175  29.357  -5.439
  435XTA     C334291  -5.061  29.293  -5.481
  435XTA     C434292  -5.045  29.266  -5.615
  435XTA     C534293  -5.142  29.301  -5.706
  435XTA    CN234294  -5.381  29.524  -5.779
  435XTA     C634295  -5.480  29.592  -5.700
  435XTA     C734296  -5.489  29.730  -5.705
  435XTA     C834297  -5.417  29.801  -5.800
  435XTA     C934298  -5.325  29.734  -5.879
  435XTA    C1034299  -5.296  29.602  -5.868
  435XTA    CN334300  -5.412  29.297  -5.840
  435XTA    C1134301  -5.548  29.257  -5.811
  435XTA    C1234302  -5.626  29.178  -5.901
  435XTA    C1334303  -5.569  29.147  -6.029
  435XTA    C1434304  -5.433  29.190  -6.057
  435XTA    C1534305  -5.354  29.263  -5.964
  435XTA     H134306  -5.363  29.447  -5.493
  435XTA     H234307  -5.196  29.376  -5.334
  435XTA     H334308  -4.963  29.207  -5.638
  435XTA     H434309  -5.129  29.266  -5.810
  435XTA     H534310  -5.543  29.520  -5.640
  435XTA     H634311  -5.561  29.784  -5.639
  435XTA     H734312  -5.263  29.792  -5.942
  435XTA     H834313  -5.219  29.552  -5.928
  435XTA     H934314  -5.589  29.279  -5.710
  435XTA    H1034315  -5.735  29.158  -5.875
  435XTA    H1134316  -5.385  29.167  -6.150
  435XTA    H1234317  -5.253  29.292  -6.007
  435XTA    OA134318  -4.975  29.253  -5.385
  435XTA    CO134319  -4.912  29.357  -5.313
  435XTA    OA234320  -5.419  29.939  -5.801
  435XTA    CO234321  -5.429  29.982  -5.939
  435XTA    CL134322  -5.470  30.123  -5.932
  435XTA    CL234323  -5.605  30.139  -5.860
  435XTA    CL334324  -5.651  30.282  -5.842
  435XTA    CL434325  -5.660  30.341  -5.696
  435XTA    CO334326  -5.520  30.372  -5.637
  435XTA    OA334327  -5.477  30.280  -5.545
  435XTA    CO434328  -5.377  30.197  -5.599
  435XTA    CT134329  -5.303  30.120  -5.489
  435XTA    CL534330  -5.409  30.059  -5.395
  435XTA    CL634331  -5.516  29.975  -5.458
  435XTA    OA434332  -5.647  29.080  -6.115
  435XTA    CO534333  -5.648  29.119  -6.245
  435XTA    HL134334  -5.728  29.069  -6.303
  435XTA    HL234335  -4.909  29.308  -5.215
  435XTA    HL334336  -4.810  29.383  -5.353
  435XTA    HL434337  -4.970  29.456  -5.316
  435XTA    HL534338  -5.333  29.967  -5.992
  435XTA    HL634339  -5.503  29.926  -5.999
  435XTA    HL734340  -5.480  30.152  -6.040
  435XTA    HL834341  -5.392  30.189  -5.890
  435XTA    HL934342  -5.601  30.097  -5.761
  435XTA   HL1034343  -5.670  30.080  -5.926
  435XTA   HL1134344  -5.580  30.343  -5.898
  435XTA   HL1234345  -5.749  30.276  -5.878
  435XTA   HL1334346  -5.713  30.272  -5.618
  435XTA   HL1434347  -5.705  30.438  -5.702
  435XTA   HL1534348  -5.456  30.379  -5.727
  435XTA   HL1634349  -5.525  30.479  -5.596
  435XTA   HL1734350  -5.419  30.124  -5.665
  435XTA   HL1834351  -5.303  30.255  -5.658
  435XTA   HL1934352  -5.458  30.152  -5.356
  435XTA   HL2034353  -5.362  29.994  -5.314
  435XTA   HL2134354  -5.471  29.902  -5.502
  435XTA   HL2234355  -5.587  30.029  -5.526
  435XTA   HL2334356  -5.578  29.928  -5.369
  435XTA   HL2434357  -5.551  29.095  -6.287
  435XTA   HL2534358  -5.663  29.224  -6.263
  435XTA    CO634359  -5.212  30.220  -5.404
  435XTA    CO734360  -5.228  30.019  -5.568
  435XTA    OA534361  -5.177  30.153  -5.285
  435XTA   HL2634362  -5.276  30.306  -5.368
  435XTA   HL2734363  -5.130  30.258  -5.461
  435XTA   HL2834364  -5.289  29.955  -5.632
  435XTA   HL2934365  -5.185  29.951  -5.495
  436XTA     NT34366  -7.976  30.270  -8.737
  436XTA    CN134367  -7.963  30.327  -8.610
  436XTA     C134368  -7.994  30.257  -8.490
  436XTA     C234369  -7.971  30.311  -8.360
  436XTA     C334370  -7.943  30.448  -8.347
  436XTA     C434371  -7.927  30.523  -8.470
  436XTA     C534372  -7.937  30.463  -8.597
  436XTA    CN234373  -7.882  30.191  -8.796
  436XTA     C634374  -7.781  30.245  -8.877
  436XTA     C734375  -7.689  30.164  -8.940
  436XTA     C834376  -7.680  30.025  -8.917
  436XTA     C934377  -7.771  29.973  -8.827
  436XTA    C1034378  -7.870  30.054  -8.762
  436XTA    CN334379  -8.079  30.305  -8.819
  436XTA    C1134380  -8.206  30.249  -8.804
  436XTA    C1234381  -8.312  30.274  -8.896
  436XTA    C1334382  -8.298  30.374  -8.996
  436XTA    C1434383  -8.170  30.441  -9.009
  436XTA    C1534384  -8.070  30.406  -8.919
  436XTA     H134385  -8.023  30.153  -8.499
  436XTA     H234386  -7.991  30.251  -8.271
  436XTA     H334387  -7.904  30.630  -8.456
  436XTA     H434388  -7.916  30.515  -8.689
  436XTA     H534389  -7.782  30.351  -8.900
  436XTA     H634390  -7.616  30.220  -8.996
  436XTA     H734391  -7.760  29.869  -8.800
  436XTA     H834392  -7.943  30.017  -8.695
  436XTA     H934393  -8.224  30.171  -8.732
  436XTA    H1034394  -8.406  30.211  -8.888
  436XTA    H1134395  -8.167  30.512  -9.092
  436XTA    H1234396  -7.974  30.464  -8.911
  436XTA    OA134397  -7.914  30.515  -8.228
  436XTA    CO134398  -7.911  30.439  -8.107
  436XTA    OA234399  -7.598  29.941  -8.985
  436XTA    CO234400  -7.484  29.994  -9.056
  436XTA    CL134401  -7.364  30.025  -8.971
  436XTA    CL234402  -7.270  30.134  -9.038
  436XTA    CL334403  -7.306  30.281  -9.004
  436XTA    CL434404  -7.198  30.374  -9.055
  436XTA    CO334405  -7.171  30.358  -9.208
  436XTA    OA334406  -7.065  30.445  -9.247
  436XTA    CO434407  -7.041  30.456  -9.389
  436XTA    CT134408  -6.937  30.559  -9.424
  436XTA    CL534409  -6.932  30.583  -9.582
  436XTA    CL634410  -6.922  30.457  -9.661
  436XTA    OA434411  -8.404  30.388  -9.089
  436XTA    CO534412  -8.404  30.513  -9.151
  436XTA    HL134413  -8.406  30.593  -9.081
  436XTA    HL234414  -7.895  30.486  -8.012
  436XTA    HL334415  -8.009  30.395  -8.103
  436XTA    HL434416  -7.835  30.366  -8.124
  436XTA    HL534417  -7.455  29.917  -9.129
  436XTA    HL634418  -7.514  30.084  -9.107
  436XTA    HL734419  -7.310  29.932  -8.952
  436XTA    HL834420  -7.398  30.063  -8.873
  436XTA    HL934421  -7.268  30.124  -9.143
  436XTA   HL1034422  -7.167  30.129  -9.004
  436XTA   HL1134423  -7.402  30.304  -9.047
  436XTA   HL1234424  -7.306  30.301  -8.894
  436XTA   HL1334425  -7.104  30.364  -9.001
  436XTA   HL1434426  -7.221  30.477  -9.026
  436XTA   HL1534427  -7.132  30.257  -9.228
  436XTA   HL1634428  -7.254  30.374  -9.276
  436XTA   HL1734429  -7.021  30.351  -9.428
  436XTA   HL1834430  -7.132  30.497  -9.435
  436XTA   HL1934431  -6.852  30.651  -9.599
  436XTA   HL2034432  -7.026  30.640  -9.614
  436XTA   HL2134433  -7.013  30.391  -9.637
  436XTA   HL2234434  -6.831  30.402  -9.645
  436XTA   HL2334435  -6.924  30.478  -9.764
  436XTA   HL2434436  -8.494  30.528  -9.200
  436XTA   HL2534437  -8.330  30.529  -9.231
  436XTA    CO634438  -6.801  30.512  -9.369
  436XTA    CO734439  -6.970  30.691  -9.354
  436XTA    OA534440  -6.717  30.581  -9.394
  436XTA   HL2634441  -6.773  30.410  -9.403
  436XTA   HL2734442  -6.821  30.498  -9.259
  436XTA   HL2834443  -7.103  30.693  -9.315
  436XTA   HL2934444  -6.927  30.700  -9.254
  437XTA     NT34445  -4.765  32.784 -11.486
  437XTA    CN134446  -4.791  32.842 -11.605
  437XTA     C134447  -4.694  32.932 -11.661
  437XTA     C234448  -4.712  32.993 -11.788
  437XTA     C334449  -4.828  32.967 -11.861
  437XTA     C434450  -4.920  32.879 -11.810
  437XTA     C534451  -4.902  32.823 -11.684
  437XTA    CN234452  -4.800  32.853 -11.379
  437XTA     C634453  -4.726  32.960 -11.333
  437XTA     C734454  -4.769  33.034 -11.219
  437XTA     C834455  -4.877  32.983 -11.142
  437XTA     C934456  -4.952  32.870 -11.192
  437XTA    C1034457  -4.907  32.804 -11.304
  437XTA    CN334458  -4.721  32.657 -11.485
  437XTA    C1134459  -4.806  32.554 -11.523
  437XTA    C1234460  -4.769  32.420 -11.533
  437XTA    C1334461  -4.634  32.385 -11.515
  437XTA    C1434462  -4.541  32.485 -11.482
  437XTA    C1534463  -4.590  32.620 -11.463
  437XTA     H134464  -4.614  32.958 -11.597
  437XTA     H234465  -4.644  33.073 -11.824
  437XTA     H334466  -5.006  32.854 -11.866
  437XTA     H434467  -4.981  32.752 -11.651
  437XTA     H534468  -4.638  32.997 -11.394
  437XTA     H634469  -4.700  33.108 -11.182
  437XTA     H734470  -5.050  32.848 -11.161
  437XTA     H834471  -4.958  32.717 -11.338
  437XTA     H934472  -4.904  32.583 -11.547
  437XTA    H1034473  -4.846  32.341 -11.561
  437XTA    H1134474  -4.437  32.458 -11.465
  437XTA    H1234475  -4.513  32.694 -11.449
  437XTA    OA134476  -4.871  33.021 -11.978
  437XTA    CO134477  -4.803  33.140 -12.008
  437XTA    OA234478  -4.927  33.051 -11.032
  437XTA    CO234479  -4.860  33.161 -10.980
  437XTA    CL134480  -4.924  33.223 -10.854
  437XTA    CL234481  -4.957  33.122 -10.748
  437XTA    CL334482  -5.093  33.054 -10.784
  437XTA    CL434483  -5.129  32.954 -10.670
  437XTA    CO334484  -5.244  32.867 -10.726
  437XTA    OA334485  -5.186  32.787 -10.830
  437XTA    CO434486  -5.126  32.665 -10.796
  437XTA    CT134487  -5.134  32.555 -10.907
  437XTA    CL534488  -5.033  32.440 -10.882
  437XTA    CL634489  -5.031  32.396 -10.736
  437XTA    OA434490  -4.579  32.261 -11.530
  437XTA    CO534491  -4.661  32.153 -11.575
  437XTA    HL134492  -4.725  32.124 -11.497
  437XTA    HL234493  -4.803  33.216 -11.926
  437XTA    HL334494  -4.701  33.119 -12.034
  437XTA    HL434495  -4.836  33.184 -12.101
  437XTA    HL534496  -4.757  33.142 -10.956
  437XTA    HL634497  -4.852  33.238 -11.064
  437XTA    HL734498  -5.016  33.279 -10.882
  437XTA    HL834499  -4.853  33.294 -10.811
  437XTA    HL934500  -4.951  33.165 -10.649
  437XTA   HL1034501  -4.878  33.051 -10.741
  437XTA   HL1134502  -5.165  33.140 -10.804
  437XTA   HL1234503  -5.078  32.997 -10.878
  437XTA   HL1334504  -5.169  33.009 -10.591
  437XTA   HL1434505  -5.050  32.889 -10.630
  437XTA   HL1534506  -5.290  32.802 -10.650
  437XTA   HL1634507  -5.333  32.917 -10.779
  437XTA   HL1734508  -5.025  32.695 -10.777
  437XTA   HL1834509  -5.171  32.624 -10.703
  437XTA   HL1934510  -4.933  32.473 -10.888
  437XTA   HL2034511  -5.046  32.367 -10.955
  437XTA   HL2134512  -4.971  32.297 -10.718
  437XTA   HL2234513  -5.135  32.362 -10.711
  437XTA   HL2334514  -4.994  32.467 -10.657
  437XTA   HL2434515  -4.602  32.058 -11.588
  437XTA   HL2534516  -4.715  32.189 -11.665
  437XTA    CO634517  -5.103  32.614 -11.047
  437XTA    CO734518  -5.279  32.496 -10.905
  437XTA    OA534519  -5.120  32.516 -11.153
  437XTA   HL2634520  -4.994  32.655 -11.041
  437XTA   HL2734521  -5.162  32.699 -11.071
  437XTA   HL2834522  -5.344  32.557 -10.840
  437XTA   HL2934523  -5.317  32.513 -11.009
  438XTA     NT34524  -1.464  28.773  -8.296
  438XTA    CN134525  -1.502  28.679  -8.389
  438XTA     C134526  -1.635  28.677  -8.435
  438XTA     C234527  -1.682  28.576  -8.525
  438XTA     C334528  -1.583  28.489  -8.588
  438XTA     C434529  -1.448  28.500  -8.549
  438XTA     C534530  -1.409  28.585  -8.442
  438XTA    CN234531  -1.439  28.891  -8.355
  438XTA     C634532  -1.512  29.008  -8.322
  438XTA     C734533  -1.493  29.128  -8.399
  438XTA     C834534  -1.401  29.134  -8.508
  438XTA     C934535  -1.315  29.021  -8.533
  438XTA    C1034536  -1.344  28.901  -8.462
  438XTA    CN334537  -1.415  28.741  -8.178
  438XTA    C1134538  -1.289  28.792  -8.142
  438XTA    C1234539  -1.242  28.756  -8.011
  438XTA    C1334540  -1.317  28.685  -7.916
  438XTA    C1434541  -1.436  28.627  -7.968
  438XTA    C1534542  -1.487  28.657  -8.096
  438XTA     H134543  -1.707  28.751  -8.413
  438XTA     H234544  -1.792  28.573  -8.555
  438XTA     H334545  -1.373  28.438  -8.595
  438XTA     H434546  -1.304  28.588  -8.409
  438XTA     H534547  -1.585  29.014  -8.243
  438XTA     H634548  -1.553  29.218  -8.374
  438XTA     H734549  -1.235  29.017  -8.609
  438XTA     H834550  -1.291  28.815  -8.485
  438XTA     H934551  -1.231  28.852  -8.205
  438XTA    H1034552  -1.144  28.796  -7.988
  438XTA    H1134553  -1.501  28.568  -7.908
  438XTA    H1234554  -1.574  28.611  -8.134
  438XTA    OA134555  -1.619  28.412  -8.689
  438XTA    CO134556  -1.521  28.321  -8.742
  438XTA    OA234557  -1.380  29.247  -8.587
  438XTA    CO234558  -1.469  29.355  -8.570
  438XTA    CL134559  -1.444  29.475  -8.660
  438XTA    CL234560  -1.428  29.434  -8.811
  438XTA    CL334561  -1.371  29.551  -8.900
  438XTA    CL434562  -1.343  29.505  -9.045
  438XTA    CO334563  -1.251  29.604  -9.114
  438XTA    OA334564  -1.248  29.577  -9.258
  438XTA    CO434565  -1.354  29.641  -9.328
  438XTA    CT134566  -1.380  29.582  -9.464
  438XTA    CL534567  -1.406  29.429  -9.462
  438XTA    CL634568  -1.278  29.345  -9.467
  438XTA    OA434569  -1.282  28.674  -7.786
  438XTA    CO534570  -1.220  28.783  -7.730
  438XTA    HL134571  -1.139  28.820  -7.792
  438XTA    HL234572  -1.456  28.388  -8.799
  438XTA    HL334573  -1.469  28.259  -8.671
  438XTA    HL434574  -1.579  28.250  -8.803
  438XTA    HL534575  -1.569  29.317  -8.585
  438XTA    HL634576  -1.463  29.380  -8.466
  438XTA    HL734577  -1.355  29.522  -8.631
  438XTA    HL834578  -1.520  29.550  -8.631
  438XTA    HL934579  -1.530  29.410  -8.847
  438XTA   HL1034580  -1.359  29.348  -8.818
  438XTA   HL1134581  -1.440  29.641  -8.899
  438XTA   HL1234582  -1.279  29.577  -8.852
  438XTA   HL1334583  -1.440  29.506  -9.098
  438XTA   HL1434584  -1.305  29.403  -9.037
  438XTA   HL1534585  -1.300  29.700  -9.088
  438XTA   HL1634586  -1.152  29.595  -9.062
  438XTA   HL1734587  -1.451  29.632  -9.282
  438XTA   HL1834588  -1.333  29.748  -9.327
  438XTA   HL1934589  -1.472  29.399  -9.540
  438XTA   HL2034590  -1.454  29.397  -9.370
  438XTA   HL2134591  -1.232  29.343  -9.574
  438XTA   HL2234592  -1.299  29.242  -9.442
  438XTA   HL2334593  -1.203  29.374  -9.400
  438XTA   HL2434594  -1.181  28.760  -7.638
  438XTA   HL2534595  -1.297  28.860  -7.722
  438XTA    CO634596  -1.258  29.621  -9.547
  438XTA    CO734597  -1.501  29.656  -9.521
  438XTA    OA534598  -1.262  29.588  -9.649
  438XTA   HL2634599  -1.167  29.582  -9.500
  438XTA   HL2734600  -1.244  29.727  -9.540
  438XTA   HL2834601  -1.462  29.792  -9.551
  438XTA   HL2934602  -1.517  29.608  -9.621
  439XTA     NT34603  -5.598  29.948  -6.615
  439XTA    CN134604  -5.719  29.881  -6.608
  439XTA     C134605  -5.823  29.950  -6.547
  439XTA     C234606  -5.952  29.901  -6.551
  439XTA     C334607  -5.978  29.786  -6.620
  439XTA     C434608  -5.880  29.722  -6.693
  439XTA     C534609  -5.746  29.759  -6.673
  439XTA    CN234610  -5.590  30.055  -6.695
  439XTA     C634611  -5.607  30.177  -6.632
  439XTA     C734612  -5.614  30.298  -6.704
  439XTA     C834613  -5.585  30.300  -6.839
  439XTA     C934614  -5.545  30.180  -6.895
  439XTA    C1034615  -5.555  30.054  -6.829
  439XTA    CN334616  -5.501  29.921  -6.517
  439XTA    C1134617  -5.481  30.004  -6.404
  439XTA    C1234618  -5.386  29.972  -6.305
  439XTA    C1334619  -5.311  29.856  -6.314
  439XTA    C1434620  -5.325  29.774  -6.428
  439XTA    C1534621  -5.422  29.803  -6.527
  439XTA     H134622  -5.806  30.048  -6.500
  439XTA     H234623  -6.027  29.955  -6.495
  439XTA     H334624  -5.902  29.627  -6.745
  439XTA     H434625  -5.662  29.699  -6.707
  439XTA     H534626  -5.622  30.188  -6.523
  439XTA     H634627  -5.637  30.389  -6.648
  439XTA     H734628  -5.512  30.195  -7.000
  439XTA     H834629  -5.534  29.965  -6.886
  439XTA     H934630  -5.536  30.089  -6.391
  439XTA    H1034631  -5.379  30.043  -6.217
  439XTA    H1134632  -5.276  29.682  -6.448
  439XTA    H1234633  -5.447  29.739  -6.609
  439XTA    OA134634  -6.109  29.747  -6.618
  439XTA    CO134635  -6.142  29.683  -6.491
  439XTA    OA234636  -5.576  30.427  -6.897
  439XTA    CO234637  -5.552  30.438  -7.033
  439XTA    CL134638  -5.405  30.456  -7.065
  439XTA    CL234639  -5.375  30.530  -7.197
  439XTA    CL334640  -5.220  30.523  -7.231
  439XTA    CL434641  -5.183  30.615  -7.346
  439XTA    CO334642  -5.239  30.565  -7.476
  439XTA    OA334643  -5.188  30.434  -7.485
  439XTA    CO434644  -5.219  30.371  -7.607
  439XTA    CT134645  -5.173  30.222  -7.604
  439XTA    CL534646  -5.245  30.125  -7.513
  439XTA    CL634647  -5.397  30.145  -7.499
  439XTA    OA434648  -5.219  29.829  -6.216
  439XTA    CO534649  -5.145  29.711  -6.232
  439XTA    HL134650  -5.208  29.625  -6.250
  439XTA    HL234651  -6.104  29.737  -6.406
  439XTA    HL334652  -6.250  29.683  -6.471
  439XTA    HL434653  -6.107  29.581  -6.476
  439XTA    HL534654  -5.603  30.361  -7.098
  439XTA    HL634655  -5.608  30.525  -7.061
  439XTA    HL734656  -5.355  30.357  -7.066
  439XTA    HL834657  -5.349  30.507  -6.986
  439XTA    HL934658  -5.414  30.632  -7.187
  439XTA   HL1034659  -5.437  30.484  -7.275
  439XTA   HL1134660  -5.161  30.560  -7.143
  439XTA   HL1234661  -5.190  30.422  -7.258
  439XTA   HL1334662  -5.077  30.623  -7.353
  439XTA   HL1434663  -5.234  30.708  -7.315
  439XTA   HL1534664  -5.345  30.565  -7.464
  439XTA   HL1634665  -5.209  30.619  -7.565
  439XTA   HL1734666  -5.329  30.357  -7.626
  439XTA   HL1834667  -5.169  30.421  -7.686
  439XTA   HL1934668  -5.205  30.131  -7.416
  439XTA   HL2034669  -5.231  30.020  -7.546
  439XTA   HL2134670  -5.430  30.247  -7.474
  439XTA   HL2234671  -5.449  30.088  -7.422
  439XTA   HL2334672  -5.449  30.117  -7.583
  439XTA   HL2434673  -5.072  29.697  -6.156
  439XTA   HL2534674  -5.091  29.723  -6.319
  439XTA    CO634675  -5.020  30.225  -7.571
  439XTA    CO734676  -5.192  30.177  -7.745
  439XTA    OA534677  -5.328  30.177  -7.784
  439XTA   HL2634678  -4.986  30.120  -7.565
  439XTA   HL2734679  -4.998  30.270  -7.477
  439XTA   HL2834680  -5.157  30.074  -7.766
  439XTA   HL2934681  -5.146  30.252  -7.808
  440XTA     NT34682  -0.416  30.196  -9.355
  440XTA    CN134683  -0.320  30.271  -9.302
  440XTA     C134684  -0.189  30.238  -9.328
  440XTA     C234685  -0.089  30.331  -9.290
  440XTA     C334686  -0.113  30.443  -9.213
  440XTA     C434687  -0.247  30.472  -9.187
  440XTA     C534688  -0.351  30.385  -9.221
  440XTA    CN234689  -0.528  30.248  -9.411
  440XTA     C634690  -0.522  30.281  -9.542
  440XTA     C734691  -0.632  30.343  -9.598
  440XTA     C834692  -0.761  30.353  -9.534
  440XTA     C934693  -0.763  30.318  -9.402
  440XTA    C1034694  -0.648  30.272  -9.334
  440XTA    CN334695  -0.420  30.072  -9.310
  440XTA    C1134696  -0.444  30.043  -9.173
  440XTA    C1234697  -0.449  29.913  -9.126
  440XTA    C1334698  -0.441  29.801  -9.209
  440XTA    C1434699  -0.436  29.825  -9.345
  440XTA    C1534700  -0.423  29.960  -9.397
  440XTA     H134701  -0.180  30.155  -9.394
  440XTA     H234702   0.013  30.291  -9.303
  440XTA     H334703  -0.273  30.556  -9.130
  440XTA     H434704  -0.450  30.402  -9.189
  440XTA     H534705  -0.423  30.285  -9.579
  440XTA     H634706  -0.619  30.384  -9.698
  440XTA     H734707  -0.858  30.336  -9.350
  440XTA     H834708  -0.638  30.245  -9.229
  440XTA     H934709  -0.467  30.107  -9.095
  440XTA    H1034710  -0.470  29.905  -9.013
  440XTA    H1134711  -0.440  29.747  -9.416
  440XTA    H1234712  -0.423  29.966  -9.512
  440XTA    OA134713  -0.011  30.521  -9.172
  440XTA    CO134714  -0.043  30.658  -9.171
  440XTA    OA234715  -0.872  30.391  -9.602
  440XTA    CO234716  -0.881  30.349  -9.745
  440XTA    CL134717  -1.030  30.356  -9.779
  440XTA    CL234718  -1.062  30.287  -9.913
  440XTA    CL334719  -1.210  30.270  -9.930
  440XTA    CL434720  -1.252  30.180 -10.046
  440XTA    CO334721  -1.397  30.132 -10.033
  440XTA    OA334722  -1.435  30.096  -9.900
  440XTA    CO434723  -1.577  30.092  -9.899
  440XTA    CT134724  -1.653  30.209  -9.828
  440XTA    CL534725  -1.627  30.217  -9.677
  440XTA    CL634726  -1.496  30.269  -9.627
  440XTA    OA434727  -0.429  29.670  -9.166
  440XTA    CO534728  -0.433  29.655  -9.031
  440XTA    HL134729  -0.460  29.551  -9.017
  440XTA    HL234730   0.046  30.719  -9.183
  440XTA    HL334731  -0.099  30.690  -9.256
  440XTA    HL434732  -0.080  30.683  -9.078
  440XTA    HL534733  -0.806  30.401  -9.813
  440XTA    HL634734  -0.849  30.246  -9.755
  440XTA    HL734735  -1.056  30.462  -9.782
  440XTA    HL834736  -1.095  30.330  -9.696
  440XTA    HL934737  -1.018  30.187  -9.899
  440XTA   HL1034738  -1.007  30.327  -9.990
  440XTA   HL1134739  -1.234  30.221  -9.841
  440XTA   HL1234740  -1.271  30.360  -9.940
  440XTA   HL1334741  -1.192  30.093 -10.070
  440XTA   HL1434742  -1.250  30.237 -10.142
  440XTA   HL1534743  -1.464  30.213 -10.068
  440XTA   HL1634744  -1.400  30.044 -10.103
  440XTA   HL1734745  -1.620  30.089 -10.000
  440XTA   HL1834746  -1.610  29.996  -9.852
  440XTA   HL1934747  -1.641  30.114  -9.636
  440XTA   HL2034748  -1.713  30.280  -9.638
  440XTA   HL2134749  -1.499  30.375  -9.646
  440XTA   HL2234750  -1.410  30.215  -9.674
  440XTA   HL2334751  -1.489  30.270  -9.523
  440XTA   HL2434752  -0.510  29.717  -8.985
  440XTA   HL2534753  -0.335  29.681  -8.987
  440XTA    CO634754  -1.810  30.191  -9.841
  440XTA    CO734755  -1.617  30.337  -9.902
  440XTA    OA534756  -1.850  30.104  -9.784
  440XTA   HL2634757  -1.834  30.171  -9.947
  440XTA   HL2734758  -1.858  30.275  -9.798
  440XTA   HL2834759  -1.632  30.323 -10.040
  440XTA   HL2934760  -1.515  30.354  -9.879
  441XTA     NT34761  -2.156  24.610  -7.570
  441XTA    CN134762  -2.277  24.601  -7.515
  441XTA     C134763  -2.307  24.507  -7.419
  441XTA     C234764  -2.436  24.506  -7.365
  441XTA     C334765  -2.531  24.603  -7.405
  441XTA     C434766  -2.506  24.684  -7.514
  441XTA     C534767  -2.377  24.683  -7.564
  441XTA    CN234768  -2.050  24.668  -7.497
  441XTA     C634769  -2.055  24.801  -7.474
  441XTA     C734770  -1.958  24.869  -7.400
  441XTA     C834771  -1.856  24.793  -7.342
  441XTA     C934772  -1.863  24.652  -7.358
  441XTA    C1034773  -1.951  24.588  -7.443
  441XTA    CN334774  -2.134  24.575  -7.698
  441XTA    C1134775  -2.077  24.671  -7.781
  441XTA    C1234776  -2.054  24.642  -7.914
  441XTA    C1334777  -2.075  24.515  -7.970
  441XTA    C1434778  -2.113  24.413  -7.875
  441XTA    C1534779  -2.157  24.447  -7.742
  441XTA     H134780  -2.225  24.433  -7.394
  441XTA     H234781  -2.467  24.429  -7.293
  441XTA     H334782  -2.577  24.763  -7.540
  441XTA     H434783  -2.347  24.748  -7.650
  441XTA     H534784  -2.132  24.863  -7.522
  441XTA     H634785  -1.963  24.975  -7.391
  441XTA     H734786  -1.780  24.599  -7.304
  441XTA     H834787  -1.950  24.484  -7.465
  441XTA     H934788  -2.069  24.777  -7.744
  441XTA    H1034789  -2.011  24.719  -7.977
  441XTA    H1134790  -2.128  24.310  -7.912
  441XTA    H1234791  -2.207  24.374  -7.675
  441XTA    OA134792  -2.644  24.630  -7.329
  441XTA    CO134793  -2.627  24.607  -7.190
  441XTA    OA234794  -1.748  24.853  -7.285
  441XTA    CO234795  -1.771  24.987  -7.233
  441XTA    CL134796  -1.656  25.019  -7.132
  441XTA    CL234797  -1.637  24.892  -7.039
  441XTA    CL334798  -1.768  24.848  -6.966
  441XTA    CL434799  -1.755  24.713  -6.907
  441XTA    CO334800  -1.770  24.601  -7.009
  441XTA    OA334801  -1.725  24.477  -6.964
  441XTA    CO434802  -1.751  24.383  -7.066
  441XTA    CT134803  -1.690  24.244  -7.022
  441XTA    CL534804  -1.763  24.125  -7.083
  441XTA    CL634805  -1.750  24.097  -7.230
  441XTA    OA434806  -2.047  24.483  -8.101
  441XTA    CO534807  -1.961  24.560  -8.174
  441XTA    HL134808  -2.002  24.667  -8.171
  441XTA    HL234809  -2.714  24.632  -7.137
  441XTA    HL334810  -2.611  24.502  -7.170
  441XTA    HL434811  -2.541  24.656  -7.141
  441XTA    HL534812  -1.777  25.071  -7.305
  441XTA    HL634813  -1.864  24.985  -7.180
  441XTA    HL734814  -1.688  25.094  -7.061
  441XTA    HL834815  -1.568  25.054  -7.189
  441XTA    HL934816  -1.562  24.916  -6.969
  441XTA   HL1034817  -1.594  24.810  -7.090
  441XTA   HL1134818  -1.799  24.913  -6.882
  441XTA   HL1234819  -1.847  24.844  -7.037
  441XTA   HL1334820  -1.812  24.689  -6.819
  441XTA   HL1434821  -1.658  24.698  -6.864
  441XTA   HL1534822  -1.870  24.590  -7.030
  441XTA   HL1634823  -1.716  24.619  -7.096
  441XTA   HL1734824  -1.862  24.371  -7.062
  441XTA   HL1834825  -1.717  24.416  -7.161
  441XTA   HL1934826  -1.868  24.131  -7.061
  441XTA   HL2034827  -1.716  24.032  -7.035
  441XTA   HL2134828  -1.804  24.167  -7.295
  441XTA   HL2234829  -1.801  24.006  -7.261
  441XTA   HL2334830  -1.636  24.082  -7.250
  441XTA   HL2434831  -1.959  24.530  -8.283
  441XTA   HL2534832  -1.853  24.552  -8.143
  441XTA    CO634833  -1.700  24.227  -6.866
  441XTA    CO734834  -1.543  24.238  -7.067
  441XTA    OA534835  -1.667  24.095  -6.818
  441XTA   HL2634836  -1.809  24.238  -6.841
  441XTA   HL2734837  -1.634  24.306  -6.811
  441XTA   HL2834838  -1.508  24.145  -7.033
  441XTA   HL2934839  -1.538  24.232  -7.176
  442XTA     NT34840  -0.715  30.359  -6.470
  442XTA    CN134841  -0.748  30.361  -6.340
  442XTA     C134842  -0.872  30.323  -6.303
  442XTA     C234843  -0.907  30.319  -6.167
  442XTA     C334844  -0.818  30.372  -6.070
  442XTA     C434845  -0.698  30.422  -6.118
  442XTA     C534846  -0.656  30.416  -6.248
  442XTA    CN234847  -0.689  30.241  -6.533
  442XTA     C634848  -0.784  30.180  -6.619
  442XTA     C734849  -0.766  30.052  -6.676
  442XTA     C834850  -0.658  29.972  -6.639
  442XTA     C934851  -0.562  30.027  -6.548
  442XTA    C1034852  -0.580  30.158  -6.492
  442XTA    CN334853  -0.722  30.469  -6.544
  442XTA    C1134854  -0.851  30.519  -6.578
  442XTA    C1234855  -0.864  30.630  -6.662
  442XTA    C1334856  -0.746  30.702  -6.702
  442XTA    C1434857  -0.621  30.661  -6.659
  442XTA    C1534858  -0.611  30.534  -6.591
  442XTA     H134859  -0.931  30.290  -6.380
  442XTA     H234860  -1.004  30.273  -6.147
  442XTA     H334861  -0.632  30.450  -6.038
  442XTA     H434862  -0.561  30.448  -6.292
  442XTA     H534863  -0.875  30.223  -6.653
  442XTA     H634864  -0.852  30.010  -6.730
  442XTA     H734865  -0.484  29.964  -6.513
  442XTA     H834866  -0.512  30.182  -6.418
  442XTA     H934867  -0.935  30.455  -6.559
  442XTA    H1034868  -0.962  30.663  -6.704
  442XTA    H1134869  -0.526  30.714  -6.688
  442XTA    H1234870  -0.511  30.488  -6.570
  442XTA    OA134871  -0.863  30.387  -5.941
  442XTA    CO134872  -0.986  30.329  -5.895
  442XTA    OA234873  -0.663  29.833  -6.675
  442XTA    CO234874  -0.779  29.778  -6.738
  442XTA    CL134875  -0.744  29.627  -6.766
  442XTA    CL234876  -0.670  29.551  -6.656
  442XTA    CL334877  -0.690  29.403  -6.671
  442XTA    CL434878  -0.605  29.325  -6.575
  442XTA    CO334879  -0.666  29.326  -6.442
  442XTA    OA334880  -0.589  29.402  -6.339
  442XTA    CO434881  -0.638  29.401  -6.202
  442XTA    CT134882  -0.616  29.533  -6.132
  442XTA    CL534883  -0.700  29.647  -6.193
  442XTA    CL634884  -0.843  29.616  -6.239
  442XTA    OA434885  -0.747  30.809  -6.776
  442XTA    CO534886  -0.846  30.818  -6.876
  442XTA    HL134887  -0.817  30.868  -6.968
  442XTA    HL234888  -1.018  30.380  -5.804
  442XTA    HL334889  -1.075  30.333  -5.966
  442XTA    HL434890  -0.961  30.225  -5.869
  442XTA    HL534891  -0.866  29.791  -6.673
  442XTA    HL634892  -0.791  29.837  -6.834
  442XTA    HL734893  -0.704  29.624  -6.868
  442XTA    HL834894  -0.847  29.581  -6.785
  442XTA    HL934895  -0.700  29.585  -6.556
  442XTA   HL1034896  -0.565  29.577  -6.659
  442XTA   HL1134897  -0.801  29.380  -6.666
  442XTA   HL1234898  -0.674  29.376  -6.778
  442XTA   HL1334899  -0.498  29.357  -6.582
  442XTA   HL1434900  -0.608  29.234  -6.630
  442XTA   HL1534901  -0.766  29.351  -6.445
  442XTA   HL1634902  -0.666  29.227  -6.401
  442XTA   HL1734903  -0.742  29.380  -6.218
  442XTA   HL1834904  -0.595  29.317  -6.147
  442XTA   HL1934905  -0.648  29.689  -6.281
  442XTA   HL2034906  -0.693  29.733  -6.130
  442XTA   HL2134907  -0.849  29.568  -6.328
  442XTA   HL2234908  -0.892  29.712  -6.242
  442XTA   HL2334909  -0.896  29.570  -6.160
  442XTA   HL2434910  -0.938  30.857  -6.844
  442XTA   HL2534911  -0.874  30.714  -6.891
  442XTA    CO634912  -0.465  29.564  -6.135
  442XTA    CO734913  -0.650  29.517  -5.987
  442XTA    OA534914  -0.751  29.473  -5.973
  442XTA   HL2634915  -0.407  29.481  -6.090
  442XTA   HL2734916  -0.412  29.584  -6.267
  442XTA   HL2834917  -0.641  29.614  -5.941
  442XTA   HL2934918  -0.574  29.449  -5.943
  443XTA     NT34919  -2.155  26.182  -9.284
  443XTA    CN134920  -2.090  26.275  -9.210
  443XTA     C134921  -1.998  26.233  -9.111
  443XTA     C234922  -1.935  26.333  -9.036
  443XTA     C334923  -1.956  26.470  -9.056
  443XTA     C434924  -2.054  26.510  -9.147
  443XTA     C534925  -2.125  26.418  -9.220
  443XTA    CN234926  -2.282  26.145  -9.256
  443XTA     C634927  -2.388  26.221  -9.307
  443XTA     C734928  -2.524  26.173  -9.300
  443XTA     C834929  -2.550  26.053  -9.233
  443XTA     C934930  -2.440  25.980  -9.188
  443XTA    C1034931  -2.306  26.025  -9.197
  443XTA    CN334932  -2.088  26.147  -9.395
  443XTA    C1134933  -2.058  26.008  -9.421
  443XTA    C1234934  -2.004  25.975  -9.543
  443XTA    C1334935  -1.965  26.069  -9.639
  443XTA    C1434936  -1.994  26.207  -9.613
  443XTA    C1534937  -2.051  26.243  -9.492
  443XTA     H134938  -1.978  26.127  -9.104
  443XTA     H234939  -1.873  26.295  -8.959
  443XTA     H334940  -2.063  26.615  -9.171
  443XTA     H434941  -2.211  26.449  -9.278
  443XTA     H534942  -2.362  26.310  -9.361
  443XTA     H634943  -2.613  26.221  -9.340
  443XTA     H734944  -2.460  25.884  -9.145
  443XTA     H834945  -2.228  25.950  -9.168
  443XTA     H934946  -2.084  25.934  -9.351
  443XTA    H1034947  -1.995  25.870  -9.561
  443XTA    H1134948  -1.977  26.282  -9.689
  443XTA    H1234949  -2.077  26.347  -9.482
  443XTA    OA134950  -1.880  26.571  -9.006
  443XTA    CO134951  -1.772  26.526  -8.921
  443XTA    OA234952  -2.672  26.003  -9.198
  443XTA    CO234953  -2.739  25.935  -9.307
  443XTA    CL134954  -2.882  25.900  -9.258
  443XTA    CL234955  -2.874  25.806  -9.136
  443XTA    CL334956  -3.012  25.761  -9.087
  443XTA    CL434957  -3.102  25.877  -9.050
  443XTA    CO334958  -3.244  25.827  -9.029
  443XTA    OA334959  -3.240  25.747  -8.915
  443XTA    CO434960  -3.263  25.606  -8.935
  443XTA    CT134961  -3.385  25.560  -8.856
  443XTA    CL534962  -3.433  25.415  -8.887
  443XTA    CL634963  -3.323  25.315  -8.869
  443XTA    OA434964  -1.893  26.039  -9.751
  443XTA    CO534965  -1.938  25.924  -9.830
  443XTA    HL134966  -2.018  25.957  -9.894
  443XTA    HL234967  -1.813  26.465  -8.838
  443XTA    HL334968  -1.702  26.462  -8.972
  443XTA    HL434969  -1.723  26.607  -8.866
  443XTA    HL534970  -2.749  26.009  -9.388
  443XTA    HL634971  -2.691  25.846  -9.352
  443XTA    HL734972  -2.947  25.855  -9.334
  443XTA    HL834973  -2.930  26.003  -9.243
  443XTA    HL934974  -2.813  25.857  -9.063
  443XTA   HL1034975  -2.818  25.718  -9.156
  443XTA   HL1134976  -3.050  25.710  -9.172
  443XTA   HL1234977  -2.994  25.692  -9.003
  443XTA   HL1334978  -3.114  25.949  -9.132
  443XTA   HL1434979  -3.056  25.938  -8.966
  443XTA   HL1534980  -3.312  25.911  -9.000
  443XTA   HL1634981  -3.294  25.783  -9.111
  443XTA   HL1734982  -3.286  25.582  -9.040
  443XTA   HL1834983  -3.175  25.545  -8.902
  443XTA   HL1934984  -3.456  25.413  -8.992
  443XTA   HL2034985  -3.519  25.389  -8.827
  443XTA   HL2134986  -3.256  25.327  -8.783
  443XTA   HL2234987  -3.255  25.337  -8.947
  443XTA   HL2334988  -3.349  25.208  -8.878
  443XTA   HL2434989  -1.964  25.835  -9.779
  443XTA   HL2534990  -1.855  25.894  -9.884
  443XTA    CO634991  -3.493  25.660  -8.887
  443XTA    CO734992  -3.358  25.572  -8.701
  443XTA    OA534993  -3.231  25.522  -8.669
  443XTA   HL2634994  -3.475  25.767  -8.856
  443XTA   HL2734995  -3.582  25.624  -8.831
  443XTA   HL2834996  -3.435  25.524  -8.635
  443XTA   HL2934997  -3.350  25.682  -8.676
  444XTA     NT34998  -2.057  28.874 -10.008
  444XTA    CN134999  -2.164  28.868  -9.928
  444XTA     C135000  -2.273  28.783  -9.950
  444XTA     C235001  -2.373  28.767  -9.856
  444XTA     C335002  -2.379  28.838  -9.736
  444XTA     C435003  -2.270  28.929  -9.718
  444XTA     C535004  -2.166  28.936  -9.808
  444XTA    CN235005  -1.951  28.809  -9.960
  444XTA     C635006  -1.853  28.888  -9.896
  444XTA     C735007  -1.736  28.831  -9.846
  444XTA     C835008  -1.726  28.691  -9.861
  444XTA     C935009  -1.820  28.613  -9.935
  444XTA    C1035010  -1.933  28.675  -9.987
  444XTA    CN335011  -2.054  28.951 -10.111
  444XTA    C1135012  -2.030  29.090 -10.095
  444XTA    C1235013  -2.010  29.161 -10.220
  444XTA    C1335014  -2.011  29.098 -10.345
  444XTA    C1435015  -2.041  28.959 -10.356
  444XTA    C1535016  -2.070  28.890 -10.234
  444XTA     H135017  -2.287  28.723 -10.039
  444XTA     H235018  -2.456  28.696  -9.876
  444XTA     H335019  -2.263  28.998  -9.632
  444XTA     H435020  -2.086  28.992  -9.773
  444XTA     H535021  -1.870  28.999  -9.883
  444XTA     H635022  -1.663  28.894  -9.799
  444XTA     H735023  -1.811  28.502  -9.948
  444XTA     H835024  -2.005  28.620 -10.038
  444XTA     H935025  -2.027  29.141 -10.003
  444XTA    H1035026  -1.987  29.269 -10.213
  444XTA    H1135027  -2.030  28.913 -10.453
  444XTA    H1235028  -2.068  28.780 -10.233
  444XTA    OA135029  -2.489  28.831  -9.654
  444XTA    CO135030  -2.465  28.852  -9.510
  444XTA    OA235031  -1.626  28.630  -9.798
  444XTA    CO235032  -1.544  28.557  -9.890
  444XTA    CL135033  -1.406  28.564  -9.833
  444XTA    CL235034  -1.352  28.705  -9.856
  444XTA    CL335035  -1.213  28.716  -9.786
  444XTA    CL435036  -1.141  28.848  -9.814
  444XTA    CO335037  -1.141  28.896  -9.963
  444XTA    OA335038  -1.075  29.019  -9.962
  444XTA    CO435039  -1.015  29.036 -10.092
  444XTA    CT135040  -0.970  29.186 -10.121
  444XTA    CL535041  -1.090  29.278 -10.147
  444XTA    CL635042  -1.213  29.286 -10.052
  444XTA    OA435043  -1.966  29.157 -10.464
  444XTA    CO535044  -1.854  29.250 -10.455
  444XTA    HL135045  -1.861  29.333 -10.375
  444XTA    HL235046  -2.470  28.962  -9.492
  444XTA    HL335047  -2.537  28.807  -9.446
  444XTA    HL435048  -2.365  28.819  -9.474
  444XTA    HL535049  -1.586  28.457  -9.897
  444XTA    HL635050  -1.541  28.606  -9.986
  444XTA    HL735051  -1.345  28.479  -9.865
  444XTA    HL835052  -1.409  28.563  -9.721
  444XTA    HL935053  -1.411  28.780  -9.811
  444XTA   HL1035054  -1.346  28.733  -9.959
  444XTA   HL1135055  -1.246  28.703  -9.686
  444XTA   HL1235056  -1.150  28.629  -9.802
  444XTA   HL1335057  -1.040  28.852  -9.773
  444XTA   HL1435058  -1.202  28.915  -9.755
  444XTA   HL1535059  -1.082  28.827 -10.028
  444XTA   HL1635060  -1.239  28.903 -10.014
  444XTA   HL1735061  -0.932  28.969 -10.087
  444XTA   HL1835062  -1.079  29.002 -10.172
  444XTA   HL1935063  -1.118  29.270 -10.257
  444XTA   HL2035064  -1.047  29.380 -10.148
  444XTA   HL2135065  -1.280  29.194 -10.054
  444XTA   HL2235066  -1.282  29.375 -10.067
  444XTA   HL2335067  -1.186  29.290  -9.944
  444XTA   HL2435068  -1.854  29.309 -10.546
  444XTA   HL2535069  -1.776  29.187 -10.432
  444XTA    CO635070  -0.869  29.196 -10.237
  444XTA    CO735071  -0.896  29.234  -9.991
  444XTA    OA535072  -0.853  29.298 -10.276
  444XTA   HL2635073  -0.897  29.130 -10.324
  444XTA   HL2735074  -0.778  29.161 -10.193
  444XTA   HL2835075  -0.981  29.223  -9.878
  444XTA   HL2935076  -0.814  29.164  -9.971
  445XTA     NT35077  -4.269  28.738  -9.505
  445XTA    CN135078  -4.296  28.761  -9.376
  445XTA     C135079  -4.397  28.682  -9.310
  445XTA     C235080  -4.449  28.734  -9.194
  445XTA     C335081  -4.407  28.854  -9.130
  445XTA     C435082  -4.301  28.927  -9.196
  445XTA     C535083  -4.259  28.884  -9.321
  445XTA    CN235084  -4.187  28.628  -9.534
  445XTA     C635085  -4.052  28.627  -9.489
  445XTA     C735086  -3.968  28.516  -9.513
  445XTA     C835087  -4.032  28.396  -9.567
  445XTA     C935088  -4.167  28.396  -9.602
  445XTA    C1035089  -4.247  28.512  -9.589
  445XTA    CN335090  -4.292  28.832  -9.603
  445XTA    C1135091  -4.183  28.912  -9.651
  445XTA    C1235092  -4.202  29.006  -9.754
  445XTA    C1335093  -4.336  29.031  -9.800
  445XTA    C1435094  -4.446  28.956  -9.747
  445XTA    C1535095  -4.424  28.859  -9.649
  445XTA     H135096  -4.426  28.588  -9.353
  445XTA     H235097  -4.529  28.679  -9.148
  445XTA     H335098  -4.262  29.014  -9.151
  445XTA     H435099  -4.198  28.955  -9.376
  445XTA     H535100  -4.022  28.720  -9.440
  445XTA     H635101  -3.862  28.512  -9.487
  445XTA     H735102  -4.207  28.311  -9.645
  445XTA     H835103  -4.351  28.505  -9.616
  445XTA     H935104  -4.079  28.898  -9.617
  445XTA    H1035105  -4.115  29.063  -9.781
  445XTA    H1135106  -4.543  28.989  -9.773
  445XTA    H1235107  -4.499  28.811  -9.598
  445XTA    OA135108  -4.475  28.887  -9.016
  445XTA    CO135109  -4.478  29.016  -8.963
  445XTA    OA235110  -3.951  28.288  -9.596
  445XTA    CO235111  -3.980  28.161  -9.541
  445XTA    CL135112  -3.852  28.083  -9.573
  445XTA    CL235113  -3.721  28.150  -9.529
  445XTA    CL335114  -3.706  28.163  -9.377
  445XTA    CL435115  -3.565  28.233  -9.341
  445XTA    CO335116  -3.532  28.242  -9.197
  445XTA    OA335117  -3.619  28.343  -9.146
  445XTA    CO435118  -3.658  28.318  -9.015
  445XTA    CT135119  -3.758  28.427  -8.958
  445XTA    CL535120  -3.873  28.458  -9.052
  445XTA    CL635121  -3.955  28.334  -9.086
  445XTA    OA435122  -4.346  29.118  -9.900
  445XTA    CO535123  -4.474  29.167  -9.935
  445XTA    HL135124  -4.534  29.084  -9.954
  445XTA    HL235125  -4.523  29.018  -8.871
  445XTA    HL335126  -4.382  29.060  -8.955
  445XTA    HL435127  -4.530  29.078  -9.037
  445XTA    HL535128  -3.979  28.177  -9.434
  445XTA    HL635129  -4.061  28.107  -9.588
  445XTA    HL735130  -3.850  28.063  -9.678
  445XTA    HL835131  -3.859  27.990  -9.535
  445XTA    HL935132  -3.704  28.246  -9.565
  445XTA   HL1035133  -3.646  28.090  -9.580
  445XTA   HL1135134  -3.794  28.206  -9.328
  445XTA   HL1235135  -3.701  28.060  -9.341
  445XTA   HL1335136  -3.563  28.335  -9.391
  445XTA   HL1435137  -3.494  28.168  -9.386
  445XTA   HL1535138  -3.551  28.139  -9.163
  445XTA   HL1635139  -3.429  28.277  -9.191
  445XTA   HL1735140  -3.690  28.215  -9.009
  445XTA   HL1835141  -3.580  28.310  -8.945
  445XTA   HL1935142  -3.841  28.490  -9.153
  445XTA   HL2035143  -3.936  28.534  -9.006
  445XTA   HL2135144  -4.038  28.364  -9.145
  445XTA   HL2235145  -4.002  28.290  -8.999
  445XTA   HL2335146  -3.888  28.260  -9.126
  445XTA   HL2435147  -4.462  29.210 -10.033
  445XTA   HL2535148  -4.509  29.234  -9.865
  445XTA    CO635149  -3.682  28.568  -8.924
  445XTA    CO735150  -3.812  28.377  -8.826
  445XTA    OA535151  -3.727  28.350  -8.758
  445XTA   HL2635152  -3.745  28.605  -8.844
  445XTA   HL2735153  -3.555  28.531  -8.858
  445XTA   HL2835154  -3.881  28.294  -8.837
  445XTA   HL2935155  -3.873  28.460  -8.778
  446XTA     NT35156  -5.951  28.752  -5.691
  446XTA    CN135157  -6.077  28.742  -5.654
  446XTA     C135158  -6.181  28.805  -5.725
  446XTA     C235159  -6.313  28.778  -5.695
  446XTA     C335160  -6.354  28.692  -5.595
  446XTA     C435161  -6.252  28.622  -5.522
  446XTA     C535162  -6.112  28.645  -5.553
  446XTA    CN235163  -5.876  28.837  -5.616
  446XTA     C635164  -5.894  28.976  -5.638
  446XTA     C735165  -5.804  29.069  -5.582
  446XTA     C835166  -5.698  29.020  -5.501
  446XTA     C935167  -5.684  28.881  -5.471
  446XTA    C1035168  -5.771  28.788  -5.532
  446XTA    CN335169  -5.902  28.698  -5.810
  446XTA    C1135170  -5.796  28.758  -5.886
  446XTA    C1235171  -5.749  28.713  -6.009
  446XTA    C1335172  -5.805  28.599  -6.067
  446XTA    C1435173  -5.917  28.539  -6.002
  446XTA    C1535174  -5.963  28.589  -5.873
  446XTA     H135175  -6.152  28.878  -5.792
  446XTA     H235176  -6.381  28.823  -5.764
  446XTA     H335177  -6.291  28.556  -5.444
  446XTA     H435178  -6.036  28.592  -5.503
  446XTA     H535179  -5.970  29.020  -5.692
  446XTA     H635180  -5.820  29.177  -5.605
  446XTA     H735181  -5.611  28.847  -5.399
  446XTA     H835182  -5.756  28.688  -5.506
  446XTA     H935183  -5.748  28.841  -5.844
  446XTA    H1035184  -5.674  28.775  -6.055
  446XTA    H1135185  -5.975  28.456  -6.054
  446XTA    H1235186  -6.034  28.544  -5.812
  446XTA    OA135187  -6.489  28.664  -5.595
  446XTA    CO135188  -6.543  28.613  -5.477
  446XTA    OA235189  -5.614  29.112  -5.440
  446XTA    CO235190  -5.669  29.239  -5.389
  446XTA    CL135191  -5.563  29.315  -5.314
  446XTA    CL235192  -5.592  29.467  -5.300
  446XTA    CL335193  -5.479  29.549  -5.235
  446XTA    CL435194  -5.521  29.690  -5.207
  446XTA    CO335195  -5.402  29.772  -5.157
  446XTA    OA335196  -5.352  29.706  -5.044
  446XTA    CO435197  -5.252  29.779  -4.983
  446XTA    CT135198  -5.162  29.693  -4.901
  446XTA    CL535199  -5.119  29.582  -4.996
  446XTA    CL635200  -4.986  29.521  -4.950
  446XTA    OA435201  -5.771  28.550  -6.184
  446XTA    CO535202  -5.635  28.511  -6.206
  446XTA    HL135203  -5.601  28.441  -6.129
  446XTA    HL235204  -6.641  28.580  -5.493
  446XTA    HL335205  -6.485  28.520  -5.458
  446XTA    HL435206  -6.532  28.684  -5.400
  446XTA    HL535207  -5.715  29.295  -5.469
  446XTA    HL635208  -5.756  29.222  -5.327
  446XTA    HL735209  -5.466  29.297  -5.360
  446XTA    HL835210  -5.551  29.281  -5.206
  446XTA    HL935211  -5.681  29.476  -5.239
  446XTA   HL1035212  -5.618  29.514  -5.393
  446XTA   HL1135213  -5.443  29.516  -5.146
  446XTA   HL1235214  -5.391  29.562  -5.297
  446XTA   HL1335215  -5.603  29.692  -5.146
  446XTA   HL1435216  -5.548  29.733  -5.303
  446XTA   HL1535217  -5.324  29.782  -5.236
  446XTA   HL1635218  -5.436  29.869  -5.118
  446XTA   HL1735219  -5.199  29.835  -5.068
  446XTA   HL1835220  -5.290  29.852  -4.908
  446XTA   HL1935221  -5.100  29.629  -5.092
  446XTA   HL2035222  -5.204  29.512  -5.022
  446XTA   HL2135223  -4.952  29.436  -5.007
  446XTA   HL2235224  -4.968  29.491  -4.844
  446XTA   HL2335225  -4.903  29.582  -4.983
  446XTA   HL2435226  -5.565  28.591  -6.208
  446XTA   HL2535227  -5.634  28.482  -6.309
  446XTA    CO635228  -5.233  29.639  -4.781
  446XTA    CO735229  -5.045  29.780  -4.854
  446XTA    OA535230  -5.174  29.525  -4.716
  446XTA   HL2635231  -5.333  29.601  -4.804
  446XTA   HL2735232  -5.240  29.717  -4.705
  446XTA   HL2835233  -4.976  29.811  -4.934
  446XTA   HL2935234  -4.977  29.723  -4.790
  447XTA     NT35235  -5.644  24.634  -8.073
  447XTA    CN135236  -5.547  24.718  -8.043
  447XTA     C135237  -5.420  24.675  -8.015
  447XTA     C235238  -5.311  24.763  -7.988
  447XTA     C335239  -5.336  24.903  -7.976
  447XTA     C435240  -5.470  24.944  -8.005
  447XTA     C535241  -5.570  24.854  -8.042
  447XTA    CN235242  -5.684  24.562  -7.967
  447XTA     C635243  -5.740  24.435  -7.988
  447XTA     C735244  -5.793  24.367  -7.881
  447XTA     C835245  -5.795  24.417  -7.752
  447XTA     C935246  -5.740  24.543  -7.732
  447XTA    C1035247  -5.687  24.619  -7.834
  447XTA    CN335248  -5.709  24.636  -8.188
  447XTA    C1135249  -5.832  24.703  -8.204
  447XTA    C1235250  -5.914  24.676  -8.316
  447XTA    C1335251  -5.863  24.605  -8.428
  447XTA    C1435252  -5.730  24.545  -8.412
  447XTA    C1535253  -5.658  24.561  -8.291
  447XTA     H135254  -5.395  24.571  -8.020
  447XTA     H235255  -5.208  24.734  -7.974
  447XTA     H335256  -5.508  25.043  -8.008
  447XTA     H435257  -5.667  24.898  -8.068
  447XTA     H535258  -5.733  24.389  -8.086
  447XTA     H635259  -5.828  24.266  -7.897
  447XTA     H735260  -5.747  24.590  -7.632
  447XTA     H835261  -5.647  24.719  -7.812
  447XTA     H935262  -5.858  24.771  -8.131
  447XTA    H1035263  -6.009  24.725  -8.317
  447XTA    H1135264  -5.683  24.485  -8.487
  447XTA    H1235265  -5.553  24.521  -8.292
  447XTA    OA135266  -5.237  24.990  -7.952
  447XTA    CO135267  -5.266  25.092  -7.861
  447XTA    OA235268  -5.855  24.353  -7.644
  447XTA    CO235269  -5.828  24.211  -7.640
  447XTA    CL135270  -5.893  24.150  -7.518
  447XTA    CL235271  -6.045  24.152  -7.516
  447XTA    CL335272  -6.109  24.061  -7.624
  447XTA    CL435273  -6.170  23.933  -7.577
  447XTA    CO335274  -6.274  23.862  -7.664
  447XTA    OA335275  -6.331  23.754  -7.589
  447XTA    CO435276  -6.438  23.689  -7.659
  447XTA    CT135277  -6.530  23.601  -7.574
  447XTA    CL535278  -6.573  23.659  -7.437
  447XTA    CL635279  -6.638  23.796  -7.453
  447XTA    OA435280  -5.930  24.568  -8.539
  447XTA    CO535281  -6.070  24.588  -8.535
  447XTA    HL135282  -6.112  24.536  -8.444
  447XTA    HL235283  -5.308  25.176  -7.920
  447XTA    HL335284  -5.336  25.069  -7.778
  447XTA    HL435285  -5.182  25.129  -7.814
  447XTA    HL535286  -5.869  24.159  -7.734
  447XTA    HL635287  -5.725  24.200  -7.632
  447XTA    HL735288  -5.846  24.206  -7.430
  447XTA    HL835289  -5.844  24.052  -7.501
  447XTA    HL935290  -6.075  24.255  -7.530
  447XTA   HL1035291  -6.080  24.103  -7.428
  447XTA   HL1135292  -6.172  24.116  -7.691
  447XTA   HL1235293  -6.030  24.021  -7.684
  447XTA   HL1335294  -6.229  23.945  -7.495
  447XTA   HL1435295  -6.101  23.848  -7.555
  447XTA   HL1535296  -6.345  23.938  -7.699
  447XTA   HL1635297  -6.240  23.824  -7.761
  447XTA   HL1735298  -6.500  23.762  -7.714
  447XTA   HL1835299  -6.393  23.619  -7.726
  447XTA   HL1935300  -6.483  23.664  -7.371
  447XTA   HL2035301  -6.646  23.594  -7.380
  447XTA   HL2135302  -6.569  23.856  -7.510
  447XTA   HL2235303  -6.641  23.847  -7.357
  447XTA   HL2335304  -6.730  23.783  -7.506
  447XTA   HL2435305  -6.123  24.540  -8.619
  447XTA   HL2535306  -6.090  24.694  -8.529
  447XTA    CO635307  -6.463  23.467  -7.542
  447XTA    CO735308  -6.656  23.571  -7.662
  447XTA    OA535309  -6.752  23.498  -7.587
  447XTA   HL2635310  -6.385  23.486  -7.467
  447XTA   HL2735311  -6.535  23.404  -7.493
  447XTA   HL2835312  -6.623  23.518  -7.757
  447XTA   HL2935313  -6.688  23.673  -7.693
  448XTA     NT35314  -7.290  32.095  -7.226
  448XTA    CN135315  -7.416  32.134  -7.211
  448XTA     C135316  -7.512  32.057  -7.146
  448XTA     C235317  -7.650  32.087  -7.152
  448XTA     C335318  -7.695  32.200  -7.222
  448XTA     C435319  -7.596  32.276  -7.292
  448XTA     C535320  -7.458  32.244  -7.277
  448XTA    CN235321  -7.267  32.003  -7.318
  448XTA     C635322  -7.269  31.867  -7.281
  448XTA     C735323  -7.254  31.770  -7.379
  448XTA     C835324  -7.244  31.810  -7.515
  448XTA     C935325  -7.231  31.949  -7.546
  448XTA    C1035326  -7.239  32.038  -7.446
  448XTA    CN335327  -7.189  32.140  -7.145
  448XTA    C1135328  -7.169  32.090  -7.014
  448XTA    C1235329  -7.063  32.139  -6.930
  448XTA    C1335330  -6.983  32.246  -6.973
  448XTA    C1435331  -7.009  32.299  -7.098
  448XTA    C1535332  -7.111  32.254  -7.185
  448XTA     H135333  -7.475  31.966  -7.093
  448XTA     H235334  -7.723  32.034  -7.089
  448XTA     H335335  -7.627  32.358  -7.352
  448XTA     H435336  -7.389  32.300  -7.331
  448XTA     H535337  -7.279  31.836  -7.180
  448XTA     H635338  -7.245  31.665  -7.360
  448XTA     H735339  -7.212  31.976  -7.644
  448XTA     H835340  -7.225  32.145  -7.471
  448XTA     H935341  -7.229  32.006  -6.985
  448XTA    H1035342  -7.047  32.090  -6.832
  448XTA    H1135343  -6.944  32.382  -7.112
  448XTA    H1235344  -7.124  32.303  -7.280
  448XTA    OA135345  -7.834  32.213  -7.226
  448XTA    CO135346  -7.873  32.314  -7.319
  448XTA    OA235347  -7.239  31.720  -7.615
  448XTA    CO235348  -7.284  31.592  -7.589
  448XTA    CL135349  -7.334  31.519  -7.719
  448XTA    CL235350  -7.356  31.376  -7.683
  448XTA    CL335351  -7.369  31.288  -7.807
  448XTA    CL435352  -7.409  31.146  -7.780
  448XTA    CO335353  -7.374  31.059  -7.905
  448XTA    OA335354  -7.436  30.930  -7.876
  448XTA    CO435355  -7.340  30.822  -7.870
  448XTA    CT135356  -7.360  30.746  -7.742
  448XTA    CL535357  -7.311  30.597  -7.756
  448XTA    CL635358  -7.163  30.575  -7.768
  448XTA    OA435359  -6.885  32.301  -6.896
  448XTA    CO535360  -6.912  32.310  -6.758
  448XTA    HL135361  -6.995  32.384  -6.745
  448XTA    HL235362  -7.827  32.412  -7.305
  448XTA    HL335363  -7.845  32.275  -7.411
  448XTA    HL435364  -7.985  32.341  -7.318
  448XTA    HL535365  -7.216  31.529  -7.529
  448XTA    HL635366  -7.368  31.604  -7.516
  448XTA    HL735367  -7.255  31.534  -7.795
  448XTA    HL835368  -7.425  31.573  -7.754
  448XTA    HL935369  -7.443  31.350  -7.622
  448XTA   HL1035370  -7.267  31.339  -7.635
  448XTA   HL1135371  -7.434  31.335  -7.883
  448XTA   HL1235372  -7.277  31.296  -7.858
  448XTA   HL1335373  -7.516  31.136  -7.757
  448XTA   HL1435374  -7.351  31.105  -7.704
  448XTA   HL1535375  -7.428  31.104  -7.992
  448XTA   HL1635376  -7.264  31.059  -7.938
  448XTA   HL1735377  -7.363  30.763  -7.952
  448XTA   HL1835378  -7.230  30.850  -7.869
  448XTA   HL1935379  -7.362  30.550  -7.842
  448XTA   HL2035380  -7.335  30.550  -7.662
  448XTA   HL2135381  -7.145  30.470  -7.767
  448XTA   HL2235382  -7.108  30.623  -7.689
  448XTA   HL2335383  -7.132  30.619  -7.867
  448XTA   HL2435384  -6.822  32.335  -6.705
  448XTA   HL2535385  -6.931  32.209  -6.717
  448XTA    CO635386  -7.504  30.740  -7.705
  448XTA    CO735387  -7.297  30.815  -7.619
  448XTA    OA535388  -7.530  30.656  -7.596
  448XTA   HL2635389  -7.560  30.704  -7.794
  448XTA   HL2735390  -7.542  30.839  -7.695
  448XTA   HL2835391  -7.336  30.916  -7.608
  448XTA   HL2935392  -7.330  30.768  -7.526
  449XTA     NT35393  -6.892  28.796  -7.103
  449XTA    CN135394  -6.962  28.821  -7.209
  449XTA     C135395  -6.982  28.723  -7.311
  449XTA     C235396  -7.070  28.746  -7.420
  449XTA     C335397  -7.154  28.864  -7.412
  449XTA     C435398  -7.141  28.953  -7.305
  449XTA     C535399  -7.037  28.938  -7.216
  449XTA    CN235400  -6.933  28.708  -7.011
  449XTA     C635401  -6.892  28.575  -7.022
  449XTA     C735402  -6.943  28.475  -6.936
  449XTA     C835403  -7.024  28.517  -6.828
  449XTA     C935404  -7.061  28.654  -6.814
  449XTA    C1035405  -7.024  28.749  -6.909
  449XTA    CN335406  -6.769  28.844  -7.086
  449XTA    C1135407  -6.742  28.932  -6.981
  449XTA    C1235408  -6.608  28.984  -6.965
  449XTA    C1335409  -6.500  28.941  -7.050
  449XTA    C1435410  -6.540  28.862  -7.163
  449XTA    C1535411  -6.669  28.807  -7.176
  449XTA     H135412  -6.940  28.618  -7.303
  449XTA     H235413  -7.092  28.671  -7.498
  449XTA     H335414  -7.195  29.045  -7.303
  449XTA     H435415  -7.020  29.010  -7.146
  449XTA     H535416  -6.832  28.542  -7.102
  449XTA     H635417  -6.926  28.369  -6.958
  449XTA     H735418  -7.131  28.676  -6.736
  449XTA     H835419  -7.060  28.847  -6.899
  449XTA     H935420  -6.821  28.977  -6.913
  449XTA    H1035421  -6.596  29.064  -6.900
  449XTA    H1135422  -6.478  28.827  -7.245
  449XTA    H1235423  -6.696  28.740  -7.242
  449XTA    OA135424  -7.256  28.864  -7.502
  449XTA    CO135425  -7.348  28.965  -7.477
  449XTA    OA235426  -7.082  28.431  -6.734
  449XTA    CO235427  -7.023  28.300  -6.724
  449XTA    CL135428  -7.096  28.219  -6.614
  449XTA    CL235429  -7.080  28.296  -6.475
  449XTA    CL335430  -7.131  28.216  -6.352
  449XTA    CL435431  -7.159  28.316  -6.235
  449XTA    CO335432  -7.046  28.422  -6.210
  449XTA    OA335433  -7.092  28.525  -6.121
  449XTA    CO435434  -7.096  28.498  -5.982
  449XTA    CT135435  -7.164  28.620  -5.906
  449XTA    CL535436  -7.183  28.594  -5.753
  449XTA    CL635437  -7.203  28.443  -5.730
  449XTA    OA435438  -6.374  28.974  -7.019
  449XTA    CO535439  -6.340  28.975  -6.876
  449XTA    HL135440  -6.399  29.045  -6.819
  449XTA    HL235441  -7.296  29.068  -7.486
  449XTA    HL335442  -7.437  28.965  -7.544
  449XTA    HL435443  -7.403  28.954  -7.384
  449XTA    HL535444  -7.038  28.254  -6.824
  449XTA    HL635445  -6.920  28.299  -6.710
  449XTA    HL735446  -7.049  28.122  -6.613
  449XTA    HL835447  -7.201  28.208  -6.636
  449XTA    HL935448  -7.136  28.395  -6.485
  449XTA   HL1035449  -6.972  28.311  -6.452
  449XTA   HL1135450  -7.209  28.143  -6.358
  449XTA   HL1235451  -7.045  28.167  -6.308
  449XTA   HL1335452  -7.187  28.269  -6.141
  449XTA   HL1435453  -7.252  28.375  -6.263
  449XTA   HL1535454  -6.955  28.372  -6.184
  449XTA   HL1635455  -7.012  28.473  -6.302
  449XTA   HL1735456  -7.149  28.402  -5.962
  449XTA   HL1835457  -7.007  28.478  -5.944
  449XTA   HL1935458  -7.269  28.651  -5.717
  449XTA   HL2035459  -7.091  28.624  -5.696
  449XTA   HL2135460  -7.295  28.403  -5.769
  449XTA   HL2235461  -7.212  28.440  -5.625
  449XTA   HL2335462  -7.119  28.388  -5.761
  449XTA   HL2435463  -6.239  29.000  -6.864
  449XTA   HL2535464  -6.362  28.881  -6.820
  449XTA    CO635465  -7.300  28.640  -5.979
  449XTA    CO735466  -7.084  28.752  -5.921
  449XTA    OA535467  -6.986  28.758  -5.874
  449XTA   HL2635468  -7.287  28.650  -6.089
  449XTA   HL2735469  -7.378  28.529  -5.960
  449XTA   HL2835470  -7.152  28.822  -5.859
  449XTA   HL2935471  -7.091  28.797  -6.020
  450XTH     NT35472  -2.786  24.839 -10.875
  450XTH    CN135473  -2.732  24.837 -10.755
  450XTH     C135474  -2.749  24.943 -10.661
  450XTH     C235475  -2.720  24.917 -10.527
  450XTH     C335476  -2.668  24.800 -10.477
  450XTH     C435477  -2.636  24.703 -10.573
  450XTH     C535478  -2.685  24.722 -10.705
  450XTH    CN235479  -2.707  24.857 -10.989
  450XTH     C635480  -2.596  24.781 -11.016
  450XTH     C735481  -2.508  24.811 -11.123
  450XTH     C835482  -2.534  24.919 -11.202
  450XTH     C935483  -2.652  25.002 -11.175
  450XTH    C1035484  -2.733  24.969 -11.069
  450XTH    CN335485  -2.913  24.786 -10.890
  450XTH    C1135486  -3.024  24.868 -10.877
  450XTH    C1235487  -3.152  24.813 -10.883
  450XTH    C1335488  -3.170  24.672 -10.897
  450XTH    C1435489  -3.054  24.590 -10.913
  450XTH    C1535490  -2.925  24.652 -10.910
  450XTH     H135491  -2.792  25.042 -10.691
  450XTH     H235492  -2.749  24.995 -10.460
  450XTH     H335493  -2.602  24.608 -10.547
  450XTH     H435494  -2.672  24.634 -10.772
  450XTH     H535495  -2.561  24.706 -10.949
  450XTH     H635496  -2.425  24.756 -11.144
  450XTH     H735497  -2.684  25.076 -11.251
  450XTH     H835498  -2.821  25.028 -11.054
  450XTH     H935499  -3.019  24.973 -10.860
  450XTH    H1035500  -3.230  24.889 -10.874
  450XTH    H1135501  -3.063  24.485 -10.929
  450XTH    H1235502  -2.833  24.591 -10.918
  450XTH    OA135503  -2.646  24.781 -10.342
  450XTH    CO135504  -2.648  24.653 -10.295
  450XTH    OA235505  -2.453  24.928 -11.317
  450XTH    CO235506  -2.508  25.009 -11.419
  450XTH    CL135507  -2.422  25.000 -11.550
  450XTH    CL235508  -2.274  25.024 -11.518
  450XTH    CL335509  -2.177  25.037 -11.634
  450XTH    CL435510  -2.033  25.055 -11.592
  450XTH    CO335511  -1.985  24.986 -11.465
  450XTH    OA335512  -1.989  24.845 -11.476
  450XTH    CO435513  -1.942  24.779 -11.353
  450XTH    CT135514  -1.973  24.629 -11.355
  450XTH    CL535515  -2.131  24.622 -11.336
  450XTH    CL635516  -2.204  24.489 -11.371
  450XTH    OA435517  -3.299  24.618 -10.881
  450XTH    CO535518  -3.304  24.486 -10.809
  450XTH    HL135519  -3.254  24.483 -10.711
  450XTH    HL235520  -2.645  24.648 -10.188
  450XTH    HL335521  -2.734  24.595 -10.338
  450XTH    HL435522  -2.570  24.600 -10.341
  450XTH    HL535523  -2.616  24.987 -11.443
  450XTH    HL635524  -2.508  25.115 -11.383
  450XTH    HL735525  -2.454  25.076 -11.620
  450XTH    HL835526  -2.443  24.907 -11.604
  450XTH    HL935527  -2.236  24.949 -11.444
  450XTH   HL1035528  -2.266  25.122 -11.472
  450XTH   HL1135529  -2.194  24.946 -11.695
  450XTH   HL1235530  -2.197  25.116 -11.709
  450XTH   HL1335531  -2.032  25.164 -11.588
  450XTH   HL1435532  -1.966  25.025 -11.679
  450XTH   HL1535533  -1.885  25.023 -11.449
  450XTH   HL1635534  -2.058  25.019 -11.389
  450XTH   HL1735535  -1.832  24.796 -11.352
  450XTH   HL1835536  -1.981  24.826 -11.269
  450XTH   HL1935537  -2.172  24.710 -11.393
  450XTH   HL2035538  -2.162  24.651 -11.240
  450XTH   HL2135539  -2.214  24.478 -11.485
  450XTH   HL2235540  -2.295  24.473 -11.315
  450XTH   HL2335541  -2.150  24.403 -11.341
  450XTH   HL2435542  -3.264  24.411 -10.877
  450XTH   HL2535543  -3.412  24.462 -10.799
  450XTH    CO635544  -1.888  24.564 -11.243
  450XTH    CO735545  -1.931  24.557 -11.485
  450XTH    OA535546  -1.939  24.596 -11.155
  450XTH   HL2635547  -1.787  24.616 -11.243
  450XTH   HL2735548  -1.887  24.454 -11.246
  450XTH   HL2835549  -1.933  24.641 -11.596
  450XTH   HL2935550  -2.006  24.480 -11.508
  451XTA     NT35551  -4.618  29.720  -8.246
  451XTA    CN135552  -4.731  29.664  -8.289
  451XTA     C135553  -4.820  29.596  -8.202
  451XTA     C235554  -4.936  29.528  -8.256
  451XTA     C335555  -4.972  29.538  -8.393
  451XTA     C435556  -4.875  29.598  -8.475
  451XTA     C535557  -4.760  29.658  -8.427
  451XTA    CN235558  -4.499  29.666  -8.271
  451XTA     C635559  -4.464  29.555  -8.194
  451XTA     C735560  -4.333  29.508  -8.192
  451XTA     C835561  -4.236  29.565  -8.278
  451XTA     C935562  -4.281  29.659  -8.374
  451XTA    C1035563  -4.412  29.716  -8.362
  451XTA    CN335564  -4.613  29.853  -8.207
  451XTA    C1135565  -4.630  29.959  -8.296
  451XTA    C1235566  -4.621  30.094  -8.257
  451XTA    C1335567  -4.579  30.121  -8.126
  451XTA    C1435568  -4.560  30.013  -8.036
  451XTA    C1535569  -4.575  29.879  -8.074
  451XTA     H135570  -4.796  29.595  -8.098
  451XTA     H235571  -4.988  29.478  -8.180
  451XTA     H335572  -4.887  29.600  -8.581
  451XTA     H435573  -4.690  29.708  -8.492
  451XTA     H535574  -4.536  29.515  -8.124
  451XTA     H635575  -4.296  29.435  -8.132
  451XTA     H735576  -4.213  29.699  -8.449
  451XTA     H835577  -4.436  29.807  -8.415
  451XTA     H935578  -4.654  29.926  -8.396
  451XTA    H1035579  -4.633  30.170  -8.327
  451XTA    H1135580  -4.531  30.038  -7.934
  451XTA    H1235581  -4.559  29.794  -8.014
  451XTA    OA135582  -5.088  29.483  -8.448
  451XTA    CO135583  -5.199  29.451  -8.371
  451XTA    OA235584  -4.103  29.514  -8.284
  451XTA    CO235585  -4.004  29.596  -8.342
  451XTA    CL135586  -3.869  29.527  -8.334
  451XTA    CL235587  -3.814  29.506  -8.189
  451XTA    CL335588  -3.897  29.419  -8.094
  451XTA    CL435589  -3.827  29.405  -7.956
  451XTA    CO335590  -3.878  29.279  -7.884
  451XTA    OA335591  -3.800  29.264  -7.766
  451XTA    CO435592  -3.818  29.132  -7.724
  451XTA    CT135593  -3.756  29.123  -7.580
  451XTA    CL535594  -3.837  29.193  -7.472
  451XTA    CL635595  -3.865  29.344  -7.494
  451XTA    OA435596  -4.552  30.251  -8.079
  451XTA    CO535597  -4.538  30.348  -8.184
  451XTA    HL135598  -4.492  30.445  -8.154
  451XTA    HL235599  -5.178  29.362  -8.313
  451XTA    HL335600  -5.213  29.542  -8.307
  451XTA    HL435601  -5.287  29.430  -8.433
  451XTA    HL535602  -4.030  29.624  -8.446
  451XTA    HL635603  -3.992  29.701  -8.304
  451XTA    HL735604  -3.804  29.595  -8.397
  451XTA    HL835605  -3.871  29.437  -8.388
  451XTA    HL935606  -3.799  29.594  -8.136
  451XTA   HL1035607  -3.715  29.460  -8.202
  451XTA   HL1135608  -3.995  29.471  -8.079
  451XTA   HL1235609  -3.922  29.320  -8.151
  451XTA   HL1335610  -3.854  29.496  -7.896
  451XTA   HL1435611  -3.720  29.396  -7.964
  451XTA   HL1535612  -3.982  29.294  -7.857
  451XTA   HL1635613  -3.873  29.197  -7.960
  451XTA   HL1735614  -3.928  29.104  -7.724
  451XTA   HL1835615  -3.763  29.067  -7.795
  451XTA   HL1935616  -3.788  29.177  -7.379
  451XTA   HL2035617  -3.930  29.143  -7.456
  451XTA   HL2135618  -3.769  29.394  -7.485
  451XTA   HL2235619  -3.918  29.389  -7.412
  451XTA   HL2335620  -3.917  29.359  -7.588
  451XTA   HL2435621  -4.629  30.367  -8.244
  451XTA   HL2535622  -4.463  30.314  -8.252
  451XTA    CO635623  -3.612  29.185  -7.575
  451XTA    CO735624  -3.747  28.975  -7.542
  451XTA    OA535625  -3.548  29.131  -7.644
  451XTA   HL2635626  -3.574  29.180  -7.470
  451XTA   HL2735627  -3.607  29.290  -7.608
  451XTA   HL2835628  -3.874  28.918  -7.531
  451XTA   HL2935629  -3.702  28.917  -7.629
  452XTA     NT35630  -4.134  27.040 -10.327
  452XTA    CN135631  -4.140  27.017 -10.461
  452XTA     C135632  -4.261  26.986 -10.536
  452XTA     C235633  -4.250  26.965 -10.673
  452XTA     C335634  -4.126  26.987 -10.747
  452XTA     C435635  -4.012  27.026 -10.671
  452XTA     C535636  -4.019  27.036 -10.532
  452XTA    CN235637  -4.110  27.164 -10.279
  452XTA     C635638  -4.219  27.249 -10.256
  452XTA     C735639  -4.202  27.383 -10.210
  452XTA     C835640  -4.071  27.424 -10.175
  452XTA     C935641  -3.965  27.333 -10.181
  452XTA    C1035642  -3.981  27.208 -10.241
  452XTA    CN335643  -4.137  26.930 -10.251
  452XTA    C1135644  -4.088  26.809 -10.295
  452XTA    C1235645  -4.086  26.699 -10.211
  452XTA    C1335646  -4.126  26.706 -10.072
  452XTA    C1435647  -4.190  26.825 -10.026
  452XTA    C1535648  -4.198  26.934 -10.122
  452XTA     H135649  -4.353  26.960 -10.489
  452XTA     H235650  -4.325  26.929 -10.734
  452XTA     H335651  -3.921  27.034 -10.728
  452XTA     H435652  -3.922  27.043 -10.477
  452XTA     H535653  -4.318  27.206 -10.277
  452XTA     H635654  -4.279  27.463 -10.208
  452XTA     H735655  -3.861  27.357 -10.140
  452XTA     H835656  -3.906  27.134 -10.239
  452XTA     H935657  -4.065  26.784 -10.396
  452XTA    H1035658  -4.040  26.602 -10.248
  452XTA    H1135659  -4.225  26.833  -9.923
  452XTA    H1235660  -4.246  27.028 -10.089
  452XTA    OA135661  -4.106  26.977 -10.877
  452XTA    CO135662  -4.224  26.953 -10.958
  452XTA    OA235663  -4.046  27.555 -10.130
  452XTA    CO235664  -3.918  27.602 -10.157
  452XTA    CL135665  -3.924  27.755 -10.145
  452XTA    CL235666  -3.976  27.807 -10.011
  452XTA    CL335667  -4.025  27.951 -10.022
  452XTA    CL435668  -4.098  28.001  -9.888
  452XTA    CO335669  -4.180  28.130  -9.916
  452XTA    OA335670  -4.097  28.243  -9.951
  452XTA    CO435671  -4.182  28.358  -9.981
  452XTA    CT135672  -4.101  28.490  -9.998
  452XTA    CL535673  -4.171  28.612  -9.919
  452XTA    CL635674  -4.314  28.642  -9.963
  452XTA    OA435675  -4.134  26.592  -9.999
  452XTA    CO535676  -4.052  26.485 -10.045
  452XTA    HL135677  -4.053  26.448 -10.147
  452XTA    HL235678  -4.188  26.952 -11.059
  452XTA    HL335679  -4.263  26.854 -10.933
  452XTA    HL435680  -4.297  27.031 -10.945
  452XTA    HL535681  -3.847  27.579 -10.082
  452XTA    HL635682  -3.879  27.585 -10.258
  452XTA    HL735683  -3.977  27.797 -10.235
  452XTA    HL835684  -3.828  27.797 -10.163
  452XTA    HL935685  -3.906  27.798  -9.928
  452XTA   HL1035686  -4.055  27.742  -9.977
  452XTA   HL1135687  -3.933  28.011 -10.030
  452XTA   HL1235688  -4.091  27.975 -10.102
  452XTA   HL1335689  -4.022  28.020  -9.814
  452XTA   HL1435690  -4.161  27.922  -9.842
  452XTA   HL1535691  -4.246  28.114  -9.999
  452XTA   HL1635692  -4.233  28.163  -9.832
  452XTA   HL1735693  -4.244  28.341 -10.072
  452XTA   HL1835694  -4.257  28.377  -9.895
  452XTA   HL1935695  -4.101  28.697  -9.919
  452XTA   HL2035696  -4.175  28.594  -9.814
  452XTA   HL2135697  -4.345  28.742  -9.921
  452XTA   HL2235698  -4.387  28.566  -9.929
  452XTA   HL2335699  -4.318  28.667 -10.073
  452XTA   HL2435700  -4.097  26.410  -9.990
  452XTA   HL2535701  -3.949  26.505 -10.001
  452XTA    CO635702  -4.081  28.513 -10.152
  452XTA    CO735703  -3.959  28.477  -9.933
  452XTA    OA535704  -4.205  28.511 -10.223
  452XTA   HL2635705  -4.026  28.422 -10.185
  452XTA   HL2735706  -4.023  28.597 -10.167
  452XTA   HL2835707  -3.916  28.575  -9.943
  452XTA   HL2935708  -3.976  28.470  -9.824
  453XTA     NT35709  -5.545  27.613  -9.274
  453XTA    CN135710  -5.575  27.734  -9.330
  453XTA     C135711  -5.491  27.787  -9.425
  453XTA     C235712  -5.522  27.917  -9.466
  453XTA     C335713  -5.632  27.992  -9.416
  453XTA     C435714  -5.722  27.933  -9.327
  453XTA     C535715  -5.691  27.802  -9.281
  453XTA    CN235716  -5.625  27.506  -9.293
  453XTA     C635717  -5.628  27.439  -9.416
  453XTA     C735718  -5.723  27.340  -9.444
  453XTA     C835719  -5.804  27.291  -9.342
  453XTA     C935720  -5.809  27.355  -9.218
  453XTA    C1035721  -5.715  27.459  -9.190
  453XTA    CN335722  -5.432  27.590  -9.202
  453XTA    C1135723  -5.436  27.604  -9.058
  453XTA    C1235724  -5.316  27.584  -8.991
  453XTA    C1335725  -5.200  27.528  -9.051
  453XTA    C1435726  -5.195  27.522  -9.192
  453XTA    C1535727  -5.311  27.553  -9.263
  453XTA     H135728  -5.412  27.722  -9.459
  453XTA     H235729  -5.454  27.952  -9.537
  453XTA     H335730  -5.808  27.983  -9.296
  453XTA     H435731  -5.748  27.752  -9.201
  453XTA     H535732  -5.557  27.469  -9.495
  453XTA     H635733  -5.723  27.302  -9.548
  453XTA     H735734  -5.882  27.324  -9.145
  453XTA     H835735  -5.724  27.525  -9.109
  453XTA     H935736  -5.518  27.643  -9.002
  453XTA    H1035737  -5.303  27.604  -8.885
  453XTA    H1135738  -5.101  27.484  -9.231
  453XTA    H1235739  -5.316  27.554  -9.365
  453XTA    OA135740  -5.662  28.119  -9.459
  453XTA    CO135741  -5.548  28.200  -9.467
  453XTA    OA235742  -5.886  27.185  -9.366
  453XTA    CO235743  -5.993  27.164  -9.272
  453XTA    CL135744  -5.944  27.085  -9.153
  453XTA    CL235745  -6.063  27.086  -9.058
  453XTA    CL335746  -6.056  26.979  -8.945
  453XTA    CL435747  -6.171  26.976  -8.849
  453XTA    CO335748  -6.303  26.915  -8.898
  453XTA    OA335749  -6.389  26.902  -8.778
  453XTA    CO435750  -6.506  26.818  -8.813
  453XTA    CT135751  -6.567  26.762  -8.682
  453XTA    CL535752  -6.467  26.662  -8.621
  453XTA    CL635753  -6.506  26.606  -8.476
  453XTA    OA435754  -5.100  27.496  -8.964
  453XTA    CO535755  -4.989  27.436  -9.027
  453XTA    HL135756  -4.930  27.520  -9.066
  453XTA    HL235757  -5.463  28.158  -9.409
  453XTA    HL335758  -5.518  28.192  -9.573
  453XTA    HL435759  -5.571  28.304  -9.442
  453XTA    HL535760  -6.042  27.259  -9.258
  453XTA    HL635761  -6.062  27.105  -9.331
  453XTA    HL735762  -5.851  27.129  -9.107
  453XTA    HL835763  -5.927  26.988  -9.182
  453XTA    HL935764  -6.148  27.062  -9.117
  453XTA   HL1035765  -6.085  27.183  -9.018
  453XTA   HL1135766  -6.035  26.872  -8.970
  453XTA   HL1235767  -5.965  26.994  -8.885
  453XTA   HL1335768  -6.192  27.067  -8.797
  453XTA   HL1435769  -6.134  26.904  -8.776
  453XTA   HL1535770  -6.338  26.971  -8.987
  453XTA   HL1635771  -6.293  26.808  -8.925
  453XTA   HL1735772  -6.574  26.880  -8.870
  453XTA   HL1835773  -6.497  26.732  -8.883
  453XTA   HL1935774  -6.374  26.718  -8.616
  453XTA   HL2035775  -6.450  26.577  -8.693
  453XTA   HL2135776  -6.610  26.565  -8.477
  453XTA   HL2235777  -6.499  26.690  -8.412
  453XTA   HL2335778  -6.442  26.534  -8.437
  453XTA   HL2435779  -5.014  27.364  -9.098
  453XTA   HL2535780  -4.924  27.371  -8.958
  453XTA    CO635781  -6.690  26.682  -8.723
  453XTA    CO735782  -6.606  26.876  -8.584
  453XTA    OA535783  -6.764  26.747  -8.766
  453XTA   HL2635784  -6.735  26.632  -8.638
  453XTA   HL2735785  -6.660  26.610  -8.803
  453XTA   HL2835786  -6.487  26.936  -8.539
  453XTA   HL2935787  -6.668  26.946  -8.638
  454XTA     NT35788  -6.776  25.573 -10.174
  454XTA    CN135789  -6.722  25.607 -10.053
  454XTA     C135790  -6.720  25.504  -9.959
  454XTA     C235791  -6.672  25.533  -9.834
  454XTA     C335792  -6.607  25.654  -9.807
  454XTA     C435793  -6.593  25.747  -9.909
  454XTA     C535794  -6.652  25.728 -10.030
  454XTA    CN235795  -6.899  25.591 -10.206
  454XTA     C635796  -6.928  25.691 -10.295
  454XTA     C735797  -7.059  25.718 -10.337
  454XTA     C835798  -7.165  25.639 -10.281
  454XTA     C935799  -7.132  25.533 -10.193
  454XTA    C1035800  -7.004  25.510 -10.151
  454XTA    CN335801  -6.706  25.489 -10.253
  454XTA    C1135802  -6.726  25.350 -10.251
  454XTA    C1235803  -6.656  25.256 -10.331
  454XTA    C1335804  -6.555  25.307 -10.420
  454XTA    C1435805  -6.539  25.445 -10.429
  454XTA    C1535806  -6.607  25.539 -10.345
  454XTA     H135807  -6.758  25.403  -9.978
  454XTA     H235808  -6.679  25.459  -9.759
  454XTA     H335809  -6.548  25.845  -9.887
  454XTA     H435810  -6.645  25.800 -10.115
  454XTA     H535811  -6.844  25.735 -10.351
  454XTA     H635812  -7.080  25.789 -10.412
  454XTA     H735813  -7.206  25.464 -10.159
  454XTA     H835814  -6.987  25.421 -10.091
  454XTA     H935815  -6.807  25.307 -10.186
  454XTA    H1035816  -6.671  25.146 -10.338
  454XTA    H1135817  -6.467  25.490 -10.498
  454XTA    H1235818  -6.593  25.647 -10.344
  454XTA    OA135819  -6.558  25.689  -9.677
  454XTA    CO135820  -6.545  25.591  -9.577
  454XTA    OA235821  -7.302  25.662 -10.307
  454XTA    CO235822  -7.344  25.798 -10.304
  454XTA    CL135823  -7.362  25.860 -10.164
  454XTA    CL235824  -7.487  25.817 -10.085
  454XTA    CL335825  -7.480  25.874  -9.942
  454XTA    CL435826  -7.595  25.838  -9.850
  454XTA    CO335827  -7.595  25.919  -9.720
  454XTA    OA335828  -7.477  25.904  -9.635
  454XTA    CO435829  -7.461  26.009  -9.540
  454XTA    CT135830  -7.319  26.065  -9.567
  454XTA    CL535831  -7.216  25.952  -9.542
  454XTA    CL635832  -7.191  25.859  -9.659
  454XTA    OA435833  -6.477  25.214 -10.490
  454XTA    CO535834  -6.405  25.270 -10.595
  454XTA    HL135835  -6.484  25.317 -10.657
  454XTA    HL235836  -6.465  25.526  -9.614
  454XTA    HL335837  -6.504  25.646  -9.495
  454XTA    HL435838  -6.641  25.541  -9.555
  454XTA    HL535839  -7.278  25.869 -10.349
  454XTA    HL635840  -7.445  25.803 -10.348
  454XTA    HL735841  -7.354  25.967 -10.176
  454XTA    HL835842  -7.276  25.823 -10.113
  454XTA    HL935843  -7.501  25.708 -10.094
  454XTA   HL1035844  -7.574  25.864 -10.131
  454XTA   HL1135845  -7.390  25.844  -9.893
  454XTA   HL1235846  -7.477  25.982  -9.943
  454XTA   HL1335847  -7.595  25.729  -9.838
  454XTA   HL1435848  -7.696  25.864  -9.902
  454XTA   HL1535849  -7.618  26.022  -9.741
  454XTA   HL1635850  -7.668  25.879  -9.657
  454XTA   HL1735851  -7.534  26.086  -9.560
  454XTA   HL1835852  -7.486  25.974  -9.442
  454XTA   HL1935853  -7.236  25.902  -9.451
  454XTA   HL2035854  -7.120  25.989  -9.516
  454XTA   HL2135855  -7.281  25.794  -9.682
  454XTA   HL2235856  -7.111  25.791  -9.643
  454XTA   HL2335857  -7.161  25.914  -9.749
  454XTA   HL2435858  -6.350  25.193 -10.646
  454XTA   HL2535859  -6.328  25.342 -10.553
  454XTA    CO635860  -7.299  26.187  -9.476
  454XTA    CO735861  -7.324  26.117  -9.709
  454XTA    OA535862  -7.386  26.254  -9.462
  454XTA   HL2635863  -7.203  26.241  -9.481
  454XTA   HL2735864  -7.295  26.147  -9.371
  454XTA   HL2835865  -7.442  26.199  -9.730
  454XTA   HL2935866  -7.341  26.030  -9.766
  455XTA     NT35867  -8.279  25.339 -10.591
  455XTA    CN135868  -8.277  25.475 -10.589
  455XTA     C135869  -8.365  25.553 -10.668
  455XTA     C235870  -8.384  25.690 -10.649
  455XTA     C335871  -8.302  25.757 -10.561
  455XTA     C435872  -8.202  25.681 -10.490
  455XTA     C535873  -8.190  25.542 -10.504
  455XTA    CN235874  -8.354  25.277 -10.498
  455XTA     C635875  -8.293  25.188 -10.407
  455XTA     C735876  -8.374  25.139 -10.303
  455XTA     C835877  -8.510  25.169 -10.289
  455XTA     C935878  -8.568  25.241 -10.393
  455XTA    C1035879  -8.492  25.293 -10.492
  455XTA    CN335880  -8.237  25.267 -10.696
  455XTA    C1135881  -8.103  25.271 -10.740
  455XTA    C1235882  -8.065  25.184 -10.843
  455XTA    C1335883  -8.155  25.104 -10.910
  455XTA    C1435884  -8.288  25.097 -10.867
  455XTA    C1535885  -8.329  25.174 -10.756
  455XTA     H135886  -8.446  25.506 -10.728
  455XTA     H235887  -8.453  25.732 -10.720
  455XTA     H335888  -8.141  25.724 -10.412
  455XTA     H435889  -8.117  25.496 -10.441
  455XTA     H535890  -8.188  25.162 -10.416
  455XTA     H635891  -8.333  25.068 -10.234
  455XTA     H735892  -8.673  25.239 -10.384
  455XTA     H835893  -8.534  25.360 -10.570
  455XTA     H935894  -8.034  25.343 -10.699
  455XTA    H1035895  -7.961  25.186 -10.869
  455XTA    H1135896  -8.353  25.027 -10.912
  455XTA    H1235897  -8.432  25.172 -10.731
  455XTA    OA135898  -8.306  25.894 -10.551
  455XTA    CO135899  -8.232  25.961 -10.454
  455XTA    OA235900  -8.592  25.126 -10.188
  455XTA    CO235901  -8.540  25.041 -10.082
  455XTA    CL135902  -8.547  25.120  -9.951
  455XTA    CL235903  -8.513  25.044  -9.828
  455XTA    CL335904  -8.357  25.033  -9.818
  455XTA    CL435905  -8.308  24.951  -9.696
  455XTA    CO335906  -8.158  24.961  -9.677
  455XTA    OA335907  -8.099  24.848  -9.624
  455XTA    CO435908  -8.150  24.829  -9.490
  455XTA    CT135909  -8.069  24.724  -9.413
  455XTA    CL535910  -7.912  24.737  -9.450
  455XTA    CL635911  -7.823  24.632  -9.378
  455XTA    OA435912  -8.101  25.037 -11.020
  455XTA    CO535913  -8.153  24.908 -11.046
  455XTA    HL135914  -8.264  24.901 -11.040
  455XTA    HL235915  -8.272  26.063 -10.445
  455XTA    HL335916  -8.250  25.906 -10.365
  455XTA    HL435917  -8.129  25.959 -10.490
  455XTA    HL535918  -8.607  24.963 -10.067
  455XTA    HL635919  -8.442  25.000 -10.102
  455XTA    HL735920  -8.650  25.169  -9.930
  455XTA    HL835921  -8.469  25.204  -9.948
  455XTA    HL935922  -8.561  24.954  -9.811
  455XTA   HL1035923  -8.540  25.099  -9.733
  455XTA   HL1135924  -8.317  24.974  -9.901
  455XTA   HL1235925  -8.314  25.130  -9.816
  455XTA   HL1335926  -8.333  24.849  -9.713
  455XTA   HL1435927  -8.353  24.991  -9.604
  455XTA   HL1535928  -8.109  24.986  -9.774
  455XTA   HL1635929  -8.139  25.055  -9.625
  455XTA   HL1735930  -8.149  24.925  -9.438
  455XTA   HL1835931  -8.247  24.792  -9.497
  455XTA   HL1935932  -7.880  24.840  -9.424
  455XTA   HL2035933  -7.891  24.735  -9.559
  455XTA   HL2135934  -7.840  24.633  -9.278
  455XTA   HL2235935  -7.719  24.646  -9.408
  455XTA   HL2335936  -7.846  24.530  -9.401
  455XTA   HL2435937  -8.123  24.829 -10.977
  455XTA   HL2535938  -8.121  24.874 -11.142
  455XTA    CO635939  -8.120  24.582  -9.453
  455XTA    CO735940  -8.100  24.737  -9.259
  455XTA    OA535941  -8.228  24.567  -9.456
  455XTA   HL2635942  -8.063  24.507  -9.396
  455XTA   HL2735943  -8.073  24.566  -9.555
  455XTA   HL2835944  -8.082  24.608  -9.201
  455XTA   HL2935945  -8.035  24.809  -9.212
  456XTA     NT35946  -8.996  26.512  -8.504
  456XTA    CN135947  -8.933  26.467  -8.391
  456XTA     C135948  -9.000  26.376  -8.312
  456XTA     C235949  -8.939  26.320  -8.198
  456XTA     C335950  -8.800  26.346  -8.169
  456XTA     C435951  -8.731  26.429  -8.262
  456XTA     C535952  -8.796  26.491  -8.372
  456XTA    CN235953  -8.978  26.452  -8.624
  456XTA     C635954  -9.030  26.321  -8.642
  456XTA     C735955  -9.020  26.257  -8.765
  456XTA     C835956  -8.951  26.320  -8.866
  456XTA     C935957  -8.888  26.444  -8.853
  456XTA    C1035958  -8.909  26.516  -8.730
  456XTA    CN335959  -9.071  26.622  -8.498
  456XTA    C1135960  -9.191  26.625  -8.573
  456XTA    C1235961  -9.274  26.735  -8.573
  456XTA    C1335962  -9.243  26.836  -8.487
  456XTA    C1435963  -9.126  26.841  -8.412
  456XTA    C1535964  -9.036  26.736  -8.425
  456XTA     H135965  -9.110  26.364  -8.322
  456XTA     H235966  -8.987  26.248  -8.132
  456XTA     H335967  -8.622  26.444  -8.260
  456XTA     H435968  -8.740  26.554  -8.438
  456XTA     H535969  -9.080  26.279  -8.552
  456XTA     H635970  -9.057  26.155  -8.773
  456XTA     H735971  -8.847  26.497  -8.943
  456XTA     H835972  -8.882  26.620  -8.722
  456XTA     H935973  -9.217  26.535  -8.625
  456XTA    H1035974  -9.355  26.741  -8.641
  456XTA    H1135975  -9.115  26.929  -8.347
  456XTA    H1235976  -8.939  26.745  -8.376
  456XTA    OA135977  -8.731  26.300  -8.055
  456XTA    CO135978  -8.760  26.170  -8.026
  456XTA    OA235979  -8.944  26.258  -8.991
  456XTA    CO235980  -8.816  26.258  -9.058
  456XTA    CL135981  -8.834  26.214  -9.207
  456XTA    CL235982  -8.864  26.070  -9.238
  456XTA    CL335983  -8.982  26.007  -9.167
  456XTA    CL435984  -9.004  25.860  -9.214
  456XTA    CO335985  -9.070  25.855  -9.355
  456XTA    OA335986  -8.973  25.867  -9.454
  456XTA    CO435987  -9.028  25.865  -9.589
  456XTA    CT135988  -8.923  25.910  -9.691
  456XTA    CL535989  -8.954  25.859  -9.836
  456XTA    CL635990  -9.003  25.711  -9.845
  456XTA    OA435991  -9.326  26.947  -8.478
  456XTA    CO535992  -9.409  26.985  -8.589
  456XTA    HL135993  -9.458  27.082  -8.554
  456XTA    HL235994  -8.695  26.137  -7.944
  456XTA    HL335995  -8.870  26.158  -8.003
  456XTA    HL435996  -8.725  26.108  -8.109
  456XTA    HL535997  -8.772  26.361  -9.059
  456XTA    HL635998  -8.748  26.198  -9.006
  456XTA    HL735999  -8.739  26.223  -9.261
  456XTA    HL836000  -8.920  26.275  -9.249
  456XTA    HL936001  -8.779  26.008  -9.220
  456XTA   HL1036002  -8.878  26.072  -9.344
  456XTA   HL1136003  -8.973  26.002  -9.060
  456XTA   HL1236004  -9.063  26.067  -9.187
  456XTA   HL1336005  -9.062  25.801  -9.141
  456XTA   HL1436006  -8.910  25.807  -9.218
  456XTA   HL1536007  -9.131  25.765  -9.374
  456XTA   HL1636008  -9.130  25.941  -9.366
  456XTA   HL1736009  -9.054  25.756  -9.608
  456XTA   HL1836010  -9.122  25.918  -9.598
  456XTA   HL1936011  -8.865  25.867  -9.900
  456XTA   HL2036012  -9.032  25.927  -9.870
  456XTA   HL2136013  -8.998  25.667  -9.944
  456XTA   HL2236014  -9.108  25.699  -9.816
  456XTA   HL2336015  -8.939  25.649  -9.781
  456XTA   HL2436016  -9.481  26.901  -8.615
  456XTA   HL2536017  -9.344  27.023  -8.673
  456XTA    CO636018  -8.781  25.861  -9.651
  456XTA    CO736019  -8.933  26.060  -9.692
  456XTA    OA536020  -8.862  26.118  -9.758
  456XTA   HL2636021  -8.784  25.758  -9.671
  456XTA   HL2736022  -8.760  25.878  -9.511
  456XTA   HL2836023  -8.896  26.099  -9.597
  456XTA   HL2936024  -9.031  26.096  -9.694
  457XTA     NT36025  -7.046  25.532 -11.393
  457XTA    CN136026  -7.161  25.564 -11.456
  457XTA     C136027  -7.216  25.690 -11.435
  457XTA     C236028  -7.340  25.717 -11.496
  457XTA     C336029  -7.420  25.622 -11.570
  457XTA     C436030  -7.357  25.502 -11.585
  457XTA     C536031  -7.231  25.474 -11.537
  457XTA    CN236032  -6.940  25.617 -11.404
  457XTA     C636033  -6.870  25.608 -11.527
  457XTA     C736034  -6.761  25.694 -11.552
  457XTA     C836035  -6.728  25.791 -11.455
  457XTA     C936036  -6.801  25.802 -11.332
  457XTA    C1036037  -6.909  25.716 -11.306
  457XTA    CN336038  -7.053  25.450 -11.288
  457XTA    C1136039  -6.982  25.329 -11.303
  457XTA    C1236040  -6.988  25.245 -11.190
  457XTA    C1336041  -7.058  25.278 -11.069
  457XTA    C1436042  -7.123  25.403 -11.061
  457XTA    C1536043  -7.117  25.485 -11.172
  457XTA     H136044  -7.173  25.766 -11.375
  457XTA     H236045  -7.376  25.817 -11.501
  457XTA     H336046  -7.393  25.422 -11.646
  457XTA     H436047  -7.188  25.372 -11.540
  457XTA     H536048  -6.905  25.535 -11.601
  457XTA     H636049  -6.701  25.676 -11.644
  457XTA     H736050  -6.786  25.874 -11.257
  457XTA     H836051  -6.965  25.730 -11.215
  457XTA     H936052  -6.924  25.315 -11.386
  457XTA    H1036053  -6.918  25.161 -11.201
  457XTA    H1136054  -7.178  25.438 -10.976
  457XTA    H1236055  -7.165  25.580 -11.175
  457XTA    OA136056  -7.527  25.666 -11.636
  457XTA    CO136057  -7.605  25.571 -11.692
  457XTA    OA236058  -6.622  25.873 -11.471
  457XTA    CO236059  -6.604  25.932 -11.597
  457XTA    CL136060  -6.474  26.015 -11.583
  457XTA    CL236061  -6.455  26.105 -11.704
  457XTA    CL336062  -6.317  26.157 -11.706
  457XTA    CL436063  -6.195  26.060 -11.697
  457XTA    CO336064  -6.195  25.942 -11.799
  457XTA    OA336065  -6.070  25.873 -11.804
  457XTA    CO436066  -6.075  25.747 -11.866
  457XTA    CT136067  -5.935  25.684 -11.862
  457XTA    CL536068  -5.824  25.791 -11.882
  457XTA    CL636069  -5.694  25.744 -11.936
  457XTA    OA436070  -7.061  25.200 -10.954
  457XTA    CO536071  -6.967  25.094 -10.932
  457XTA    HL136072  -6.962  25.044 -11.029
  457XTA    HL236073  -7.703  25.607 -11.712
  457XTA    HL336074  -7.557  25.543 -11.783
  457XTA    HL436075  -7.606  25.479 -11.634
  457XTA    HL536076  -6.594  25.866 -11.679
  457XTA    HL636077  -6.685  26.002 -11.614
  457XTA    HL736078  -6.383  25.962 -11.552
  457XTA    HL836079  -6.488  26.076 -11.490
  457XTA    HL936080  -6.532  26.184 -11.694
  457XTA   HL1036081  -6.475  26.059 -11.800
  457XTA   HL1136082  -6.299  26.205 -11.798
  457XTA   HL1236083  -6.308  26.235 -11.630
  457XTA   HL1336084  -6.198  26.020 -11.596
  457XTA   HL1436085  -6.108  26.128 -11.703
  457XTA   HL1536086  -6.269  25.869 -11.760
  457XTA   HL1636087  -6.234  25.963 -11.896
  457XTA   HL1736088  -6.146  25.679 -11.822
  457XTA   HL1836089  -6.116  25.742 -11.966
  457XTA   HL1936090  -5.804  25.851 -11.793
  457XTA   HL2036091  -5.847  25.863 -11.954
  457XTA   HL2136092  -5.696  25.673 -12.025
  457XTA   HL2236093  -5.632  25.696 -11.855
  457XTA   HL2336094  -5.634  25.824 -11.971
  457XTA   HL2436095  -7.005  25.035 -10.843
  457XTA   HL2536096  -6.873  25.134 -10.903
  457XTA    CO636097  -5.928  25.577 -11.973
  457XTA    CO736098  -5.911  25.614 -11.725
  457XTA    OA536099  -5.931  25.631 -12.064
  457XTA   HL2636100  -6.014  25.508 -11.970
  457XTA   HL2736101  -5.837  25.512 -11.971
  457XTA   HL2836102  -5.996  25.494 -11.718
  457XTA   HL2936103  -5.808  25.575 -11.708
  458XTA     NT36104  -4.032  24.001  -8.321
  458XTA    CN136105  -4.111  23.912  -8.386
  458XTA     C136106  -4.127  23.913  -8.524
  458XTA     C236107  -4.199  23.812  -8.586
  458XTA     C336108  -4.257  23.709  -8.512
  458XTA     C436109  -4.249  23.717  -8.369
  458XTA     C536110  -4.178  23.820  -8.309
  458XTA    CN236111  -4.081  24.112  -8.258
  458XTA     C636112  -4.136  24.222  -8.331
  458XTA     C736113  -4.182  24.337  -8.259
  458XTA     C836114  -4.175  24.346  -8.118
  458XTA     C936115  -4.126  24.237  -8.045
  458XTA    C1036116  -4.090  24.120  -8.117
  458XTA    CN336117  -3.897  23.989  -8.304
  458XTA    C1136118  -3.805  24.063  -8.389
  458XTA    C1236119  -3.668  24.045  -8.386
  458XTA    C1336120  -3.612  23.958  -8.297
  458XTA    C1436121  -3.700  23.885  -8.209
  458XTA    C1536122  -3.845  23.892  -8.213
  458XTA     H136123  -4.085  23.992  -8.574
  458XTA     H236124  -4.213  23.817  -8.695
  458XTA     H336125  -4.296  23.638  -8.309
  458XTA     H436126  -4.175  23.816  -8.197
  458XTA     H536127  -4.139  24.211  -8.443
  458XTA     H636128  -4.217  24.424  -8.314
  458XTA     H736129  -4.122  24.244  -7.939
  458XTA     H836130  -4.075  24.032  -8.052
  458XTA     H936131  -3.847  24.126  -8.464
  458XTA    H1036132  -3.606  24.106  -8.443
  458XTA    H1136133  -3.646  23.822  -8.134
  458XTA    H1236134  -3.911  23.832  -8.154
  458XTA    OA136135  -4.329  23.612  -8.572
  458XTA    CO136136  -4.338  23.485  -8.514
  458XTA    OA236137  -4.209  24.463  -8.058
  458XTA    CO236138  -4.212  24.474  -7.916
  458XTA    CL136139  -4.203  24.630  -7.881
  458XTA    CL236140  -4.322  24.708  -7.937
  458XTA    CL336141  -4.340  24.833  -7.863
  458XTA    CL436142  -4.444  24.928  -7.929
  458XTA    CO336143  -4.455  25.081  -7.903
  458XTA    OA336144  -4.540  25.148  -7.995
  458XTA    CO436145  -4.675  25.134  -7.958
  458XTA    CT136146  -4.759  25.195  -8.074
  458XTA    CL536147  -4.740  25.351  -8.072
  458XTA    CL636148  -4.815  25.418  -7.959
  458XTA    OA436149  -3.482  23.943  -8.303
  458XTA    CO536150  -3.431  23.818  -8.260
  458XTA    HL136151  -3.463  23.774  -8.161
  458XTA    HL236152  -4.375  23.409  -8.582
  458XTA    HL336153  -4.243  23.442  -8.473
  458XTA    HL436154  -4.401  23.498  -8.423
  458XTA    HL536155  -4.298  24.417  -7.874
  458XTA    HL636156  -4.121  24.443  -7.870
  458XTA    HL736157  -4.106  24.658  -7.926
  458XTA    HL836158  -4.190  24.627  -7.772
  458XTA    HL936159  -4.421  24.655  -7.928
  458XTA   HL1036160  -4.294  24.740  -8.037
  458XTA   HL1136161  -4.381  24.814  -7.765
  458XTA   HL1236162  -4.249  24.887  -7.848
  458XTA   HL1336163  -4.539  24.885  -7.902
  458XTA   HL1436164  -4.429  24.919  -8.034
  458XTA   HL1536165  -4.492  25.095  -7.798
  458XTA   HL1636166  -4.353  25.119  -7.906
  458XTA   HL1736167  -4.705  25.029  -7.957
  458XTA   HL1836168  -4.696  25.175  -7.861
  458XTA   HL1936169  -4.787  25.384  -8.161
  458XTA   HL2036170  -4.632  25.367  -8.073
  458XTA   HL2136171  -4.791  25.372  -7.857
  458XTA   HL2236172  -4.919  25.419  -7.984
  458XTA   HL2336173  -4.782  25.523  -7.956
  458XTA   HL2436174  -3.323  23.822  -8.275
  458XTA   HL2536175  -3.462  23.734  -8.322
  458XTA    CO636176  -4.912  25.169  -8.055
  458XTA    CO736177  -4.734  25.134  -8.214
  458XTA    OA536178  -4.973  25.228  -8.129
  458XTA   HL2636179  -4.932  25.200  -7.958
  458XTA   HL2736180  -4.949  25.061  -8.049
  458XTA   HL2836181  -4.602  25.125  -8.245
  458XTA   HL2936182  -4.785  25.194  -8.283
  459XTH     NT36183   0.111  25.695 -12.080
  459XTH    CN136184   0.105  25.563 -12.050
  459XTH     C136185   0.185  25.508 -11.949
  459XTH     C236186   0.163  25.374 -11.913
  459XTH     C336187   0.069  25.298 -11.989
  459XTH     C436188   0.003  25.351 -12.099
  459XTH     C536189   0.018  25.483 -12.131
  459XTH    CN236190  -0.003  25.773 -12.075
  459XTH     C636191  -0.055  25.823 -12.191
  459XTH     C736192  -0.167  25.914 -12.194
  459XTH     C836193  -0.216  25.957 -12.072
  459XTH     C936194  -0.172  25.895 -11.955
  459XTH    C1036195  -0.065  25.806 -11.956
  459XTH    CN336196   0.213  25.740 -12.144
  459XTH    C1136197   0.276  25.852 -12.096
  459XTH    C1236198   0.375  25.910 -12.173
  459XTH    C1336199   0.416  25.853 -12.301
  459XTH    C1436200   0.361  25.729 -12.338
  459XTH    C1536201   0.261  25.671 -12.258
  459XTH     H136202   0.249  25.564 -11.886
  459XTH     H236203   0.210  25.336 -11.823
  459XTH     H336204  -0.067  25.292 -12.157
  459XTH     H436205  -0.044  25.543 -12.200
  459XTH     H536206  -0.003  25.793 -12.281
  459XTH     H636207  -0.205  25.958 -12.290
  459XTH     H736208  -0.208  25.926 -11.857
  459XTH     H836209  -0.025  25.757 -11.865
  459XTH     H936210   0.251  25.901 -12.004
  459XTH    H1036211   0.419  25.997 -12.131
  459XTH    H1136212   0.381  25.687 -12.439
  459XTH    H1236213   0.220  25.578 -12.281
  459XTH    OA136214   0.036  25.164 -11.964
  459XTH    CO136215   0.143  25.076 -11.939
  459XTH    OA236216  -0.321  26.047 -12.083
  459XTH    CO236217  -0.375  26.102 -11.963
  459XTH    CL136218  -0.515  26.152 -11.972
  459XTH    CL236219  -0.608  26.037 -12.004
  459XTH    CL336220  -0.756  26.075 -12.018
  459XTH    CL436221  -0.783  26.114 -12.166
  459XTH    CO336222  -0.926  26.164 -12.189
  459XTH    OA336223  -0.941  26.156 -12.329
  459XTH    CO436224  -1.072  26.182 -12.378
  459XTH    CT136225  -1.088  26.086 -12.503
  459XTH    CL536226  -1.017  26.155 -12.631
  459XTH    CL636227  -0.982  26.066 -12.754
  459XTH    OA436228   0.505  25.919 -12.389
  459XTH    CO536229   0.506  26.062 -12.373
  459XTH    HL136230   0.527  26.094 -12.272
  459XTH    HL236231   0.223  25.066 -12.014
  459XTH    HL336232   0.189  25.086 -11.841
  459XTH    HL436233   0.091  24.978 -11.930
  459XTH    HL536234  -0.373  26.027 -11.883
  459XTH    HL636235  -0.312  26.182 -11.928
  459XTH    HL736236  -0.521  26.226 -12.047
  459XTH    HL836237  -0.540  26.190 -11.874
  459XTH    HL936238  -0.580  25.969 -11.919
  459XTH   HL1036239  -0.568  25.995 -12.095
  459XTH   HL1136240  -0.814  25.990 -11.989
  459XTH   HL1236241  -0.793  26.147 -11.952
  459XTH   HL1336242  -0.757  26.042 -12.237
  459XTH   HL1436243  -0.723  26.201 -12.184
  459XTH   HL1536244  -0.999  26.095 -12.133
  459XTH   HL1636245  -0.949  26.266 -12.143
  459XTH   HL1736246  -1.155  26.180 -12.302
  459XTH   HL1836247  -1.088  26.291 -12.414
  459XTH   HL1936248  -0.919  26.203 -12.597
  459XTH   HL2036249  -1.078  26.238 -12.674
  459XTH   HL2136250  -0.932  26.123 -12.838
  459XTH   HL2236251  -1.075  26.030 -12.791
  459XTH   HL2336252  -0.930  25.976 -12.730
  459XTH   HL2436253   0.405  26.095 -12.405
  459XTH   HL2536254   0.578  26.106 -12.434
  459XTH    CO636255  -1.239  26.062 -12.542
  459XTH    CO736256  -1.032  25.948 -12.469
  459XTH    OA536257  -1.070  25.841 -12.557
  459XTH   HL2636258  -1.259  25.992 -12.626
  459XTH   HL2736259  -1.295  26.016 -12.454
  459XTH   HL2836260  -1.055  25.921 -12.371
  459XTH   HL2936261  -0.925  25.962 -12.481
  460XTA     NT36262  -3.265  27.037 -10.291
  460XTA    CN136263  -3.154  27.084 -10.236
  460XTA     C136264  -3.058  26.991 -10.190
  460XTA     C236265  -2.934  27.048 -10.161
  460XTA     C336266  -2.909  27.188 -10.149
  460XTA     C436267  -3.017  27.276 -10.183
  460XTA     C536268  -3.138  27.225 -10.227
  460XTA    CN236269  -3.261  27.003 -10.419
  460XTA     C636270  -3.296  26.873 -10.451
  460XTA     C736271  -3.274  26.833 -10.583
  460XTA     C836272  -3.228  26.922 -10.681
  460XTA     C936273  -3.200  27.054 -10.647
  460XTA    C1036274  -3.222  27.099 -10.517
  460XTA    CN336275  -3.371  27.012 -10.209
  460XTA    C1136276  -3.482  27.099 -10.201
  460XTA    C1236277  -3.586  27.076 -10.111
  460XTA    C1336278  -3.582  26.961 -10.033
  460XTA    C1436279  -3.467  26.885 -10.031
  460XTA    C1536280  -3.367  26.908 -10.123
  460XTA     H136281  -3.069  26.888 -10.204
  460XTA     H236282  -2.853  26.976 -10.138
  460XTA     H336283  -3.000  27.379 -10.177
  460XTA     H436284  -3.216  27.288 -10.257
  460XTA     H536285  -3.324  26.802 -10.379
  460XTA     H636286  -3.288  26.728 -10.613
  460XTA     H736287  -3.172  27.115 -10.732
  460XTA     H836288  -3.220  27.210 -10.500
  460XTA     H936289  -3.490  27.181 -10.267
  460XTA    H1036290  -3.663  27.152 -10.105
  460XTA    H1136291  -3.457  26.802  -9.962
  460XTA    H1236292  -3.285  26.844 -10.136
  460XTA    OA136293  -2.792  27.247 -10.108
  460XTA    CO136294  -2.712  27.170 -10.021
  460XTA    OA236295  -3.200  26.860 -10.794
  460XTA    CO236296  -3.086  26.895 -10.866
  460XTA    CL136297  -2.957  26.839 -10.809
  460XTA    CL236298  -2.907  26.892 -10.675
  460XTA    CL336299  -2.791  26.824 -10.614
  460XTA    CL436300  -2.792  26.853 -10.462
  460XTA    CO336301  -2.672  26.801 -10.378
  460XTA    OA336302  -2.716  26.750 -10.252
  460XTA    CO436303  -2.712  26.606 -10.257
  460XTA    CT136304  -2.746  26.545 -10.114
  460XTA    CL536305  -2.677  26.631 -10.006
  460XTA    CL636306  -2.524  26.605  -9.984
  460XTA    OA436307  -3.686  26.933  -9.945
  460XTA    CO536308  -3.814  26.971  -9.983
  460XTA    HL136309  -3.875  26.926  -9.917
  460XTA    HL236310  -2.664  27.229  -9.941
  460XTA    HL336311  -2.763  27.091  -9.961
  460XTA    HL436312  -2.630  27.122 -10.081
  460XTA    HL536313  -3.104  26.843 -10.956
  460XTA    HL636314  -3.077  27.002 -10.896
  460XTA    HL736315  -2.880  26.870 -10.879
  460XTA    HL836316  -2.956  26.735 -10.816
  460XTA    HL936317  -2.995  26.882 -10.615
  460XTA   HL1036318  -2.896  27.004 -10.693
  460XTA   HL1136319  -2.791  26.719 -10.612
  460XTA   HL1236320  -2.706  26.867 -10.665
  460XTA   HL1336321  -2.883  26.811 -10.428
  460XTA   HL1436322  -2.785  26.953 -10.439
  460XTA   HL1536323  -2.619  26.731 -10.449
  460XTA   HL1636324  -2.604  26.879 -10.369
  460XTA   HL1736325  -2.760  26.563 -10.342
  460XTA   HL1836326  -2.609  26.577 -10.275
  460XTA   HL1936327  -2.722  26.614  -9.912
  460XTA   HL2036328  -2.691  26.739 -10.028
  460XTA   HL2136329  -2.471  26.657 -10.064
  460XTA   HL2236330  -2.495  26.497  -9.983
  460XTA   HL2336331  -2.493  26.648  -9.895
  460XTA   HL2436332  -3.839  26.929 -10.080
  460XTA   HL2536333  -3.828  27.079  -9.977
  460XTA    CO636334  -2.701  26.395 -10.117
  460XTA    CO736335  -2.895  26.550 -10.109
  460XTA    OA536336  -2.756  26.326 -10.002
  460XTA   HL2636337  -2.595  26.374 -10.122
  460XTA   HL2736338  -2.746  26.341 -10.200
  460XTA   HL2836339  -2.924  26.660 -10.119
  460XTA   HL2936340  -2.943  26.530 -10.011
  461XTA     NT36341  -3.266  24.956  -9.361
  461XTA    CN136342  -3.286  24.908  -9.238
  461XTA     C136343  -3.249  24.989  -9.127
  461XTA     C236344  -3.286  24.945  -8.998
  461XTA     C336345  -3.350  24.823  -8.976
  461XTA     C436346  -3.387  24.744  -9.081
  461XTA     C536347  -3.358  24.790  -9.213
  461XTA    CN236348  -3.365  25.033  -9.415
  461XTA     C636349  -3.362  25.174  -9.403
  461XTA     C736350  -3.454  25.261  -9.464
  461XTA     C836351  -3.553  25.205  -9.551
  461XTA     C936352  -3.570  25.065  -9.553
  461XTA    C1036353  -3.471  24.981  -9.489
  461XTA    CN336354  -3.178  24.892  -9.444
  461XTA    C1136355  -3.212  24.773  -9.510
  461XTA    C1236356  -3.125  24.718  -9.596
  461XTA    C1336357  -2.993  24.767  -9.613
  461XTA    C1436358  -2.961  24.889  -9.552
  461XTA    C1536359  -3.055  24.956  -9.465
  461XTA     H136360  -3.198  25.084  -9.150
  461XTA     H236361  -3.261  25.021  -8.921
  461XTA     H336362  -3.447  24.655  -9.056
  461XTA     H436363  -3.394  24.738  -9.299
  461XTA     H536364  -3.292  25.210  -9.328
  461XTA     H636365  -3.440  25.368  -9.450
  461XTA     H736366  -3.644  25.017  -9.614
  461XTA     H836367  -3.490  24.867  -9.498
  461XTA     H936368  -3.305  24.731  -9.491
  461XTA    H1036369  -3.156  24.625  -9.647
  461XTA    H1136370  -2.865  24.943  -9.577
  461XTA    H1236371  -3.035  25.055  -9.423
  461XTA    OA136372  -3.394  24.784  -8.854
  461XTA    CO136373  -3.374  24.857  -8.740
  461XTA    OA236374  -3.632  25.292  -9.620
  461XTA    CO236375  -3.734  25.237  -9.702
  461XTA    CL136376  -3.806  25.349  -9.778
  461XTA    CL236377  -3.896  25.284  -9.885
  461XTA    CL336378  -3.831  25.184  -9.977
  461XTA    CL436379  -3.702  25.239 -10.040
  461XTA    CO336380  -3.650  25.155 -10.160
  461XTA    OA336381  -3.748  25.130 -10.264
  461XTA    CO436382  -3.771  25.258 -10.326
  461XTA    CT136383  -3.880  25.246 -10.437
  461XTA    CL536384  -4.020  25.222 -10.378
  461XTA    CL636385  -4.062  25.325 -10.266
  461XTA    OA436386  -2.895  24.707  -9.692
  461XTA    CO536387  -2.918  24.575  -9.732
  461XTA    HL136388  -3.003  24.567  -9.808
  461XTA    HL236389  -3.428  24.950  -8.747
  461XTA    HL336390  -3.401  24.806  -8.649
  461XTA    HL436391  -3.269  24.889  -8.732
  461XTA    HL536392  -3.673  25.168  -9.769
  461XTA    HL636393  -3.803  25.184  -9.638
  461XTA    HL736394  -3.728  25.406  -9.826
  461XTA    HL836395  -3.868  25.409  -9.711
  461XTA    HL936396  -3.932  25.370  -9.947
  461XTA   HL1036397  -3.982  25.246  -9.834
  461XTA   HL1136398  -3.809  25.092  -9.922
  461XTA   HL1236399  -3.889  25.172 -10.067
  461XTA   HL1336400  -3.620  25.247  -9.966
  461XTA   HL1436401  -3.720  25.342 -10.071
  461XTA   HL1536402  -3.556  25.190 -10.206
  461XTA   HL1636403  -3.631  25.048 -10.131
  461XTA   HL1736404  -3.799  25.341 -10.260
  461XTA   HL1836405  -3.679  25.288 -10.381
  461XTA   HL1936406  -4.035  25.125 -10.332
  461XTA   HL2036407  -4.094  25.220 -10.462
  461XTA   HL2136408  -4.162  25.296 -10.239
  461XTA   HL2236409  -4.058  25.429 -10.307
  461XTA   HL2336410  -3.997  25.314 -10.183
  461XTA   HL2436411  -2.944  24.511  -9.644
  461XTA   HL2536412  -2.831  24.533  -9.780
  461XTA    CO636413  -3.858  25.147 -10.544
  461XTA    CO736414  -3.876  25.385 -10.519
  461XTA    OA536415  -3.838  25.046 -10.508
  461XTA   HL2636416  -3.763  25.187 -10.589
  461XTA   HL2736417  -3.940  25.149 -10.622
  461XTA   HL2836418  -3.812  25.364 -10.641
  461XTA   HL2936419  -3.982  25.406 -10.539
  462XTA     NT36420  -4.695  27.065  -7.215
  462XTA    CN136421  -4.676  27.167  -7.131
  462XTA     C136422  -4.764  27.198  -7.032
  462XTA     C236423  -4.761  27.315  -6.957
  462XTA     C336424  -4.648  27.398  -6.967
  462XTA     C436425  -4.547  27.368  -7.062
  462XTA     C536426  -4.564  27.252  -7.141
  462XTA    CN236427  -4.719  27.088  -7.348
  462XTA     C636428  -4.633  27.034  -7.443
  462XTA     C736429  -4.648  27.049  -7.580
  462XTA     C836430  -4.763  27.121  -7.630
  462XTA     C936431  -4.862  27.166  -7.533
  462XTA    C1036432  -4.835  27.155  -7.396
  462XTA    CN336433  -4.686  26.942  -7.165
  462XTA    C1136434  -4.806  26.877  -7.134
  462XTA    C1236435  -4.807  26.742  -7.096
  462XTA    C1336436  -4.684  26.669  -7.086
  462XTA    C1436437  -4.561  26.742  -7.107
  462XTA    C1536438  -4.563  26.880  -7.144
  462XTA     H136439  -4.845  27.124  -7.023
  462XTA     H236440  -4.839  27.340  -6.888
  462XTA     H336441  -4.465  27.437  -7.066
  462XTA     H436442  -4.490  27.227  -7.214
  462XTA     H536443  -4.553  26.967  -7.409
  462XTA     H636444  -4.568  27.013  -7.644
  462XTA     H736445  -4.947  27.223  -7.557
  462XTA     H836446  -4.913  27.184  -7.323
  462XTA     H936447  -4.906  26.927  -7.143
  462XTA    H1036448  -4.900  26.699  -7.079
  462XTA    H1136449  -4.465  26.701  -7.085
  462XTA    H1236450  -4.479  26.943  -7.153
  462XTA    OA136451  -4.627  27.511  -6.894
  462XTA    CO136452  -4.737  27.552  -6.819
  462XTA    OA236453  -4.785  27.123  -7.764
  462XTA    CO236454  -4.876  27.223  -7.815
  462XTA    CL136455  -4.998  27.140  -7.849
  462XTA    CL236456  -4.966  27.026  -7.938
  462XTA    CL336457  -5.091  26.960  -7.990
  462XTA    CL436458  -5.073  26.830  -8.061
  462XTA    CO336459  -5.209  26.768  -8.100
  462XTA    OA336460  -5.172  26.660  -8.183
  462XTA    CO436461  -5.271  26.555  -8.186
  462XTA    CT136462  -5.216  26.433  -8.269
  462XTA    CL536463  -5.202  26.468  -8.419
  462XTA    CL636464  -5.186  26.350  -8.511
  462XTA    OA436465  -4.676  26.536  -7.044
  462XTA    CO536466  -4.803  26.473  -7.013
  462XTA    HL136467  -4.793  26.366  -6.993
  462XTA    HL236468  -4.837  27.549  -6.866
  462XTA    HL336469  -4.753  27.493  -6.732
  462XTA    HL436470  -4.725  27.659  -6.781
  462XTA    HL536471  -4.912  27.307  -7.753
  462XTA    HL636472  -4.824  27.278  -7.898
  462XTA    HL736473  -5.069  27.195  -7.906
  462XTA    HL836474  -5.054  27.115  -7.756
  462XTA    HL936475  -4.917  26.949  -7.895
  462XTA   HL1036476  -4.916  27.059  -8.028
  462XTA   HL1136477  -5.163  26.948  -7.905
  462XTA   HL1236478  -5.153  27.020  -8.067
  462XTA   HL1336479  -5.013  26.757  -8.008
  462XTA   HL1436480  -5.008  26.845  -8.151
  462XTA   HL1536481  -5.256  26.726  -8.011
  462XTA   HL1636482  -5.287  26.834  -8.153
  462XTA   HL1736483  -5.310  26.511  -8.096
  462XTA   HL1836484  -5.356  26.602  -8.244
  462XTA   HL1936485  -5.107  26.527  -8.429
  462XTA   HL2036486  -5.283  26.521  -8.463
  462XTA   HL2136487  -5.283  26.300  -8.526
  462XTA   HL2236488  -5.109  26.278  -8.480
  462XTA   HL2336489  -5.163  26.382  -8.614
  462XTA   HL2436490  -4.875  26.477  -7.097
  462XTA   HL2536491  -4.848  26.523  -6.930
  462XTA    CO636492  -5.332  26.332  -8.250
  462XTA    CO736493  -5.087  26.372  -8.218
  462XTA    OA536494  -5.441  26.387  -8.332
  462XTA   HL2636495  -5.370  26.326  -8.150
  462XTA   HL2736496  -5.309  26.223  -8.282
  462XTA   HL2836497  -4.998  26.429  -8.221
  462XTA   HL2936498  -5.066  26.277  -8.273
  463XTA     NT36499   1.054  26.124  -6.845
  463XTA    CN136500   1.149  26.057  -6.912
  463XTA     C136501   1.158  25.914  -6.889
  463XTA     C236502   1.257  25.843  -6.953
  463XTA     C336503   1.325  25.897  -7.061
  463XTA     C436504   1.320  26.036  -7.080
  463XTA     C536505   1.228  26.117  -7.013
  463XTA    CN236506   0.929  26.110  -6.888
  463XTA     C636507   0.831  26.062  -6.801
  463XTA     C736508   0.706  26.037  -6.848
  463XTA     C836509   0.674  26.063  -6.977
  463XTA     C936510   0.765  26.114  -7.066
  463XTA    C1036511   0.899  26.136  -7.023
  463XTA    CN336512   1.090  26.214  -6.751
  463XTA    C1136513   1.162  26.169  -6.641
  463XTA    C1236514   1.211  26.261  -6.549
  463XTA    C1336515   1.189  26.398  -6.557
  463XTA    C1436516   1.122  26.444  -6.671
  463XTA    C1536517   1.075  26.353  -6.771
  463XTA     H136518   1.096  25.876  -6.811
  463XTA     H236519   1.274  25.736  -6.935
  463XTA     H336520   1.383  26.076  -7.156
  463XTA     H436521   1.230  26.223  -7.034
  463XTA     H536522   0.863  26.024  -6.705
  463XTA     H636523   0.642  26.000  -6.776
  463XTA     H736524   0.735  26.125  -7.167
  463XTA     H836525   0.969  26.169  -7.098
  463XTA     H936526   1.186  26.070  -6.615
  463XTA    H1036527   1.267  26.219  -6.474
  463XTA    H1136528   1.096  26.544  -6.683
  463XTA    H1236529   1.022  26.392  -6.854
  463XTA    OA136530   1.398  25.804  -7.133
  463XTA    CO136531   1.492  25.852  -7.222
  463XTA    OA236532   0.555  26.036  -7.037
  463XTA    CO236533   0.461  25.993  -6.947
  463XTA    CL136534   0.326  25.952  -7.012
  463XTA    CL236535   0.225  25.906  -6.910
  463XTA    CL336536   0.108  25.850  -6.985
  463XTA    CL436537   0.043  25.745  -6.899
  463XTA    CO336538  -0.073  25.664  -6.954
  463XTA    OA336539  -0.127  25.581  -6.851
  463XTA    CO436540  -0.212  25.485  -6.905
  463XTA    CT136541  -0.227  25.367  -6.807
  463XTA    CL536542  -0.094  25.280  -6.815
  463XTA    CL636543   0.036  25.354  -6.770
  463XTA    OA436544   1.232  26.495  -6.465
  463XTA    CO536545   1.317  26.445  -6.361
  463XTA    HL136546   1.255  26.391  -6.296
  463XTA    HL236547   1.432  25.890  -7.305
  463XTA    HL336548   1.543  25.941  -7.176
  463XTA    HL436549   1.553  25.766  -7.256
  463XTA    HL536550   0.506  25.901  -6.913
  463XTA    HL636551   0.441  26.051  -6.860
  463XTA    HL736552   0.355  25.881  -7.095
  463XTA    HL836553   0.293  26.045  -7.056
  463XTA    HL936554   0.191  25.969  -6.822
  463XTA   HL1036555   0.278  25.826  -6.852
  463XTA   HL1136556   0.034  25.924  -7.017
  463XTA   HL1236557   0.139  25.802  -7.076
  463XTA   HL1336558   0.002  25.800  -6.810
  463XTA   HL1436559   0.121  25.675  -6.863
  463XTA   HL1536560  -0.154  25.723  -6.997
  463XTA   HL1636561  -0.032  25.604  -7.042
  463XTA   HL1736562  -0.310  25.525  -6.927
  463XTA   HL1836563  -0.182  25.446  -7.002
  463XTA   HL1936564  -0.072  25.235  -6.911
  463XTA   HL2036565  -0.115  25.198  -6.749
  463XTA   HL2136566   0.061  25.429  -6.842
  463XTA   HL2236567   0.115  25.281  -6.775
  463XTA   HL2336568   0.053  25.395  -6.669
  463XTA   HL2436569   1.364  26.530  -6.314
  463XTA   HL2536570   1.400  26.378  -6.396
  463XTA    CO636571  -0.343  25.275  -6.858
  463XTA    CO736572  -0.268  25.420  -6.671
  463XTA    OA536573  -0.448  25.318  -6.849
  463XTA   HL2636574  -0.338  25.179  -6.807
  463XTA   HL2736575  -0.314  25.257  -6.959
  463XTA   HL2836576  -0.376  25.512  -6.685
  463XTA   HL2936577  -0.182  25.468  -6.627
  464XTA     NT36578  -3.577  28.679 -10.867
  464XTA    CN136579  -3.678  28.763 -10.829
  464XTA     C136580  -3.790  28.713 -10.759
  464XTA     C236581  -3.901  28.794 -10.731
  464XTA     C336582  -3.894  28.928 -10.766
  464XTA     C436583  -3.787  28.986 -10.828
  464XTA     C536584  -3.685  28.897 -10.874
  464XTA    CN236585  -3.446  28.709 -10.853
  464XTA     C636586  -3.356  28.733 -10.964
  464XTA     C736587  -3.221  28.760 -10.938
  464XTA     C836588  -3.172  28.770 -10.809
  464XTA     C936589  -3.266  28.756 -10.706
  464XTA    C1036590  -3.399  28.722 -10.724
  464XTA    CN336591  -3.606  28.566 -10.938
  464XTA    C1136592  -3.630  28.443 -10.879
  464XTA    C1236593  -3.659  28.335 -10.956
  464XTA    C1336594  -3.666  28.339 -11.098
  464XTA    C1436595  -3.635  28.466 -11.157
  464XTA    C1536596  -3.604  28.576 -11.076
  464XTA     H136597  -3.804  28.607 -10.735
  464XTA     H236598  -3.991  28.749 -10.682
  464XTA     H336599  -3.789  29.086 -10.864
  464XTA     H436600  -3.607  28.931 -10.946
  464XTA     H536601  -3.381  28.717 -11.068
  464XTA     H636602  -3.155  28.763 -11.021
  464XTA     H736603  -3.234  28.778 -10.608
  464XTA     H836604  -3.465  28.717 -10.637
  464XTA     H936605  -3.629  28.444 -10.768
  464XTA    H1036606  -3.677  28.241 -10.918
  464XTA    H1136607  -3.628  28.476 -11.263
  464XTA    H1236608  -3.568  28.673 -11.117
  464XTA    OA136609  -3.997  29.013 -10.737
  464XTA    CO136610  -4.073  28.985 -10.619
  464XTA    OA236611  -3.042  28.815 -10.786
  464XTA    CO236612  -2.992  28.802 -10.656
  464XTA    CL136613  -2.853  28.848 -10.643
  464XTA    CL236614  -2.837  29.002 -10.654
  464XTA    CL336615  -2.696  29.034 -10.619
  464XTA    CL436616  -2.601  28.962 -10.714
  464XTA    CO336617  -2.458  29.021 -10.714
  464XTA    OA336618  -2.381  28.974 -10.826
  464XTA    CO436619  -2.385  28.840 -10.857
  464XTA    CT136620  -2.315  28.824 -10.987
  464XTA    CL536621  -2.381  28.909 -11.100
  464XTA    CL636622  -2.532  28.908 -11.105
  464XTA    OA436623  -3.699  28.226 -11.163
  464XTA    CO536624  -3.708  28.225 -11.310
  464XTA    HL136625  -3.706  28.123 -11.344
  464XTA    HL236626  -4.016  28.988 -10.525
  464XTA    HL336627  -4.152  29.056 -10.611
  464XTA    HL436628  -4.116  28.886 -10.625
  464XTA    HL536629  -3.052  28.858 -10.588
  464XTA    HL636630  -2.999  28.702 -10.618
  464XTA    HL736631  -2.780  28.797 -10.710
  464XTA    HL836632  -2.821  28.808 -10.550
  464XTA    HL936633  -2.906  29.051 -10.589
  464XTA   HL1036634  -2.852  29.043 -10.757
  464XTA   HL1136635  -2.679  29.141 -10.616
  464XTA   HL1236636  -2.688  28.992 -10.516
  464XTA   HL1336637  -2.647  28.955 -10.809
  464XTA   HL1436638  -2.595  28.857 -10.685
  464XTA   HL1536639  -2.461  29.128 -10.721
  464XTA   HL1636640  -2.388  28.991 -10.631
  464XTA   HL1736641  -2.322  28.802 -10.772
  464XTA   HL1836642  -2.485  28.783 -10.867
  464XTA   HL1936643  -2.334  28.890 -11.195
  464XTA   HL2036644  -2.352  29.012 -11.083
  464XTA   HL2136645  -2.560  28.962 -11.194
  464XTA   HL2236646  -2.586  28.946 -11.019
  464XTA   HL2336647  -2.566  28.810 -11.131
  464XTA   HL2436648  -3.625  28.282 -11.358
  464XTA   HL2536649  -3.780  28.290 -11.349
  464XTA    CO636650  -2.318  28.674 -11.010
  464XTA    CO736651  -2.163  28.866 -10.984
  464XTA    OA536652  -2.109  28.840 -11.108
  464XTA   HL2636653  -2.283  28.659 -11.114
  464XTA   HL2736654  -2.257  28.611 -10.951
  464XTA   HL2836655  -2.098  28.811 -10.909
  464XTA   HL2936656  -2.160  28.972 -10.964
  465XTA     NT36657   0.117  23.122 -11.288
  465XTA    CN136658   0.126  23.042 -11.181
  465XTA     C136659   0.197  23.085 -11.074
  465XTA     C236660   0.217  23.010 -10.963
  465XTA     C336661   0.163  22.878 -10.958
  465XTA     C436662   0.079  22.827 -11.060
  465XTA     C536663   0.065  22.914 -11.172
  465XTA    CN236664   0.029  23.223 -11.288
  465XTA     C636665   0.077  23.355 -11.289
  465XTA     C736666  -0.017  23.463 -11.271
  465XTA     C836667  -0.154  23.447 -11.268
  465XTA     C936668  -0.199  23.315 -11.268
  465XTA    C1036669  -0.111  23.203 -11.268
  465XTA    CN336670   0.169  23.075 -11.403
  465XTA    C1136671   0.090  23.090 -11.521
  465XTA    C1236672   0.137  23.032 -11.642
  465XTA    C1336673   0.269  22.978 -11.646
  465XTA    C1436674   0.353  22.976 -11.533
  465XTA    C1536675   0.300  23.024 -11.414
  465XTA     H136676   0.235  23.187 -11.083
  465XTA     H236677   0.274  23.057 -10.890
  465XTA     H336678   0.030  22.733 -11.064
  465XTA     H436679  -0.004  22.891 -11.249
  465XTA     H536680   0.188  23.369 -11.306
  465XTA     H636681   0.007  23.565 -11.293
  465XTA     H736682  -0.302  23.286 -11.260
  465XTA     H836683  -0.154  23.107 -11.270
  465XTA     H936684  -0.003  23.143 -11.512
  465XTA    H1036685   0.060  23.040 -11.721
  465XTA    H1136686   0.453  22.934 -11.543
  465XTA    H1236687   0.353  23.012 -11.319
  465XTA    OA136688   0.176  22.805 -10.844
  465XTA    CO136689   0.226  22.871 -10.729
  465XTA    OA236690  -0.237  23.553 -11.256
  465XTA    CO236691  -0.379  23.530 -11.252
  465XTA    CL136692  -0.456  23.659 -11.280
  465XTA    CL236693  -0.602  23.637 -11.313
  465XTA    CL336694  -0.672  23.774 -11.312
  465XTA    CL436695  -0.826  23.758 -11.312
  465XTA    CO336696  -0.892  23.898 -11.334
  465XTA    OA336697  -1.038  23.911 -11.321
  465XTA    CO436698  -1.073  23.875 -11.185
  465XTA    CT136699  -1.219  23.886 -11.137
  465XTA    CL536700  -1.238  24.038 -11.104
  465XTA    CL636701  -1.367  24.090 -11.045
  465XTA    OA436702   0.330  22.931 -11.759
  465XTA    CO536703   0.252  22.946 -11.877
  465XTA    HL136704   0.233  23.057 -11.893
  465XTA    HL236705   0.324  22.913 -10.740
  465XTA    HL336706   0.165  22.962 -10.707
  465XTA    HL436707   0.219  22.818 -10.642
  465XTA    HL536708  -0.397  23.461 -11.336
  465XTA    HL636709  -0.405  23.481 -11.158
  465XTA    HL736710  -0.414  23.723 -11.360
  465XTA    HL836711  -0.450  23.723 -11.193
  465XTA    HL936712  -0.647  23.566 -11.235
  465XTA   HL1036713  -0.615  23.582 -11.404
  465XTA   HL1136714  -0.661  23.824 -11.219
  465XTA   HL1236715  -0.644  23.832 -11.399
  465XTA   HL1336716  -0.847  23.710 -11.215
  465XTA   HL1436717  -0.857  23.685 -11.393
  465XTA   HL1536718  -0.838  23.986 -11.282
  465XTA   HL1636719  -0.874  23.934 -11.432
  465XTA   HL1736720  -1.051  23.765 -11.171
  465XTA   HL1836721  -1.002  23.925 -11.120
  465XTA   HL1936722  -1.219  24.090 -11.195
  465XTA   HL2036723  -1.158  24.066 -11.039
  465XTA   HL2136724  -1.463  24.070 -11.096
  465XTA   HL2236725  -1.371  24.204 -11.031
  465XTA   HL2336726  -1.380  24.049 -10.945
  465XTA   HL2436727   0.169  22.880 -11.880
  465XTA   HL2536728   0.313  22.919 -11.961
  465XTA    CO636729  -1.257  23.814 -11.004
  465XTA    CO736730  -1.312  23.834 -11.246
  465XTA    OA536731  -1.446  23.844 -11.197
  465XTA   HL2636732  -1.357  23.834 -10.970
  465XTA   HL2736733  -1.252  23.710 -11.027
  465XTA   HL2836734  -1.293  23.726 -11.261
  465XTA   HL2936735  -1.303  23.891 -11.341
  466XTA     NT36736  -5.792  23.457  -6.838
  466XTA    CN136737  -5.856  23.576  -6.846
  466XTA     C136738  -5.943  23.617  -6.957
  466XTA     C236739  -5.989  23.751  -6.958
  466XTA     C336740  -5.962  23.838  -6.850
  466XTA     C436741  -5.883  23.797  -6.742
  466XTA     C536742  -5.847  23.660  -6.735
  466XTA    CN236743  -5.676  23.437  -6.910
  466XTA     C636744  -5.641  23.506  -7.023
  466XTA     C736745  -5.516  23.500  -7.078
  466XTA     C836746  -5.417  23.410  -7.024
  466XTA     C936747  -5.456  23.322  -6.921
  466XTA    C1036748  -5.587  23.336  -6.863
  466XTA    CN336749  -5.845  23.354  -6.762
  466XTA    C1136750  -5.816  23.343  -6.621
  466XTA    C1236751  -5.875  23.242  -6.540
  466XTA    C1336752  -5.953  23.144  -6.604
  466XTA    C1436753  -5.983  23.154  -6.746
  466XTA    C1536754  -5.930  23.259  -6.819
  466XTA     H136755  -5.962  23.549  -7.034
  466XTA     H236756  -6.046  23.785  -7.039
  466XTA     H336757  -5.862  23.862  -6.661
  466XTA     H436758  -5.786  23.619  -6.658
  466XTA     H536759  -5.710  23.579  -7.068
  466XTA     H636760  -5.496  23.569  -7.158
  466XTA     H736761  -5.391  23.245  -6.877
  466XTA     H836762  -5.602  23.275  -6.775
  466XTA     H936763  -5.753  23.421  -6.575
  466XTA    H1036764  -5.845  23.235  -6.438
  466XTA    H1136765  -6.053  23.080  -6.788
  466XTA    H1236766  -5.949  23.278  -6.923
  466XTA    OA136767  -5.986  23.972  -6.876
  466XTA    CO136768  -5.908  24.068  -6.817
  466XTA    OA236769  -5.292  23.408  -7.077
  466XTA    CO236770  -5.189  23.371  -6.991
  466XTA    CL136771  -5.045  23.368  -7.047
  466XTA    CL236772  -4.998  23.503  -7.090
  466XTA    CL336773  -4.855  23.503  -7.141
  466XTA    CL436774  -4.797  23.648  -7.147
  466XTA    CO336775  -4.753  23.706  -7.011
  466XTA    OA336776  -4.870  23.757  -6.943
  466XTA    CO436777  -4.858  23.773  -6.801
  466XTA    CT136778  -4.981  23.824  -6.746
  466XTA    CL536779  -5.024  23.963  -6.801
  466XTA    CL636780  -4.932  24.082  -6.776
  466XTA    OA436781  -6.007  23.041  -6.532
  466XTA    CO536782  -5.994  22.913  -6.592
  466XTA    HL136783  -6.012  22.904  -6.695
  466XTA    HL236784  -5.892  24.048  -6.711
  466XTA    HL336785  -5.810  24.064  -6.869
  466XTA    HL436786  -5.955  24.167  -6.828
  466XTA    HL536787  -5.192  23.431  -6.902
  466XTA    HL636788  -5.207  23.275  -6.963
  466XTA    HL736789  -5.040  23.295  -7.129
  466XTA    HL836790  -4.976  23.342  -6.966
  466XTA    HL936791  -5.014  23.589  -7.017
  466XTA   HL1036792  -5.058  23.537  -7.172
  466XTA   HL1136793  -4.795  23.454  -7.063
  466XTA   HL1236794  -4.854  23.451  -7.238
  466XTA   HL1336795  -4.858  23.720  -7.205
  466XTA   HL1436796  -4.705  23.639  -7.194
  466XTA   HL1536797  -4.713  23.626  -6.947
  466XTA   HL1636798  -4.673  23.781  -7.030
  466XTA   HL1736799  -4.833  23.670  -6.767
  466XTA   HL1836800  -4.780  23.835  -6.775
  466XTA   HL1936801  -5.123  23.985  -6.771
  466XTA   HL2036802  -5.032  23.947  -6.907
  466XTA   HL2136803  -4.967  24.171  -6.828
  466XTA   HL2236804  -4.830  24.061  -6.806
  466XTA   HL2336805  -4.934  24.108  -6.668
  466XTA   HL2436806  -6.055  22.836  -6.538
  466XTA   HL2536807  -5.889  22.869  -6.585
  466XTA    CO636808  -4.965  23.828  -6.588
  466XTA    CO736809  -5.092  23.716  -6.773
  466XTA    OA536810  -5.184  23.722  -6.667
  466XTA   HL2636811  -5.055  23.857  -6.541
  466XTA   HL2736812  -4.909  23.916  -6.573
  466XTA   HL2836813  -5.047  23.615  -6.777
  466XTA   HL2936814  -5.139  23.731  -6.870
  467XTA     NT36815  -2.974  28.999 -11.733
  467XTA    CN136816  -2.890  28.939 -11.645
  467XTA     C136817  -2.904  28.948 -11.504
  467XTA     C236818  -2.829  28.872 -11.418
  467XTA     C336819  -2.729  28.784 -11.465
  467XTA     C436820  -2.717  28.764 -11.604
  467XTA     C536821  -2.794  28.842 -11.695
  467XTA    CN236822  -3.068  28.940 -11.800
  467XTA     C636823  -3.196  28.924 -11.748
  467XTA     C736824  -3.306  28.876 -11.824
  467XTA     C836825  -3.284  28.857 -11.960
  467XTA     C936826  -3.156  28.875 -12.016
  467XTA    C1036827  -3.048  28.907 -11.934
  467XTA    CN336828  -2.959  29.134 -11.750
  467XTA    C1136829  -2.844  29.177 -11.812
  467XTA    C1236830  -2.823  29.315 -11.839
  467XTA    C1336831  -2.932  29.408 -11.820
  467XTA    C1436832  -3.052  29.361 -11.766
  467XTA    C1536833  -3.061  29.229 -11.730
  467XTA     H136834  -2.976  29.015 -11.465
  467XTA     H236835  -2.848  28.881 -11.312
  467XTA     H336836  -2.650  28.689 -11.642
  467XTA     H436837  -2.792  28.814 -11.803
  467XTA     H536838  -3.217  28.948 -11.646
  467XTA     H636839  -3.406  28.872 -11.789
  467XTA     H736840  -3.137  28.864 -12.119
  467XTA     H836841  -2.947  28.917 -11.974
  467XTA     H936842  -2.769  29.110 -11.841
  467XTA    H1036843  -2.732  29.334 -11.897
  467XTA    H1136844  -3.127  29.433 -11.736
  467XTA    H1236845  -3.160  29.192 -11.699
  467XTA    OA136846  -2.652  28.708 -11.375
  467XTA    CO136847  -2.571  28.604 -11.431
  467XTA    OA236848  -3.388  28.823 -12.042
  467XTA    CO236849  -3.379  28.884 -12.178
  467XTA    CL136850  -3.514  28.852 -12.246
  467XTA    CL236851  -3.556  28.705 -12.236
  467XTA    CL336852  -3.712  28.683 -12.256
  467XTA    CL436853  -3.763  28.536 -12.251
  467XTA    CO336854  -3.750  28.481 -12.387
  467XTA    OA336855  -3.828  28.364 -12.403
  467XTA    CO436856  -3.813  28.313 -12.539
  467XTA    CT136857  -3.863  28.167 -12.552
  467XTA    CL536858  -3.878  28.126 -12.696
  467XTA    CL636859  -3.770  28.186 -12.793
  467XTA    OA436860  -2.907  29.542 -11.845
  467XTA    CO536861  -3.012  29.622 -11.809
  467XTA    HL136862  -2.996  29.728 -11.834
  467XTA    HL236863  -2.631  28.530 -11.475
  467XTA    HL336864  -2.494  28.644 -11.499
  467XTA    HL436865  -2.510  28.549 -11.349
  467XTA    HL536866  -3.378  28.996 -12.177
  467XTA    HL636867  -3.296  28.859 -12.248
  467XTA    HL736868  -3.510  28.895 -12.345
  467XTA    HL836869  -3.599  28.904 -12.199
  467XTA    HL936870  -3.522  28.668 -12.141
  467XTA   HL1036871  -3.498  28.644 -12.301
  467XTA   HL1136872  -3.753  28.741 -12.177
  467XTA   HL1236873  -3.744  28.751 -12.336
  467XTA   HL1336874  -3.875  28.525 -12.235
  467XTA   HL1436875  -3.712  28.476 -12.177
  467XTA   HL1536876  -3.780  28.551 -12.467
  467XTA   HL1636877  -3.645  28.457 -12.393
  467XTA   HL1736878  -3.877  28.376 -12.602
  467XTA   HL1836879  -3.710  28.332 -12.577
  467XTA   HL1936880  -3.972  28.167 -12.739
  467XTA   HL2036881  -3.889  28.019 -12.705
  467XTA   HL2136882  -3.783  28.143 -12.888
  467XTA   HL2236883  -3.665  28.163 -12.762
  467XTA   HL2336884  -3.793  28.292 -12.810
  467XTA   HL2436885  -3.036  29.622 -11.702
  467XTA   HL2536886  -3.107  29.601 -11.855
  467XTA    CO636887  -3.993  28.143 -12.477
  467XTA    CO736888  -3.750  28.075 -12.476
  467XTA    OA536889  -3.724  28.104 -12.370
  467XTA   HL2636890  -3.963  28.132 -12.372
  467XTA   HL2736891  -4.059  28.019 -12.507
  467XTA   HL2836892  -3.658  28.076 -12.531
  467XTA   HL2936893  -3.782  27.970 -12.492
  468XTA     NT36894  -6.989  28.173  -8.382
  468XTA    CN136895  -6.867  28.220  -8.408
  468XTA     C136896  -6.765  28.200  -8.312
  468XTA     C236897  -6.630  28.241  -8.334
  468XTA     C336898  -6.594  28.291  -8.461
  468XTA     C436899  -6.702  28.311  -8.555
  468XTA     C536900  -6.837  28.290  -8.524
  468XTA    CN236901  -7.030  28.044  -8.402
  468XTA     C636902  -7.035  27.972  -8.280
  468XTA     C736903  -7.077  27.838  -8.294
  468XTA     C836904  -7.123  27.777  -8.413
  468XTA     C936905  -7.109  27.852  -8.532
  468XTA    C1036906  -7.064  27.990  -8.528
  468XTA    CN336907  -7.086  28.260  -8.369
  468XTA    C1136908  -7.169  28.285  -8.483
  468XTA    C1236909  -7.255  28.388  -8.489
  468XTA    C1336910  -7.252  28.483  -8.390
  468XTA    C1436911  -7.167  28.469  -8.280
  468XTA    C1536912  -7.081  28.362  -8.271
  468XTA     H136913  -6.783  28.151  -8.215
  468XTA     H236914  -6.553  28.215  -8.262
  468XTA     H336915  -6.686  28.358  -8.651
  468XTA     H436916  -6.918  28.316  -8.597
  468XTA     H536917  -6.996  28.011  -8.180
  468XTA     H636918  -7.066  27.777  -8.206
  468XTA     H736919  -7.140  27.806  -8.627
  468XTA     H836920  -7.052  28.048  -8.620
  468XTA     H936921  -7.166  28.213  -8.553
  468XTA    H1036922  -7.320  28.410  -8.572
  468XTA    H1136923  -7.183  28.544  -8.208
  468XTA    H1236924  -7.007  28.351  -8.185
  468XTA    OA136925  -6.465  28.333  -8.482
  468XTA    CO136926  -6.429  28.341  -8.616
  468XTA    OA236927  -7.162  27.648  -8.404
  468XTA    CO236928  -7.205  27.588  -8.527
  468XTA    CL136929  -7.087  27.528  -8.604
  468XTA    CL236930  -7.017  27.393  -8.560
  468XTA    CL336931  -6.918  27.340  -8.672
  468XTA    CL436932  -6.887  27.183  -8.656
  468XTA    CO336933  -6.998  27.092  -8.702
  468XTA    OA336934  -6.954  26.963  -8.682
  468XTA    CO436935  -7.039  26.872  -8.755
  468XTA    CT136936  -7.005  26.722  -8.728
  468XTA    CL536937  -7.133  26.642  -8.768
  468XTA    CL636938  -7.234  26.687  -8.875
  468XTA    OA436939  -7.329  28.596  -8.403
  468XTA    CO536940  -7.426  28.603  -8.299
  468XTA    HL136941  -7.496  28.527  -8.311
  468XTA    HL236942  -6.319  28.376  -8.613
  468XTA    HL336943  -6.437  28.255  -8.676
  468XTA    HL436944  -6.490  28.418  -8.662
  468XTA    HL536945  -7.279  27.509  -8.510
  468XTA    HL636946  -7.265  27.651  -8.592
  468XTA    HL736947  -7.005  27.605  -8.603
  468XTA    HL836948  -7.112  27.515  -8.708
  468XTA    HL936949  -7.093  27.319  -8.539
  468XTA   HL1036950  -6.962  27.420  -8.469
  468XTA   HL1136951  -6.968  27.356  -8.774
  468XTA   HL1236952  -6.832  27.404  -8.683
  468XTA   HL1336953  -6.856  27.160  -8.550
  468XTA   HL1436954  -6.793  27.161  -8.705
  468XTA   HL1536955  -7.085  27.114  -8.646
  468XTA   HL1636956  -7.018  27.110  -8.810
  468XTA   HL1736957  -7.139  26.888  -8.710
  468XTA   HL1836958  -7.044  26.895  -8.864
  468XTA   HL1936959  -7.202  26.634  -8.687
  468XTA   HL2036960  -7.101  26.545  -8.791
  468XTA   HL2136961  -7.292  26.768  -8.830
  468XTA   HL2236962  -7.295  26.606  -8.907
  468XTA   HL2336963  -7.185  26.727  -8.965
  468XTA   HL2436964  -7.493  28.693  -8.303
  468XTA   HL2536965  -7.390  28.590  -8.200
  468XTA    CO636966  -6.980  26.686  -8.576
  468XTA    CO736967  -6.876  26.678  -8.807
  468XTA    OA536968  -6.963  26.547  -8.550
  468XTA   HL2636969  -7.057  26.724  -8.523
  468XTA   HL2736970  -6.892  26.750  -8.548
  468XTA   HL2836971  -6.863  26.573  -8.793
  468XTA   HL2936972  -6.892  26.698  -8.916
  469XTA     NT36973  -2.945  27.410  -8.595
  469XTA    CN136974  -2.946  27.483  -8.705
  469XTA     C136975  -2.828  27.502  -8.772
  469XTA     C236976  -2.829  27.553  -8.902
  469XTA     C336977  -2.950  27.601  -8.959
  469XTA     C436978  -3.072  27.598  -8.884
  469XTA     C536979  -3.069  27.532  -8.758
  469XTA    CN236980  -2.915  27.279  -8.600
  469XTA     C636981  -2.988  27.181  -8.674
  469XTA     C736982  -2.957  27.040  -8.658
  469XTA     C836983  -2.860  26.999  -8.565
  469XTA     C936984  -2.783  27.101  -8.500
  469XTA    C1036985  -2.824  27.233  -8.506
  469XTA    CN336986  -2.983  27.453  -8.476
  469XTA    C1136987  -2.902  27.554  -8.411
  469XTA    C1236988  -2.945  27.610  -8.292
  469XTA    C1336989  -3.059  27.556  -8.224
  469XTA    C1436990  -3.129  27.448  -8.287
  469XTA    C1536991  -3.096  27.402  -8.412
  469XTA     H136992  -2.738  27.480  -8.722
  469XTA     H236993  -2.738  27.556  -8.958
  469XTA     H336994  -3.163  27.634  -8.922
  469XTA     H436995  -3.165  27.522  -8.713
  469XTA     H536996  -3.062  27.219  -8.741
  469XTA     H636997  -3.004  26.966  -8.719
  469XTA     H736998  -2.709  27.079  -8.426
  469XTA     H836999  -2.769  27.298  -8.433
  469XTA     H937000  -2.816  27.589  -8.461
  469XTA    H1037001  -2.898  27.700  -8.259
  469XTA    H1137002  -3.224  27.414  -8.243
  469XTA    H1237003  -3.154  27.334  -8.467
  469XTA    OA137004  -2.941  27.643  -9.091
  469XTA    CO137005  -3.067  27.679  -9.147
  469XTA    OA237006  -2.807  26.871  -8.551
  469XTA    CO237007  -2.891  26.768  -8.589
  469XTA    CL137008  -2.826  26.633  -8.567
  469XTA    CL237009  -2.809  26.594  -8.422
  469XTA    CL337010  -2.950  26.567  -8.346
  469XTA    CL437011  -2.946  26.572  -8.189
  469XTA    CO337012  -3.072  26.535  -8.116
  469XTA    OA337013  -3.088  26.393  -8.110
  469XTA    CO437014  -3.216  26.347  -8.092
  469XTA    CT137015  -3.202  26.201  -8.051
  469XTA    CL537016  -3.117  26.189  -7.918
  469XTA    CL637017  -3.176  26.230  -7.782
  469XTA    OA437018  -3.097  27.599  -8.100
  469XTA    CO537019  -3.013  27.696  -8.042
  469XTA    HL137020  -2.912  27.661  -8.046
  469XTA    HL237021  -3.042  27.716  -9.245
  469XTA    HL337022  -3.145  27.600  -9.170
  469XTA    HL437023  -3.104  27.764  -9.085
  469XTA    HL537024  -2.990  26.771  -8.538
  469XTA    HL637025  -2.917  26.768  -8.698
  469XTA    HL737026  -2.735  26.629  -8.615
  469XTA    HL837027  -2.887  26.547  -8.606
  469XTA    HL937028  -2.759  26.674  -8.365
  469XTA   HL1037029  -2.759  26.507  -8.404
  469XTA   HL1137030  -3.034  26.637  -8.376
  469XTA   HL1237031  -2.989  26.479  -8.385
  469XTA   HL1337032  -2.926  26.671  -8.167
  469XTA   HL1437033  -2.874  26.496  -8.155
  469XTA   HL1537034  -3.070  26.576  -8.017
  469XTA   HL1637035  -3.158  26.570  -8.171
  469XTA   HL1737036  -3.262  26.393  -8.005
  469XTA   HL1837037  -3.266  26.353  -8.186
  469XTA   HL1937038  -3.035  26.248  -7.938
  469XTA   HL2037039  -3.082  26.083  -7.921
  469XTA   HL2137040  -3.279  26.201  -7.776
  469XTA   HL2237041  -3.185  26.342  -7.777
  469XTA   HL2337042  -3.114  26.191  -7.694
  469XTA   HL2437043  -3.045  27.714  -7.940
  469XTA   HL2537044  -3.025  27.796  -8.082
  469XTA    CO637045  -3.134  26.116  -8.159
  469XTA    CO737046  -3.339  26.139  -8.017
  469XTA    OA537047  -3.332  26.013  -7.956
  469XTA   HL2637048  -3.027  26.148  -8.170
  469XTA   HL2737049  -3.132  26.012  -8.115
  469XTA   HL2837050  -3.389  26.111  -8.110
  469XTA   HL2937051  -3.390  26.216  -7.960
  470XTA     NT37052  -4.013  26.761 -11.270
  470XTA    CN137053  -3.977  26.876 -11.214
  470XTA     C137054  -4.017  26.996 -11.277
  470XTA     C237055  -3.985  27.127 -11.217
  470XTA     C337056  -3.914  27.136 -11.099
  470XTA     C437057  -3.871  27.015 -11.041
  470XTA     C537058  -3.900  26.889 -11.096
  470XTA    CN237059  -3.939  26.703 -11.367
  470XTA     C637060  -4.006  26.687 -11.491
  470XTA     C737061  -3.942  26.620 -11.597
  470XTA     C837062  -3.813  26.560 -11.578
  470XTA     C937063  -3.756  26.569 -11.453
  470XTA    C1037064  -3.814  26.645 -11.350
  470XTA    CN337065  -4.135  26.706 -11.239
  470XTA    C1137066  -4.259  26.769 -11.263
  470XTA    C1237067  -4.382  26.701 -11.237
  470XTA    C1337068  -4.388  26.563 -11.203
  470XTA    C1437069  -4.264  26.506 -11.168
  470XTA    C1537070  -4.140  26.572 -11.190
  470XTA     H137071  -4.071  26.992 -11.367
  470XTA     H237072  -4.027  27.211 -11.266
  470XTA     H337073  -3.817  27.011 -10.951
  470XTA     H437074  -3.876  26.793 -11.048
  470XTA     H537075  -4.110  26.729 -11.513
  470XTA     H637076  -3.980  26.606 -11.693
  470XTA     H737077  -3.656  26.531 -11.438
  470XTA     H837078  -3.772  26.659 -11.253
  470XTA     H937079  -4.257  26.876 -11.278
  470XTA    H1037080  -4.468  26.761 -11.240
  470XTA    H1137081  -4.265  26.402 -11.127
  470XTA    H1237082  -4.048  26.513 -11.170
  470XTA    OA137083  -3.907  27.263 -11.037
  470XTA    CO137084  -3.858  27.283 -10.908
  470XTA    OA237085  -3.744  26.481 -11.668
  470XTA    CO237086  -3.811  26.438 -11.786
  470XTA    CL137087  -3.885  26.308 -11.754
  470XTA    CL237088  -3.788  26.191 -11.740
  470XTA    CL337089  -3.703  26.191 -11.614
  470XTA    CL437090  -3.640  26.055 -11.603
  470XTA    CO337091  -3.570  26.040 -11.467
  470XTA    OA337092  -3.451  26.105 -11.462
  470XTA    CO437093  -3.427  26.249 -11.426
  470XTA    CT137094  -3.278  26.277 -11.407
  470XTA    CL537095  -3.211  26.174 -11.313
  470XTA    CL637096  -3.052  26.178 -11.295
  470XTA    OA437097  -4.514  26.508 -11.186
  470XTA    CO537098  -4.514  26.369 -11.178
  470XTA    HL137099  -4.496  26.321 -11.083
  470XTA    HL237100  -3.904  27.218 -10.832
  470XTA    HL337101  -3.755  27.247 -10.918
  470XTA    HL437102  -3.862  27.387 -10.892
  470XTA    HL537103  -3.873  26.521 -11.842
  470XTA    HL637104  -3.736  26.419 -11.860
  470XTA    HL737105  -3.954  26.283 -11.839
  470XTA    HL837106  -3.955  26.305 -11.666
  470XTA    HL937107  -3.729  26.186 -11.833
  470XTA   HL1037108  -3.848  26.091 -11.753
  470XTA   HL1137109  -3.625  26.271 -11.604
  470XTA   HL1237110  -3.773  26.197 -11.525
  470XTA   HL1337111  -3.564  26.029 -11.675
  470XTA   HL1437112  -3.709  25.974 -11.610
  470XTA   HL1537113  -3.636  26.068 -11.386
  470XTA   HL1637114  -3.554  25.936 -11.455
  470XTA   HL1737115  -3.482  26.319 -11.483
  470XTA   HL1837116  -3.472  26.258 -11.328
  470XTA   HL1937117  -3.242  26.069 -11.341
  470XTA   HL2037118  -3.241  26.195 -11.210
  470XTA   HL2137119  -3.009  26.199 -11.396
  470XTA   HL2237120  -3.022  26.081 -11.255
  470XTA   HL2337121  -3.012  26.248 -11.223
  470XTA   HL2437122  -4.441  26.325 -11.251
  470XTA   HL2537123  -4.615  26.338 -11.209
  470XTA    CO637124  -3.265  26.419 -11.356
  470XTA    CO737125  -3.210  26.274 -11.547
  470XTA    OA537126  -3.347  26.418 -11.231
  470XTA   HL2637127  -3.311  26.494 -11.431
  470XTA   HL2737128  -3.166  26.455 -11.327
  470XTA   HL2837129  -3.191  26.169 -11.577
  470XTA   HL2937130  -3.108  26.321 -11.535
  471XTA     NT37131  -2.834  27.491 -10.654
  471XTA    CN137132  -2.836  27.439 -10.775
  471XTA     C137133  -2.946  27.356 -10.817
  471XTA     C237134  -2.944  27.289 -10.943
  471XTA     C337135  -2.840  27.319 -11.030
  471XTA     C437136  -2.731  27.409 -10.992
  471XTA     C537137  -2.736  27.472 -10.868
  471XTA    CN237138  -2.753  27.438 -10.560
  471XTA     C637139  -2.769  27.301 -10.534
  471XTA     C737140  -2.682  27.236 -10.449
  471XTA     C837141  -2.579  27.309 -10.377
  471XTA     C937142  -2.570  27.449 -10.400
  471XTA    C1037143  -2.652  27.514 -10.496
  471XTA    CN337144  -2.900  27.601 -10.621
  471XTA    C1137145  -2.981  27.595 -10.507
  471XTA    C1237146  -3.045  27.712 -10.458
  471XTA    C1337147  -3.049  27.832 -10.538
  471XTA    C1437148  -2.978  27.828 -10.659
  471XTA    C1537149  -2.898  27.717 -10.696
  471XTA     H137150  -3.028  27.323 -10.753
  471XTA     H237151  -3.031  27.220 -10.962
  471XTA     H337152  -2.646  27.424 -11.060
  471XTA     H437153  -2.663  27.550 -10.849
  471XTA     H537154  -2.849  27.241 -10.579
  471XTA     H637155  -2.681  27.129 -10.429
  471XTA     H737156  -2.492  27.509 -10.350
  471XTA     H837157  -2.631  27.620 -10.524
  471XTA     H937158  -2.978  27.507 -10.441
  471XTA    H1037159  -3.089  27.697 -10.362
  471XTA    H1137160  -2.981  27.918 -10.718
  471XTA    H1237161  -2.844  27.724 -10.788
  471XTA    OA137162  -2.822  27.249 -11.140
  471XTA    CO137163  -2.731  27.290 -11.238
  471XTA    OA237164  -2.499  27.245 -10.282
  471XTA    CO237165  -2.446  27.333 -10.168
  471XTA    CL137166  -2.302  27.381 -10.189
  471XTA    CL237167  -2.249  27.465 -10.066
  471XTA    CL337168  -2.099  27.506 -10.069
  471XTA    CL437169  -1.994  27.413 -10.137
  471XTA    CO337170  -1.978  27.280 -10.064
  471XTA    OA337171  -2.099  27.202 -10.054
  471XTA    CO437172  -2.073  27.063 -10.065
  471XTA    CT137173  -2.201  26.994 -10.043
  471XTA    CL537174  -2.283  27.075  -9.936
  471XTA    CL637175  -2.221  27.084  -9.793
  471XTA    OA437176  -3.122  27.943 -10.511
  471XTA    CO537177  -3.171  27.954 -10.379
  471XTA    HL137178  -3.247  28.028 -10.374
  471XTA    HL237179  -2.629  27.293 -11.201
  471XTA    HL337180  -2.754  27.226 -11.325
  471XTA    HL437181  -2.755  27.388 -11.280
  471XTA    HL537182  -2.508  27.416 -10.165
  471XTA    HL637183  -2.453  27.279 -10.075
  471XTA    HL737184  -2.305  27.448 -10.280
  471XTA    HL837185  -2.236  27.305 -10.222
  471XTA    HL937186  -2.281  27.422  -9.973
  471XTA   HL1037187  -2.298  27.567 -10.063
  471XTA   HL1137188  -2.097  27.606 -10.116
  471XTA   HL1237189  -2.065  27.530  -9.968
  471XTA   HL1337190  -1.895  27.462 -10.137
  471XTA   HL1437191  -2.012  27.396 -10.245
  471XTA   HL1537192  -1.904  27.220 -10.120
  471XTA   HL1637193  -1.931  27.295  -9.963
  471XTA   HL1737194  -2.020  27.040 -10.161
  471XTA   HL1837195  -2.016  27.020  -9.980
  471XTA   HL1937196  -2.389  27.028  -9.925
  471XTA   HL2037197  -2.288  27.175  -9.969
  471XTA   HL2137198  -2.203  26.980  -9.766
  471XTA   HL2237199  -2.288  27.141  -9.725
  471XTA   HL2337200  -2.124  27.130  -9.798
  471XTA   HL2437201  -3.089  27.971 -10.310
  471XTA   HL2537202  -3.223  27.859 -10.357
  471XTA    CO637203  -2.181  26.844 -10.003
  471XTA    CO737204  -2.288  26.998 -10.175
  471XTA    OA537205  -2.252  26.923 -10.249
  471XTA   HL2637206  -2.149  26.801 -10.099
  471XTA   HL2737207  -2.303  26.785  -9.977
  471XTA   HL2837208  -2.287  27.097 -10.216
  471XTA   HL2937209  -2.397  26.973 -10.142
  472XTA     NT37210  -2.892  25.365  -9.485
  472XTA    CN137211  -2.929  25.313  -9.364
  472XTA     C137212  -2.856  25.211  -9.314
  472XTA     C237213  -2.881  25.175  -9.183
  472XTA     C337214  -2.987  25.233  -9.103
  472XTA     C437215  -3.055  25.341  -9.157
  472XTA     C537216  -3.021  25.385  -9.286
  472XTA    CN237217  -2.797  25.459  -9.499
  472XTA     C637218  -2.830  25.571  -9.574
  472XTA     C737219  -2.737  25.673  -9.586
  472XTA     C837220  -2.613  25.663  -9.525
  472XTA     C937221  -2.593  25.564  -9.426
  472XTA    C1037222  -2.684  25.461  -9.410
  472XTA    CN337223  -2.944  25.304  -9.594
  472XTA    C1137224  -3.085  25.318  -9.620
  472XTA    C1237225  -3.142  25.233  -9.714
  472XTA    C1337226  -3.064  25.163  -9.803
  472XTA    C1437227  -2.926  25.154  -9.776
  472XTA    C1537228  -2.862  25.224  -9.676
  472XTA     H137229  -2.783  25.158  -9.370
  472XTA     H237230  -2.836  25.086  -9.147
  472XTA     H337231  -3.135  25.381  -9.098
  472XTA     H437232  -3.068  25.478  -9.323
  472XTA     H537233  -2.916  25.584  -9.641
  472XTA     H637234  -2.762  25.749  -9.661
  472XTA     H737235  -2.502  25.554  -9.369
  472XTA     H837236  -2.670  25.386  -9.335
  472XTA     H937237  -3.145  25.382  -9.556
  472XTA    H1037238  -3.252  25.243  -9.721
  472XTA    H1137239  -2.873  25.092  -9.852
  472XTA    H1237240  -2.759  25.237  -9.663
  472XTA    OA137241  -3.027  25.184  -8.983
  472XTA    CO137242  -2.945  25.086  -8.921
  472XTA    OA237243  -2.517  25.747  -9.565
  472XTA    CO237244  -2.394  25.746  -9.490
  472XTA    CL137245  -2.276  25.667  -9.547
  472XTA    CL237246  -2.162  25.632  -9.441
  472XTA    CL337247  -2.050  25.554  -9.501
  472XTA    CL437248  -1.935  25.525  -9.400
  472XTA    CO337249  -1.811  25.477  -9.467
  472XTA    OA337250  -1.721  25.437  -9.370
  472XTA    CO437251  -1.748  25.302  -9.332
  472XTA    CT137252  -1.670  25.263  -9.199
  472XTA    CL537253  -1.726  25.339  -9.073
  472XTA    CL637254  -1.672  25.482  -9.039
  472XTA    OA437255  -3.109  25.088  -9.909
  472XTA    CO537256  -3.237  25.136  -9.966
  472XTA    HL137257  -3.248  25.250  -9.978
  472XTA    HL237258  -2.990  25.045  -8.835
  472XTA    HL337259  -2.901  25.006  -8.971
  472XTA    HL437260  -2.863  25.150  -8.882
  472XTA    HL537261  -2.349  25.846  -9.491
  472XTA    HL637262  -2.409  25.732  -9.385
  472XTA    HL737263  -2.236  25.730  -9.627
  472XTA    HL837264  -2.305  25.570  -9.592
  472XTA    HL937265  -2.210  25.583  -9.349
  472XTA   HL1037266  -2.133  25.730  -9.401
  472XTA   HL1137267  -2.081  25.466  -9.552
  472XTA   HL1237268  -2.004  25.627  -9.573
  472XTA   HL1337269  -1.957  25.460  -9.320
  472XTA   HL1437270  -1.908  25.615  -9.342
  472XTA   HL1537271  -1.831  25.398  -9.543
  472XTA   HL1637272  -1.769  25.557  -9.525
  472XTA   HL1737273  -1.855  25.272  -9.316
  472XTA   HL1837274  -1.710  25.246  -9.419
  472XTA   HL1937275  -1.701  25.272  -8.994
  472XTA   HL2037276  -1.834  25.350  -9.068
  472XTA   HL2137277  -1.698  25.559  -9.108
  472XTA   HL2237278  -1.564  25.481  -9.046
  472XTA   HL2337279  -1.705  25.503  -8.936
  472XTA   HL2437280  -3.320  25.102  -9.900
  472XTA   HL2537281  -3.263  25.101 -10.068
  472XTA    CO637282  -1.514  25.283  -9.204
  472XTA    CO737283  -1.694  25.106  -9.189
  472XTA    OA537284  -1.465  25.217  -9.285
  472XTA   HL2637285  -1.467  25.256  -9.107
  472XTA   HL2737286  -1.499  25.384  -9.239
  472XTA   HL2837287  -1.656  25.038  -9.305
  472XTA   HL2937288  -1.625  25.075  -9.113
  473XTA     NT37289  -0.863  23.801  -8.947
  473XTA    CN137290  -0.741  23.801  -8.886
  473XTA     C137291  -0.626  23.833  -8.961
  473XTA     C237292  -0.507  23.852  -8.887
  473XTA     C337293  -0.502  23.825  -8.749
  473XTA     C437294  -0.613  23.782  -8.682
  473XTA     C537295  -0.736  23.768  -8.747
  473XTA    CN237296  -0.885  23.703  -9.031
  473XTA     C637297  -0.907  23.726  -9.170
  473XTA     C737298  -0.945  23.622  -9.257
  473XTA     C837299  -0.955  23.486  -9.212
  473XTA     C937300  -0.927  23.471  -9.074
  473XTA    C1037301  -0.888  23.571  -8.984
  473XTA    CN337302  -0.973  23.854  -8.893
  473XTA    C1137303  -1.057  23.773  -8.818
  473XTA    C1237304  -1.162  23.837  -8.750
  473XTA    C1337305  -1.183  23.979  -8.751
  473XTA    C1437306  -1.106  24.051  -8.843
  473XTA    C1537307  -0.999  23.989  -8.911
  473XTA     H137308  -0.617  23.845  -9.066
  473XTA     H237309  -0.416  23.875  -8.939
  473XTA     H337310  -0.599  23.752  -8.578
  473XTA     H437311  -0.826  23.747  -8.692
  473XTA     H537312  -0.894  23.830  -9.199
  473XTA     H637313  -0.968  23.655  -9.356
  473XTA     H737314  -0.939  23.370  -9.038
  473XTA     H837315  -0.874  23.548  -8.875
  473XTA     H937316  -1.044  23.667  -8.806
  473XTA    H1037317  -1.231  23.792  -8.678
  473XTA    H1137318  -1.119  24.156  -8.860
  473XTA    H1237319  -0.945  24.043  -8.993
  473XTA    OA137320  -0.388  23.830  -8.679
  473XTA    CO137321  -0.270  23.867  -8.733
  473XTA    OA237322  -0.981  23.378  -9.292
  473XTA    CO237323  -1.010  23.404  -9.430
  473XTA    CL137324  -1.035  23.273  -9.495
  473XTA    CL237325  -1.167  23.214  -9.447
  473XTA    CL337326  -1.214  23.099  -9.534
  473XTA    CL437327  -1.264  23.136  -9.674
  473XTA    CO337328  -1.394  23.217  -9.664
  473XTA    OA337329  -1.473  23.207  -9.781
  473XTA    CO437330  -1.605  23.273  -9.769
  473XTA    CT137331  -1.700  23.244  -9.886
  473XTA    CL537332  -1.682  23.333 -10.007
  473XTA    CL637333  -1.536  23.362 -10.042
  473XTA    OA437334  -1.289  24.022  -8.671
  473XTA    CO537335  -1.324  24.154  -8.702
  473XTA    HL137336  -1.342  24.172  -8.812
  473XTA    HL237337  -0.243  23.792  -8.805
  473XTA    HL337338  -0.296  23.961  -8.775
  473XTA    HL437339  -0.184  23.875  -8.663
  473XTA    HL537340  -1.095  23.470  -9.425
  473XTA    HL637341  -0.931  23.456  -9.477
  473XTA    HL737342  -0.951  23.213  -9.471
  473XTA    HL837343  -1.045  23.298  -9.601
  473XTA    HL937344  -1.248  23.285  -9.445
  473XTA   HL1037345  -1.160  23.169  -9.350
  473XTA   HL1137346  -1.137  23.021  -9.539
  473XTA   HL1237347  -1.300  23.056  -9.484
  473XTA   HL1337348  -1.269  23.042  -9.735
  473XTA   HL1437349  -1.192  23.200  -9.721
  473XTA   HL1537350  -1.451  23.182  -9.576
  473XTA   HL1637351  -1.365  23.315  -9.649
  473XTA   HL1737352  -1.646  23.232  -9.677
  473XTA   HL1837353  -1.591  23.385  -9.752
  473XTA   HL1937354  -1.725  23.432  -9.985
  473XTA   HL2037355  -1.729  23.281 -10.093
  473XTA   HL2137356  -1.495  23.276 -10.098
  473XTA   HL2237357  -1.469  23.389  -9.961
  473XTA   HL2337358  -1.533  23.451 -10.113
  473XTA   HL2437359  -1.256  24.222  -8.662
  473XTA   HL2537360  -1.421  24.172  -8.658
  473XTA    CO637361  -1.839  23.270  -9.846
  473XTA    CO737362  -1.674  23.098  -9.937
  473XTA    OA537363  -1.687  23.011  -9.861
  473XTA   HL2637364  -1.870  23.193  -9.769
  473XTA   HL2737365  -1.914  23.264  -9.970
  473XTA   HL2837366  -1.579  23.089  -9.982
  473XTA   HL2937367  -1.744  23.075 -10.018
  474XTA     NT37368  -0.913  24.988 -11.373
  474XTA    CN137369  -0.997  24.975 -11.468
  474XTA     C137370  -0.972  24.867 -11.552
  474XTA     C237371  -1.050  24.841 -11.666
  474XTA     C337372  -1.166  24.923 -11.696
  474XTA     C437373  -1.190  25.031 -11.612
  474XTA     C537374  -1.103  25.059 -11.503
  474XTA    CN237375  -0.795  25.053 -11.385
  474XTA     C637376  -0.674  24.977 -11.414
  474XTA     C737377  -0.556  25.045 -11.455
  474XTA     C837378  -0.553  25.184 -11.424
  474XTA     C937379  -0.667  25.254 -11.370
  474XTA    C1037380  -0.788  25.191 -11.360
  474XTA    CN337381  -0.961  24.942 -11.251
  474XTA    C1137382  -1.035  25.033 -11.176
  474XTA    C1237383  -1.097  24.987 -11.054
  474XTA    C1337384  -1.087  24.853 -11.006
  474XTA    C1437385  -1.021  24.759 -11.092
  474XTA    C1537386  -0.952  24.807 -11.207
  474XTA     H137387  -0.896  24.796 -11.529
  474XTA     H237388  -1.024  24.754 -11.725
  474XTA     H337389  -1.275  25.085 -11.636
  474XTA     H437390  -1.118  25.144 -11.434
  474XTA     H537391  -0.691  24.868 -11.419
  474XTA     H637392  -0.474  24.988 -11.501
  474XTA     H737393  -0.652  25.355 -11.328
  474XTA     H837394  -0.880  25.232 -11.321
  474XTA     H937395  -1.046  25.136 -11.211
  474XTA    H1037396  -1.153  25.069 -10.996
  474XTA    H1137397  -1.032  24.649 -11.080
  474XTA    H1237398  -0.893  24.746 -11.282
  474XTA    OA137399  -1.246  24.907 -11.805
  474XTA    CO137400  -1.194  24.840 -11.920
  474XTA    OA237401  -0.436  25.246 -11.458
  474XTA    CO237402  -0.392  25.240 -11.591
  474XTA    CL137403  -0.240  25.203 -11.605
  474XTA    CL237404  -0.177  25.174 -11.747
  474XTA    CL337405  -0.221  25.032 -11.788
  474XTA    CL437406  -0.179  24.917 -11.693
  474XTA    CO337407  -0.026  24.900 -11.658
  474XTA    OA337408  -0.002  24.802 -11.564
  474XTA    CO437409  -0.041  24.837 -11.428
  474XTA    CT137410   0.072  24.796 -11.338
  474XTA    CL537411   0.207  24.869 -11.377
  474XTA    CL637412   0.197  25.025 -11.392
  474XTA    OA437413  -1.161  24.818 -10.892
  474XTA    CO537414  -1.158  24.680 -10.856
  474XTA    HL137415  -1.058  24.639 -10.863
  474XTA    HL237416  -1.175  24.735 -11.890
  474XTA    HL337417  -1.254  24.848 -12.012
  474XTA    HL437418  -1.108  24.891 -11.957
  474XTA    HL537419  -0.445  25.159 -11.650
  474XTA    HL637420  -0.409  25.341 -11.635
  474XTA    HL737421  -0.215  25.121 -11.535
  474XTA    HL837422  -0.186  25.290 -11.569
  474XTA    HL937423  -0.072  25.170 -11.751
  474XTA   HL1037424  -0.224  25.246 -11.810
  474XTA   HL1137425  -0.331  25.040 -11.802
  474XTA   HL1237426  -0.169  25.007 -11.879
  474XTA   HL1337427  -0.233  24.825 -11.725
  474XTA   HL1437428  -0.225  24.933 -11.593
  474XTA   HL1537429   0.037  24.878 -11.741
  474XTA   HL1637430   0.010  25.003 -11.625
  474XTA   HL1737431  -0.070  24.944 -11.427
  474XTA   HL1837432  -0.131  24.777 -11.415
  474XTA   HL1937433   0.256  24.823 -11.465
  474XTA   HL2037434   0.271  24.830 -11.299
  474XTA   HL2137435   0.120  25.065 -11.324
  474XTA   HL2237436   0.165  25.050 -11.496
  474XTA   HL2337437   0.287  25.094 -11.391
  474XTA   HL2437438  -1.218  24.618 -10.921
  474XTA   HL2537439  -1.199  24.671 -10.759
  474XTA    CO637440   0.098  24.644 -11.342
  474XTA    CO737441   0.026  24.822 -11.193
  474XTA    OA537442   0.184  24.609 -11.288
  474XTA   HL2637443   0.102  24.613 -11.445
  474XTA   HL2737444   0.011  24.600 -11.299
  474XTA   HL2837445  -0.075  24.730 -11.167
  474XTA   HL2937446   0.099  24.806 -11.120
  475XTA     NT37447  -7.593  29.435 -12.433
  475XTA    CN137448  -7.541  29.379 -12.549
  475XTA     C137449  -7.408  29.336 -12.546
  475XTA     C237450  -7.349  29.275 -12.662
  475XTA     C337451  -7.418  29.265 -12.785
  475XTA     C437452  -7.548  29.316 -12.789
  475XTA     C537453  -7.609  29.373 -12.674
  475XTA    CN237454  -7.586  29.568 -12.408
  475XTA     C637455  -7.629  29.667 -12.500
  475XTA     C737456  -7.598  29.802 -12.478
  475XTA     C837457  -7.517  29.833 -12.371
  475XTA     C937458  -7.484  29.741 -12.274
  475XTA    C1037459  -7.514  29.605 -12.294
  475XTA    CN337460  -7.663  29.357 -12.350
  475XTA    C1137461  -7.801  29.377 -12.337
  475XTA    C1237462  -7.869  29.311 -12.236
  475XTA    C1337463  -7.810  29.219 -12.151
  475XTA    C1437464  -7.673  29.197 -12.172
  475XTA    C1537465  -7.595  29.269 -12.266
  475XTA     H137466  -7.346  29.351 -12.459
  475XTA     H237467  -7.244  29.251 -12.665
  475XTA     H337468  -7.600  29.315 -12.884
  475XTA     H437469  -7.712  29.409 -12.679
  475XTA     H537470  -7.681  29.636 -12.587
  475XTA     H637471  -7.627  29.875 -12.552
  475XTA     H737472  -7.424  29.763 -12.190
  475XTA     H837473  -7.485  29.527 -12.220
  475XTA     H937474  -7.847  29.452 -12.404
  475XTA    H1037475  -7.974  29.330 -12.212
  475XTA    H1137476  -7.625  29.135 -12.106
  475XTA    H1237477  -7.487  29.252 -12.277
  475XTA    OA137478  -7.359  29.217 -12.899
  475XTA    CO137479  -7.445  29.182 -13.008
  475XTA    OA237480  -7.469  29.963 -12.349
  475XTA    CO237481  -7.489  30.058 -12.452
  475XTA    CL137482  -7.434  30.190 -12.390
  475XTA    CL237483  -7.416  30.294 -12.498
  475XTA    CL337484  -7.547  30.338 -12.563
  475XTA    CL437485  -7.523  30.446 -12.667
  475XTA    CO337486  -7.647  30.473 -12.759
  475XTA    OA337487  -7.677  30.376 -12.865
  475XTA    CO437488  -7.813  30.387 -12.905
  475XTA    CT137489  -7.838  30.303 -13.027
  475XTA    CL537490  -7.746  30.364 -13.139
  475XTA    CL637491  -7.760  30.296 -13.280
  475XTA    OA437492  -7.870  29.158 -12.043
  475XTA    CO537493  -7.999  29.185 -12.008
  475XTA    HL137494  -8.072  29.160 -12.085
  475XTA    HL237495  -7.501  29.095 -12.971
  475XTA    HL337496  -7.503  29.256 -13.058
  475XTA    HL437497  -7.390  29.145 -13.093
  475XTA    HL537498  -7.440  30.036 -12.545
  475XTA    HL637499  -7.589  30.072 -12.483
  475XTA    HL737500  -7.341  30.171 -12.347
  475XTA    HL837501  -7.505  30.216 -12.309
  475XTA    HL937502  -7.343  30.259 -12.569
  475XTA   HL1037503  -7.376  30.386 -12.457
  475XTA   HL1137504  -7.577  30.245 -12.626
  475XTA   HL1237505  -7.633  30.367 -12.491
  475XTA   HL1337506  -7.440  30.423 -12.733
  475XTA   HL1437507  -7.487  30.537 -12.615
  475XTA   HL1537508  -7.734  30.499 -12.703
  475XTA   HL1637509  -7.625  30.559 -12.819
  475XTA   HL1737510  -7.883  30.352 -12.833
  475XTA   HL1837511  -7.837  30.492 -12.923
  475XTA   HL1937512  -7.642  30.365 -13.109
  475XTA   HL2037513  -7.766  30.469 -13.151
  475XTA   HL2137514  -7.861  30.296 -13.319
  475XTA   HL2237515  -7.737  30.189 -13.274
  475XTA   HL2337516  -7.714  30.352 -13.352
  475XTA   HL2437517  -8.009  29.293 -11.988
  475XTA   HL2537518  -8.036  29.137 -11.921
  475XTA    CO637519  -7.991  30.309 -13.062
  475XTA    CO737520  -7.804  30.155 -13.008
  475XTA    OA537521  -7.669  30.131 -12.959
  475XTA   HL2637522  -8.016  30.286 -13.166
  475XTA   HL2737523  -8.019  30.419 -13.065
  475XTA   HL2837524  -7.815  30.096 -13.103
  475XTA   HL2937525  -7.875  30.103 -12.941
  476XTA     NT37526  -2.273  24.971 -13.101
  476XTA    CN137527  -2.174  24.885 -13.130
  476XTA     C137528  -2.084  24.828 -13.039
  476XTA     C237529  -1.974  24.754 -13.076
  476XTA     C337530  -1.958  24.720 -13.209
  476XTA     C437531  -2.035  24.792 -13.307
  476XTA     C537532  -2.143  24.873 -13.270
  476XTA    CN237533  -2.229  25.086 -13.047
  476XTA     C637534  -2.228  25.114 -12.906
  476XTA     C737535  -2.181  25.234 -12.854
  476XTA     C837536  -2.150  25.338 -12.942
  476XTA     C937537  -2.151  25.311 -13.077
  476XTA    C1037538  -2.177  25.183 -13.135
  476XTA    CN337539  -2.397  24.922 -13.075
  476XTA    C1137540  -2.506  24.997 -13.118
  476XTA    C1237541  -2.634  24.944 -13.115
  476XTA    C1337542  -2.654  24.806 -13.074
  476XTA    C1437543  -2.546  24.729 -13.027
  476XTA    C1537544  -2.424  24.791 -13.020
  476XTA     H137545  -2.105  24.859 -12.932
  476XTA     H237546  -1.907  24.711 -13.004
  476XTA     H337547  -2.013  24.778 -13.413
  476XTA     H437548  -2.201  24.913 -13.350
  476XTA     H537549  -2.261  25.042 -12.830
  476XTA     H637550  -2.183  25.239 -12.748
  476XTA     H737551  -2.132  25.402 -13.140
  476XTA     H837552  -2.165  25.175 -13.244
  476XTA     H937553  -2.487  25.098 -13.149
  476XTA    H1037554  -2.717  25.005 -13.141
  476XTA    H1137555  -2.555  24.624 -12.992
  476XTA    H1237556  -2.343  24.741 -12.971
  476XTA    OA137557  -1.856  24.636 -13.236
  476XTA    CO137558  -1.764  24.699 -13.320
  476XTA    OA237559  -2.122  25.462 -12.893
  476XTA    CO237560  -2.070  25.481 -12.760
  476XTA    CL137561  -2.044  25.628 -12.746
  476XTA    CL237562  -1.994  25.678 -12.606
  476XTA    CL337563  -1.854  25.631 -12.573
  476XTA    CL437564  -1.805  25.694 -12.437
  476XTA    CO337565  -1.661  25.650 -12.405
  476XTA    OA337566  -1.611  25.735 -12.302
  476XTA    CO437567  -1.527  25.660 -12.213
  476XTA    CT137568  -1.440  25.740 -12.113
  476XTA    CL537569  -1.509  25.852 -12.029
  476XTA    CL637570  -1.588  25.958 -12.109
  476XTA    OA437571  -2.776  24.740 -13.070
  476XTA    CO537572  -2.880  24.828 -13.039
  476XTA    HL137573  -2.899  24.899 -13.118
  476XTA    HL237574  -1.673  24.648 -13.317
  476XTA    HL337575  -1.806  24.700 -13.422
  476XTA    HL437576  -1.743  24.799 -13.296
  476XTA    HL537577  -2.145  25.447 -12.692
  476XTA    HL637578  -1.981  25.422 -12.745
  476XTA    HL737579  -2.133  25.683 -12.762
  476XTA    HL837580  -1.972  25.666 -12.813
  476XTA    HL937581  -2.070  25.650 -12.528
  476XTA   HL1037582  -1.984  25.784 -12.602
  476XTA   HL1137583  -1.839  25.525 -12.570
  476XTA   HL1237584  -1.793  25.668 -12.656
  476XTA   HL1337585  -1.871  25.673 -12.351
  476XTA   HL1437586  -1.811  25.803 -12.460
  476XTA   HL1537587  -1.671  25.550 -12.364
  476XTA   HL1637588  -1.593  25.650 -12.498
  476XTA   HL1737589  -1.596  25.590 -12.159
  476XTA   HL1837590  -1.454  25.604 -12.272
  476XTA   HL1937591  -1.429  25.910 -11.987
  476XTA   HL2037592  -1.569  25.802 -11.945
  476XTA   HL2137593  -1.547  25.980 -12.205
  476XTA   HL2237594  -1.609  26.047 -12.042
  476XTA   HL2337595  -1.686  25.917 -12.122
  476XTA   HL2437596  -2.853  24.880 -12.949
  476XTA   HL2537597  -2.973  24.775 -13.015
  476XTA    CO637598  -1.330  25.801 -12.204
  476XTA    CO737599  -1.370  25.630 -12.025
  476XTA    OA537600  -1.297  25.693 -11.919
  476XTA   HL2637601  -1.371  25.873 -12.271
  476XTA   HL2737602  -1.262  25.851 -12.132
  476XTA   HL2837603  -1.324  25.556 -12.091
  476XTA   HL2937604  -1.442  25.572 -11.966
  477XTA     NT37605  -8.914  25.914  -6.209
  477XTA    CN137606  -8.956  26.022  -6.277
  477XTA     C137607  -9.050  26.115  -6.220
  477XTA     C237608  -9.104  26.216  -6.310
  477XTA     C337609  -9.049  26.239  -6.439
  477XTA     C437610  -8.951  26.151  -6.488
  477XTA     C537611  -8.907  26.043  -6.412
  477XTA    CN237612  -8.784  25.911  -6.183
  477XTA     C637613  -8.730  25.995  -6.079
  477XTA     C737614  -8.595  25.995  -6.051
  477XTA     C837615  -8.509  25.925  -6.142
  477XTA     C937616  -8.560  25.838  -6.237
  477XTA    C1037617  -8.697  25.834  -6.262
  477XTA    CN337618  -8.990  25.800  -6.201
  477XTA    C1137619  -9.053  25.764  -6.074
  477XTA    C1237620  -9.117  25.641  -6.069
  477XTA    C1337621  -9.136  25.557  -6.180
  477XTA    C1437622  -9.088  25.602  -6.306
  477XTA    C1537623  -9.014  25.722  -6.319
  477XTA     H137624  -9.081  26.115  -6.118
  477XTA     H237625  -9.183  26.277  -6.273
  477XTA     H337626  -8.911  26.169  -6.586
  477XTA     H437627  -8.850  25.966  -6.458
  477XTA     H537628  -8.804  26.041  -6.017
  477XTA     H637629  -8.566  26.058  -5.967
  477XTA     H737630  -8.490  25.777  -6.285
  477XTA     H837631  -8.736  25.770  -6.341
  477XTA     H937632  -9.042  25.825  -5.988
  477XTA    H1037633  -9.170  25.604  -5.984
  477XTA    H1137634  -9.104  25.556  -6.401
  477XTA    H1237635  -8.965  25.749  -6.414
  477XTA    OA137636  -9.103  26.344  -6.515
  477XTA    CO137637  -9.064  26.358  -6.649
  477XTA    OA237638  -8.375  25.932  -6.127
  477XTA    CO237639  -8.328  26.018  -6.015
  477XTA    CL137640  -8.170  26.021  -6.006
  477XTA    CL237641  -8.118  26.098  -6.125
  477XTA    CL337642  -7.967  26.099  -6.139
  477XTA    CL437643  -7.926  26.148  -6.276
  477XTA    CO337644  -7.798  26.085  -6.329
  477XTA    OA337645  -7.824  25.987  -6.425
  477XTA    CO437646  -7.902  25.877  -6.369
  477XTA    CT137647  -7.817  25.751  -6.356
  477XTA    CL537648  -7.791  25.695  -6.496
  477XTA    CL637649  -7.704  25.786  -6.592
  477XTA    OA437650  -9.194  25.436  -6.160
  477XTA    CO537651  -9.132  25.322  -6.220
  477XTA    HL137652  -9.188  25.240  -6.179
  477XTA    HL237653  -8.965  26.391  -6.663
  477XTA    HL337654  -9.078  26.262  -6.695
  477XTA    HL437655  -9.129  26.435  -6.686
  477XTA    HL537656  -8.359  26.124  -6.025
  477XTA    HL637657  -8.364  25.965  -5.926
  477XTA    HL737658  -8.140  25.916  -6.026
  477XTA    HL837659  -8.147  26.057  -5.905
  477XTA    HL937660  -8.168  26.192  -6.130
  477XTA   HL1037661  -8.148  26.051  -6.221
  477XTA   HL1137662  -7.911  26.157  -6.069
  477XTA   HL1237663  -7.933  25.996  -6.130
  477XTA   HL1337664  -7.909  26.254  -6.266
  477XTA   HL1437665  -8.003  26.127  -6.355
  477XTA   HL1537666  -7.749  26.162  -6.383
  477XTA   HL1637667  -7.734  26.053  -6.252
  477XTA   HL1737668  -7.960  25.905  -6.279
  477XTA   HL1837669  -7.973  25.864  -6.451
  477XTA   HL1937670  -7.885  25.669  -6.546
  477XTA   HL2037671  -7.738  25.600  -6.483
  477XTA   HL2137672  -7.663  25.732  -6.683
  477XTA   HL2237673  -7.619  25.826  -6.536
  477XTA   HL2337674  -7.756  25.873  -6.629
  477XTA   HL2437675  -9.033  25.313  -6.181
  477XTA   HL2537676  -9.138  25.319  -6.327
  477XTA    CO637677  -7.920  25.650  -6.295
  477XTA    CO737678  -7.695  25.770  -6.266
  477XTA    OA537679  -8.026  25.608  -6.380
  477XTA   HL2637680  -7.967  25.708  -6.218
  477XTA   HL2737681  -7.872  25.561  -6.246
  477XTA   HL2837682  -7.631  25.681  -6.276
  477XTA   HL2937683  -7.637  25.862  -6.292
  478XTA     NT37684  -2.820  30.521 -12.730
  478XTA    CN137685  -2.762  30.469 -12.623
  478XTA     C137686  -2.758  30.537 -12.503
  478XTA     C237687  -2.695  30.477 -12.389
  478XTA     C337688  -2.641  30.352 -12.402
  478XTA     C437689  -2.643  30.280 -12.526
  478XTA     C537690  -2.710  30.337 -12.637
  478XTA    CN237691  -2.953  30.494 -12.752
  478XTA     C637692  -3.002  30.402 -12.849
  478XTA     C737693  -3.141  30.392 -12.872
  478XTA     C837694  -3.235  30.460 -12.795
  478XTA     C937695  -3.187  30.547 -12.692
  478XTA    C1037696  -3.042  30.563 -12.677
  478XTA    CN337697  -2.739  30.569 -12.824
  478XTA    C1137698  -2.699  30.494 -12.935
  478XTA    C1237699  -2.621  30.555 -13.038
  478XTA    C1337700  -2.559  30.683 -13.018
  478XTA    C1437701  -2.605  30.758 -12.907
  478XTA    C1537702  -2.698  30.705 -12.815
  478XTA     H137703  -2.804  30.638 -12.495
  478XTA     H237704  -2.702  30.531 -12.296
  478XTA     H337705  -2.608  30.180 -12.543
  478XTA     H437706  -2.718  30.292 -12.730
  478XTA     H537707  -2.931  30.348 -12.917
  478XTA     H637708  -3.179  30.330 -12.949
  478XTA     H737709  -3.254  30.614 -12.641
  478XTA     H837710  -3.017  30.635 -12.600
  478XTA     H937711  -2.736  30.393 -12.943
  478XTA    H1037712  -2.588  30.490 -13.124
  478XTA    H1137713  -2.563  30.860 -12.889
  478XTA    H1237714  -2.732  30.763 -12.740
  478XTA    OA137715  -2.573  30.310 -12.287
  478XTA    CO137716  -2.494  30.187 -12.297
  478XTA    OA237717  -3.372  30.459 -12.818
  478XTA    CO237718  -3.461  30.454 -12.701
  478XTA    CL137719  -3.447  30.322 -12.620
  478XTA    CL237720  -3.459  30.334 -12.465
  478XTA    CL337721  -3.347  30.416 -12.398
  478XTA    CL437722  -3.208  30.364 -12.427
  478XTA    CO337723  -3.090  30.439 -12.355
  478XTA    OA337724  -3.141  30.453 -12.223
  478XTA    CO437725  -3.037  30.474 -12.127
  478XTA    CT137726  -3.010  30.338 -12.062
  478XTA    CL537727  -3.135  30.276 -12.002
  478XTA    CL637728  -3.199  30.360 -11.899
  478XTA    OA437729  -2.473  30.720 -13.115
  478XTA    CO537730  -2.370  30.628 -13.138
  478XTA    HL137731  -2.285  30.683 -13.174
  478XTA    HL237732  -2.543  30.095 -12.322
  478XTA    HL337733  -2.414  30.197 -12.368
  478XTA    HL437734  -2.438  30.171 -12.203
  478XTA    HL537735  -3.453  30.549 -12.647
  478XTA    HL637736  -3.558  30.456 -12.744
  478XTA    HL737737  -3.345  30.281 -12.630
  478XTA    HL837738  -3.524  30.262 -12.661
  478XTA    HL937739  -3.478  30.238 -12.425
  478XTA   HL1037740  -3.556  30.378 -12.433
  478XTA   HL1137741  -3.360  30.523 -12.410
  478XTA   HL1237742  -3.368  30.413 -12.291
  478XTA   HL1337743  -3.191  30.369 -12.532
  478XTA   HL1437744  -3.196  30.263 -12.378
  478XTA   HL1537745  -2.998  30.383 -12.353
  478XTA   HL1637746  -3.088  30.542 -12.403
  478XTA   HL1737747  -2.947  30.514 -12.177
  478XTA   HL1837748  -3.053  30.554 -12.060
  478XTA   HL1937749  -3.107  30.185 -11.960
  478XTA   HL2037750  -3.215  30.252 -12.073
  478XTA   HL2137751  -3.281  30.309 -11.850
  478XTA   HL2237752  -3.243  30.453 -11.945
  478XTA   HL2337753  -3.130  30.389 -11.817
  478XTA   HL2437754  -2.396  30.562 -13.218
  478XTA   HL2537755  -2.349  30.573 -13.048
  478XTA    CO637756  -2.899  30.355 -11.954
  478XTA    CO737757  -2.958  30.228 -12.153
  478XTA    OA537758  -2.773  30.383 -12.020
  478XTA   HL2637759  -2.905  30.277 -11.885
  478XTA   HL2737760  -2.915  30.443 -11.886
  478XTA   HL2837761  -2.876  30.266 -12.221
  478XTA   HL2937762  -3.037  30.202 -12.227
  479XTA     NT37763  -1.918  26.076  -5.467
  479XTA    CN137764  -1.788  26.046  -5.450
  479XTA     C137765  -1.740  25.971  -5.340
  479XTA     C237766  -1.602  25.926  -5.337
  479XTA     C337767  -1.511  25.980  -5.432
  479XTA     C437768  -1.561  26.057  -5.543
  479XTA     C537769  -1.696  26.094  -5.545
  479XTA    CN237770  -1.991  25.990  -5.548
  479XTA     C637771  -1.988  26.002  -5.692
  479XTA     C737772  -2.050  25.916  -5.780
  479XTA     C837773  -2.129  25.810  -5.730
  479XTA     C937774  -2.143  25.795  -5.590
  479XTA    C1037775  -2.079  25.890  -5.505
  479XTA    CN337776  -1.980  26.178  -5.398
  479XTA    C1137777  -2.042  26.285  -5.465
  479XTA    C1237778  -2.120  26.381  -5.392
  479XTA    C1337779  -2.139  26.376  -5.251
  479XTA    C1437780  -2.069  26.272  -5.187
  479XTA    C1537781  -1.992  26.178  -5.254
  479XTA     H137782  -1.811  25.944  -5.259
  479XTA     H237783  -1.563  25.860  -5.260
  479XTA     H337784  -1.489  26.087  -5.623
  479XTA     H437785  -1.723  26.150  -5.627
  479XTA     H537786  -1.939  26.089  -5.741
  479XTA     H637787  -2.040  25.914  -5.890
  479XTA     H737788  -2.214  25.720  -5.556
  479XTA     H837789  -2.096  25.886  -5.398
  479XTA     H937790  -2.043  26.280  -5.573
  479XTA    H1037791  -2.173  26.452  -5.447
  479XTA    H1137792  -2.067  26.273  -5.081
  479XTA    H1237793  -1.954  26.096  -5.190
  479XTA    OA137794  -1.381  25.939  -5.422
  479XTA    CO137795  -1.291  26.000  -5.518
  479XTA    OA237796  -2.204  25.714  -5.806
  479XTA    CO237797  -2.193  25.717  -5.944
  479XTA    CL137798  -2.305  25.634  -6.010
  479XTA    CL237799  -2.325  25.665  -6.158
  479XTA    CL337800  -2.426  25.780  -6.183
  479XTA    CL437801  -2.411  25.840  -6.332
  479XTA    CO337802  -2.322  25.966  -6.337
  479XTA    OA337803  -2.184  25.947  -6.303
  479XTA    CO437804  -2.129  25.857  -6.396
  479XTA    CT137805  -1.974  25.855  -6.403
  479XTA    CL537806  -1.902  25.807  -6.277
  479XTA    CL637807  -1.937  25.873  -6.141
  479XTA    OA437808  -2.222  26.470  -5.195
  479XTA    CO537809  -2.261  26.448  -5.063
  479XTA    HL137810  -2.176  26.445  -4.995
  479XTA    HL237811  -1.276  26.105  -5.498
  479XTA    HL337812  -1.192  25.962  -5.496
  479XTA    HL437813  -1.313  25.971  -5.623
  479XTA    HL537814  -2.196  25.818  -5.996
  479XTA    HL637815  -2.096  25.678  -5.965
  479XTA    HL737816  -2.395  25.666  -5.960
  479XTA    HL837817  -2.282  25.526  -6.000
  479XTA    HL937818  -2.361  25.577  -6.212
  479XTA   HL1037819  -2.225  25.691  -6.205
  479XTA   HL1137820  -2.528  25.740  -6.167
  479XTA   HL1237821  -2.404  25.851  -6.110
  479XTA   HL1337822  -2.512  25.860  -6.389
  479XTA   HL1437823  -2.371  25.761  -6.397
  479XTA   HL1537824  -2.327  26.010  -6.438
  479XTA   HL1637825  -2.365  26.045  -6.280
  479XTA   HL1737826  -2.163  25.754  -6.375
  479XTA   HL1837827  -2.161  25.895  -6.496
  479XTA   HL1937828  -1.797  25.808  -6.288
  479XTA   HL2037829  -1.922  25.705  -6.249
  479XTA   HL2137830  -1.903  25.977  -6.137
  479XTA   HL2237831  -1.892  25.811  -6.063
  479XTA   HL2337832  -2.041  25.887  -6.129
  479XTA   HL2437833  -2.311  26.352  -5.052
  479XTA   HL2537834  -2.333  26.523  -5.027
  479XTA    CO637835  -1.920  25.992  -6.450
  479XTA    CO737836  -1.939  25.754  -6.511
  479XTA    OA537837  -1.972  26.036  -6.577
  479XTA   HL2637838  -1.810  26.007  -6.441
  479XTA   HL2737839  -1.957  26.058  -6.373
  479XTA   HL2837840  -1.961  25.793  -6.610
  479XTA   HL2937841  -1.825  25.762  -6.519
  480XTA     NT37842  -1.799  27.663  -6.074
  480XTA    CN137843  -1.902  27.712  -6.011
  480XTA     C137844  -1.915  27.852  -5.973
  480XTA     C237845  -2.029  27.891  -5.905
  480XTA     C337846  -2.132  27.800  -5.866
  480XTA     C437847  -2.115  27.664  -5.900
  480XTA     C537848  -1.999  27.617  -5.973
  480XTA    CN237849  -1.788  27.679  -6.208
  480XTA     C637850  -1.737  27.799  -6.265
  480XTA     C737851  -1.712  27.809  -6.402
  480XTA     C837852  -1.734  27.702  -6.487
  480XTA     C937853  -1.785  27.581  -6.429
  480XTA    C1037854  -1.811  27.570  -6.292
  480XTA    CN337855  -1.684  27.639  -5.998
  480XTA    C1137856  -1.577  27.733  -5.997
  480XTA    C1237857  -1.457  27.707  -5.918
  480XTA    C1337858  -1.438  27.582  -5.861
  480XTA    C1437859  -1.541  27.489  -5.859
  480XTA    C1537860  -1.660  27.514  -5.934
  480XTA     H137861  -1.839  27.927  -5.993
  480XTA     H237862  -2.044  27.995  -5.867
  480XTA     H337863  -2.185  27.595  -5.863
  480XTA     H437864  -1.993  27.510  -6.003
  480XTA     H537865  -1.716  27.884  -6.203
  480XTA     H637866  -1.660  27.901  -6.437
  480XTA     H737867  -1.804  27.492  -6.494
  480XTA     H837868  -1.867  27.489  -6.242
  480XTA     H937869  -1.590  27.826  -6.053
  480XTA    H1037870  -1.382  27.779  -5.917
  480XTA    H1137871  -1.517  27.389  -5.815
  480XTA    H1237872  -1.733  27.437  -5.930
  480XTA    OA137873  -2.239  27.855  -5.797
  480XTA    CO137874  -2.357  27.773  -5.771
  480XTA    OA237875  -1.700  27.712  -6.618
  480XTA    CO237876  -1.620  27.820  -6.665
  480XTA    CL137877  -1.540  27.786  -6.791
  480XTA    CL237878  -1.640  27.754  -6.905
  480XTA    CL337879  -1.663  27.885  -6.992
  480XTA    CL437880  -1.795  27.934  -6.940
  480XTA    CO337881  -1.857  28.040  -7.035
  480XTA    OA337882  -1.994  28.052  -6.995
  480XTA    CO437883  -2.056  28.141  -7.091
  480XTA    CT137884  -2.209  28.171  -7.070
  480XTA    CL537885  -2.253  28.271  -7.175
  480XTA    CL637886  -2.205  28.236  -7.317
  480XTA    OA437887  -1.315  27.542  -5.803
  480XTA    CO537888  -1.209  27.639  -5.808
  480XTA    HL137889  -1.128  27.624  -5.735
  480XTA    HL237890  -2.437  27.831  -5.725
  480XTA    HL337891  -2.386  27.725  -5.866
  480XTA    HL437892  -2.324  27.695  -5.705
  480XTA    HL537893  -1.690  27.904  -6.691
  480XTA    HL637894  -1.550  27.864  -6.590
  480XTA    HL737895  -1.475  27.699  -6.781
  480XTA    HL837896  -1.471  27.867  -6.799
  480XTA    HL937897  -1.727  27.694  -6.878
  480XTA   HL1037898  -1.600  27.695  -6.982
  480XTA   HL1137899  -1.580  27.952  -6.970
  480XTA   HL1237900  -1.663  27.854  -7.097
  480XTA   HL1337901  -1.779  27.979  -6.835
  480XTA   HL1437902  -1.856  27.850  -6.931
  480XTA   HL1537903  -1.798  28.132  -7.021
  480XTA   HL1637904  -1.853  28.002  -7.137
  480XTA   HL1737905  -2.004  28.235  -7.086
  480XTA   HL1837906  -2.040  28.094  -7.186
  480XTA   HL1937907  -2.194  28.362  -7.150
  480XTA   HL2037908  -2.362  28.300  -7.181
  480XTA   HL2137909  -2.188  28.137  -7.342
  480XTA   HL2237910  -2.103  28.275  -7.323
  480XTA   HL2337911  -2.268  28.288  -7.389
  480XTA   HL2437912  -1.243  27.731  -5.774
  480XTA   HL2537913  -1.158  27.642  -5.903
  480XTA    CO637914  -2.240  28.226  -6.932
  480XTA    CO737915  -2.288  28.040  -7.089
  480XTA    OA537916  -2.372  28.290  -6.920
  480XTA   HL2637917  -2.183  28.311  -6.914
  480XTA   HL2737918  -2.216  28.158  -6.848
  480XTA   HL2837919  -2.258  28.006  -7.184
  480XTA   HL2937920  -2.250  27.962  -7.022
  481XTA     NT37921  -5.454  26.919  -5.189
  481XTA    CN137922  -5.550  26.835  -5.138
  481XTA     C137923  -5.638  26.786  -5.236
  481XTA     C237924  -5.741  26.697  -5.192
  481XTA     C337925  -5.751  26.664  -5.054
  481XTA     C437926  -5.661  26.711  -4.962
  481XTA     C537927  -5.560  26.801  -5.007
  481XTA    CN237928  -5.487  27.052  -5.197
  481XTA     C637929  -5.557  27.108  -5.306
  481XTA     C737930  -5.597  27.242  -5.299
  481XTA     C837931  -5.573  27.327  -5.189
  481XTA     C937932  -5.501  27.273  -5.080
  481XTA    C1037933  -5.459  27.137  -5.089
  481XTA    CN337934  -5.325  26.877  -5.173
  481XTA    C1137935  -5.257  26.830  -5.284
  481XTA    C1237936  -5.122  26.777  -5.274
  481XTA    C1337937  -5.060  26.768  -5.148
  481XTA    C1437938  -5.128  26.823  -5.035
  481XTA    C1537939  -5.259  26.875  -5.050
  481XTA     H137940  -5.628  26.812  -5.342
  481XTA     H237941  -5.789  26.632  -5.267
  481XTA     H337942  -5.661  26.687  -4.857
  481XTA     H437943  -5.503  26.851  -4.934
  481XTA     H537944  -5.580  27.042  -5.390
  481XTA     H637945  -5.643  27.278  -5.387
  481XTA     H737946  -5.481  27.331  -4.990
  481XTA     H837947  -5.394  27.101  -5.002
  481XTA     H937948  -5.312  26.825  -5.379
  481XTA    H1037949  -5.059  26.751  -5.357
  481XTA    H1137950  -5.076  26.819  -4.938
  481XTA    H1237951  -5.317  26.904  -4.962
  481XTA    OA137952  -5.857  26.584  -5.012
  481XTA    CO137953  -5.851  26.511  -4.891
  481XTA    OA237954  -5.618  27.457  -5.176
  481XTA    CO237955  -5.697  27.515  -5.280
  481XTA    CL137956  -5.776  27.625  -5.209
  481XTA    CL237957  -5.838  27.724  -5.310
  481XTA    CL337958  -5.937  27.670  -5.413
  481XTA    CL437959  -6.036  27.766  -5.478
  481XTA    CO337960  -6.149  27.683  -5.526
  481XTA    OA337961  -6.100  27.616  -5.636
  481XTA    CO437962  -6.191  27.541  -5.714
  481XTA    CT137963  -6.109  27.474  -5.831
  481XTA    CL537964  -6.012  27.366  -5.770
  481XTA    CL637965  -5.946  27.288  -5.873
  481XTA    OA437966  -4.933  26.722  -5.140
  481XTA    CO537967  -4.843  26.801  -5.063
  481XTA    HL137968  -4.846  26.906  -5.108
  481XTA    HL237969  -5.775  26.432  -4.903
  481XTA    HL337970  -5.835  26.578  -4.810
  481XTA    HL437971  -5.954  26.476  -4.881
  481XTA    HL537972  -5.621  27.560  -5.347
  481XTA    HL637973  -5.758  27.444  -5.343
  481XTA    HL737974  -5.707  27.684  -5.143
  481XTA    HL837975  -5.850  27.579  -5.154
  481XTA    HL937976  -5.755  27.780  -5.354
  481XTA   HL1037977  -5.895  27.803  -5.253
  481XTA   HL1137978  -5.872  27.636  -5.500
  481XTA   HL1237979  -5.983  27.583  -5.368
  481XTA   HL1337980  -5.989  27.833  -5.554
  481XTA   HL1437981  -6.077  27.848  -5.406
  481XTA   HL1537982  -6.189  27.616  -5.452
  481XTA   HL1637983  -6.222  27.753  -5.570
  481XTA   HL1737984  -6.242  27.472  -5.646
  481XTA   HL1837985  -6.259  27.617  -5.756
  481XTA   HL1937986  -6.072  27.299  -5.704
  481XTA   HL2037987  -5.933  27.415  -5.710
  481XTA   HL2137988  -5.881  27.349  -5.936
  481XTA   HL2237989  -6.016  27.233  -5.935
  481XTA   HL2337990  -5.878  27.214  -5.828
  481XTA   HL2437991  -4.734  26.770  -5.068
  481XTA   HL2537992  -4.868  26.804  -4.958
  481XTA    CO637993  -6.039  27.585  -5.907
  481XTA    CO737994  -6.213  27.417  -5.917
  481XTA    OA537995  -6.092  27.675  -5.933
  481XTA   HL2637996  -5.989  27.535  -5.984
  481XTA   HL2737997  -5.959  27.613  -5.834
  481XTA   HL2837998  -6.315  27.510  -5.945
  481XTA   HL2937999  -6.162  27.391  -6.007
  482XTA     NT38000  -2.737  24.770  -8.602
  482XTA    CN138001  -2.778  24.757  -8.732
  482XTA     C138002  -2.915  24.761  -8.769
  482XTA     C238003  -2.959  24.758  -8.901
  482XTA     C338004  -2.861  24.757  -9.002
  482XTA     C438005  -2.721  24.752  -8.975
  482XTA     C538006  -2.687  24.750  -8.840
  482XTA    CN238007  -2.747  24.892  -8.533
  482XTA     C638008  -2.808  24.904  -8.407
  482XTA     C738009  -2.804  25.027  -8.336
  482XTA     C838010  -2.729  25.135  -8.380
  482XTA     C938011  -2.662  25.115  -8.508
  482XTA    C1038012  -2.682  24.999  -8.587
  482XTA    CN338013  -2.691  24.659  -8.535
  482XTA    C1138014  -2.573  24.664  -8.459
  482XTA    C1238015  -2.520  24.550  -8.397
  482XTA    C1338016  -2.591  24.428  -8.399
  482XTA    C1438017  -2.701  24.419  -8.483
  482XTA    C1538018  -2.754  24.531  -8.547
  482XTA     H138019  -2.988  24.763  -8.689
  482XTA     H238020  -3.069  24.761  -8.924
  482XTA     H338021  -2.640  24.753  -9.049
  482XTA     H438022  -2.574  24.744  -8.822
  482XTA     H538023  -2.851  24.812  -8.355
  482XTA     H638024  -2.851  25.027  -8.238
  482XTA     H738025  -2.605  25.195  -8.552
  482XTA     H838026  -2.633  25.004  -8.686
  482XTA     H938027  -2.530  24.760  -8.433
  482XTA    H1038028  -2.438  24.564  -8.328
  482XTA    H1138029  -2.742  24.322  -8.503
  482XTA    H1238030  -2.840  24.522  -8.605
  482XTA    OA138031  -2.905  24.747  -9.131
  482XTA    CO138032  -2.807  24.710  -9.227
  482XTA    OA238033  -2.704  25.248  -8.308
  482XTA    CO238034  -2.617  25.343  -8.359
  482XTA    CL138035  -2.613  25.463  -8.267
  482XTA    CL238036  -2.502  25.564  -8.304
  482XTA    CL338037  -2.503  25.691  -8.226
  482XTA    CL438038  -2.632  25.776  -8.246
  482XTA    CO338039  -2.613  25.890  -8.349
  482XTA    OA338040  -2.550  25.831  -8.465
  482XTA    CO438041  -2.527  25.919  -8.577
  482XTA    CT138042  -2.483  25.841  -8.698
  482XTA    CL538043  -2.598  25.756  -8.756
  482XTA    CL638044  -2.718  25.838  -8.809
  482XTA    OA438045  -2.544  24.315  -8.347
  482XTA    CO538046  -2.453  24.323  -8.238
  482XTA    HL138047  -2.429  24.223  -8.188
  482XTA    HL238048  -2.753  24.614  -9.200
  482XTA    HL338049  -2.843  24.692  -9.330
  482XTA    HL438050  -2.748  24.802  -9.231
  482XTA    HL538051  -2.512  25.305  -8.369
  482XTA    HL638052  -2.668  25.377  -8.449
  482XTA    HL738053  -2.602  25.414  -8.172
  482XTA    HL838054  -2.715  25.508  -8.259
  482XTA    HL938055  -2.523  25.588  -8.406
  482XTA   HL1038056  -2.403  25.520  -8.299
  482XTA   HL1138057  -2.505  25.652  -8.125
  482XTA   HL1238058  -2.404  25.744  -8.232
  482XTA   HL1338059  -2.651  25.825  -8.156
  482XTA   HL1438060  -2.720  25.715  -8.266
  482XTA   HL1538061  -2.708  25.938  -8.376
  482XTA   HL1638062  -2.542  25.963  -8.314
  482XTA   HL1738063  -2.622  25.968  -8.584
  482XTA   HL1838064  -2.455  25.987  -8.544
  482XTA   HL1938065  -2.637  25.691  -8.676
  482XTA   HL2038066  -2.553  25.693  -8.835
  482XTA   HL2138067  -2.702  25.888  -8.904
  482XTA   HL2238068  -2.769  25.892  -8.725
  482XTA   HL2338069  -2.798  25.760  -8.825
  482XTA   HL2438070  -2.495  24.383  -8.157
  482XTA   HL2538071  -2.361  24.373  -8.275
  482XTA    CO638072  -2.365  25.753  -8.649
  482XTA    CO738073  -2.419  25.939  -8.803
  482XTA    OA538074  -2.319  25.702  -8.735
  482XTA   HL2638075  -2.411  25.687  -8.579
  482XTA   HL2738076  -2.283  25.810  -8.611
  482XTA   HL2838077  -2.284  25.959  -8.774
  482XTA   HL2938078  -2.435  25.883  -8.897
  483XTA     NT38079  -4.125  27.544 -10.627
  483XTA    CN138080  -3.999  27.491 -10.623
  483XTA     C138081  -3.888  27.561 -10.688
  483XTA     C238082  -3.755  27.512 -10.675
  483XTA     C338083  -3.728  27.395 -10.602
  483XTA     C438084  -3.842  27.325 -10.552
  483XTA     C538085  -3.966  27.381 -10.542
  483XTA    CN238086  -4.194  27.510 -10.741
  483XTA     C638087  -4.199  27.373 -10.777
  483XTA     C738088  -4.244  27.338 -10.904
  483XTA     C838089  -4.292  27.437 -10.998
  483XTA     C938090  -4.285  27.576 -10.961
  483XTA    C1038091  -4.233  27.607 -10.833
  483XTA    CN338092  -4.174  27.632 -10.536
  483XTA    C1138093  -4.135  27.764 -10.529
  483XTA    C1238094  -4.187  27.845 -10.429
  483XTA    C1338095  -4.282  27.802 -10.340
  483XTA    C1438096  -4.326  27.670 -10.350
  483XTA    C1538097  -4.273  27.582 -10.450
  483XTA     H138098  -3.905  27.652 -10.749
  483XTA     H238099  -3.673  27.570 -10.720
  483XTA     H338100  -3.825  27.224 -10.507
  483XTA     H438101  -4.041  27.323 -10.491
  483XTA     H538102  -4.157  27.294 -10.713
  483XTA     H638103  -4.258  27.232 -10.936
  483XTA     H738104  -4.312  27.657 -11.028
  483XTA     H838105  -4.222  27.712 -10.804
  483XTA     H938106  -4.065  27.814 -10.598
  483XTA    H1038107  -4.147  27.943 -10.423
  483XTA    H1138108  -4.394  27.628 -10.274
  483XTA    H1238109  -4.300  27.482 -10.451
  483XTA    OA138110  -3.602  27.355 -10.584
  483XTA    CO138111  -3.564  27.283 -10.463
  483XTA    OA238112  -4.337  27.411 -11.125
  483XTA    CO238113  -4.369  27.275 -11.141
  483XTA    CL138114  -4.413  27.256 -11.287
  483XTA    CL238115  -4.458  27.113 -11.313
  483XTA    CL338116  -4.613  27.109 -11.307
  483XTA    CL438117  -4.660  27.133 -11.160
  483XTA    CO338118  -4.807  27.095 -11.134
  483XTA    OA338119  -4.831  27.131 -10.999
  483XTA    CO438120  -4.790  27.033 -10.901
  483XTA    CT138121  -4.821  27.074 -10.756
  483XTA    CL538122  -4.724  27.183 -10.709
  483XTA    CL638123  -4.576  27.151 -10.713
  483XTA    OA438124  -4.325  27.879 -10.233
  483XTA    CO538125  -4.328  28.014 -10.246
  483XTA    HL138126  -4.379  28.028 -10.345
  483XTA    HL238127  -3.470  27.242 -10.474
  483XTA    HL338128  -3.546  27.345 -10.378
  483XTA    HL438129  -3.633  27.202 -10.440
  483XTA    HL538130  -4.285  27.204 -11.125
  483XTA    HL638131  -4.441  27.240 -11.069
  483XTA    HL738132  -4.327  27.277 -11.353
  483XTA    HL838133  -4.496  27.317 -11.316
  483XTA    HL938134  -4.417  27.034 -11.243
  483XTA   HL1038135  -4.424  27.082 -11.416
  483XTA   HL1138136  -4.658  27.182 -11.377
  483XTA   HL1238137  -4.642  27.009 -11.353
  483XTA   HL1338138  -4.637  27.244 -11.130
  483XTA   HL1438139  -4.596  27.087 -11.094
  483XTA   HL1538140  -4.882  27.152 -11.200
  483XTA   HL1638141  -4.829  26.993 -11.153
  483XTA   HL1738142  -4.835  26.938 -10.914
  483XTA   HL1838143  -4.681  27.023 -10.902
  483XTA   HL1938144  -4.745  27.221 -10.603
  483XTA   HL2038145  -4.742  27.273 -10.774
  483XTA   HL2138146  -4.508  27.232 -10.694
  483XTA   HL2238147  -4.538  27.104 -10.799
  483XTA   HL2338148  -4.555  27.080 -10.628
  483XTA   HL2438149  -4.229  28.052 -10.252
  483XTA   HL2538150  -4.397  28.060 -10.186
  483XTA    CO638151  -4.813  26.951 -10.662
  483XTA    CO738152  -4.971  27.130 -10.759
  483XTA    OA538153  -4.985  27.186 -10.629
  483XTA   HL2638154  -4.810  26.991 -10.560
  483XTA   HL2738155  -4.914  26.910 -10.664
  483XTA   HL2838156  -5.040  27.052 -10.789
  483XTA   HL2938157  -4.991  27.215 -10.820
  484XTA     NT38158  -0.102  24.007 -11.519
  484XTA    CN138159  -0.111  24.008 -11.383
  484XTA     C138160  -0.161  23.889 -11.318
  484XTA     C238161  -0.174  23.880 -11.181
  484XTA     C338162  -0.140  24.000 -11.104
  484XTA     C438163  -0.102  24.115 -11.164
  484XTA     C538164  -0.088  24.118 -11.304
  484XTA    CN238165  -0.188  24.066 -11.596
  484XTA     C638166  -0.139  24.135 -11.709
  484XTA     C738167  -0.222  24.221 -11.781
  484XTA     C838168  -0.351  24.254 -11.738
  484XTA     C938169  -0.394  24.189 -11.623
  484XTA    C1038170  -0.316  24.099 -11.552
  484XTA    CN338171  -0.010  23.928 -11.579
  484XTA    C1138172  -0.036  23.789 -11.605
  484XTA    C1238173   0.064  23.708 -11.652
  484XTA    C1338174   0.196  23.757 -11.677
  484XTA    C1438175   0.221  23.893 -11.657
  484XTA    C1538176   0.123  23.977 -11.601
  484XTA     H138177  -0.199  23.809 -11.371
  484XTA     H238178  -0.209  23.783 -11.144
  484XTA     H338179  -0.091  24.203 -11.105
  484XTA     H438180  -0.051  24.203 -11.353
  484XTA     H538181  -0.038  24.128 -11.742
  484XTA     H638182  -0.188  24.280 -11.863
  484XTA     H738183  -0.500  24.198 -11.590
  484XTA     H838184  -0.361  24.050 -11.465
  484XTA     H938185  -0.128  23.741 -11.579
  484XTA    H1038186   0.048  23.605 -11.682
  484XTA    H1138187   0.317  23.929 -11.691
  484XTA    H1238188   0.137  24.079 -11.591
  484XTA    OA138189  -0.160  24.004 -10.972
  484XTA    CO138190  -0.166  23.878 -10.920
  484XTA    OA238191  -0.416  24.350 -11.805
  484XTA    CO238192  -0.555  24.358 -11.790
  484XTA    CL138193  -0.648  24.261 -11.864
  484XTA    CL238194  -0.679  24.132 -11.796
  484XTA    CL338195  -0.777  24.043 -11.871
  484XTA    CL438196  -0.900  24.015 -11.788
  484XTA    CO338197  -0.999  23.951 -11.877
  484XTA    OA338198  -1.046  24.049 -11.973
  484XTA    CO438199  -1.165  24.011 -12.040
  484XTA    CT138200  -1.182  24.100 -12.166
  484XTA    CL538201  -1.274  24.031 -12.266
  484XTA    CL638202  -1.405  23.988 -12.208
  484XTA    OA438203   0.295  23.672 -11.727
  484XTA    CO538204   0.256  23.563 -11.800
  484XTA    HL138205   0.173  23.585 -11.875
  484XTA    HL238206  -0.173  23.893 -10.809
  484XTA    HL338207  -0.257  23.823 -10.933
  484XTA    HL438208  -0.080  23.819 -10.946
  484XTA    HL538209  -0.588  24.386 -11.683
  484XTA    HL638210  -0.567  24.451 -11.852
  484XTA    HL738211  -0.597  24.257 -11.964
  484XTA    HL838212  -0.734  24.318 -11.872
  484XTA    HL938213  -0.709  24.145 -11.692
  484XTA   HL1038214  -0.584  24.080 -11.792
  484XTA   HL1138215  -0.805  24.089 -11.969
  484XTA   HL1238216  -0.724  23.960 -11.899
  484XTA   HL1338217  -0.944  24.107 -11.747
  484XTA   HL1438218  -0.869  23.950 -11.710
  484XTA   HL1538219  -0.954  23.862 -11.922
  484XTA   HL1638220  -1.079  23.911 -11.811
  484XTA   HL1738221  -1.145  23.906 -12.077
  484XTA   HL1838222  -1.260  24.007 -11.979
  484XTA   HL1938223  -1.217  23.940 -12.305
  484XTA   HL2038224  -1.288  24.086 -12.356
  484XTA   HL2138225  -1.402  23.957 -12.109
  484XTA   HL2238226  -1.452  23.912 -12.266
  484XTA   HL2338227  -1.463  24.086 -12.215
  484XTA   HL2438228   0.215  23.499 -11.723
  484XTA   HL2538229   0.353  23.513 -11.845
  484XTA    CO638230  -1.045  24.115 -12.241
  484XTA    CO738231  -1.226  24.251 -12.135
  484XTA    OA538232  -1.329  24.269 -12.040
  484XTA   HL2638233  -1.066  24.175 -12.332
  484XTA   HL2738234  -0.994  24.189 -12.186
  484XTA   HL2838235  -1.248  24.306 -12.233
  484XTA   HL2938236  -1.144  24.305 -12.097
  485XTA     NT38237  -0.682  25.705  -5.546
  485XTA    CN138238  -0.812  25.710  -5.583
  485XTA     C138239  -0.835  25.729  -5.722
  485XTA     C238240  -0.968  25.739  -5.768
  485XTA     C338241  -1.072  25.735  -5.672
  485XTA     C438242  -1.048  25.710  -5.534
  485XTA     C538243  -0.914  25.690  -5.494
  485XTA    CN238244  -0.602  25.812  -5.508
  485XTA     C638245  -0.491  25.789  -5.428
  485XTA     C738246  -0.398  25.892  -5.410
  485XTA     C838247  -0.417  26.020  -5.460
  485XTA     C938248  -0.531  26.047  -5.534
  485XTA    C1038249  -0.626  25.945  -5.561
  485XTA    CN338250  -0.609  25.596  -5.581
  485XTA    C1138251  -0.615  25.480  -5.504
  485XTA    C1238252  -0.547  25.360  -5.536
  485XTA    C1338253  -0.491  25.347  -5.665
  485XTA    C1438254  -0.475  25.464  -5.744
  485XTA    C1538255  -0.537  25.584  -5.701
  485XTA     H138256  -0.743  25.726  -5.786
  485XTA     H238257  -0.980  25.765  -5.867
  485XTA     H338258  -1.129  25.698  -5.471
  485XTA     H438259  -0.892  25.664  -5.390
  485XTA     H538260  -0.469  25.701  -5.372
  485XTA     H638261  -0.315  25.885  -5.339
  485XTA     H738262  -0.547  26.148  -5.579
  485XTA     H838263  -0.715  25.966  -5.620
  485XTA     H938264  -0.680  25.497  -5.413
  485XTA    H1038265  -0.562  25.272  -5.476
  485XTA    H1138266  -0.436  25.460  -5.842
  485XTA    H1238267  -0.528  25.661  -5.771
  485XTA    OA138268  -1.202  25.748  -5.706
  485XTA    CO138269  -1.235  25.740  -5.841
  485XTA    OA238270  -0.336  26.127  -5.455
  485XTA    CO238271  -0.207  26.105  -5.398
  485XTA    CL138272  -0.123  26.226  -5.412
  485XTA    CL238273   0.000  26.214  -5.323
  485XTA    CL338274   0.098  26.100  -5.380
  485XTA    CL438275   0.076  25.972  -5.303
  485XTA    CO338276   0.183  25.867  -5.294
  485XTA    OA338277   0.189  25.780  -5.417
  485XTA    CO438278   0.100  25.666  -5.406
  485XTA    CT138279   0.021  25.634  -5.535
  485XTA    CL538280  -0.090  25.528  -5.516
  485XTA    CL638281  -0.188  25.559  -5.404
  485XTA    OA438282  -0.443  25.230  -5.719
  485XTA    CO538283  -0.456  25.108  -5.640
  485XTA    HL138284  -0.417  25.031  -5.710
  485XTA    HL238285  -1.206  25.827  -5.905
  485XTA    HL338286  -1.195  25.645  -5.878
  485XTA    HL438287  -1.346  25.730  -5.844
  485XTA    HL538288  -0.218  26.074  -5.290
  485XTA    HL638289  -0.160  26.022  -5.440
  485XTA    HL738290  -0.177  26.317  -5.368
  485XTA    HL838291  -0.099  26.240  -5.512
  485XTA    HL938292  -0.026  26.193  -5.219
  485XTA   HL1038293   0.058  26.303  -5.314
  485XTA   HL1138294   0.085  26.091  -5.487
  485XTA   HL1238295   0.204  26.128  -5.369
  485XTA   HL1338296  -0.020  25.925  -5.325
  485XTA   HL1438297   0.064  25.998  -5.202
  485XTA   HL1538298   0.279  25.916  -5.275
  485XTA   HL1638299   0.163  25.788  -5.219
  485XTA   HL1738300   0.150  25.572  -5.379
  485XTA   HL1838301   0.023  25.687  -5.336
  485XTA   HL1938302  -0.045  25.436  -5.493
  485XTA   HL2038303  -0.128  25.520  -5.616
  485XTA   HL2138304  -0.255  25.472  -5.402
  485XTA   HL2238305  -0.233  25.655  -5.422
  485XTA   HL2338306  -0.143  25.566  -5.302
  485XTA   HL2438307  -0.553  25.085  -5.591
  485XTA   HL2538308  -0.382  25.109  -5.556
  485XTA    CO638309   0.116  25.581  -5.643
  485XTA    CO738310  -0.054  25.766  -5.590
  485XTA    OA538311  -0.143  25.744  -5.694
  485XTA   HL2638312   0.172  25.492  -5.618
  485XTA   HL2738313   0.046  25.545  -5.708
  485XTA   HL2838314   0.024  25.833  -5.625
  485XTA   HL2938315  -0.106  25.815  -5.510
  486XTA     NT38316  -2.600  25.947 -13.159
  486XTA    CN138317  -2.721  25.993 -13.192
  486XTA     C138318  -2.766  26.113 -13.135
  486XTA     C238319  -2.891  26.165 -13.179
  486XTA     C338320  -2.972  26.095 -13.262
  486XTA     C438321  -2.934  25.970 -13.309
  486XTA     C538322  -2.806  25.926 -13.278
  486XTA    CN238323  -2.497  26.012 -13.216
  486XTA     C638324  -2.460  25.981 -13.345
  486XTA     C738325  -2.351  26.052 -13.403
  486XTA     C838326  -2.280  26.149 -13.327
  486XTA     C938327  -2.319  26.172 -13.194
  486XTA    C1038328  -2.432  26.113 -13.144
  486XTA    CN338329  -2.581  25.842 -13.078
  486XTA    C1138330  -2.649  25.831 -12.951
  486XTA    C1238331  -2.618  25.722 -12.865
  486XTA    C1338332  -2.517  25.633 -12.897
  486XTA    C1438333  -2.468  25.631 -13.030
  486XTA    C1538334  -2.503  25.736 -13.121
  486XTA     H138335  -2.714  26.168 -13.058
  486XTA     H238336  -2.925  26.265 -13.147
  486XTA     H338337  -2.994  25.914 -13.379
  486XTA     H438338  -2.772  25.832 -13.318
  486XTA     H538339  -2.517  25.907 -13.395
  486XTA     H638340  -2.320  26.037 -13.511
  486XTA     H738341  -2.260  26.244 -13.127
  486XTA     H838342  -2.457  26.142 -13.041
  486XTA     H938343  -2.711  25.916 -12.926
  486XTA    H1038344  -2.649  25.723 -12.764
  486XTA    H1138345  -2.385  25.567 -13.052
  486XTA    H1238346  -2.450  25.740 -13.214
  486XTA    OA138347  -3.102  26.128 -13.298
  486XTA    CO138348  -3.154  26.247 -13.234
  486XTA    OA238349  -2.190  26.235 -13.382
  486XTA    CO238350  -2.133  26.209 -13.510
  486XTA    CL138351  -2.039  26.330 -13.524
  486XTA    CL238352  -1.925  26.322 -13.413
  486XTA    CL338353  -1.825  26.436 -13.422
  486XTA    CL438354  -1.751  26.452 -13.291
  486XTA    CO338355  -1.841  26.506 -13.181
  486XTA    OA338356  -1.768  26.525 -13.068
  486XTA    CO438357  -1.835  26.604 -12.973
  486XTA    CT138358  -1.754  26.601 -12.843
  486XTA    CL538359  -1.641  26.702 -12.842
  486XTA    CL638360  -1.685  26.840 -12.862
  486XTA    OA438361  -2.475  25.538 -12.802
  486XTA    CO538362  -2.441  25.591 -12.678
  486XTA    HL138363  -2.379  25.683 -12.678
  486XTA    HL238364  -3.261  26.263 -13.257
  486XTA    HL338365  -3.143  26.228 -13.124
  486XTA    HL438366  -3.097  26.334 -13.263
  486XTA    HL538367  -2.083  26.109 -13.512
  486XTA    HL638368  -2.206  26.203 -13.587
  486XTA    HL738369  -2.102  26.419 -13.513
  486XTA    HL838370  -2.017  26.324 -13.625
  486XTA    HL938371  -1.885  26.221 -13.438
  486XTA   HL1038372  -1.968  26.311 -13.312
  486XTA   HL1138373  -1.751  26.423 -13.505
  486XTA   HL1238374  -1.873  26.534 -13.454
  486XTA   HL1338375  -1.668  26.520 -13.315
  486XTA   HL1438376  -1.704  26.359 -13.256
  486XTA   HL1538377  -1.885  26.596 -13.213
  486XTA   HL1638378  -1.920  26.441 -13.163
  486XTA   HL1738379  -1.863  26.702 -13.005
  486XTA   HL1838380  -1.923  26.542 -12.961
  486XTA   HL1938381  -1.585  26.665 -12.932
  486XTA   HL2038382  -1.579  26.700 -12.754
  486XTA   HL2138383  -1.598  26.892 -12.892
  486XTA   HL2238384  -1.726  26.886 -12.773
  486XTA   HL2338385  -1.765  26.844 -12.946
  486XTA   HL2438386  -2.527  25.630 -12.622
  486XTA   HL2538387  -2.389  25.526 -12.610
  486XTA    CO638388  -1.699  26.453 -12.827
  486XTA    CO738389  -1.856  26.622 -12.732
  486XTA    OA538390  -1.636  26.453 -12.698
  486XTA   HL2638391  -1.617  26.432 -12.897
  486XTA   HL2738392  -1.779  26.377 -12.833
  486XTA   HL2838393  -1.925  26.540 -12.742
  486XTA   HL2938394  -1.901  26.714 -12.758
  487XTA     NT38395  -1.881  30.577  -7.813
  487XTA    CN138396  -1.921  30.529  -7.931
  487XTA     C138397  -1.965  30.618  -8.033
  487XTA     C238398  -2.019  30.561  -8.152
  487XTA     C338399  -2.022  30.417  -8.174
  487XTA     C438400  -1.977  30.334  -8.070
  487XTA     C538401  -1.931  30.389  -7.951
  487XTA    CN238402  -1.966  30.627  -7.721
  487XTA     C638403  -1.936  30.748  -7.659
  487XTA     C738404  -2.020  30.798  -7.557
  487XTA     C838405  -2.140  30.728  -7.524
  487XTA     C938406  -2.174  30.610  -7.592
  487XTA    C1038407  -2.086  30.564  -7.684
  487XTA    CN338408  -1.748  30.577  -7.786
  487XTA    C1138409  -1.691  30.477  -7.709
  487XTA    C1238410  -1.550  30.478  -7.680
  487XTA    C1338411  -1.469  30.577  -7.736
  487XTA    C1438412  -1.536  30.688  -7.803
  487XTA    C1538413  -1.672  30.686  -7.829
  487XTA     H138414  -1.976  30.724  -8.014
  487XTA     H238415  -2.072  30.625  -8.215
  487XTA     H338416  -1.962  30.226  -8.089
  487XTA     H438417  -1.894  30.321  -7.880
  487XTA     H538418  -1.853  30.807  -7.692
  487XTA     H638419  -1.991  30.890  -7.515
  487XTA     H738420  -2.258  30.553  -7.573
  487XTA     H838421  -2.101  30.471  -7.731
  487XTA     H938422  -1.751  30.400  -7.660
  487XTA    H1038423  -1.505  30.403  -7.609
  487XTA    H1138424  -1.482  30.773  -7.834
  487XTA    H1238425  -1.730  30.762  -7.882
  487XTA    OA138426  -2.054  30.349  -8.291
  487XTA    CO138427  -2.091  30.432  -8.407
  487XTA    OA238428  -2.224  30.794  -7.439
  487XTA    CO238429  -2.326  30.709  -7.384
  487XTA    CL138430  -2.419  30.804  -7.291
  487XTA    CL238431  -2.534  30.725  -7.236
  487XTA    CL338432  -2.613  30.802  -7.132
  487XTA    CL438433  -2.701  30.706  -7.050
  487XTA    CO338434  -2.833  30.682  -7.116
  487XTA    OA338435  -2.901  30.796  -7.143
  487XTA    CO438436  -3.012  30.773  -7.225
  487XTA    CT138437  -3.013  30.872  -7.345
  487XTA    CL538438  -3.037  31.021  -7.305
  487XTA    CL638439  -3.163  31.051  -7.232
  487XTA    OA438440  -1.334  30.582  -7.708
  487XTA    CO538441  -1.258  30.637  -7.814
  487XTA    HL138442  -1.160  30.649  -7.784
  487XTA    HL238443  -2.106  30.388  -8.505
  487XTA    HL338444  -2.174  30.493  -8.371
  487XTA    HL438445  -2.009  30.497  -8.417
  487XTA    HL538446  -2.394  30.684  -7.472
  487XTA    HL638447  -2.292  30.619  -7.329
  487XTA    HL738448  -2.469  30.883  -7.346
  487XTA    HL838449  -2.366  30.851  -7.213
  487XTA    HL938450  -2.495  30.636  -7.187
  487XTA   HL1038451  -2.591  30.692  -7.315
  487XTA   HL1138452  -2.545  30.853  -7.062
  487XTA   HL1238453  -2.659  30.888  -7.180
  487XTA   HL1338454  -2.729  30.768  -6.977
  487XTA   HL1438455  -2.638  30.620  -7.018
  487XTA   HL1538456  -2.819  30.617  -7.199
  487XTA   HL1638457  -2.900  30.615  -7.053
  487XTA   HL1738458  -3.014  30.669  -7.259
  487XTA   HL1838459  -3.109  30.777  -7.172
  487XTA   HL1938460  -3.044  31.075  -7.400
  487XTA   HL2038461  -2.944  31.053  -7.260
  487XTA   HL2138462  -3.171  30.997  -7.143
  487XTA   HL2238463  -3.242  31.028  -7.303
  487XTA   HL2338464  -3.165  31.160  -7.206
  487XTA   HL2438465  -1.289  30.734  -7.847
  487XTA   HL2538466  -1.272  30.562  -7.896
  487XTA    CO638467  -3.131  30.825  -7.432
  487XTA    CO738468  -2.883  30.854  -7.427
  487XTA    OA538469  -3.148  30.903  -7.511
  487XTA   HL2638470  -3.222  30.813  -7.374
  487XTA   HL2738471  -3.110  30.733  -7.474
  487XTA   HL2838472  -2.781  30.836  -7.334
  487XTA   HL2938473  -2.882  30.759  -7.474
  488XTA     NT38474  -2.475  29.816 -10.039
  488XTA    CN138475  -2.527  29.822 -10.161
  488XTA     C138476  -2.445  29.801 -10.275
  488XTA     C238477  -2.492  29.838 -10.401
  488XTA     C338478  -2.626  29.893 -10.419
  488XTA     C438479  -2.707  29.901 -10.302
  488XTA     C538480  -2.662  29.868 -10.173
  488XTA    CN238481  -2.416  29.929  -9.992
  488XTA     C638482  -2.457  29.979  -9.869
  488XTA     C738483  -2.403  30.105  -9.831
  488XTA     C838484  -2.293  30.164  -9.902
  488XTA     C938485  -2.259  30.104 -10.026
  488XTA    C1038486  -2.315  29.990 -10.066
  488XTA    CN338487  -2.449  29.693  -9.979
  488XTA    C1138488  -2.315  29.673  -9.936
  488XTA    C1238489  -2.277  29.546  -9.888
  488XTA    C1338490  -2.377  29.455  -9.853
  488XTA    C1438491  -2.516  29.479  -9.887
  488XTA    C1538492  -2.553  29.595  -9.958
  488XTA     H138493  -2.349  29.760 -10.258
  488XTA     H238494  -2.426  29.833 -10.486
  488XTA     H338495  -2.801  29.941 -10.293
  488XTA     H438496  -2.726  29.888 -10.087
  488XTA     H538497  -2.529  29.932  -9.800
  488XTA     H638498  -2.432  30.151  -9.738
  488XTA     H738499  -2.191  30.158 -10.094
  488XTA     H838500  -2.280  29.945 -10.156
  488XTA     H938501  -2.233  29.741  -9.955
  488XTA    H1038502  -2.172  29.526  -9.860
  488XTA    H1138503  -2.596  29.405  -9.875
  488XTA    H1238504  -2.655  29.612 -10.000
  488XTA    OA138505  -2.673  29.941 -10.543
  488XTA    CO138506  -2.804  29.995 -10.531
  488XTA    OA238507  -2.250  30.285  -9.853
  488XTA    CO238508  -2.150  30.354  -9.925
  488XTA    CL138509  -2.130  30.494  -9.863
  488XTA    CL238510  -2.238  30.594  -9.890
  488XTA    CL338511  -2.229  30.641 -10.035
  488XTA    CL438512  -2.320  30.769 -10.061
  488XTA    CO338513  -2.269  30.901 -10.021
  488XTA    OA338514  -2.251  30.903  -9.878
  488XTA    CO438515  -2.197  31.025  -9.829
  488XTA    CT138516  -2.052  31.014  -9.771
  488XTA    CL538517  -1.965  31.139  -9.782
  488XTA    CL638518  -1.928  31.161  -9.929
  488XTA    OA438519  -2.343  29.338  -9.790
  488XTA    CO538520  -2.206  29.320  -9.754
  488XTA    HL138521  -2.190  29.226  -9.712
  488XTA    HL238522  -2.814  30.079 -10.470
  488XTA    HL338523  -2.825  30.023 -10.637
  488XTA    HL438524  -2.879  29.923 -10.511
  488XTA    HL538525  -2.051  30.309  -9.944
  488XTA    HL638526  -2.191  30.367 -10.027
  488XTA    HL738527  -2.038  30.533  -9.905
  488XTA    HL838528  -2.118  30.478  -9.756
  488XTA    HL938529  -2.254  30.682  -9.834
  488XTA   HL1038530  -2.341  30.553  -9.877
  488XTA   HL1138531  -2.126  30.666 -10.054
  488XTA   HL1238532  -2.263  30.567 -10.106
  488XTA   HL1338533  -2.416  30.758 -10.007
  488XTA   HL1438534  -2.361  30.772 -10.165
  488XTA   HL1538535  -2.183  30.942 -10.072
  488XTA   HL1638536  -2.348  30.979 -10.038
  488XTA   HL1738537  -2.192  31.099  -9.908
  488XTA   HL1838538  -2.258  31.067  -9.753
  488XTA   HL1938539  -1.876  31.131  -9.723
  488XTA   HL2038540  -2.018  31.220  -9.741
  488XTA   HL2138541  -1.872  31.077  -9.974
  488XTA   HL2238542  -1.875  31.256  -9.943
  488XTA   HL2338543  -2.021  31.184  -9.985
  488XTA   HL2438544  -2.176  29.396  -9.690
  488XTA   HL2538545  -2.139  29.321  -9.836
  488XTA    CO638546  -1.994  30.888  -9.837
  488XTA    CO738547  -2.056  30.984  -9.617
  488XTA    OA538548  -1.870  30.847  -9.783
  488XTA   HL2638549  -1.995  30.914  -9.943
  488XTA   HL2738550  -2.060  30.807  -9.824
  488XTA   HL2838551  -2.124  31.063  -9.586
  488XTA   HL2938552  -2.110  30.902  -9.607
  489XTA     NT38553  -7.524  29.552  -9.965
  489XTA    CN138554  -7.562  29.441  -9.896
  489XTA     C138555  -7.479  29.388  -9.799
  489XTA     C238556  -7.512  29.276  -9.724
  489XTA     C338557  -7.633  29.214  -9.750
  489XTA     C438558  -7.722  29.265  -9.846
  489XTA     C538559  -7.680  29.376  -9.923
  489XTA    CN238560  -7.602  29.666  -9.957
  489XTA     C638561  -7.645  29.721 -10.085
  489XTA     C738562  -7.712  29.846 -10.096
  489XTA     C838563  -7.751  29.909  -9.972
  489XTA     C938564  -7.722  29.847  -9.850
  489XTA    C1038565  -7.640  29.733  -9.841
  489XTA    CN338566  -7.422  29.535 -10.054
  489XTA    C1138567  -7.421  29.440 -10.157
  489XTA    C1238568  -7.306  29.428 -10.237
  489XTA    C1338569  -7.188  29.503 -10.214
  489XTA    C1438570  -7.187  29.589 -10.107
  489XTA    C1538571  -7.301  29.607 -10.027
  489XTA     H138572  -7.377  29.423  -9.797
  489XTA     H238573  -7.442  29.231  -9.664
  489XTA     H338574  -7.820  29.225  -9.883
  489XTA     H438575  -7.744  29.419 -10.000
  489XTA     H538576  -7.624  29.669 -10.182
  489XTA     H638577  -7.721  29.893 -10.194
  489XTA     H738578  -7.757  29.890  -9.759
  489XTA     H838579  -7.617  29.692  -9.747
  489XTA     H938580  -7.501  29.370 -10.173
  489XTA    H1038581  -7.305  29.349 -10.309
  489XTA    H1138582  -7.100  29.649 -10.080
  489XTA    H1238583  -7.291  29.678  -9.946
  489XTA    OA138584  -7.686  29.117  -9.668
  489XTA    CO138585  -7.630  29.104  -9.540
  489XTA    OA238586  -7.812  30.028  -9.968
  489XTA    CO238587  -7.895  30.057 -10.077
  489XTA    CL138588  -7.980  30.176 -10.019
  489XTA    CL238589  -8.043  30.160  -9.874
  489XTA    CL338590  -8.081  30.014  -9.840
  489XTA    CL438591  -8.190  29.988  -9.734
  489XTA    CO338592  -8.191  29.840  -9.691
  489XTA    OA338593  -8.203  29.755  -9.804
  489XTA    CO438594  -8.190  29.616  -9.788
  489XTA    CT138595  -8.219  29.546  -9.924
  489XTA    CL538596  -8.095  29.520 -10.007
  489XTA    CL638597  -8.010  29.647 -10.029
  489XTA    OA438598  -7.080  29.504 -10.301
  489XTA    CO538599  -7.059  29.394 -10.397
  489XTA    HL138600  -7.149  29.403 -10.462
  489XTA    HL238601  -7.528  29.080  -9.538
  489XTA    HL338602  -7.642  29.188  -9.477
  489XTA    HL438603  -7.701  29.020  -9.507
  489XTA    HL538604  -7.829  30.096 -10.158
  489XTA    HL638605  -7.971  29.984 -10.103
  489XTA    HL738606  -8.057  30.202 -10.090
  489XTA    HL838607  -7.913  30.260 -10.031
  489XTA    HL938608  -8.126  30.230  -9.872
  489XTA   HL1038609  -7.976  30.202  -9.800
  489XTA   HL1138610  -8.095  29.963  -9.937
  489XTA   HL1238611  -7.993  29.960  -9.810
  489XTA   HL1338612  -8.292  30.006  -9.769
  489XTA   HL1438613  -8.184  30.043  -9.647
  489XTA   HL1538614  -8.102  29.826  -9.627
  489XTA   HL1638615  -8.273  29.821  -9.615
  489XTA   HL1738616  -8.098  29.582  -9.740
  489XTA   HL1838617  -8.264  29.600  -9.707
  489XTA   HL1938618  -8.119  29.484 -10.109
  489XTA   HL2038619  -8.030  29.446  -9.951
  489XTA   HL2138620  -7.985  29.697  -9.938
  489XTA   HL2238621  -8.059  29.719 -10.095
  489XTA   HL2338622  -7.915  29.624 -10.072
  489XTA   HL2438623  -7.062  29.294 -10.351
  489XTA   HL2538624  -6.963  29.393 -10.448
  489XTA    CO638625  -8.320  29.626 -10.009
  489XTA    CO738626  -8.287  29.410  -9.901
  489XTA    OA538627  -8.308  29.366 -10.003
  489XTA   HL2638628  -8.292  29.725 -10.047
  489XTA   HL2738629  -8.354  29.554 -10.124
  489XTA   HL2838630  -8.380  29.430  -9.843
  489XTA   HL2938631  -8.235  29.348  -9.829
  490XTA     NT38632  -6.900  24.052  -8.818
  490XTA    CN138633  -6.788  24.007  -8.754
  490XTA     C138634  -6.657  24.034  -8.797
  490XTA     C238635  -6.549  23.992  -8.726
  490XTA     C338636  -6.564  23.915  -8.610
  490XTA     C438637  -6.697  23.886  -8.568
  490XTA     C538638  -6.811  23.932  -8.641
  490XTA    CN238639  -6.963  24.161  -8.764
  490XTA     C638640  -6.906  24.286  -8.773
  490XTA     C738641  -6.974  24.408  -8.732
  490XTA     C838642  -7.098  24.390  -8.671
  490XTA     C938643  -7.157  24.263  -8.661
  490XTA    C1038644  -7.091  24.146  -8.711
  490XTA    CN338645  -6.915  24.037  -8.955
  490XTA    C1138646  -7.006  23.942  -9.015
  490XTA    C1238647  -7.016  23.929  -9.155
  490XTA    C1338648  -6.940  24.017  -9.236
  490XTA    C1438649  -6.846  24.100  -9.181
  490XTA    C1538650  -6.849  24.128  -9.042
  490XTA     H138651  -6.647  24.099  -8.880
  490XTA     H238652  -6.449  24.016  -8.753
  490XTA     H338653  -6.705  23.834  -8.477
  490XTA     H438654  -6.908  23.909  -8.608
  490XTA     H538655  -6.802  24.307  -8.804
  490XTA     H638656  -6.935  24.507  -8.752
  490XTA     H738657  -7.251  24.258  -8.607
  490XTA     H838658  -7.125  24.043  -8.705
  490XTA     H938659  -7.050  23.870  -8.943
  490XTA    H1038660  -7.084  23.862  -9.208
  490XTA    H1138661  -6.776  24.156  -9.245
  490XTA    H1238662  -6.795  24.208  -9.002
  490XTA    OA138663  -6.459  23.880  -8.533
  490XTA    CO138664  -6.462  23.950  -8.410
  490XTA    OA238665  -7.159  24.492  -8.614
  490XTA    CO238666  -7.251  24.560  -8.698
  490XTA    CL138667  -7.348  24.655  -8.617
  490XTA    CL238668  -7.435  24.579  -8.521
  490XTA    CL338669  -7.550  24.503  -8.591
  490XTA    CL438670  -7.613  24.398  -8.498
  490XTA    CO338671  -7.517  24.289  -8.437
  490XTA    OA338672  -7.578  24.167  -8.413
  490XTA    CO438673  -7.677  24.176  -8.318
  490XTA    CT138674  -7.696  24.032  -8.263
  490XTA    CL538675  -7.720  23.945  -8.388
  490XTA    CL638676  -7.765  23.795  -8.358
  490XTA    OA438677  -6.965  24.030  -9.368
  490XTA    CO538678  -7.106  24.028  -9.409
  490XTA    HL138679  -7.159  23.935  -9.393
  490XTA    HL238680  -6.376  23.940  -8.353
  490XTA    HL338681  -6.481  24.055  -8.422
  490XTA    HL438682  -6.539  23.904  -8.346
  490XTA    HL538683  -7.193  24.624  -8.764
  490XTA    HL638684  -7.309  24.489  -8.757
  490XTA    HL738685  -7.421  24.720  -8.675
  490XTA    HL838686  -7.292  24.721  -8.564
  490XTA    HL938687  -7.485  24.646  -8.445
  490XTA   HL1038688  -7.367  24.521  -8.467
  490XTA   HL1138689  -7.617  24.576  -8.640
  490XTA   HL1238690  -7.525  24.446  -8.681
  490XTA   HL1338691  -7.681  24.344  -8.562
  490XTA   HL1438692  -7.687  24.448  -8.433
  490XTA   HL1538693  -7.426  24.274  -8.495
  490XTA   HL1638694  -7.485  24.324  -8.342
  490XTA   HL1738695  -7.648  24.234  -8.230
  490XTA   HL1838696  -7.771  24.217  -8.369
  490XTA   HL1938697  -7.628  23.932  -8.451
  490XTA   HL2038698  -7.780  23.988  -8.469
  490XTA   HL2138699  -7.778  23.734  -8.453
  490XTA   HL2238700  -7.872  23.803  -8.339
  490XTA   HL2338701  -7.707  23.730  -8.292
  490XTA   HL2438702  -7.093  24.037  -9.514
  490XTA   HL2538703  -7.170  24.107  -9.358
  490XTA    CO638704  -7.819  24.037  -8.170
  490XTA    CO738705  -7.575  23.972  -8.184
  490XTA    OA538706  -7.491  23.967  -8.249
  490XTA   HL2638707  -7.828  23.943  -8.125
  490XTA   HL2738708  -7.799  24.118  -8.055
  490XTA   HL2838709  -7.604  23.873  -8.149
  490XTA   HL2938710  -7.551  24.032  -8.094
  491XTA     NT38711  -6.322  24.287  -9.198
  491XTA    CN138712  -6.208  24.335  -9.256
  491XTA     C138713  -6.121  24.254  -9.326
  491XTA     C238714  -6.004  24.305  -9.388
  491XTA     C338715  -5.970  24.440  -9.370
  491XTA     C438716  -6.063  24.523  -9.298
  491XTA     C538717  -6.188  24.470  -9.252
  491XTA    CN238718  -6.413  24.236  -9.274
  491XTA     C638719  -6.443  24.101  -9.259
  491XTA     C738720  -6.522  24.034  -9.360
  491XTA     C838721  -6.595  24.106  -9.456
  491XTA     C938722  -6.573  24.245  -9.462
  491XTA    C1038723  -6.484  24.311  -9.375
  491XTA    CN338724  -6.345  24.303  -9.061
  491XTA    C1138725  -6.446  24.392  -9.021
  491XTA    C1238726  -6.486  24.396  -8.888
  491XTA    C1338727  -6.412  24.329  -8.796
  491XTA    C1438728  -6.303  24.249  -8.828
  491XTA    C1538729  -6.268  24.228  -8.969
  491XTA     H138730  -6.147  24.155  -9.326
  491XTA     H238731  -5.942  24.236  -9.456
  491XTA     H338732  -6.058  24.628  -9.294
  491XTA     H438733  -6.258  24.523  -9.203
  491XTA     H538734  -6.383  24.044  -9.188
  491XTA     H638735  -6.532  23.928  -9.353
  491XTA     H738736  -6.614  24.292  -9.546
  491XTA     H838737  -6.459  24.418  -9.389
  491XTA     H938738  -6.516  24.437  -9.097
  491XTA    H1038739  -6.563  24.461  -8.857
  491XTA    H1138740  -6.254  24.187  -8.757
  491XTA    H1238741  -6.199  24.152  -9.002
  491XTA    OA138742  -5.864  24.500  -9.424
  491XTA    CO138743  -5.800  24.427  -9.526
  491XTA    OA238744  -6.673  24.029  -9.544
  491XTA    CO238745  -6.678  24.069  -9.672
  491XTA    CL138746  -6.761  23.980  -9.765
  491XTA    CL238747  -6.705  23.835  -9.772
  491XTA    CL338748  -6.767  23.755  -9.886
  491XTA    CL438749  -6.727  23.783 -10.034
  491XTA    CO338750  -6.814  23.882 -10.110
  491XTA    OA338751  -6.944  23.822 -10.116
  491XTA    CO438752  -7.044  23.921 -10.143
  491XTA    CT138753  -7.174  23.848 -10.193
  491XTA    CL538754  -7.294  23.941 -10.197
  491XTA    CL638755  -7.284  24.072 -10.277
  491XTA    OA438756  -6.446  24.354  -8.662
  491XTA    CO538757  -6.353  24.311  -8.567
  491XTA    HL138758  -6.355  24.359  -8.473
  491XTA    HL238759  -5.748  24.493  -9.594
  491XTA    HL338760  -5.738  24.354  -9.482
  491XTA    HL438761  -5.870  24.383  -9.594
  491XTA    HL538762  -6.722  24.163  -9.682
  491XTA    HL638763  -6.582  24.073  -9.726
  491XTA    HL738764  -6.779  24.029  -9.853
  491XTA    HL838765  -6.868  23.982  -9.738
  491XTA    HL938766  -6.715  23.778  -9.682
  491XTA   HL1038767  -6.602  23.832  -9.786
  491XTA   HL1138768  -6.732  23.653  -9.862
  491XTA   HL1238769  -6.875  23.755  -9.891
  491XTA   HL1338770  -6.725  23.688 -10.097
  491XTA   HL1438771  -6.620  23.818 -10.037
  491XTA   HL1538772  -6.809  23.986 -10.067
  491XTA   HL1638773  -6.767  23.897 -10.205
  491XTA   HL1738774  -7.056  23.979 -10.050
  491XTA   HL1838775  -7.015  23.997 -10.215
  491XTA   HL1938776  -7.343  23.971 -10.097
  491XTA   HL2038777  -7.380  23.892 -10.251
  491XTA   HL2138778  -7.374  24.130 -10.251
  491XTA   HL2238779  -7.278  24.069 -10.382
  491XTA   HL2338780  -7.210  24.146 -10.236
  491XTA   HL2438781  -6.250  24.324  -8.602
  491XTA   HL2538782  -6.364  24.205  -8.547
  491XTA    CO638783  -7.226  23.742 -10.089
  491XTA    CO738784  -7.142  23.772 -10.324
  491XTA    OA538785  -7.152  23.651 -10.085
  491XTA   HL2638786  -7.338  23.712 -10.102
  491XTA   HL2738787  -7.235  23.788  -9.990
  491XTA   HL2838788  -7.071  23.652 -10.299
  491XTA   HL2938789  -7.074  23.842 -10.379
  492XTA     NT38790  -6.028  23.928  -8.220
  492XTA    CN138791  -6.032  23.977  -8.350
  492XTA     C138792  -5.986  24.107  -8.387
  492XTA     C238793  -5.979  24.141  -8.523
  492XTA     C338794  -6.020  24.048  -8.623
  492XTA     C438795  -6.077  23.927  -8.591
  492XTA     C538796  -6.093  23.897  -8.451
  492XTA    CN238797  -6.138  23.915  -8.148
  492XTA     C638798  -6.191  24.026  -8.084
  492XTA     C738799  -6.306  24.010  -8.005
  492XTA     C838800  -6.368  23.884  -7.998
  492XTA     C938801  -6.316  23.772  -8.064
  492XTA    C1038802  -6.197  23.789  -8.137
  492XTA    CN338803  -5.915  23.886  -8.161
  492XTA    C1138804  -5.850  23.766  -8.204
  492XTA    C1238805  -5.727  23.727  -8.135
  492XTA    C1338806  -5.667  23.809  -8.035
  492XTA    C1438807  -5.735  23.924  -7.998
  492XTA    C1538808  -5.854  23.965  -8.059
  492XTA     H138809  -5.960  24.183  -8.317
  492XTA     H238810  -5.922  24.225  -8.558
  492XTA     H338811  -6.112  23.854  -8.667
  492XTA     H438812  -6.128  23.797  -8.426
  492XTA     H538813  -6.131  24.117  -8.066
  492XTA     H638814  -6.358  24.092  -7.959
  492XTA     H738815  -6.367  23.674  -8.050
  492XTA     H838816  -6.162  23.708  -8.202
  492XTA     H938817  -5.883  23.705  -8.288
  492XTA    H1038818  -5.681  23.641  -8.174
  492XTA    H1138819  -5.696  23.997  -7.929
  492XTA    H1238820  -5.907  24.058  -8.033
  492XTA    OA138821  -6.001  24.074  -8.754
  492XTA    CO138822  -5.983  24.210  -8.788
  492XTA    OA238823  -6.496  23.879  -7.952
  492XTA    CO238824  -6.605  23.905  -8.051
  492XTA    CL138825  -6.616  24.046  -8.095
  492XTA    CL238826  -6.719  24.070  -8.202
  492XTA    CL338827  -6.732  24.215  -8.240
  492XTA    CL438828  -6.842  24.241  -8.346
  492XTA    CO338829  -6.826  24.378  -8.406
  492XTA    OA338830  -6.889  24.479  -8.324
  492XTA    CO438831  -6.904  24.597  -8.403
  492XTA    CT138832  -7.002  24.690  -8.323
  492XTA    CL538833  -6.927  24.747  -8.201
  492XTA    CL638834  -7.017  24.821  -8.103
  492XTA    OA438835  -5.545  23.793  -7.986
  492XTA    CO538836  -5.498  23.655  -7.987
  492XTA    HL138837  -5.481  23.626  -8.093
  492XTA    HL238838  -6.059  24.272  -8.749
  492XTA    HL338839  -5.880  24.249  -8.760
  492XTA    HL438840  -5.980  24.224  -8.895
  492XTA    HL538841  -6.607  23.839  -8.138
  492XTA    HL638842  -6.690  23.872  -7.997
  492XTA    HL738843  -6.525  24.075  -8.135
  492XTA    HL838844  -6.652  24.108  -8.013
  492XTA    HL938845  -6.818  24.027  -8.157
  492XTA   HL1038846  -6.690  24.022  -8.295
  492XTA   HL1138847  -6.749  24.271  -8.152
  492XTA   HL1238848  -6.640  24.240  -8.295
  492XTA   HL1338849  -6.937  24.228  -8.294
  492XTA   HL1438850  -6.835  24.158  -8.422
  492XTA   HL1538851  -6.717  24.407  -8.421
  492XTA   HL1638852  -6.879  24.373  -8.500
  492XTA   HL1738853  -6.811  24.647  -8.441
  492XTA   HL1838854  -6.959  24.576  -8.490
  492XTA   HL1938855  -6.851  24.806  -8.241
  492XTA   HL2038856  -6.881  24.662  -8.148
  492XTA   HL2138857  -6.951  24.849  -8.022
  492XTA   HL2238858  -7.090  24.754  -8.054
  492XTA   HL2338859  -7.066  24.910  -8.141
  492XTA   HL2438860  -5.569  23.591  -7.949
  492XTA   HL2538861  -5.412  23.646  -7.924
  492XTA    CO638862  -7.134  24.620  -8.281
  492XTA    CO738863  -7.041  24.809  -8.419
  492XTA    OA538864  -6.915  24.867  -8.452
  492XTA   HL2638865  -7.182  24.557  -8.355
  492XTA   HL2738866  -7.202  24.704  -8.267
  492XTA   HL2838867  -7.105  24.873  -8.359
  492XTA   HL2938868  -7.091  24.778  -8.506
  493XTA     NT38869  -7.148  26.911 -11.599
  493XTA    CN138870  -7.044  26.916 -11.517
  493XTA     C138871  -7.007  26.799 -11.444
  493XTA     C238872  -6.894  26.801 -11.361
  493XTA     C338873  -6.805  26.911 -11.358
  493XTA     C438874  -6.833  27.022 -11.433
  493XTA     C538875  -6.952  27.020 -11.512
  493XTA    CN238876  -7.253  26.995 -11.567
  493XTA     C638877  -7.323  26.974 -11.449
  493XTA     C738878  -7.422  27.064 -11.409
  493XTA     C838879  -7.440  27.185 -11.473
  493XTA     C938880  -7.368  27.213 -11.590
  493XTA    C1038881  -7.273  27.121 -11.635
  493XTA    CN338882  -7.141  26.861 -11.727
  493XTA    C1138883  -7.199  26.729 -11.751
  493XTA    C1238884  -7.178  26.675 -11.876
  493XTA    C1338885  -7.116  26.745 -11.979
  493XTA    C1438886  -7.074  26.877 -11.959
  493XTA    C1538887  -7.090  26.933 -11.832
  493XTA     H138888  -7.073  26.707 -11.453
  493XTA     H238889  -6.871  26.706 -11.306
  493XTA     H338890  -6.765  27.105 -11.433
  493XTA     H438891  -6.970  27.111 -11.568
  493XTA     H538892  -7.293  26.883 -11.392
  493XTA     H638893  -7.489  27.039 -11.330
  493XTA     H738894  -7.393  27.307 -11.638
  493XTA     H838895  -7.201  27.151 -11.711
  493XTA     H938896  -7.240  26.668 -11.671
  493XTA    H1038897  -7.203  26.570 -11.898
  493XTA    H1138898  -7.033  26.936 -12.042
  493XTA    H1238899  -7.068  27.040 -11.815
  493XTA    OA138900  -6.705  26.915 -11.270
  493XTA    CO138901  -6.700  26.812 -11.173
  493XTA    OA238902  -7.537  27.270 -11.423
  493XTA    CO238903  -7.628  27.343 -11.500
  493XTA    CL138904  -7.725  27.408 -11.399
  493XTA    CL238905  -7.797  27.296 -11.329
  493XTA    CL338906  -7.911  27.344 -11.238
  493XTA    CL438907  -7.872  27.428 -11.117
  493XTA    CO338908  -7.824  27.348 -10.996
  493XTA    OA338909  -7.719  27.258 -11.031
  493XTA    CO438910  -7.653  27.217 -10.915
  493XTA    CT138911  -7.520  27.138 -10.954
  493XTA    CL538912  -7.440  27.124 -10.830
  493XTA    CL638913  -7.305  27.045 -10.850
  493XTA    OA438914  -7.101  26.692 -12.101
  493XTA    CO538915  -7.159  26.556 -12.123
  493XTA    HL138916  -7.152  26.518 -12.229
  493XTA    HL238917  -6.650  26.848 -11.086
  493XTA    HL338918  -6.795  26.783 -11.130
  493XTA    HL438919  -6.634  26.733 -11.188
  493XTA    HL538920  -7.571  27.416 -11.566
  493XTA    HL638921  -7.682  27.274 -11.566
  493XTA    HL738922  -7.798  27.465 -11.462
  493XTA    HL838923  -7.674  27.473 -11.328
  493XTA    HL938924  -7.733  27.216 -11.289
  493XTA   HL1038925  -7.854  27.258 -11.412
  493XTA   HL1138926  -7.973  27.413 -11.291
  493XTA   HL1238927  -7.985  27.259 -11.209
  493XTA   HL1338928  -7.957  27.483 -11.085
  493XTA   HL1438929  -7.805  27.508 -11.147
  493XTA   HL1538930  -7.780  27.414 -10.917
  493XTA   HL1638931  -7.908  27.297 -10.944
  493XTA   HL1738932  -7.604  27.302 -10.865
  493XTA   HL1838933  -7.716  27.171 -10.841
  493XTA   HL1938934  -7.485  27.063 -10.746
  493XTA   HL2038935  -7.421  27.219 -10.784
  493XTA   HL2138936  -7.247  27.097 -10.925
  493XTA   HL2238937  -7.318  26.945 -10.882
  493XTA   HL2338938  -7.255  27.022 -10.759
  493XTA   HL2438939  -7.265  26.559 -12.100
  493XTA   HL2538940  -7.113  26.484 -12.060
  493XTA    CO638941  -7.443  27.204 -11.068
  493XTA    CO738942  -7.577  27.006 -11.007
  493XTA    OA538943  -7.646  26.949 -10.894
  493XTA   HL2638944  -7.384  27.122 -11.113
  493XTA   HL2738945  -7.510  27.245 -11.144
  493XTA   HL2838946  -7.497  26.935 -11.042
  493XTA   HL2938947  -7.653  27.020 -11.086
  494XTA     NT38948  -8.857  26.698  -6.519
  494XTA    CN138949  -8.790  26.581  -6.494
  494XTA     C138950  -8.705  26.529  -6.599
  494XTA     C238951  -8.625  26.421  -6.565
  494XTA     C338952  -8.635  26.363  -6.436
  494XTA     C438953  -8.732  26.408  -6.344
  494XTA     C538954  -8.812  26.520  -6.369
  494XTA    CN238955  -8.979  26.698  -6.574
  494XTA     C638956  -9.089  26.662  -6.494
  494XTA     C738957  -9.221  26.656  -6.543
  494XTA     C838958  -9.243  26.699  -6.675
  494XTA     C938959  -9.130  26.726  -6.758
  494XTA    C1038960  -9.000  26.723  -6.710
  494XTA    CN338961  -8.808  26.811  -6.471
  494XTA    C1138962  -8.740  26.907  -6.549
  494XTA    C1238963  -8.680  27.026  -6.504
  494XTA    C1338964  -8.707  27.060  -6.365
  494XTA    C1438965  -8.792  26.972  -6.293
  494XTA    C1538966  -8.827  26.850  -6.344
  494XTA     H138967  -8.699  26.570  -6.703
  494XTA     H238968  -8.554  26.379  -6.630
  494XTA     H338969  -8.742  26.355  -6.251
  494XTA     H438970  -8.881  26.568  -6.308
  494XTA     H538971  -9.077  26.623  -6.394
  494XTA     H638972  -9.299  26.626  -6.483
  494XTA     H738973  -9.143  26.759  -6.861
  494XTA     H838974  -8.924  26.762  -6.784
  494XTA     H938975  -8.726  26.898  -6.659
  494XTA    H1038976  -8.624  27.083  -6.573
  494XTA    H1138977  -8.824  26.981  -6.190
  494XTA    H1238978  -8.896  26.782  -6.292
  494XTA    OA138979  -8.554  26.264  -6.400
  494XTA    CO138980  -8.517  26.258  -6.267
  494XTA    OA238981  -9.370  26.732  -6.720
  494XTA    CO238982  -9.400  26.768  -6.855
  494XTA    CL138983  -9.374  26.917  -6.879
  494XTA    CL238984  -9.487  27.017  -6.841
  494XTA    CL338985  -9.432  27.162  -6.832
  494XTA    CL438986  -9.539  27.265  -6.800
  494XTA    CO338987  -9.577  27.283  -6.653
  494XTA    OA338988  -9.600  27.154  -6.598
  494XTA    CO438989  -9.624  27.151  -6.458
  494XTA    CT138990  -9.699  27.017  -6.421
  494XTA    CL538991  -9.690  27.008  -6.265
  494XTA    CL638992  -9.788  27.099  -6.185
  494XTA    OA438993  -8.666  27.171  -6.300
  494XTA    CO538994  -8.632  27.281  -6.384
  494XTA    HL138995  -8.608  27.369  -6.331
  494XTA    HL238996  -8.418  26.221  -6.248
  494XTA    HL338997  -8.507  26.356  -6.230
  494XTA    HL438998  -8.578  26.203  -6.199
  494XTA    HL538999  -9.337  26.715  -6.926
  494XTA    HL639000  -9.502  26.743  -6.869
  494XTA    HL739001  -9.345  26.927  -6.989
  494XTA    HL839002  -9.287  26.939  -6.819
  494XTA    HL939003  -9.533  26.985  -6.747
  494XTA   HL1039004  -9.573  27.007  -6.913
  494XTA   HL1139005  -9.357  27.168  -6.755
  494XTA   HL1239006  -9.373  27.186  -6.917
  494XTA   HL1339007  -9.621  27.237  -6.861
  494XTA   HL1439008  -9.499  27.364  -6.827
  494XTA   HL1539009  -9.501  27.329  -6.593
  494XTA   HL1639010  -9.673  27.338  -6.645
  494XTA   HL1739011  -9.538  27.168  -6.393
  494XTA   HL1839012  -9.700  27.228  -6.411
  494XTA   HL1939013  -9.589  27.027  -6.232
  494XTA   HL2039014  -9.713  26.910  -6.239
  494XTA   HL2139015  -9.773  27.204  -6.212
  494XTA   HL2239016  -9.763  27.079  -6.083
  494XTA   HL2339017  -9.887  27.067  -6.184
  494XTA   HL2439018  -8.720  27.306  -6.449
  494XTA   HL2539019  -8.543  27.251  -6.435
  494XTA    CO639020  -9.621  26.900  -6.486
  494XTA    CO739021  -9.846  27.014  -6.467
  494XTA    OA539022  -9.862  27.066  -6.595
  494XTA   HL2639023  -9.609  26.909  -6.593
  494XTA   HL2739024  -9.521  26.903  -6.434
  494XTA   HL2839025  -9.911  27.073  -6.403
  494XTA   HL2939026  -9.877  26.905  -6.471
  495XTA     NT39027  -7.235  24.839  -9.270
  495XTA    CN139028  -7.221  24.707  -9.243
  495XTA     C139029  -7.225  24.648  -9.116
  495XTA     C239030  -7.212  24.508  -9.096
  495XTA     C339031  -7.205  24.425  -9.202
  495XTA     C439032  -7.207  24.481  -9.333
  495XTA     C539033  -7.223  24.621  -9.354
  495XTA    CN239034  -7.361  24.890  -9.303
  495XTA     C639035  -7.478  24.850  -9.239
  495XTA     C739036  -7.600  24.891  -9.298
  495XTA     C839037  -7.613  24.987  -9.402
  495XTA     C939038  -7.490  25.023  -9.461
  495XTA    C1039039  -7.369  24.976  -9.415
  495XTA    CN339040  -7.131  24.921  -9.253
  495XTA    C1139041  -7.129  25.049  -9.190
  495XTA    C1239042  -7.011  25.121  -9.174
  495XTA    C1339043  -6.889  25.068  -9.219
  495XTA    C1439044  -6.897  24.949  -9.294
  495XTA    C1539045  -7.012  24.878  -9.310
  495XTA     H139046  -7.220  24.704  -9.025
  495XTA     H239047  -7.194  24.468  -8.992
  495XTA     H339048  -7.212  24.417  -9.423
  495XTA     H439049  -7.222  24.658  -9.449
  495XTA     H539050  -7.472  24.772  -9.161
  495XTA     H639051  -7.693  24.850  -9.261
  495XTA     H739052  -7.495  25.097  -9.537
  495XTA     H839053  -7.286  25.000  -9.475
  495XTA     H939054  -7.220  25.094  -9.155
  495XTA    H1039055  -7.010  25.217  -9.124
  495XTA    H1139056  -6.810  24.907  -9.344
  495XTA    H1239057  -7.004  24.779  -9.357
  495XTA    OA139058  -7.199  24.289  -9.190
  495XTA    CO139059  -7.222  24.227  -9.064
  495XTA    OA239060  -7.734  25.028  -9.446
  495XTA    CO239061  -7.739  25.087  -9.579
  495XTA    CL139062  -7.884  25.117  -9.613
  495XTA    CL239063  -7.892  25.188  -9.749
  495XTA    CL339064  -7.844  25.331  -9.734
  495XTA    CL439065  -7.959  25.431  -9.753
  495XTA    CO339066  -7.907  25.571  -9.767
  495XTA    OA339067  -8.014  25.666  -9.800
  495XTA    CO439068  -7.950  25.787  -9.834
  495XTA    CT139069  -8.062  25.891  -9.874
  495XTA    CL539070  -8.148  25.834  -9.992
  495XTA    CL639071  -8.077  25.807 -10.129
  495XTA    OA439072  -6.776  25.138  -9.197
  495XTA    CO539073  -6.658  25.081  -9.244
  495XTA    HL139074  -6.660  25.079  -9.355
  495XTA    HL239075  -7.313  24.263  -9.020
  495XTA    HL339076  -7.237  24.123  -9.068
  495XTA    HL439077  -7.141  24.242  -8.996
  495XTA    HL539078  -7.682  25.178  -9.592
  495XTA    HL639079  -7.681  25.027  -9.642
  495XTA    HL739080  -7.918  25.180  -9.525
  495XTA    HL839081  -7.941  25.025  -9.604
  495XTA    HL939082  -7.995  25.177  -9.795
  495XTA   HL1039083  -7.829  25.133  -9.826
  495XTA   HL1139084  -7.785  25.362  -9.652
  495XTA   HL1239085  -7.769  25.346  -9.809
  495XTA   HL1339086  -8.018  25.416  -9.666
  495XTA   HL1439087  -8.011  25.408  -9.841
  495XTA   HL1539088  -7.854  25.599  -9.668
  495XTA   HL1639089  -7.813  25.572  -9.835
  495XTA   HL1739090  -7.890  25.832  -9.756
  495XTA   HL1839091  -7.880  25.774  -9.918
  495XTA   HL1939092  -8.235  25.890 -10.016
  495XTA   HL2039093  -8.195  25.740  -9.961
  495XTA   HL2139094  -8.028  25.892 -10.164
  495XTA   HL2239095  -8.156  25.777 -10.209
  495XTA   HL2339096  -8.006  25.721 -10.121
  495XTA   HL2439097  -6.634  24.976  -9.214
  495XTA   HL2539098  -6.570  25.136  -9.220
  495XTA    CO639099  -7.997  26.026  -9.907
  495XTA    CO739100  -8.153  25.908  -9.749
  495XTA    OA539101  -8.247  26.008  -9.771
  495XTA   HL2639102  -7.924  26.010  -9.986
  495XTA   HL2739103  -8.079  26.090  -9.943
  495XTA   HL2839104  -8.100  25.927  -9.656
  495XTA   HL2939105  -8.200  25.814  -9.739
  496XTA     NT39106  -3.839  25.314  -8.731
  496XTA    CN139107  -3.842  25.221  -8.829
  496XTA     C139108  -3.754  25.230  -8.935
  496XTA     C239109  -3.754  25.138  -9.035
  496XTA     C339110  -3.853  25.034  -9.040
  496XTA     C439111  -3.946  25.023  -8.932
  496XTA     C539112  -3.943  25.118  -8.828
  496XTA    CN239113  -3.773  25.306  -8.620
  496XTA     C639114  -3.796  25.203  -8.530
  496XTA     C739115  -3.733  25.204  -8.403
  496XTA     C839116  -3.642  25.304  -8.373
  496XTA     C939117  -3.615  25.402  -8.471
  496XTA    C1039118  -3.673  25.402  -8.594
  496XTA    CN339119  -3.935  25.409  -8.742
  496XTA    C1139120  -4.058  25.391  -8.672
  496XTA    C1239121  -4.144  25.498  -8.667
  496XTA    C1339122  -4.130  25.612  -8.741
  496XTA    C1439123  -4.009  25.630  -8.815
  496XTA    C1539124  -3.915  25.529  -8.809
  496XTA     H139125  -3.691  25.320  -8.924
  496XTA     H239126  -3.675  25.151  -9.108
  496XTA     H339127  -4.022  24.946  -8.936
  496XTA     H439128  -4.019  25.110  -8.747
  496XTA     H539129  -3.856  25.119  -8.543
  496XTA     H639130  -3.749  25.132  -8.329
  496XTA     H739131  -3.545  25.480  -8.446
  496XTA     H839132  -3.672  25.481  -8.667
  496XTA     H939133  -4.073  25.304  -8.616
  496XTA    H1039134  -4.229  25.498  -8.600
  496XTA    H1139135  -3.992  25.718  -8.876
  496XTA    H1239136  -3.826  25.539  -8.868
  496XTA    OA139137  -3.871  24.945  -9.140
  496XTA    CO139138  -3.766  24.938  -9.237
  496XTA    OA239139  -3.584  25.326  -8.255
  496XTA    CO239140  -3.637  25.259  -8.138
  496XTA    CL139141  -3.559  25.291  -8.010
  496XTA    CL239142  -3.411  25.254  -8.032
  496XTA    CL339143  -3.314  25.360  -8.091
  496XTA    CL439144  -3.169  25.313  -8.108
  496XTA    CO339145  -3.072  25.425  -8.147
  496XTA    OA339146  -3.123  25.473  -8.270
  496XTA    CO439147  -3.049  25.583  -8.325
  496XTA    CT139148  -3.044  25.576  -8.484
  496XTA    CL539149  -2.932  25.481  -8.532
  496XTA    CL639150  -2.973  25.335  -8.512
  496XTA    OA439151  -4.218  25.717  -8.722
  496XTA    CO539152  -4.217  25.816  -8.824
  496XTA    HL139153  -4.126  25.878  -8.831
  496XTA    HL239154  -3.686  24.912  -9.176
  496XTA    HL339155  -3.767  24.858  -9.312
  496XTA    HL439156  -3.744  25.028  -9.294
  496XTA    HL539157  -3.738  25.282  -8.115
  496XTA    HL639158  -3.629  25.153  -8.154
  496XTA    HL739159  -3.594  25.245  -7.921
  496XTA    HL839160  -3.556  25.397  -7.997
  496XTA    HL939161  -3.401  25.175  -8.110
  496XTA   HL1039162  -3.372  25.238  -7.937
  496XTA   HL1139163  -3.354  25.401  -8.185
  496XTA   HL1239164  -3.310  25.435  -8.011
  496XTA   HL1339165  -3.171  25.237  -8.185
  496XTA   HL1439166  -3.133  25.265  -8.013
  496XTA   HL1539167  -3.086  25.507  -8.081
  496XTA   HL1639168  -2.964  25.392  -8.128
  496XTA   HL1739169  -3.107  25.668  -8.289
  496XTA   HL1839170  -2.953  25.585  -8.287
  496XTA   HL1939171  -2.839  25.499  -8.483
  496XTA   HL2039172  -2.918  25.499  -8.638
  496XTA   HL2139173  -3.058  25.304  -8.572
  496XTA   HL2239174  -3.000  25.320  -8.411
  496XTA   HL2339175  -2.900  25.259  -8.531
  496XTA   HL2439176  -4.310  25.882  -8.826
  496XTA   HL2539177  -4.223  25.763  -8.918
  496XTA    CO639178  -3.013  25.712  -8.547
  496XTA    CO739179  -3.190  25.542  -8.536
  496XTA    OA539180  -3.077  25.795  -8.500
  496XTA   HL2639181  -3.033  25.697  -8.652
  496XTA   HL2739182  -2.912  25.739  -8.529
  496XTA   HL2839183  -3.240  25.431  -8.471
  496XTA   HL2939184  -3.254  25.620  -8.485
  497XTA     NT39185  -1.176  24.896  -5.999
  497XTA    CN139186  -1.205  24.803  -5.904
  497XTA     C139187  -1.346  24.777  -5.889
  497XTA     C239188  -1.390  24.696  -5.790
  497XTA     C339189  -1.297  24.631  -5.707
  497XTA     C439190  -1.158  24.656  -5.716
  497XTA     C539191  -1.109  24.748  -5.815
  497XTA    CN239192  -1.067  24.876  -6.077
  497XTA     C639193  -0.963  24.971  -6.087
  497XTA     C739194  -0.867  24.962  -6.183
  497XTA     C839195  -0.863  24.849  -6.266
  497XTA     C939196  -0.962  24.753  -6.255
  497XTA    C1039197  -1.063  24.765  -6.161
  497XTA    CN339198  -1.236  25.019  -5.999
  497XTA    C1139199  -1.222  25.103  -5.885
  497XTA    C1239200  -1.276  25.232  -5.878
  497XTA    C1339201  -1.313  25.299  -5.998
  497XTA    C1439202  -1.326  25.213  -6.111
  497XTA    C1539203  -1.296  25.079  -6.118
  497XTA     H139204  -1.418  24.837  -5.947
  497XTA     H239205  -1.496  24.686  -5.768
  497XTA     H339206  -1.087  24.602  -5.651
  497XTA     H439207  -1.006  24.777  -5.829
  497XTA     H539208  -0.986  25.054  -6.027
  497XTA     H639209  -0.795  25.044  -6.197
  497XTA     H739210  -0.979  24.674  -6.324
  497XTA     H839211  -1.153  24.706  -6.149
  497XTA     H939212  -1.196  25.054  -5.790
  497XTA    H1039213  -1.268  25.296  -5.787
  497XTA    H1139214  -1.372  25.259  -6.204
  497XTA    H1239215  -1.311  25.032  -6.218
  497XTA    OA139216  -1.359  24.560  -5.607
  497XTA    CO139217  -1.297  24.480  -5.514
  497XTA    OA239218  -0.765  24.837  -6.362
  497XTA    CO239219  -0.777  24.747  -6.464
  497XTA    CL139220  -0.693  24.780  -6.590
  497XTA    CL239221  -0.686  24.669  -6.690
  497XTA    CL339222  -0.820  24.663  -6.767
  497XTA    CL439223  -0.821  24.547  -6.873
  497XTA    CO339224  -0.780  24.584  -7.017
  497XTA    OA339225  -0.854  24.693  -7.059
  497XTA    CO439226  -0.815  24.750  -7.187
  497XTA    CT139227  -0.887  24.884  -7.212
  497XTA    CL539228  -0.846  24.948  -7.344
  497XTA    CL639229  -0.945  25.052  -7.396
  497XTA    OA439230  -1.346  25.433  -5.996
  497XTA    CO539231  -1.312  25.505  -6.110
  497XTA    HL139232  -1.321  25.613  -6.096
  497XTA    HL239233  -1.246  24.398  -5.562
  497XTA    HL339234  -1.220  24.536  -5.460
  497XTA    HL439235  -1.361  24.428  -5.443
  497XTA    HL539236  -0.766  24.644  -6.418
  497XTA    HL639237  -0.878  24.769  -6.501
  497XTA    HL739238  -0.590  24.809  -6.573
  497XTA    HL839239  -0.730  24.872  -6.645
  497XTA    HL939240  -0.664  24.582  -6.633
  497XTA   HL1039241  -0.602  24.680  -6.762
  497XTA   HL1139242  -0.906  24.664  -6.699
  497XTA   HL1239243  -0.828  24.762  -6.814
  497XTA   HL1339244  -0.926  24.519  -6.874
  497XTA   HL1439245  -0.777  24.456  -6.846
  497XTA   HL1539246  -0.672  24.596  -7.019
  497XTA   HL1639247  -0.829  24.503  -7.078
  497XTA   HL1739248  -0.706  24.764  -7.195
  497XTA   HL1839249  -0.851  24.686  -7.274
  497XTA   HL1939250  -0.846  24.868  -7.416
  497XTA   HL2039251  -0.734  24.972  -7.345
  497XTA   HL2139252  -0.934  25.077  -7.496
  497XTA   HL2239253  -0.935  25.143  -7.336
  497XTA   HL2339254  -1.050  25.021  -7.380
  497XTA   HL2439255  -1.381  25.489  -6.194
  497XTA   HL2539256  -1.215  25.476  -6.145
  497XTA    CO639257  -0.870  24.988  -7.099
  497XTA    CO739258  -1.038  24.853  -7.211
  497XTA    OA539259  -1.065  24.771  -7.328
  497XTA   HL2639260  -0.948  25.067  -7.110
  497XTA   HL2739261  -0.885  24.928  -7.007
  497XTA   HL2839262  -1.114  24.937  -7.210
  497XTA   HL2939263  -1.066  24.790  -7.130
  498XTA     NT39264  -8.908  30.935 -12.302
  498XTA    CN139265  -8.830  30.978 -12.405
  498XTA     C139266  -8.754  31.095 -12.399
  498XTA     C239267  -8.691  31.148 -12.514
  498XTA     C339268  -8.699  31.077 -12.636
  498XTA     C439269  -8.771  30.961 -12.638
  498XTA     C539270  -8.845  30.914 -12.529
  498XTA    CN239271  -8.863  30.837 -12.219
  498XTA     C639272  -8.800  30.873 -12.101
  498XTA     C739273  -8.748  30.778 -12.008
  498XTA     C839274  -8.758  30.641 -12.038
  498XTA     C939275  -8.832  30.605 -12.155
  498XTA    C1039276  -8.883  30.705 -12.243
  498XTA    CN339277  -9.013  31.010 -12.268
  498XTA    C1139278  -9.006  31.114 -12.170
  498XTA    C1239279  -9.119  31.187 -12.138
  498XTA    C1339280  -9.242  31.149 -12.192
  498XTA    C1439281  -9.253  31.040 -12.277
  498XTA    C1539282  -9.135  30.978 -12.327
  498XTA     H139283  -8.742  31.154 -12.310
  498XTA     H239284  -8.629  31.237 -12.514
  498XTA     H339285  -8.785  30.910 -12.735
  498XTA     H439286  -8.901  30.822 -12.547
  498XTA     H539287  -8.776  30.971 -12.082
  498XTA     H639288  -8.708  30.809 -11.913
  498XTA     H739289  -8.850  30.504 -12.181
  498XTA     H839290  -8.926  30.692 -12.338
  498XTA     H939291  -8.920  31.147 -12.119
  498XTA    H1039292  -9.114  31.281 -12.074
  498XTA    H1139293  -9.350  31.002 -12.315
  498XTA    H1239294  -9.145  30.892 -12.391
  498XTA    OA139295  -8.633  31.118 -12.744
  498XTA    CO139296  -8.494  31.129 -12.725
  498XTA    OA239297  -8.709  30.541 -11.961
  498XTA    CO239298  -8.637  30.571 -11.844
  498XTA    CL139299  -8.560  30.441 -11.810
  498XTA    CL239300  -8.461  30.405 -11.923
  498XTA    CL339301  -8.364  30.297 -11.887
  498XTA    CL439302  -8.260  30.262 -11.994
  498XTA    CO339303  -8.161  30.157 -11.947
  498XTA    OA339304  -8.074  30.150 -12.058
  498XTA    CO439305  -7.941  30.126 -12.024
  498XTA    CT139306  -7.860  30.134 -12.151
  498XTA    CL539307  -7.711  30.126 -12.126
  498XTA    CL639308  -7.672  29.985 -12.075
  498XTA    OA439309  -9.351  31.225 -12.143
  498XTA    CO539310  -9.452  31.141 -12.080
  498XTA    HL139311  -9.417  31.090 -11.992
  498XTA    HL239312  -8.477  31.193 -12.635
  498XTA    HL339313  -8.463  31.028 -12.712
  498XTA    HL439314  -8.452  31.181 -12.807
  498XTA    HL539315  -8.566  30.653 -11.853
  498XTA    HL639316  -8.711  30.597 -11.762
  498XTA    HL739317  -8.631  30.361 -11.791
  498XTA    HL839318  -8.493  30.459 -11.718
  498XTA    HL939319  -8.417  30.497 -11.959
  498XTA   HL1039320  -8.511  30.368 -12.016
  498XTA   HL1139321  -8.311  30.318 -11.797
  498XTA   HL1239322  -8.424  30.208 -11.871
  498XTA   HL1339323  -8.204  30.350 -12.016
  498XTA   HL1439324  -8.320  30.239 -12.083
  498XTA   HL1539325  -8.100  30.187 -11.855
  498XTA   HL1639326  -8.204  30.061 -11.924
  498XTA   HL1739327  -7.906  30.201 -11.952
  498XTA   HL1839328  -7.942  30.025 -11.973
  498XTA   HL1939329  -7.670  30.209 -12.059
  498XTA   HL2039330  -7.658  30.141 -12.217
  498XTA   HL2139331  -7.730  29.952 -11.987
  498XTA   HL2239332  -7.570  29.966 -12.041
  498XTA   HL2339333  -7.691  29.915 -12.154
  498XTA   HL2439334  -9.505  31.077 -12.147
  498XTA   HL2539335  -9.537  31.204 -12.047
  498XTA    CO639336  -7.868  30.248 -12.239
  498XTA    CO739337  -7.901  30.059 -12.278
  498XTA    OA539338  -7.892  30.200 -12.342
  498XTA   HL2639339  -7.769  30.300 -12.259
  498XTA   HL2739340  -7.928  30.327 -12.199
  498XTA   HL2839341  -8.032  30.007 -12.273
  498XTA   HL2939342  -7.826  29.992 -12.324
  499XTA     NT39343  -5.695  26.699  -6.692
  499XTA    CN139344  -5.657  26.777  -6.591
  499XTA     C139345  -5.743  26.794  -6.479
  499XTA     C239346  -5.697  26.879  -6.375
  499XTA     C339347  -5.561  26.933  -6.368
  499XTA     C439348  -5.488  26.920  -6.487
  499XTA     C539349  -5.532  26.841  -6.597
  499XTA    CN239350  -5.697  26.564  -6.672
  499XTA     C639351  -5.816  26.491  -6.666
  499XTA     C739352  -5.815  26.357  -6.636
  499XTA     C839353  -5.692  26.286  -6.620
  499XTA     C939354  -5.574  26.358  -6.618
  499XTA    C1039355  -5.574  26.497  -6.646
  499XTA    CN339356  -5.760  26.746  -6.803
  499XTA    C1139357  -5.833  26.868  -6.801
  499XTA    C1239358  -5.897  26.906  -6.921
  499XTA    C1339359  -5.884  26.841  -7.039
  499XTA    C1439360  -5.812  26.723  -7.038
  499XTA    C1539361  -5.759  26.672  -6.918
  499XTA     H139362  -5.849  26.759  -6.467
  499XTA     H239363  -5.759  26.902  -6.292
  499XTA     H339364  -5.391  26.965  -6.490
  499XTA     H439365  -5.471  26.836  -6.684
  499XTA     H539366  -5.902  26.547  -6.680
  499XTA     H639367  -5.914  26.299  -6.628
  499XTA     H739368  -5.480  26.307  -6.598
  499XTA     H839369  -5.486  26.559  -6.646
  499XTA     H939370  -5.844  26.930  -6.717
  499XTA    H1039371  -5.969  26.986  -6.919
  499XTA    H1139372  -5.801  26.655  -7.127
  499XTA    H1239373  -5.709  26.578  -6.933
  499XTA    OA139374  -5.517  27.007  -6.259
  499XTA    CO139375  -5.381  27.035  -6.251
  499XTA    OA239376  -5.707  26.155  -6.584
  499XTA    CO239377  -5.588  26.101  -6.534
  499XTA    CL139378  -5.625  25.952  -6.498
  499XTA    CL239379  -5.503  25.886  -6.430
  499XTA    CL339380  -5.554  25.745  -6.397
  499XTA    CL439381  -5.452  25.654  -6.338
  499XTA    CO339382  -5.504  25.534  -6.266
  499XTA    OA339383  -5.603  25.573  -6.172
  499XTA    CO439384  -5.534  25.619  -6.061
  499XTA    CT139385  -5.649  25.660  -5.973
  499XTA    CL539386  -5.625  25.630  -5.828
  499XTA    CL639387  -5.611  25.486  -5.785
  499XTA    OA439388  -5.950  26.875  -7.155
  499XTA    CO539389  -6.045  26.981  -7.150
  499XTA    HL139390  -6.082  27.004  -7.250
  499XTA    HL239391  -5.357  27.111  -6.324
  499XTA    HL339392  -5.359  27.086  -6.156
  499XTA    HL439393  -5.312  26.946  -6.266
  499XTA    HL539394  -5.517  26.106  -6.614
  499XTA    HL639395  -5.546  26.145  -6.446
  499XTA    HL739396  -5.652  25.897  -6.585
  499XTA    HL839397  -5.716  25.929  -6.440
  499XTA    HL939398  -5.482  25.952  -6.347
  499XTA   HL1039399  -5.417  25.867  -6.495
  499XTA   HL1139400  -5.625  25.753  -6.321
  499XTA   HL1239401  -5.611  25.695  -6.482
  499XTA   HL1339402  -5.395  25.710  -6.272
  499XTA   HL1439403  -5.382  25.615  -6.414
  499XTA   HL1539404  -5.549  25.475  -6.343
  499XTA   HL1639405  -5.415  25.473  -6.225
  499XTA   HL1739406  -5.475  25.535  -6.025
  499XTA   HL1839407  -5.468  25.699  -6.070
  499XTA   HL1939408  -5.709  25.682  -5.770
  499XTA   HL2039409  -5.541  25.690  -5.806
  499XTA   HL2139410  -5.534  25.446  -5.842
  499XTA   HL2239411  -5.707  25.434  -5.800
  499XTA   HL2339412  -5.584  25.479  -5.678
  499XTA   HL2439413  -5.998  27.076  -7.102
  499XTA   HL2539414  -6.127  26.951  -7.082
  499XTA    CO639415  -5.788  25.598  -6.007
  499XTA    CO739416  -5.657  25.814  -5.991
  499XTA    OA539417  -5.885  25.662  -5.928
  499XTA   HL2639418  -5.798  25.492  -5.985
  499XTA   HL2739419  -5.811  25.593  -6.112
  499XTA   HL2839420  -5.665  25.832  -6.098
  499XTA   HL2939421  -5.753  25.846  -5.950
  500XTA     NT39422  -4.896  24.248  -8.115
  500XTA    CN139423  -5.024  24.270  -8.152
  500XTA     C139424  -5.110  24.161  -8.152
  500XTA     C239425  -5.245  24.172  -8.180
  500XTA     C339426  -5.302  24.295  -8.207
  500XTA     C439427  -5.217  24.411  -8.216
  500XTA     C539428  -5.074  24.400  -8.185
  500XTA    CN239429  -4.861  24.207  -8.000
  500XTA     C639430  -4.829  24.071  -7.980
  500XTA     C739431  -4.802  24.024  -7.854
  500XTA     C839432  -4.809  24.112  -7.748
  500XTA     C939433  -4.830  24.247  -7.765
  500XTA    C1039434  -4.859  24.301  -7.888
  500XTA    CN339435  -4.807  24.255  -8.214
  500XTA    C1139436  -4.706  24.348  -8.209
  500XTA    C1239437  -4.607  24.367  -8.311
  500XTA    C1339438  -4.604  24.271  -8.413
  500XTA    C1439439  -4.702  24.169  -8.418
  500XTA    C1539440  -4.806  24.166  -8.327
  500XTA     H139441  -5.064  24.069  -8.127
  500XTA     H239442  -5.310  24.081  -8.169
  500XTA     H339443  -5.269  24.510  -8.226
  500XTA     H439444  -5.004  24.481  -8.191
  500XTA     H539445  -4.837  24.010  -8.074
  500XTA     H639446  -4.786  23.923  -7.833
  500XTA     H739447  -4.831  24.315  -7.678
  500XTA     H839448  -4.861  24.410  -7.906
  500XTA     H939449  -4.694  24.414  -8.131
  500XTA    H1039450  -4.523  24.431  -8.302
  500XTA    H1139451  -4.695  24.099  -8.498
  500XTA    H1239452  -4.870  24.082  -8.329
  500XTA    OA139453  -5.429  24.325  -8.238
  500XTA    CO139454  -5.511  24.209  -8.244
  500XTA    OA239455  -4.810  24.078  -7.617
  500XTA    CO239456  -4.759  23.948  -7.591
  500XTA    CL139457  -4.697  23.944  -7.456
  500XTA    CL239458  -4.804  23.978  -7.351
  500XTA    CL339459  -4.830  24.124  -7.320
  500XTA    CL439460  -4.973  24.169  -7.304
  500XTA    CO339461  -5.057  24.165  -7.438
  500XTA    OA339462  -5.192  24.207  -7.427
  500XTA    CO439463  -5.281  24.143  -7.341
  500XTA    CT139464  -5.421  24.203  -7.344
  500XTA    CL539465  -5.468  24.223  -7.490
  500XTA    CL639466  -5.444  24.108  -7.596
  500XTA    OA439467  -4.504  24.293  -8.505
  500XTA    CO539468  -4.444  24.179  -8.553
  500XTA    HL139469  -4.356  24.204  -8.607
  500XTA    HL239470  -5.499  24.136  -8.162
  500XTA    HL339471  -5.612  24.247  -8.238
  500XTA    HL439472  -5.493  24.157  -8.335
  500XTA    HL539473  -4.833  23.866  -7.606
  500XTA    HL639474  -4.673  23.930  -7.660
  500XTA    HL739475  -4.629  24.026  -7.434
  500XTA    HL839476  -4.659  23.848  -7.442
  500XTA    HL939477  -4.774  23.932  -7.256
  500XTA   HL1039478  -4.890  23.921  -7.387
  500XTA   HL1139479  -4.790  24.147  -7.228
  500XTA   HL1239480  -4.779  24.177  -7.408
  500XTA   HL1339481  -4.976  24.266  -7.260
  500XTA   HL1439482  -5.025  24.100  -7.244
  500XTA   HL1539483  -5.013  24.229  -7.514
  500XTA   HL1639484  -5.056  24.067  -7.490
  500XTA   HL1739485  -5.293  24.033  -7.365
  500XTA   HL1839486  -5.240  24.135  -7.239
  500XTA   HL1939487  -5.396  24.304  -7.520
  500XTA   HL2039488  -5.572  24.256  -7.489
  500XTA   HL2139489  -5.337  24.112  -7.619
  500XTA   HL2239490  -5.491  24.131  -7.688
  500XTA   HL2339491  -5.482  24.016  -7.555
  500XTA   HL2439492  -4.514  24.119  -8.616
  500XTA   HL2539493  -4.420  24.110  -8.467
  500XTA    CO639494  -5.429  24.341  -7.282
  500XTA    CO739495  -5.528  24.109  -7.274
  500XTA    OA539496  -5.560  24.392  -7.306
  500XTA   HL2639497  -5.357  24.403  -7.337
  500XTA   HL2739498  -5.402  24.341  -7.174
  500XTA   HL2839499  -5.533  24.009  -7.322
  500XTA   HL2939500  -5.627  24.150  -7.280
  501XTH     NT39501  -2.217  29.261 -12.880
  501XTH    CN139502  -2.158  29.153 -12.935
  501XTH     C139503  -2.191  29.114 -13.068
  501XTH     C239504  -2.147  28.990 -13.117
  501XTH     C339505  -2.064  28.909 -13.034
  501XTH     C439506  -2.019  28.953 -12.909
  501XTH     C539507  -2.067  29.074 -12.859
  501XTH    CN239508  -2.335  29.246 -12.821
  501XTH     C639509  -2.461  29.277 -12.884
  501XTH     C739510  -2.581  29.273 -12.807
  501XTH     C839511  -2.580  29.210 -12.680
  501XTH     C939512  -2.458  29.168 -12.626
  501XTH    C1039513  -2.334  29.195 -12.689
  501XTH    CN339514  -2.170  29.388 -12.898
  501XTH    C1139515  -2.250  29.492 -12.950
  501XTH    C1239516  -2.191  29.624 -12.969
  501XTH    C1339517  -2.064  29.644 -12.910
  501XTH    C1439518  -1.986  29.540 -12.859
  501XTH    C1539519  -2.039  29.411 -12.856
  501XTH     H139520  -2.248  29.184 -13.136
  501XTH     H239521  -2.179  28.969 -13.224
  501XTH     H339522  -1.960  28.885 -12.854
  501XTH     H439523  -2.034  29.101 -12.762
  501XTH     H539524  -2.461  29.321 -12.979
  501XTH     H639525  -2.669  29.304 -12.845
  501XTH     H739526  -2.450  29.132 -12.529
  501XTH     H839527  -2.241  29.164 -12.641
  501XTH     H939528  -2.357  29.481 -12.977
  501XTH    H1039529  -2.246  29.717 -13.003
  501XTH    H1139530  -1.888  29.554 -12.817
  501XTH    H1239531  -1.979  29.342 -12.810
  501XTH    OA139532  -2.024  28.791 -13.083
  501XTH    CO139533  -1.892  28.769 -13.053
  501XTH    OA239534  -2.701  29.191 -12.620
  501XTH    CO239535  -2.714  29.132 -12.501
  501XTH    CL139536  -2.860  29.141 -12.452
  501XTH    CL239537  -2.878  29.066 -12.316
  501XTH    CL339538  -2.813  29.148 -12.199
  501XTH    CL439539  -2.862  29.295 -12.182
  501XTH    CO339540  -2.765  29.402 -12.238
  501XTH    OA339541  -2.646  29.396 -12.156
  501XTH    CO439542  -2.537  29.438 -12.229
  501XTH    CT139543  -2.400  29.426 -12.166
  501XTH    CL539544  -2.372  29.542 -12.063
  501XTH    CL639545  -2.474  29.551 -11.948
  501XTH    OA439546  -2.029  29.778 -12.902
  501XTH    CO539547  -1.892  29.799 -12.938
  501XTH    HL139548  -1.864  29.901 -12.909
  501XTH    HL239549  -1.825  28.855 -13.075
  501XTH    HL339550  -1.884  28.745 -12.945
  501XTH    HL439551  -1.855  28.680 -13.111
  501XTH    HL539552  -2.676  29.034 -12.516
  501XTH    HL639553  -2.647  29.184 -12.434
  501XTH    HL739554  -2.921  29.083 -12.528
  501XTH    HL839555  -2.904  29.242 -12.450
  501XTH    HL939556  -2.832  28.966 -12.319
  501XTH   HL1039557  -2.975  29.053 -12.282
  501XTH   HL1139558  -2.829  29.093 -12.109
  501XTH   HL1239559  -2.705  29.146 -12.218
  501XTH   HL1339560  -2.892  29.320 -12.076
  501XTH   HL1439561  -2.958  29.305 -12.224
  501XTH   HL1539562  -2.759  29.377 -12.349
  501XTH   HL1639563  -2.811  29.503 -12.238
  501XTH   HL1739564  -2.533  29.377 -12.320
  501XTH   HL1839565  -2.554  29.539 -12.263
  501XTH   HL1939566  -2.373  29.639 -12.108
  501XTH   HL2039567  -2.272  29.521 -12.020
  501XTH   HL2139568  -2.436  29.497 -11.865
  501XTH   HL2239569  -2.574  29.531 -11.972
  501XTH   HL2339570  -2.482  29.655 -11.901
  501XTH   HL2439571  -1.878  29.796 -13.046
  501XTH   HL2539572  -1.818  29.728 -12.893
  501XTH    CO639573  -2.298  29.436 -12.281
  501XTH    CO739574  -2.379  29.293 -12.096
  501XTH    OA539575  -2.293  29.540 -12.324
  501XTH   HL2639576  -2.318  29.359 -12.363
  501XTH   HL2739577  -2.201  29.410 -12.232
  501XTH   HL2839578  -2.462  29.263 -11.979
  501XTH   HL2939579  -2.279  29.302 -12.054
  502XTH     NT39580  -0.965  32.228  -5.163
  502XTH    CN139581  -1.057  32.143  -5.120
  502XTH     C139582  -1.109  32.052  -5.214
  502XTH     C239583  -1.204  31.957  -5.172
  502XTH     C339584  -1.252  31.962  -5.039
  502XTH     C439585  -1.201  32.049  -4.948
  502XTH     C539586  -1.100  32.141  -4.987
  502XTH    CN239587  -0.841  32.227  -5.113
  502XTH     C639588  -0.763  32.110  -5.107
  502XTH     C739589  -0.649  32.105  -5.023
  502XTH     C839590  -0.604  32.213  -4.956
  502XTH     C939591  -0.675  32.339  -4.970
  502XTH    C1039592  -0.799  32.340  -5.041
  502XTH    CN339593  -1.013  32.337  -5.235
  502XTH    C1139594  -1.095  32.422  -5.166
  502XTH    C1239595  -1.149  32.536  -5.238
  502XTH    C1339596  -1.115  32.556  -5.371
  502XTH    C1439597  -1.033  32.464  -5.442
  502XTH    C1539598  -0.988  32.350  -5.376
  502XTH     H139599  -1.075  32.041  -5.317
  502XTH     H239600  -1.241  31.884  -5.243
  502XTH     H339601  -1.230  32.050  -4.845
  502XTH     H439602  -1.066  32.209  -4.912
  502XTH     H539603  -0.790  32.016  -5.164
  502XTH     H639604  -0.588  32.017  -5.032
  502XTH     H739605  -0.647  32.433  -4.919
  502XTH     H839606  -0.858  32.429  -5.039
  502XTH     H939607  -1.130  32.423  -5.062
  502XTH    H1039608  -1.213  32.609  -5.192
  502XTH    H1139609  -1.013  32.472  -5.550
  502XTH    H1239610  -0.929  32.272  -5.425
  502XTH    OA139611  -1.348  31.878  -4.996
  502XTH    CO139612  -1.394  31.781  -5.094
  502XTH    OA239613  -0.503  32.208  -4.868
  502XTH    CO239614  -0.402  32.100  -4.877
  502XTH    CL139615  -0.446  31.987  -4.785
  502XTH    CL239616  -0.378  31.857  -4.811
  502XTH    CL339617  -0.430  31.740  -4.717
  502XTH    CL439618  -0.373  31.603  -4.732
  502XTH    CO339619  -0.446  31.489  -4.655
  502XTH    OA339620  -0.578  31.470  -4.700
  502XTH    CO439621  -0.597  31.398  -4.819
  502XTH    CT139622  -0.742  31.359  -4.838
  502XTH    CL539623  -0.783  31.236  -4.751
  502XTH    CL639624  -0.726  31.107  -4.802
  502XTH    OA439625  -1.170  32.662  -5.435
  502XTH    CO539626  -1.073  32.747  -5.494
  502XTH    HL139627  -0.988  32.761  -5.433
  502XTH    HL239628  -1.461  31.715  -5.038
  502XTH    HL339629  -1.445  31.832  -5.177
  502XTH    HL439630  -1.313  31.719  -5.116
  502XTH    HL539631  -0.402  32.051  -4.975
  502XTH    HL639632  -0.309  32.147  -4.851
  502XTH    HL739633  -0.552  31.972  -4.779
  502XTH    HL839634  -0.428  32.022  -4.681
  502XTH    HL939635  -0.276  31.879  -4.791
  502XTH   HL1039636  -0.389  31.824  -4.916
  502XTH   HL1139637  -0.440  31.774  -4.613
  502XTH   HL1239638  -0.538  31.724  -4.742
  502XTH   HL1339639  -0.280  31.613  -4.679
  502XTH   HL1439640  -0.362  31.581  -4.839
  502XTH   HL1539641  -0.390  31.395  -4.666
  502XTH   HL1639642  -0.438  31.529  -4.556
  502XTH   HL1739643  -0.554  31.460  -4.896
  502XTH   HL1839644  -0.530  31.314  -4.825
  502XTH   HL1939645  -0.890  31.220  -4.760
  502XTH   HL2039646  -0.758  31.251  -4.646
  502XTH   HL2139647  -0.801  31.079  -4.873
  502XTH   HL2239648  -0.733  31.034  -4.722
  502XTH   HL2339649  -0.626  31.106  -4.843
  502XTH   HL2439650  -1.103  32.855  -5.510
  502XTH   HL2539651  -1.027  32.705  -5.586
  502XTH    CO639652  -0.758  31.330  -4.992
  502XTH    CO739653  -0.828  31.487  -4.813
  502XTH    OA539654  -0.966  31.449  -4.821
  502XTH   HL2639655  -0.851  31.274  -5.002
  502XTH   HL2739656  -0.786  31.419  -5.041
  502XTH   HL2839657  -0.804  31.567  -4.878
  502XTH   HL2939658  -0.812  31.511  -4.715
  503XTA     NT39659  -6.417  30.764  -9.861
  503XTA    CN139660  -6.369  30.860  -9.778
  503XTA     C139661  -6.233  30.859  -9.738
  503XTA     C239662  -6.177  30.964  -9.664
  503XTA     C339663  -6.255  31.080  -9.628
  503XTA     C439664  -6.390  31.086  -9.679
  503XTA     C539665  -6.442  30.971  -9.747
  503XTA    CN239666  -6.451  30.805  -9.986
  503XTA     C639667  -6.574  30.785 -10.047
  503XTA     C739668  -6.596  30.820 -10.179
  503XTA     C839669  -6.495  30.869 -10.261
  503XTA     C939670  -6.366  30.898 -10.204
  503XTA    C1039671  -6.344  30.860 -10.068
  503XTA    CN339672  -6.423  30.636  -9.817
  503XTA    C1139673  -6.534  30.600  -9.737
  503XTA    C1239674  -6.534  30.467  -9.685
  503XTA    C1339675  -6.437  30.367  -9.724
  503XTA    C1439676  -6.323  30.412  -9.791
  503XTA    C1539677  -6.315  30.545  -9.841
  503XTA     H139678  -6.174  30.776  -9.754
  503XTA     H239679  -6.074  30.963  -9.628
  503XTA     H339680  -6.449  31.175  -9.673
  503XTA     H439681  -6.546  30.984  -9.787
  503XTA     H539682  -6.658  30.747  -9.993
  503XTA     H639683  -6.692  30.798 -10.226
  503XTA     H739684  -6.287  30.938 -10.269
  503XTA     H839685  -6.244  30.872 -10.029
  503XTA     H939686  -6.615  30.670  -9.711
  503XTA    H1039687  -6.618  30.437  -9.626
  503XTA    H1139688  -6.245  30.343  -9.806
  503XTA    H1239689  -6.231  30.574  -9.896
  503XTA    OA139690  -6.209  31.186  -9.555
  503XTA    CO139691  -6.302  31.282  -9.513
  503XTA    OA239692  -6.521  30.878 -10.397
  503XTA    CO239693  -6.438  30.949 -10.484
  503XTA    CL139694  -6.488  30.958 -10.630
  503XTA    CL239695  -6.506  30.818 -10.699
  503XTA    CL339696  -6.512  30.832 -10.854
  503XTA    CL439697  -6.638  30.906 -10.905
  503XTA    CO339698  -6.773  30.858 -10.849
  503XTA    OA339699  -6.874  30.928 -10.918
  503XTA    CO439700  -7.003  30.894 -10.870
  503XTA    CT139701  -7.115  30.991 -10.940
  503XTA    CL539702  -7.145  30.951 -11.089
  503XTA    CL639703  -7.021  30.976 -11.174
  503XTA    OA439704  -6.438  30.239  -9.686
  503XTA    CO539705  -6.561  30.180  -9.689
  503XTA    HL139706  -6.599  30.180  -9.796
  503XTA    HL239707  -6.345  31.345  -9.594
  503XTA    HL339708  -6.383  31.216  -9.470
  503XTA    HL439709  -6.255  31.344  -9.440
  503XTA    HL539710  -6.434  31.055 -10.453
  503XTA    HL639711  -6.337  30.909 -10.475
  503XTA    HL739712  -6.406  31.005 -10.680
  503XTA    HL839713  -6.581  31.019 -10.648
  503XTA    HL939714  -6.597  30.772 -10.651
  503XTA   HL1039715  -6.425  30.763 -10.662
  503XTA   HL1139716  -6.426  30.898 -10.878
  503XTA   HL1239717  -6.495  30.736 -10.916
  503XTA   HL1339718  -6.641  30.906 -11.014
  503XTA   HL1439719  -6.630  31.012 -10.864
  503XTA   HL1539720  -6.783  30.761 -10.880
  503XTA   HL1639721  -6.787  30.858 -10.745
  503XTA   HL1739722  -7.033  30.791 -10.896
  503XTA   HL1839723  -7.008  30.894 -10.757
  503XTA   HL1939724  -7.225  31.017 -11.130
  503XTA   HL2039725  -7.188  30.841 -11.082
  503XTA   HL2139726  -6.982  31.077 -11.164
  503XTA   HL2239727  -7.057  30.968 -11.281
  503XTA   HL2339728  -6.938  30.900 -11.151
  503XTA   HL2439729  -6.645  30.216  -9.625
  503XTA   HL2539730  -6.538  30.078  -9.654
  503XTA    CO639731  -7.059  31.137 -10.921
  503XTA    CO739732  -7.252  30.989 -10.877
  503XTA    OA539733  -7.240  31.008 -10.765
  503XTA   HL2639734  -7.067  31.161 -10.817
  503XTA   HL2739735  -6.920  31.164 -10.935
  503XTA   HL2839736  -7.288  30.894 -10.905
  503XTA   HL2939737  -7.322  31.064 -10.914
  504XTA     NT39738  -1.292  30.436  -5.214
  504XTA    CN139739  -1.414  30.488  -5.186
  504XTA     C139740  -1.498  30.418  -5.102
  504XTA     C239741  -1.628  30.446  -5.087
  504XTA     C339742  -1.679  30.565  -5.149
  504XTA     C439743  -1.593  30.641  -5.222
  504XTA     C539744  -1.456  30.607  -5.246
  504XTA    CN239745  -1.279  30.319  -5.283
  504XTA     C639746  -1.210  30.212  -5.233
  504XTA     C739747  -1.193  30.097  -5.317
  504XTA     C839748  -1.244  30.092  -5.451
  504XTA     C939749  -1.315  30.210  -5.498
  504XTA    C1039750  -1.325  30.325  -5.416
  504XTA    CN339751  -1.184  30.507  -5.173
  504XTA    C1139752  -1.143  30.495  -5.037
  504XTA    C1239753  -1.037  30.571  -4.989
  504XTA    C1339754  -0.972  30.669  -5.063
  504XTA    C1439755  -1.006  30.675  -5.198
  504XTA    C1539756  -1.107  30.594  -5.253
  504XTA     H139757  -1.450  30.332  -5.052
  504XTA     H239758  -1.680  30.376  -5.024
  504XTA     H339759  -1.637  30.730  -5.267
  504XTA     H439760  -1.393  30.666  -5.314
  504XTA     H539761  -1.163  30.225  -5.136
  504XTA     H639762  -1.145  30.011  -5.276
  504XTA     H739763  -1.342  30.212  -5.600
  504XTA     H839764  -1.363  30.413  -5.461
  504XTA     H939765  -1.189  30.434  -4.959
  504XTA    H1039766  -1.004  30.546  -4.894
  504XTA    H1139767  -0.962  30.745  -5.262
  504XTA    H1239768  -1.128  30.601  -5.357
  504XTA    OA139769  -1.804  30.619  -5.128
  504XTA    CO139770  -1.898  30.530  -5.075
  504XTA    OA239771  -1.237  29.979  -5.536
  504XTA    CO239772  -1.165  29.876  -5.498
  504XTA    CL139773  -1.144  29.774  -5.612
  504XTA    CL239774  -1.048  29.832  -5.727
  504XTA    CL339775  -0.896  29.822  -5.680
  504XTA    CL439776  -0.799  29.834  -5.801
  504XTA    CO339777  -0.656  29.842  -5.754
  504XTA    OA339778  -0.576  29.869  -5.867
  504XTA    CO439779  -0.439  29.863  -5.832
  504XTA    CT139780  -0.340  29.847  -5.950
  504XTA    CL539781  -0.366  29.950  -6.061
  504XTA    CL639782  -0.253  29.979  -6.170
  504XTA    OA439783  -0.873  30.755  -5.015
  504XTA    CO539784  -0.894  30.784  -4.877
  504XTA    HL139785  -0.833  30.859  -4.834
  504XTA    HL239786  -1.913  30.442  -5.133
  504XTA    HL339787  -1.884  30.494  -4.975
  504XTA    HL439788  -2.000  30.571  -5.081
  504XTA    HL539789  -1.072  29.907  -5.465
  504XTA    HL639790  -1.219  29.827  -5.418
  504XTA    HL739791  -1.240  29.763  -5.666
  504XTA    HL839792  -1.114  29.675  -5.572
  504XTA    HL939793  -1.064  29.935  -5.743
  504XTA   HL1039794  -1.052  29.777  -5.822
  504XTA   HL1139795  -0.865  29.883  -5.588
  504XTA   HL1239796  -0.884  29.716  -5.645
  504XTA   HL1339797  -0.834  29.933  -5.840
  504XTA   HL1439798  -0.822  29.768  -5.882
  504XTA   HL1539799  -0.643  29.926  -5.679
  504XTA   HL1639800  -0.626  29.753  -5.695
  504XTA   HL1739801  -0.423  29.936  -5.764
  504XTA   HL1839802  -0.415  29.785  -5.767
  504XTA   HL1939803  -0.385  30.044  -6.000
  504XTA   HL2039804  -0.461  29.942  -6.107
  504XTA   HL2139805  -0.293  30.052  -6.235
  504XTA   HL2239806  -0.234  29.883  -6.222
  504XTA   HL2339807  -0.169  30.014  -6.115
  504XTA   HL2439808  -0.879  30.698  -4.809
  504XTA   HL2539809  -0.996  30.812  -4.867
  504XTA    CO639810  -0.353  29.702  -6.018
  504XTA    CO739811  -0.192  29.864  -5.899
  504XTA    OA539812  -0.452  29.686  -6.066
  504XTA   HL2639813  -0.337  29.625  -5.944
  504XTA   HL2739814  -0.267  29.696  -6.087
  504XTA   HL2839815  -0.111  29.843  -6.015
  504XTA   HL2939816  -0.171  29.966  -5.862
  505XTA     NT39817  -5.807  29.637  -6.155
  505XTA    CN139818  -5.853  29.577  -6.039
  505XTA     C139819  -5.867  29.652  -5.916
  505XTA     C239820  -5.883  29.592  -5.791
  505XTA     C339821  -5.913  29.455  -5.790
  505XTA     C439822  -5.910  29.385  -5.910
  505XTA     C539823  -5.876  29.446  -6.034
  505XTA    CN239824  -5.687  29.589  -6.204
  505XTA     C639825  -5.569  29.567  -6.122
  505XTA     C739826  -5.444  29.523  -6.176
  505XTA     C839827  -5.444  29.489  -6.313
  505XTA     C939828  -5.558  29.509  -6.396
  505XTA    C1039829  -5.677  29.560  -6.341
  505XTA    CN339830  -5.847  29.763  -6.182
  505XTA    C1139831  -5.985  29.797  -6.205
  505XTA    C1239832  -6.012  29.933  -6.233
  505XTA    C1339833  -5.915  30.035  -6.229
  505XTA    C1439834  -5.786  29.995  -6.195
  505XTA    C1539835  -5.750  29.863  -6.185
  505XTA     H139836  -5.843  29.758  -5.923
  505XTA     H239837  -5.883  29.653  -5.710
  505XTA     H339838  -5.941  29.283  -5.912
  505XTA     H439839  -5.868  29.391  -6.126
  505XTA     H539840  -5.572  29.578  -6.020
  505XTA     H639841  -5.372  29.500  -6.103
  505XTA     H739842  -5.550  29.497  -6.498
  505XTA     H839843  -5.757  29.577  -6.411
  505XTA     H939844  -6.061  29.721  -6.208
  505XTA    H1039845  -6.117  29.962  -6.236
  505XTA    H1139846  -5.707  30.070  -6.191
  505XTA    H1239847  -5.646  29.830  -6.179
  505XTA    OA139848  -5.919  29.378  -5.674
  505XTA    CO139849  -5.920  29.456  -5.556
  505XTA    OA239850  -5.331  29.435  -6.356
  505XTA    CO239851  -5.317  29.399  -6.503
  505XTA    CL139852  -5.192  29.323  -6.539
  505XTA    CL239853  -5.073  29.384  -6.470
  505XTA    CL339854  -5.033  29.508  -6.552
  505XTA    CL439855  -4.913  29.575  -6.501
  505XTA    CO339856  -4.840  29.659  -6.609
  505XTA    OA339857  -4.909  29.779  -6.649
  505XTA    CO439858  -4.916  29.869  -6.547
  505XTA    CT139859  -4.944  30.006  -6.608
  505XTA    CL539860  -4.939  30.121  -6.498
  505XTA    CL639861  -5.049  30.112  -6.394
  505XTA    OA439862  -5.949  30.166  -6.241
  505XTA    CO539863  -5.852  30.275  -6.271
  505XTA    HL139864  -5.768  30.285  -6.200
  505XTA    HL239865  -5.836  29.523  -5.544
  505XTA    HL339866  -6.014  29.507  -5.553
  505XTA    HL439867  -5.921  29.388  -5.472
  505XTA    HL539868  -5.408  29.349  -6.543
  505XTA    HL639869  -5.310  29.498  -6.549
  505XTA    HL739870  -5.183  29.324  -6.650
  505XTA    HL839871  -5.207  29.216  -6.510
  505XTA    HL939872  -4.988  29.309  -6.472
  505XTA   HL1039873  -5.097  29.396  -6.363
  505XTA   HL1139874  -5.028  29.479  -6.657
  505XTA   HL1239875  -5.115  29.583  -6.557
  505XTA   HL1339876  -4.834  29.509  -6.465
  505XTA   HL1439877  -4.943  29.647  -6.429
  505XTA   HL1539878  -4.751  29.695  -6.564
  505XTA   HL1639879  -4.817  29.597  -6.698
  505XTA   HL1739880  -4.998  29.837  -6.484
  505XTA   HL1839881  -4.835  29.875  -6.480
  505XTA   HL1939882  -4.941  30.220  -6.548
  505XTA   HL2039883  -4.838  30.118  -6.458
  505XTA   HL2139884  -5.142  30.089  -6.440
  505XTA   HL2239885  -5.070  30.197  -6.338
  505XTA   HL2339886  -5.031  30.040  -6.315
  505XTA   HL2439887  -5.904  30.373  -6.252
  505XTA   HL2539888  -5.808  30.274  -6.368
  505XTA    CO639889  -5.076  30.013  -6.687
  505XTA    CO739890  -4.834  30.032  -6.710
  505XTA    OA539891  -4.846  30.130  -6.764
  505XTA   HL2639892  -5.102  30.109  -6.712
  505XTA   HL2739893  -5.183  29.959  -6.610
  505XTA   HL2839894  -4.832  29.950  -6.782
  505XTA   HL2939895  -4.738  30.015  -6.659
  506XTA     NT39896  -4.363  31.989 -12.174
  506XTA    CN139897  -4.290  32.020 -12.283
  506XTA     C139898  -4.171  32.093 -12.258
  506XTA     C239899  -4.088  32.133 -12.361
  506XTA     C339900  -4.123  32.102 -12.498
  506XTA     C439901  -4.242  32.029 -12.522
  506XTA     C539902  -4.323  31.989 -12.418
  506XTA    CN239903  -4.463  32.073 -12.142
  506XTA     C639904  -4.586  32.050 -12.210
  506XTA     C739905  -4.694  32.131 -12.171
  506XTA     C839906  -4.684  32.230 -12.069
  506XTA     C939907  -4.553  32.264 -12.014
  506XTA    C1039908  -4.447  32.180 -12.047
  506XTA    CN339909  -4.310  31.903 -12.085
  506XTA    C1139910  -4.362  31.772 -12.074
  506XTA    C1239911  -4.330  31.679 -11.967
  506XTA    C1339912  -4.248  31.730 -11.860
  506XTA    C1439913  -4.186  31.856 -11.876
  506XTA    C1539914  -4.212  31.938 -11.989
  506XTA     H139915  -4.149  32.125 -12.155
  506XTA     H239916  -3.998  32.193 -12.332
  506XTA     H339917  -4.261  31.995 -12.616
  506XTA     H439918  -4.415  31.941 -12.434
  506XTA     H539919  -4.597  31.975 -12.285
  506XTA     H639920  -4.794  32.112 -12.206
  506XTA     H739921  -4.529  32.345 -11.949
  506XTA     H839922  -4.355  32.193 -11.993
  506XTA     H939923  -4.435  31.738 -12.150
  506XTA    H1039924  -4.370  31.580 -11.964
  506XTA    H1139925  -4.108  31.889 -11.814
  506XTA    H1239926  -4.171  32.035 -11.986
  506XTA    OA139927  -4.050  32.133 -12.609
  506XTA    CO139928  -3.930  32.198 -12.580
  506XTA    OA239929  -4.792  32.300 -12.041
  506XTA    CO239930  -4.821  32.418 -12.120
  506XTA    CL139931  -4.937  32.499 -12.061
  506XTA    CL239932  -5.060  32.407 -12.050
  506XTA    CL339933  -5.160  32.464 -11.952
  506XTA    CL439934  -5.121  32.437 -11.808
  506XTA    CO339935  -5.231  32.476 -11.712
  506XTA    OA339936  -5.200  32.442 -11.577
  506XTA    CO439937  -5.290  32.519 -11.489
  506XTA    CT139938  -5.276  32.493 -11.337
  506XTA    CL539939  -5.266  32.345 -11.325
  506XTA    CL639940  -5.296  32.274 -11.183
  506XTA    OA439941  -4.223  31.660 -11.744
  506XTA    CO539942  -4.309  31.550 -11.727
  506XTA    HL139943  -4.280  31.484 -11.812
  506XTA    HL239944  -3.881  32.141 -12.492
  506XTA    HL339945  -3.866  32.202 -12.668
  506XTA    HL439946  -3.940  32.297 -12.548
  506XTA    HL539947  -4.728  32.477 -12.116
  506XTA    HL639948  -4.845  32.381 -12.223
  506XTA    HL739949  -4.974  32.577 -12.133
  506XTA    HL839950  -4.916  32.551 -11.963
  506XTA    HL939951  -5.037  32.310 -12.014
  506XTA   HL1039952  -5.111  32.388 -12.141
  506XTA   HL1139953  -5.178  32.570 -11.956
  506XTA   HL1239954  -5.253  32.415 -11.988
  506XTA   HL1339955  -5.029  32.485 -11.785
  506XTA   HL1439956  -5.101  32.327 -11.799
  506XTA   HL1539957  -5.241  32.583 -11.722
  506XTA   HL1639958  -5.324  32.431 -11.746
  506XTA   HL1739959  -5.273  32.622 -11.506
  506XTA   HL1839960  -5.393  32.504 -11.521
  506XTA   HL1939961  -5.172  32.312 -11.362
  506XTA   HL2039962  -5.337  32.305 -11.398
  506XTA   HL2139963  -5.220  32.321 -11.117
  506XTA   HL2239964  -5.277  32.167 -11.173
  506XTA   HL2339965  -5.397  32.301 -11.147
  506XTA   HL2439966  -4.412  31.569 -11.746
  506XTA   HL2539967  -4.300  31.509 -11.625
  506XTA    CO639968  -5.414  32.549 -11.276
  506XTA    CO739969  -5.153  32.562 -11.285
  506XTA    OA539970  -5.488  32.470 -11.290
  506XTA   HL2639971  -5.436  32.641 -11.332
  506XTA   HL2739972  -5.405  32.579 -11.167
  506XTA   HL2839973  -5.174  32.699 -11.288
  506XTA   HL2939974  -5.065  32.535 -11.348
  507XTA     NT39975  -3.112  30.287  -8.413
  507XTA    CN139976  -3.129  30.213  -8.520
  507XTA     C139977  -3.252  30.160  -8.544
  507XTA     C239978  -3.281  30.066  -8.648
  507XTA     C339979  -3.181  30.047  -8.743
  507XTA     C439980  -3.051  30.105  -8.728
  507XTA     C539981  -3.031  30.193  -8.616
  507XTA    CN239982  -3.137  30.414  -8.410
  507XTA     C639983  -3.074  30.503  -8.486
  507XTA     C739984  -3.109  30.642  -8.477
  507XTA     C839985  -3.211  30.688  -8.397
  507XTA     C939986  -3.280  30.594  -8.318
  507XTA    C1039987  -3.245  30.455  -8.324
  507XTA    CN339988  -3.048  30.225  -8.309
  507XTA    C1139989  -3.128  30.158  -8.215
  507XTA    C1239990  -3.065  30.098  -8.102
  507XTA    C1339991  -2.926  30.098  -8.090
  507XTA    C1439992  -2.853  30.166  -8.194
  507XTA    C1539993  -2.912  30.241  -8.298
  507XTA     H139994  -3.331  30.183  -8.473
  507XTA     H239995  -3.373  30.016  -8.653
  507XTA     H339996  -2.972  30.087  -8.801
  507XTA     H439997  -2.934  30.243  -8.606
  507XTA     H539998  -3.001  30.476  -8.562
  507XTA     H639999  -3.068  30.712  -8.546
  507XTA     H740000  -3.361  30.619  -8.256
  507XTA     H840001  -3.293  30.388  -8.256
  507XTA     H940002  -3.237  30.154  -8.214
  507XTA    H1040003  -3.125  30.054  -8.031
  507XTA    H1140004  -2.744  30.154  -8.190
  507XTA    H1240005  -2.852  30.293  -8.367
  507XTA    OA140006  -3.201  29.973  -8.854
  507XTA    CO140007  -3.324  29.910  -8.855
  507XTA    OA240008  -3.239  30.825  -8.395
  507XTA    CO240009  -3.272  30.878  -8.264
  507XTA    CL140010  -3.177  30.992  -8.219
  507XTA    CL240011  -3.034  30.945  -8.205
  507XTA    CL340012  -2.933  31.065  -8.173
  507XTA    CL440013  -2.929  31.166  -8.286
  507XTA    CO340014  -2.897  31.103  -8.430
  507XTA    OA340015  -2.862  31.195  -8.534
  507XTA    CO440016  -2.743  31.258  -8.514
  507XTA    CT140017  -2.660  31.249  -8.640
  507XTA    CL540018  -2.748  31.265  -8.765
  507XTA    CL640019  -2.844  31.385  -8.767
  507XTA    OA440020  -2.860  30.052  -7.979
  507XTA    CO540021  -2.939  29.994  -7.872
  507XTA    HL140022  -2.994  30.082  -7.836
  507XTA    HL240023  -3.406  29.972  -8.884
  507XTA    HL340024  -3.319  29.827  -8.915
  507XTA    HL440025  -3.339  29.855  -8.756
  507XTA    HL540026  -3.373  30.927  -8.270
  507XTA    HL640027  -3.280  30.802  -8.188
  507XTA    HL740028  -3.214  31.048  -8.133
  507XTA    HL840029  -3.184  31.068  -8.300
  507XTA    HL940030  -3.008  30.873  -8.283
  507XTA   HL1040031  -3.020  30.888  -8.116
  507XTA   HL1140032  -2.965  31.117  -8.084
  507XTA   HL1240033  -2.831  31.023  -8.175
  507XTA   HL1340034  -2.856  31.240  -8.265
  507XTA   HL1440035  -3.029  31.220  -8.289
  507XTA   HL1540036  -2.817  31.037  -8.410
  507XTA   HL1640037  -2.981  31.044  -8.465
  507XTA   HL1740038  -2.777  31.356  -8.480
  507XTA   HL1840039  -2.692  31.217  -8.425
  507XTA   HL1940040  -2.811  31.172  -8.776
  507XTA   HL2040041  -2.686  31.259  -8.858
  507XTA   HL2140042  -2.907  31.388  -8.674
  507XTA   HL2240043  -2.917  31.382  -8.846
  507XTA   HL2340044  -2.782  31.475  -8.772
  507XTA   HL2440045  -2.872  29.953  -7.793
  507XTA   HL2540046  -3.007  29.915  -7.912
  507XTA    CO640047  -2.581  31.110  -8.655
  507XTA    CO740048  -2.555  31.364  -8.631
  507XTA    OA540049  -2.508  31.364  -8.527
  507XTA   HL2640050  -2.499  31.126  -8.733
  507XTA   HL2740051  -2.487  31.095  -8.551
  507XTA   HL2840052  -2.624  31.452  -8.649
  507XTA   HL2940053  -2.478  31.348  -8.701
  508XTA     NT40054  -2.237  31.587  -7.046
  508XTA    CN140055  -2.347  31.530  -7.003
  508XTA     C140056  -2.396  31.549  -6.872
  508XTA     C240057  -2.503  31.476  -6.819
  508XTA     C340058  -2.578  31.395  -6.910
  508XTA     C440059  -2.551  31.400  -7.051
  508XTA     C540060  -2.433  31.456  -7.091
  508XTA    CN240061  -2.149  31.509  -7.108
  508XTA     C640062  -2.089  31.406  -7.034
  508XTA     C740063  -2.015  31.305  -7.097
  508XTA     C840064  -2.011  31.297  -7.236
  508XTA     C940065  -2.053  31.410  -7.312
  508XTA    C1040066  -2.119  31.514  -7.244
  508XTA    CN340067  -2.205  31.718  -7.022
  508XTA    C1140068  -2.098  31.745  -6.943
  508XTA    C1240069  -2.072  31.880  -6.907
  508XTA    C1340070  -2.139  31.986  -6.970
  508XTA    C1440071  -2.259  31.955  -7.040
  508XTA    C1540072  -2.293  31.819  -7.069
  508XTA     H140073  -2.333  31.608  -6.807
  508XTA     H240074  -2.525  31.476  -6.712
  508XTA     H340075  -2.607  31.363  -7.138
  508XTA     H440076  -2.410  31.453  -7.193
  508XTA     H540077  -2.095  31.410  -6.929
  508XTA     H640078  -1.980  31.217  -7.039
  508XTA     H740079  -2.047  31.405  -7.419
  508XTA     H840080  -2.150  31.594  -7.310
  508XTA     H940081  -2.053  31.658  -6.901
  508XTA    H1040082  -1.991  31.894  -6.828
  508XTA    H1140083  -2.333  32.029  -7.078
  508XTA    H1240084  -2.378  31.789  -7.128
  508XTA    OA140085  -2.683  31.332  -6.860
  508XTA    CO140086  -2.733  31.220  -6.937
  508XTA    OA240087  -1.983  31.175  -7.300
  508XTA    CO240088  -1.943  31.168  -7.438
  508XTA    CL140089  -2.063  31.165  -7.533
  508XTA    CL240090  -2.041  31.200  -7.675
  508XTA    CL340091  -2.160  31.295  -7.729
  508XTA    CL440092  -2.147  31.350  -7.866
  508XTA    CO340093  -2.279  31.429  -7.896
  508XTA    OA340094  -2.387  31.343  -7.921
  508XTA    CO440095  -2.513  31.403  -7.930
  508XTA    CT140096  -2.600  31.307  -8.011
  508XTA    CL540097  -2.728  31.377  -8.054
  508XTA    CL640098  -2.712  31.515  -8.116
  508XTA    OA440099  -2.115  32.120  -6.942
  508XTA    CO540100  -2.113  32.202  -7.056
  508XTA    HL140101  -2.030  32.166  -7.113
  508XTA    HL240102  -2.773  31.245  -7.032
  508XTA    HL340103  -2.649  31.147  -6.934
  508XTA    HL440104  -2.813  31.159  -6.883
  508XTA    HL540105  -1.878  31.247  -7.472
  508XTA    HL640106  -1.889  31.072  -7.457
  508XTA    HL740107  -2.134  31.222  -7.483
  508XTA    HL840108  -2.116  31.069  -7.529
  508XTA    HL940109  -2.029  31.107  -7.731
  508XTA   HL1040110  -1.956  31.263  -7.689
  508XTA   HL1140111  -2.254  31.238  -7.731
  508XTA   HL1240112  -2.173  31.372  -7.652
  508XTA   HL1340113  -2.137  31.267  -7.936
  508XTA   HL1440114  -2.062  31.415  -7.879
  508XTA   HL1540115  -2.305  31.497  -7.825
  508XTA   HL1640116  -2.255  31.480  -7.993
  508XTA   HL1740117  -2.544  31.402  -7.830
  508XTA   HL1840118  -2.496  31.504  -7.973
  508XTA   HL1940119  -2.789  31.382  -7.967
  508XTA   HL2040120  -2.796  31.317  -8.118
  508XTA   HL2140121  -2.674  31.581  -8.040
  508XTA   HL2240122  -2.814  31.568  -8.134
  508XTA   HL2340123  -2.650  31.514  -8.203
  508XTA   HL2440124  -2.096  32.304  -7.020
  508XTA   HL2540125  -2.207  32.194  -7.112
  508XTA    CO640126  -2.629  31.174  -7.938
  508XTA    CO740127  -2.531  31.277  -8.139
  508XTA    OA540128  -2.693  31.206  -7.811
  508XTA   HL2640129  -2.539  31.119  -7.909
  508XTA   HL2740130  -2.694  31.117  -7.991
  508XTA   HL2840131  -2.448  31.210  -8.110
  508XTA   HL2940132  -2.594  31.199  -8.191
  509XTA     NT40133  -0.969  27.331 -10.366
  509XTA    CN140134  -1.084  27.343 -10.296
  509XTA     C140135  -1.213  27.341 -10.365
  509XTA     C240136  -1.335  27.349 -10.297
  509XTA     C340137  -1.332  27.367 -10.159
  509XTA     C440138  -1.207  27.372 -10.089
  509XTA     C540139  -1.089  27.363 -10.157
  509XTA    CN240140  -0.926  27.207 -10.391
  509XTA     C640141  -0.903  27.121 -10.287
  509XTA     C740142  -0.867  26.988 -10.315
  509XTA     C840143  -0.847  26.941 -10.449
  509XTA     C940144  -0.867  27.026 -10.551
  509XTA    C1040145  -0.911  27.160 -10.525
  509XTA    CN340146  -0.929  27.439 -10.442
  509XTA    C1140147  -1.005  27.485 -10.558
  509XTA    C1240148  -0.966  27.607 -10.616
  509XTA    C1340149  -0.869  27.693 -10.557
  509XTA    C1440150  -0.808  27.646 -10.443
  509XTA    C1540151  -0.831  27.519 -10.385
  509XTA     H140152  -1.215  27.332 -10.467
  509XTA     H240153  -1.432  27.339 -10.348
  509XTA     H340154  -1.201  27.391  -9.982
  509XTA     H440155  -0.992  27.364 -10.097
  509XTA     H540156  -0.919  27.156 -10.187
  509XTA     H640157  -0.864  26.917 -10.233
  509XTA     H740158  -0.856  26.987 -10.652
  509XTA     H840159  -0.925  27.229 -10.607
  509XTA     H940160  -1.084  27.427 -10.590
  509XTA    H1040161  -1.022  27.643 -10.707
  509XTA    H1140162  -0.737  27.709 -10.396
  509XTA    H1240163  -0.776  27.493 -10.293
  509XTA    OA140164  -1.452  27.375 -10.092
  509XTA    CO140165  -1.449  27.428  -9.960
  509XTA    OA240166  -0.817  26.813 -10.485
  509XTA    CO240167  -0.824  26.717 -10.385
  509XTA    CL140168  -0.824  26.572 -10.444
  509XTA    CL240169  -0.799  26.473 -10.332
  509XTA    CL340170  -0.655  26.468 -10.272
  509XTA    CL440171  -0.645  26.387 -10.140
  509XTA    CO340172  -0.527  26.427 -10.053
  509XTA    OA340173  -0.537  26.360  -9.932
  509XTA    CO440174  -0.427  26.382  -9.846
  509XTA    CT140175  -0.441  26.304  -9.714
  509XTA    CL540176  -0.308  26.273  -9.637
  509XTA    CL640177  -0.327  26.196  -9.503
  509XTA    OA440178  -0.824  27.811 -10.621
  509XTA    CO540179  -0.698  27.857 -10.590
  509XTA    HL140180  -0.614  27.790 -10.607
  509XTA    HL240181  -1.399  27.522  -9.945
  509XTA    HL340182  -1.550  27.438  -9.921
  509XTA    HL440183  -1.389  27.360  -9.893
  509XTA    HL540184  -0.735  26.725 -10.330
  509XTA    HL640185  -0.902  26.720 -10.316
  509XTA    HL740186  -0.758  26.562 -10.532
  509XTA    HL840187  -0.921  26.549 -10.489
  509XTA    HL940188  -0.842  26.380 -10.359
  509XTA   HL1040189  -0.860  26.507 -10.252
  509XTA   HL1140190  -0.586  26.434 -10.353
  509XTA   HL1240191  -0.631  26.569 -10.245
  509XTA   HL1340192  -0.638  26.276 -10.150
  509XTA   HL1440193  -0.735  26.400 -10.084
  509XTA   HL1540194  -0.421  26.412 -10.095
  509XTA   HL1640195  -0.531  26.530 -10.032
  509XTA   HL1740196  -0.337  26.352  -9.900
  509XTA   HL1840197  -0.429  26.492  -9.829
  509XTA   HL1940198  -0.253  26.365  -9.616
  509XTA   HL2040199  -0.247  26.212  -9.707
  509XTA   HL2140200  -0.235  26.200  -9.443
  509XTA   HL2240201  -0.349  26.089  -9.516
  509XTA   HL2340202  -0.397  26.253  -9.447
  509XTA   HL2440203  -0.691  27.871 -10.480
  509XTA   HL2540204  -0.682  27.944 -10.647
  509XTA    CO640205  -0.528  26.174  -9.747
  509XTA    CO740206  -0.546  26.380  -9.628
  509XTA    OA540207  -0.476  26.100  -9.812
  509XTA   HL2640208  -0.620  26.213  -9.788
  509XTA   HL2740209  -0.567  26.129  -9.648
  509XTA   HL2840210  -0.669  26.393  -9.701
  509XTA   HL2940211  -0.562  26.323  -9.538
  510XTA     NT40212  -3.725  31.809  -6.315
  510XTA    CN140213  -3.714  31.869  -6.438
  510XTA     C140214  -3.760  31.999  -6.459
  510XTA     C240215  -3.748  32.066  -6.584
  510XTA     C340216  -3.691  31.993  -6.690
  510XTA     C440217  -3.645  31.864  -6.671
  510XTA     C540218  -3.661  31.799  -6.546
  510XTA    CN240219  -3.614  31.751  -6.266
  510XTA     C640220  -3.508  31.823  -6.214
  510XTA     C740221  -3.388  31.757  -6.170
  510XTA     C840222  -3.382  31.617  -6.165
  510XTA     C940223  -3.494  31.542  -6.215
  510XTA    C1040224  -3.606  31.610  -6.262
  510XTA    CN340225  -3.840  31.821  -6.246
  510XTA    C1140226  -3.965  31.802  -6.310
  510XTA    C1240227  -4.085  31.830  -6.248
  510XTA    C1340228  -4.084  31.884  -6.118
  510XTA    C1440229  -3.964  31.900  -6.050
  510XTA    C1540230  -3.845  31.868  -6.113
  510XTA     H140231  -3.798  32.053  -6.373
  510XTA     H240232  -3.762  32.172  -6.597
  510XTA     H340233  -3.611  31.806  -6.753
  510XTA     H440234  -3.622  31.700  -6.526
  510XTA     H540235  -3.512  31.928  -6.230
  510XTA     H640236  -3.312  31.819  -6.134
  510XTA     H740237  -3.491  31.436  -6.222
  510XTA     H840238  -3.695  31.553  -6.276
  510XTA     H940239  -3.967  31.759  -6.413
  510XTA    H1040240  -4.169  31.830  -6.316
  510XTA    H1140241  -3.971  31.938  -5.950
  510XTA    H1240242  -3.759  31.880  -6.052
  510XTA    OA140243  -3.674  32.061  -6.812
  510XTA    CO140244  -3.597  31.990  -6.908
  510XTA    OA240245  -3.272  31.551  -6.126
  510XTA    CO240246  -3.158  31.638  -6.110
  510XTA    CL140247  -3.036  31.551  -6.101
  510XTA    CL240248  -3.034  31.464  -5.971
  510XTA    CL340249  -2.923  31.357  -5.975
  510XTA    CL440250  -2.970  31.256  -5.871
  510XTA    CO340251  -2.846  31.178  -5.819
  510XTA    OA340252  -2.887  31.088  -5.712
  510XTA    CO440253  -2.951  30.966  -5.761
  510XTA    CT140254  -3.039  30.911  -5.649
  510XTA    CL540255  -2.938  30.859  -5.551
  510XTA    CL640256  -3.006  30.815  -5.420
  510XTA    OA440257  -4.203  31.925  -6.059
  510XTA    CO540258  -4.337  31.904  -6.114
  510XTA    HL140259  -4.354  31.971  -6.208
  510XTA    HL240260  -3.630  31.891  -6.928
  510XTA    HL340261  -3.602  32.052  -7.003
  510XTA    HL440262  -3.495  31.976  -6.875
  510XTA    HL540263  -3.146  31.702  -6.207
  510XTA    HL640264  -3.165  31.695  -6.018
  510XTA    HL740265  -2.944  31.610  -6.108
  510XTA    HL840266  -3.032  31.498  -6.195
  510XTA    HL940267  -3.134  31.428  -5.956
  510XTA   HL1040268  -3.002  31.536  -5.897
  510XTA   HL1140269  -2.928  31.318  -6.074
  510XTA   HL1240270  -2.826  31.402  -5.964
  510XTA   HL1340271  -3.049  31.186  -5.904
  510XTA   HL1440272  -3.011  31.303  -5.788
  510XTA   HL1540273  -2.787  31.130  -5.903
  510XTA   HL1640274  -2.775  31.247  -5.774
  510XTA   HL1740275  -3.006  30.964  -5.850
  510XTA   HL1840276  -2.871  30.895  -5.787
  510XTA   HL1940277  -2.853  30.933  -5.532
  510XTA   HL2040278  -2.882  30.782  -5.600
  510XTA   HL2140279  -2.937  30.789  -5.341
  510XTA   HL2240280  -3.078  30.724  -5.425
  510XTA   HL2340281  -3.059  30.895  -5.368
  510XTA   HL2440282  -4.413  31.933  -6.044
  510XTA   HL2540283  -4.344  31.791  -6.132
  510XTA    CO640284  -3.112  30.799  -5.710
  510XTA    CO740285  -3.139  31.019  -5.605
  510XTA    OA540286  -3.208  30.987  -5.528
  510XTA   HL2640287  -3.170  30.763  -5.628
  510XTA   HL2740288  -3.213  30.844  -5.795
  510XTA   HL2840289  -3.204  31.051  -5.688
  510XTA   HL2940290  -3.095  31.107  -5.561
  511XTH     NT40291  -4.519  26.872  -4.290
  511XTH    CN140292  -4.609  26.840  -4.201
  511XTH     C140293  -4.727  26.914  -4.185
  511XTH     C240294  -4.808  26.879  -4.082
  511XTH     C340295  -4.782  26.774  -3.996
  511XTH     C440296  -4.667  26.691  -4.015
  511XTH     C540297  -4.580  26.728  -4.114
  511XTH    CN240298  -4.537  26.805  -4.408
  511XTH     C640299  -4.623  26.851  -4.505
  511XTH     C740300  -4.636  26.792  -4.635
  511XTH     C840301  -4.554  26.685  -4.670
  511XTH     C940302  -4.453  26.642  -4.577
  511XTH    C1040303  -4.448  26.701  -4.450
  511XTH    CN340304  -4.411  26.941  -4.262
  511XTH    C1140305  -4.416  27.080  -4.267
  511XTH    C1240306  -4.301  27.155  -4.241
  511XTH    C1340307  -4.180  27.095  -4.217
  511XTH    C1440308  -4.176  26.953  -4.204
  511XTH    C1540309  -4.291  26.878  -4.223
  511XTH     H140310  -4.745  27.006  -4.247
  511XTH     H240311  -4.891  26.940  -4.054
  511XTH     H340312  -4.632  26.618  -3.946
  511XTH     H440313  -4.485  26.682  -4.141
  511XTH     H540314  -4.694  26.925  -4.486
  511XTH     H640315  -4.693  26.835  -4.714
  511XTH     H740316  -4.389  26.556  -4.603
  511XTH     H840317  -4.373  26.673  -4.379
  511XTH     H940318  -4.503  27.137  -4.301
  511XTH    H1040319  -4.309  27.263  -4.260
  511XTH    H1140320  -4.086  26.908  -4.183
  511XTH    H1240321  -4.286  26.771  -4.205
  511XTH    OA140322  -4.873  26.748  -3.892
  511XTH    CO140323  -4.841  26.629  -3.815
  511XTH    OA240324  -4.557  26.626  -4.794
  511XTH    CO240325  -4.452  26.546  -4.835
  511XTH    CL140326  -4.328  26.638  -4.858
  511XTH    CL240327  -4.364  26.764  -4.935
  511XTH    CL340328  -4.420  26.738  -5.078
  511XTH    CL440329  -4.375  26.851  -5.174
  511XTH    CO340330  -4.430  26.991  -5.132
  511XTH    OA340331  -4.387  27.086  -5.229
  511XTH    CO440332  -4.432  27.219  -5.221
  511XTH    CT140333  -4.376  27.312  -5.333
  511XTH    CL540334  -4.348  27.228  -5.464
  511XTH    CL640335  -4.463  27.160  -5.538
  511XTH    OA440336  -4.065  27.179  -4.216
  511XTH    CO540337  -3.940  27.119  -4.260
  511XTH    HL140338  -3.923  27.111  -4.362
  511XTH    HL240339  -4.918  26.611  -3.743
  511XTH    HL340340  -4.842  26.542  -3.868
  511XTH    HL440341  -4.745  26.624  -3.765
  511XTH    HL540342  -4.440  26.460  -4.769
  511XTH    HL640343  -4.476  26.492  -4.927
  511XTH    HL740344  -4.246  26.583  -4.901
  511XTH    HL840345  -4.277  26.652  -4.762
  511XTH    HL940346  -4.274  26.829  -4.947
  511XTH   HL1040347  -4.429  26.824  -4.868
  511XTH   HL1140348  -4.385  26.647  -5.131
  511XTH   HL1240349  -4.534  26.735  -5.077
  511XTH   HL1340350  -4.406  26.823  -5.275
  511XTH   HL1440351  -4.268  26.859  -5.172
  511XTH   HL1540352  -4.542  26.989  -5.117
  511XTH   HL1640353  -4.381  27.019  -5.042
  511XTH   HL1740354  -4.541  27.210  -5.228
  511XTH   HL1840355  -4.408  27.270  -5.127
  511XTH   HL1940356  -4.265  27.164  -5.427
  511XTH   HL2040357  -4.299  27.300  -5.535
  511XTH   HL2140358  -4.426  27.085  -5.602
  511XTH   HL2240359  -4.520  27.235  -5.590
  511XTH   HL2340360  -4.525  27.110  -5.467
  511XTH   HL2440361  -3.917  27.019  -4.221
  511XTH   HL2540362  -3.861  27.181  -4.218
  511XTH    CO640363  -4.234  27.371  -5.284
  511XTH    CO740364  -4.479  27.432  -5.355
  511XTH    OA540365  -4.490  27.490  -5.261
  511XTH   HL2640366  -4.264  27.440  -5.201
  511XTH   HL2740367  -4.167  27.267  -5.212
  511XTH   HL2840368  -4.570  27.372  -5.384
  511XTH   HL2940369  -4.441  27.492  -5.438
  512XTA     NT40370  -7.661  30.061  -7.928
  512XTA    CN140371  -7.789  30.016  -7.937
  512XTA     C140372  -7.891  30.077  -7.860
  512XTA     C240373  -8.024  30.026  -7.876
  512XTA     C340374  -8.052  29.926  -7.964
  512XTA     C440375  -7.947  29.868  -8.047
  512XTA     C540376  -7.820  29.918  -8.033
  512XTA    CN240377  -7.613  30.175  -7.989
  512XTA     C640378  -7.582  30.189  -8.124
  512XTA     C740379  -7.560  30.317  -8.179
  512XTA     C840380  -7.548  30.430  -8.096
  512XTA     C940381  -7.564  30.416  -7.959
  512XTA    C1040382  -7.593  30.291  -7.906
  512XTA    CN340383  -7.578  29.994  -7.847
  512XTA    C1140384  -7.473  29.923  -7.906
  512XTA    C1240385  -7.386  29.849  -7.825
  512XTA    C1340386  -7.411  29.848  -7.686
  512XTA    C1440387  -7.528  29.910  -7.632
  512XTA    C1540388  -7.610  29.985  -7.713
  512XTA     H140389  -7.876  30.167  -7.804
  512XTA     H240390  -8.105  30.067  -7.819
  512XTA     H340391  -7.960  29.776  -8.109
  512XTA     H440392  -7.728  29.882  -8.080
  512XTA     H540393  -7.597  30.099  -8.183
  512XTA     H640394  -7.556  30.325  -8.288
  512XTA     H740395  -7.561  30.504  -7.893
  512XTA     H840396  -7.605  30.281  -7.799
  512XTA     H940397  -7.464  29.914  -8.013
  512XTA    H1040398  -7.306  29.789  -7.864
  512XTA    H1140399  -7.556  29.888  -7.532
  512XTA    H1240400  -7.698  30.039  -7.676
  512XTA    OA140401  -8.176  29.872  -7.960
  512XTA    CO140402  -8.175  29.735  -7.980
  512XTA    OA240403  -7.519  30.556  -8.143
  512XTA    CO240404  -7.563  30.578  -8.273
  512XTA    CL140405  -7.527  30.723  -8.316
  512XTA    CL240406  -7.377  30.774  -8.306
  512XTA    CL340407  -7.374  30.921  -8.292
  512XTA    CL440408  -7.432  30.975  -8.418
  512XTA    CO340409  -7.433  31.131  -8.431
  512XTA    OA340410  -7.305  31.184  -8.414
  512XTA    CO440411  -7.300  31.332  -8.424
  512XTA    CT140412  -7.262  31.380  -8.273
  512XTA    CL540413  -7.138  31.295  -8.220
  512XTA    CL640414  -7.016  31.304  -8.312
  512XTA    OA440415  -7.343  29.754  -7.615
  512XTA    CO540416  -7.376  29.731  -7.479
  512XTA    HL140417  -7.480  29.696  -7.477
  512XTA    HL240418  -8.140  29.718  -8.080
  512XTA    HL340419  -8.104  29.687  -7.915
  512XTA    HL440420  -8.279  29.694  -7.960
  512XTA    HL540421  -7.496  30.512  -8.339
  512XTA    HL640422  -7.670  30.566  -8.289
  512XTA    HL740423  -7.593  30.793  -8.259
  512XTA    HL840424  -7.565  30.733  -8.425
  512XTA    HL940425  -7.317  30.739  -8.385
  512XTA   HL1040426  -7.330  30.734  -8.221
  512XTA   HL1140427  -7.437  30.950  -8.208
  512XTA   HL1240428  -7.271  30.941  -8.259
  512XTA   HL1340429  -7.534  30.938  -8.432
  512XTA   HL1440430  -7.374  30.945  -8.506
  512XTA   HL1540431  -7.489  31.162  -8.521
  512XTA   HL1640432  -7.501  31.170  -8.355
  512XTA   HL1740433  -7.223  31.365  -8.494
  512XTA   HL1840434  -7.390  31.381  -8.457
  512XTA   HL1940435  -7.165  31.191  -8.226
  512XTA   HL2040436  -7.115  31.315  -8.109
  512XTA   HL2140437  -6.934  31.247  -8.276
  512XTA   HL2240438  -6.989  31.410  -8.309
  512XTA   HL2340439  -7.039  31.277  -8.414
  512XTA   HL2440440  -7.371  29.820  -7.421
  512XTA   HL2540441  -7.304  29.656  -7.446
  512XTA    CO640442  -7.381  31.348  -8.183
  512XTA    CO740443  -7.233  31.532  -8.257
  512XTA    OA540444  -7.155  31.561  -8.181
  512XTA   HL2640445  -7.400  31.234  -8.174
  512XTA   HL2740446  -7.357  31.393  -8.053
  512XTA   HL2840447  -7.316  31.595  -8.253
  512XTA   HL2940448  -7.181  31.575  -8.344
  513PF6     PT40449  -2.977  29.844  -5.806
  513PF6     F140450  -3.020  29.919  -5.949
  513PF6     F240451  -2.902  29.738  -5.909
  513PF6     F340452  -3.064  29.953  -5.727
  513PF6     F440453  -2.961  29.761  -5.670
  513PF6     F540454  -3.111  29.757  -5.829
  513PF6     F640455  -2.828  29.911  -5.794
  514PF6     PT40456  -1.827  29.265  -5.026
  514PF6     F140457  -1.807  29.375  -5.141
  514PF6     F240458  -1.905  29.356  -4.921
  514PF6     F340459  -1.745  29.162  -5.125
  514PF6     F440460  -1.832  29.147  -4.920
  514PF6     F540461  -1.692  29.324  -4.958
  514PF6     F640462  -1.972  29.196  -5.080
  515PF6     PT40463  -2.356  26.014 -11.640
  515PF6     F140464  -2.347  25.892 -11.540
  515PF6     F240465  -2.256  26.095 -11.537
  515PF6     F340466  -2.443  25.932 -11.749
  515PF6     F440467  -2.356  26.138 -11.735
  515PF6     F540468  -2.485  26.052 -11.560
  515PF6     F640469  -2.223  25.975 -11.715
  516PF6     PT40470  -2.019  25.446  -9.916
  516PF6     F140471  -1.939  25.360 -10.026
  516PF6     F240472  -2.143  25.350  -9.928
  516PF6     F340473  -1.888  25.541  -9.890
  516PF6     F440474  -2.096  25.531  -9.809
  516PF6     F540475  -2.072  25.540 -10.042
  516PF6     F640476  -1.954  25.354  -9.800
  517PF6     PT40477  -2.589  24.362 -11.003
  517PF6     F140478  -2.450  24.287 -10.957
  517PF6     F240479  -2.538  24.484 -10.922
  517PF6     F340480  -2.632  24.214 -11.061
  517PF6     F440481  -2.731  24.418 -11.059
  517PF6     F540482  -2.647  24.324 -10.856
  517PF6     F640483  -2.527  24.407 -11.149
  518PF6     PT40484  -3.734  30.117  -8.512
  518PF6     F140485  -3.772  30.089  -8.669
  518PF6     F240486  -3.621  30.009  -8.544
  518PF6     F340487  -3.860  30.216  -8.486
  518PF6     F440488  -3.685  30.148  -8.359
  518PF6     F540489  -3.826  29.999  -8.463
  518PF6     F640490  -3.618  30.214  -8.553
  519PF6     PT40491  -1.415  29.209  -7.462
  519PF6     F140492  -1.264  29.226  -7.511
  519PF6     F240493  -1.416  29.053  -7.509
  519PF6     F340494  -1.414  29.362  -7.412
  519PF6     F440495  -1.572  29.200  -7.428
  519PF6     F540496  -1.441  29.260  -7.611
  519PF6     F640497  -1.372  29.147  -7.319
  520PF6     PT40498  -2.133  24.123 -11.640
  520PF6     F140499  -2.131  24.149 -11.801
  520PF6     F240500  -2.131  24.284 -11.601
  520PF6     F340501  -2.145  23.969 -11.671
  520PF6     F440502  -2.132  24.078 -11.491
  520PF6     F540503  -1.976  24.123 -11.647
  520PF6     F640504  -2.292  24.149 -11.664
  521PF6     PT40505  -1.703  25.543 -10.940
  521PF6     F140506  -1.785  25.553 -10.802
  521PF6     F240507  -1.805  25.448 -11.020
  521PF6     F340508  -1.619  25.659 -10.864
  521PF6     F440509  -1.593  25.525 -11.054
  521PF6     F540510  -1.619  25.422 -10.873
  521PF6     F640511  -1.775  25.672 -11.019
  522PF6     PT40512  -1.184  30.896  -8.119
  522PF6     F140513  -1.245  30.751  -8.099
  522PF6     F240514  -1.046  30.843  -8.203
  522PF6     F340515  -1.315  30.959  -8.048
  522PF6     F440516  -1.135  31.047  -8.147
  522PF6     F540517  -1.112  30.887  -7.979
  522PF6     F640518  -1.247  30.906  -8.267
  523PF6     PT40519  -1.701  30.379  -6.615
  523PF6     F140520  -1.727  30.308  -6.758
  523PF6     F240521  -1.848  30.331  -6.562
  523PF6     F340522  -1.560  30.414  -6.663
  523PF6     F440523  -1.669  30.461  -6.478
  523PF6     F540524  -1.750  30.518  -6.686
  523PF6     F640525  -1.650  30.243  -6.550
  524PF6     PT40526  -7.339  26.246  -4.862
  524PF6     F140527  -7.280  26.202  -4.718
  524PF6     F240528  -7.371  26.394  -4.797
  524PF6     F340529  -7.344  26.101  -4.924
  524PF6     F440530  -7.385  26.312  -5.003
  524PF6     F540531  -7.494  26.218  -4.817
  524PF6     F640532  -7.186  26.271  -4.917
  525PF6     PT40533  -7.102  29.221 -10.742
  525PF6     F140534  -7.191  29.341 -10.697
  525PF6     F240535  -7.092  29.143 -10.604
  525PF6     F340536  -7.121  29.263 -10.896
  525PF6     F440537  -6.992  29.116 -10.790
  525PF6     F540538  -6.984  29.320 -10.704
  525PF6     F640539  -7.232  29.127 -10.747
  526PF6     PT40540  -6.320  27.166  -9.802
  526PF6     F140541  -6.429  27.058  -9.853
  526PF6     F240542  -6.314  27.092  -9.664
  526PF6     F340543  -6.310  27.230  -9.952
  526PF6     F440544  -6.224  27.283  -9.750
  526PF6     F540545  -6.443  27.248  -9.744
  526PF6     F640546  -6.199  27.075  -9.833
  527PF6     PT40547  -6.549  28.314  -9.011
  527PF6     F140548  -6.613  28.200  -9.101
  527PF6     F240549  -6.451  28.220  -8.926
  527PF6     F340550  -6.633  28.404  -9.113
  527PF6     F440551  -6.504  28.442  -8.928
  527PF6     F540552  -6.677  28.294  -8.918
  527PF6     F640553  -6.429  28.334  -9.108
  528PF6     PT40554  -5.149  27.650  -6.912
  528PF6     F140555  -5.013  27.739  -6.903
  528PF6     F240556  -5.068  27.535  -6.989
  528PF6     F340557  -5.217  27.773  -6.833
  528PF6     F440558  -5.298  27.584  -6.939
  528PF6     F540559  -5.170  27.722  -7.054
  528PF6     F640560  -5.115  27.562  -6.778
  529PF6     PT40561  -5.532  25.623  -8.472
  529PF6     F140562  -5.512  25.461  -8.498
  529PF6     F240563  -5.394  25.630  -8.393
  529PF6     F340564  -5.682  25.606  -8.534
  529PF6     F440565  -5.538  25.783  -8.467
  529PF6     F540566  -5.601  25.595  -8.332
  529PF6     F640567  -5.463  25.655  -8.614
  530PF6     PT40568  -7.448  23.824  -9.676
  530PF6     F140569  -7.568  23.920  -9.706
  530PF6     F240570  -7.371  23.966  -9.650
  530PF6     F340571  -7.535  23.694  -9.687
  530PF6     F440572  -7.309  23.740  -9.663
  530PF6     F540573  -7.409  23.825  -9.836
  530PF6     F640574  -7.491  23.826  -9.520
  531PF6     PT40575  -5.896  23.748  -5.683
  531PF6     F140576  -5.969  23.632  -5.769
  531PF6     F240577  -5.862  23.840  -5.811
  531PF6     F340578  -5.932  23.654  -5.559
  531PF6     F440579  -5.838  23.858  -5.590
  531PF6     F540580  -5.749  23.678  -5.694
  531PF6     F640581  -6.039  23.823  -5.673
  532PF6     PT40582  -6.756  25.343  -6.160
  532PF6     F140583  -6.758  25.503  -6.175
  532PF6     F240584  -6.887  25.358  -6.071
  532PF6     F340585  -6.618  25.342  -6.242
  532PF6     F440586  -6.771  25.185  -6.162
  532PF6     F540587  -6.674  25.374  -6.027
  532PF6     F640588  -6.847  25.354  -6.292
  533PF6     PT40589  -8.523  24.081  -5.281
  533PF6     F140590  -8.639  23.978  -5.290
  533PF6     F240591  -8.550  24.103  -5.131
  533PF6     F340592  -8.476  24.042  -5.430
  533PF6     F440593  -8.421  24.201  -5.278
  533PF6     F540594  -8.628  24.186  -5.336
  533PF6     F640595  -8.414  23.979  -5.227
  534PF6     PT40596  -3.824  26.735  -6.018
  534PF6     F140597  -3.767  26.657  -6.151
  534PF6     F240598  -3.755  26.618  -5.930
  534PF6     F340599  -3.875  26.834  -6.126
  534PF6     F440600  -3.878  26.807  -5.886
  534PF6     F540601  -3.961  26.658  -6.022
  534PF6     F640602  -3.695  26.835  -6.014
  535PF6     PT40603  -4.736  27.168  -4.886
  535PF6     F140604  -4.596  27.246  -4.902
  535PF6     F240605  -4.667  27.026  -4.848
  535PF6     F340606  -4.835  27.287  -4.917
  535PF6     F440607  -4.872  27.081  -4.853
  535PF6     F540608  -4.727  27.125  -5.035
  535PF6     F640609  -4.744  27.213  -4.736
  536PF6     PT40610  -4.297  29.102 -11.676
  536PF6     F140611  -4.163  29.166 -11.719
  536PF6     F240612  -4.215  28.966 -11.664
  536PF6     F340613  -4.354  29.247 -11.641
  536PF6     F440614  -4.387  29.029 -11.565
  536PF6     F540615  -4.375  29.070 -11.811
  536PF6     F640616  -4.376  29.071 -11.810
  537PF6     PT40617  -4.169  25.349 -11.397
  537PF6     F140618  -4.287  25.402 -11.496
  537PF6     F240619  -4.074  25.329 -11.523
  537PF6     F340620  -4.282  25.355 -11.281
  537PF6     F440621  -4.062  25.301 -11.289
  537PF6     F540622  -4.226  25.197 -11.429
  537PF6     F640623  -4.116  25.504 -11.370
 7.45101  7.45101   7.45101
