generated by VMD
  57519   
    1XTA     NT    1  26.882  -1.828  -0.124
    1XTA    CN1    2  26.989  -1.897  -0.185
    1XTA     C1    3  27.039  -1.865  -0.313
    1XTA     C2    4  27.148  -1.938  -0.368
    1XTA     C3    5  27.208  -2.049  -0.304
    1XTA     C4    6  27.154  -2.083  -0.174
    1XTA     C5    7  27.053  -2.003  -0.120
    1XTA    CN2    8  26.900  -1.758  -0.006
    1XTA     C6    9  26.994  -1.655   0.007
    1XTA     C7   10  27.013  -1.589   0.133
    1XTA     C8   11  26.937  -1.625   0.248
    1XTA     C9   12  26.847  -1.734   0.233
    1XTA    C10   13  26.830  -1.802   0.108
    1XTA    CN3   14  26.764  -1.829  -0.193
    1XTA    C11   15  26.725  -1.709  -0.254
    1XTA    C12   16  26.604  -1.705  -0.324
    1XTA    C13   17  26.517  -1.815  -0.329
    1XTA    C14   18  26.564  -1.937  -0.276
    1XTA    C15   19  26.685  -1.944  -0.207
    1XTA     H1   20  26.997  -1.776  -0.359
    1XTA     H2   21  27.180  -1.914  -0.464
    1XTA     H3   22  27.197  -2.169  -0.125
    1XTA     H4   23  27.010  -2.033  -0.027
    1XTA     H5   24  27.055  -1.633  -0.084
    1XTA     H6   25  27.081  -1.503   0.128
    1XTA     H7   26  26.783  -1.765   0.316
    1XTA     H8   27  26.758  -1.880   0.097
    1XTA     H9   28  26.797  -1.628  -0.261
    1XTA    H10   29  26.562  -1.612  -0.362
    1XTA    H11   30  26.511  -2.028  -0.293
    1XTA    H12   31  26.712  -2.043  -0.168
    1XTA    OA1   32  27.309  -2.127  -0.360
    1XTA    CO1   33  27.341  -2.100  -0.497
    1XTA    OA2   34  26.957  -1.555   0.363
    1XTA    CO2   35  26.893  -1.592   0.481
    1XTA    CL1   36  26.757  -1.528   0.487
    1XTA    CL2   37  26.693  -1.537   0.619
    1XTA    CL3   38  26.743  -1.429   0.717
    1XTA    CL4   39  26.665  -1.297   0.712
    1XTA    CO3   40  26.516  -1.304   0.751
    1XTA    OA3   41  26.443  -1.362   0.641
    1XTA    CO4   42  26.319  -1.414   0.694
    1XTA    CT1   43  26.240  -1.457   0.569
    1XTA    CL5   44  26.101  -1.510   0.614
    1XTA    CL6   45  26.104  -1.615   0.725
    1XTA    OA4   46  26.397  -1.817  -0.393
    1XTA    CO5   47  26.320  -1.698  -0.399
    1XTA    CL7   48  26.172  -1.732  -0.373
    1XTA    CL8   49  26.158  -1.797  -0.238
    1XTA    CL9   50  26.034  -1.752  -0.157
    1XTA   CL10   51  26.056  -1.616  -0.089
    1XTA    CO6   52  25.938  -1.551  -0.023
    1XTA    OA5   53  25.971  -1.423   0.022
    1XTA    CO7   54  26.016  -1.406   0.156
    1XTA    CT2   55  26.049  -1.257   0.183
    1XTA   CL11   56  25.930  -1.161   0.157
    1XTA   CL12   57  25.897  -1.124   0.008
    1XTA    HL1   58  27.423  -2.166  -0.530
    1XTA    HL2   59  27.257  -2.125  -0.557
    1XTA    HL3   60  27.373  -1.995  -0.518
    1XTA    HL4   61  26.895  -1.706   0.491
    1XTA    HL5   62  26.958  -1.541   0.554
    1XTA    HL6   63  26.693  -1.583   0.415
    1XTA    HL7   64  26.753  -1.433   0.438
    1XTA    HL8   65  26.710  -1.635   0.651
    1XTA    HL9   66  26.589  -1.547   0.621
    1XTA   HL10   67  26.755  -1.472   0.819
    1XTA   HL11   68  26.845  -1.399   0.700
    1XTA   HL12   69  26.668  -1.233   0.626
    1XTA   HL13   70  26.712  -1.218   0.779
    1XTA   HL14   71  26.506  -1.357   0.842
    1XTA   HL15   72  26.474  -1.201   0.759
    1XTA   HL16   73  26.350  -1.490   0.759
    1XTA   HL17   74  26.277  -1.321   0.734
    1XTA   HL18   75  26.048  -1.557   0.530
    1XTA   HL19   76  26.046  -1.430   0.656
    1XTA   HL20   77  26.116  -1.712   0.668
    1XTA   HL21   78  26.014  -1.628   0.785
    1XTA   HL22   79  26.187  -1.622   0.792
    1XTA   HL23   80  26.335  -1.644  -0.492
    1XTA   HL24   81  26.354  -1.624  -0.331
    1XTA   HL25   82  26.102  -1.646  -0.389
    1XTA   HL26   83  26.144  -1.806  -0.452
    1XTA   HL27   84  26.157  -1.903  -0.249
    1XTA   HL28   85  26.245  -1.774  -0.175
    1XTA   HL29   86  25.951  -1.762  -0.224
    1XTA   HL30   87  26.021  -1.820  -0.077
    1XTA   HL31   88  26.146  -1.618  -0.033
    1XTA   HL32   89  26.088  -1.542  -0.167
    1XTA   HL33   90  25.860  -1.544  -0.094
    1XTA   HL34   91  25.909  -1.619   0.053
    1XTA   HL35   92  26.094  -1.477   0.175
    1XTA   HL36   93  25.937  -1.425   0.232
    1XTA   HL37   94  25.958  -1.072   0.207
    1XTA   HL38   95  25.837  -1.203   0.204
    1XTA   HL39   96  25.816  -1.053   0.011
    1XTA   HL40   97  25.870  -1.207  -0.049
    1XTA   HL41   98  25.983  -1.070  -0.043
    1XTA    CO8   99  26.324  -1.571   0.510
    1XTA    CO9  100  26.222  -1.331   0.471
    1XTA    OA6  101  26.145  -1.356   0.391
    1XTA   HL42  102  26.330  -1.641   0.590
    1XTA   HL43  103  26.447  -1.527   0.468
    1XTA   HL44  104  26.257  -1.264   0.132
    1XTA   HL45  105  26.156  -1.234  -0.009
    1XTA   CO10  106  26.172  -1.209   0.096
    1XTA   CO11  107  26.091  -1.242   0.327
    1XTA    OA7  108  26.190  -1.075   0.112
    1XTA   HL46  109  26.000  -1.215   0.380
    1XTA   HL47  110  26.158  -1.154   0.337
    1XTA   HL48  111  26.318  -1.285   0.429
    1XTA   HL49  112  26.183  -1.249   0.539
    2XTA     NT  113  23.718  -1.299   3.110
    2XTA    CN1  114  23.687  -1.387   3.206
    2XTA     C1  115  23.584  -1.479   3.186
    2XTA     C2  116  23.569  -1.585   3.282
    2XTA     C3  117  23.641  -1.583   3.404
    2XTA     C4  118  23.724  -1.477   3.438
    2XTA     C5  119  23.758  -1.388   3.332
    2XTA    CN2  120  23.637  -1.198   3.084
    2XTA     C6  121  23.614  -1.098   3.179
    2XTA     C7  122  23.538  -0.986   3.150
    2XTA     C8  123  23.475  -0.975   3.023
    2XTA     C9  124  23.488  -1.076   2.934
    2XTA    C10  125  23.571  -1.186   2.960
    2XTA    CN3  126  23.828  -1.324   3.029
    2XTA    C11  127  23.920  -1.225   2.989
    2XTA    C12  128  24.018  -1.238   2.892
    2XTA    C13  129  24.034  -1.366   2.837
    2XTA    C14  130  23.947  -1.471   2.868
    2XTA    C15  131  23.847  -1.446   2.961
    2XTA     H1  132  23.525  -1.498   3.096
    2XTA     H2  133  23.497  -1.666   3.271
    2XTA     H3  134  23.784  -1.468   3.528
    2XTA     H4  135  23.827  -1.311   3.347
    2XTA     H5  136  23.646  -1.103   3.282
    2XTA     H6  137  23.518  -0.915   3.225
    2XTA     H7  138  23.440  -1.074   2.837
    2XTA     H8  139  23.585  -1.265   2.893
    2XTA     H9  140  23.916  -1.127   3.044
    2XTA    H10  141  24.095  -1.161   2.882
    2XTA    H11  142  23.961  -1.569   2.823
    2XTA    H12  143  23.780  -1.526   3.001
    2XTA    OA1  144  23.619  -1.679   3.499
    2XTA    CO1  145  23.501  -1.754   3.496
    2XTA    OA2  146  23.400  -0.863   2.988
    2XTA    CO2  147  23.449  -0.740   3.023
    2XTA    CL1  148  23.561  -0.714   2.927
    2XTA    CL2  149  23.619  -0.571   2.932
    2XTA    CL3  150  23.523  -0.475   2.858
    2XTA    CL4  151  23.581  -0.335   2.875
    2XTA    CO3  152  23.482  -0.215   2.844
    2XTA    OA3  153  23.554  -0.103   2.799
    2XTA    CO4  154  23.466   0.003   2.748
    2XTA    CT1  155  23.529   0.107   2.649
    2XTA    CL5  156  23.655   0.154   2.724
    2XTA    CL6  157  23.712   0.287   2.664
    2XTA    OA4  158  24.130  -1.374   2.744
    2XTA    CO5  159  24.109  -1.412   2.610
    2XTA    CL7  160  24.169  -1.301   2.522
    2XTA    CL8  161  24.233  -1.347   2.388
    2XTA    CL9  162  24.316  -1.225   2.319
    2XTA   CL10  163  24.410  -1.264   2.211
    2XTA    CO6  164  24.530  -1.352   2.252
    2XTA    OA5  165  24.629  -1.282   2.328
    2XTA    CO7  166  24.741  -1.367   2.351
    2XTA    CT2  167  24.859  -1.293   2.437
    2XTA   CL11  168  24.807  -1.259   2.579
    2XTA   CL12  169  24.700  -1.357   2.635
    2XTA    HL1  170  23.475  -1.812   3.411
    2XTA    HL2  171  23.495  -1.824   3.576
    2XTA    HL3  172  23.416  -1.693   3.523
    2XTA    HL4  173  23.370  -0.673   2.990
    2XTA    HL5  174  23.471  -0.724   3.128
    2XTA    HL6  175  23.524  -0.743   2.831
    2XTA    HL7  176  23.635  -0.792   2.941
    2XTA    HL8  177  23.716  -0.568   2.890
    2XTA    HL9  178  23.624  -0.529   3.034
    2XTA   HL10  179  23.501  -0.515   2.756
    2XTA   HL11  180  23.420  -0.474   2.900
    2XTA   HL12  181  23.670  -0.332   2.821
    2XTA   HL13  182  23.612  -0.328   2.976
    2XTA   HL14  183  23.416  -0.242   2.756
    2XTA   HL15  184  23.419  -0.194   2.933
    2XTA   HL16  185  23.384  -0.044   2.696
    2XTA   HL17  186  23.444   0.052   2.843
    2XTA   HL18  187  23.735   0.079   2.736
    2XTA   HL19  188  23.629   0.177   2.828
    2XTA   HL20  189  23.643   0.373   2.664
    2XTA   HL21  190  23.730   0.275   2.550
    2XTA   HL22  191  23.795   0.331   2.721
    2XTA   HL23  192  24.006  -1.419   2.578
    2XTA   HL24  193  24.157  -1.508   2.581
    2XTA   HL25  194  24.090  -1.223   2.515
    2XTA   HL26  195  24.255  -1.266   2.576
    2XTA   HL27  196  24.298  -1.441   2.401
    2XTA   HL28  197  24.149  -1.385   2.329
    2XTA   HL29  198  24.239  -1.153   2.287
    2XTA   HL30  199  24.367  -1.175   2.396
    2XTA   HL31  200  24.345  -1.326   2.150
    2XTA   HL32  201  24.440  -1.181   2.147
    2XTA   HL33  202  24.502  -1.438   2.312
    2XTA   HL34  203  24.575  -1.388   2.161
    2XTA   HL35  204  24.786  -1.413   2.264
    2XTA   HL36  205  24.727  -1.456   2.405
    2XTA   HL37  206  24.754  -1.159   2.566
    2XTA   HL38  207  24.884  -1.237   2.657
    2XTA   HL39  208  24.658  -1.309   2.727
    2XTA   HL40  209  24.729  -1.461   2.667
    2XTA   HL41  210  24.609  -1.358   2.566
    2XTA    CO8  211  23.424   0.215   2.618
    2XTA    CO9  212  23.556   0.041   2.511
    2XTA    OA6  213  23.623   0.128   2.421
    2XTA   HL42  214  23.333   0.164   2.586
    2XTA   HL43  215  23.450   0.269   2.524
    2XTA   HL44  216  24.960  -1.186   2.283
    2XTA   HL45  217  24.813  -1.118   2.346
    2XTA   CO10  218  24.909  -1.160   2.376
    2XTA   CO11  219  24.988  -1.377   2.447
    2XTA    OA7  220  24.968  -1.097   2.436
    2XTA   HL46  221  24.966  -1.475   2.545
    2XTA   HL47  222  25.073  -1.314   2.478
    2XTA   HL48  223  23.463   0.003   2.468
    2XTA   HL49  224  23.632  -0.044   2.524
    3XTA     NT  225  24.835   0.013   6.006
    3XTA    CN1  226  24.782   0.076   5.899
    3XTA     C1  227  24.730   0.001   5.792
    3XTA     C2  228  24.711   0.058   5.668
    3XTA     C3  229  24.726   0.201   5.660
    3XTA     C4  230  24.764   0.281   5.772
    3XTA     C5  231  24.793   0.216   5.890
    3XTA    CN2  232  24.788   0.042   6.128
    3XTA     C6  233  24.869   0.104   6.224
    3XTA     C7  234  24.818   0.110   6.355
    3XTA     C8  235  24.691   0.061   6.387
    3XTA     C9  236  24.613   0.000   6.289
    3XTA    C10  237  24.660  -0.007   6.157
    3XTA    CN3  238  24.943  -0.076   5.994
    3XTA    C11  239  24.949  -0.194   6.067
    3XTA    C12  240  25.066  -0.276   6.063
    3XTA    C13  241  25.172  -0.248   5.975
    3XTA    C14  242  25.161  -0.125   5.900
    3XTA    C15  243  25.049  -0.039   5.906
    3XTA     H1  244  24.708  -0.107   5.797
    3XTA     H2  245  24.680  -0.001   5.586
    3XTA     H3  246  24.785   0.384   5.779
    3XTA     H4  247  24.837   0.279   5.969
    3XTA     H5  248  24.960   0.154   6.196
    3XTA     H6  249  24.891   0.140   6.433
    3XTA     H7  250  24.517  -0.055   6.305
    3XTA     H8  251  24.593  -0.056   6.086
    3XTA     H9  252  24.862  -0.225   6.129
    3XTA    H10  253  25.069  -0.362   6.125
    3XTA    H11  254  25.244  -0.106   5.823
    3XTA    H12  255  25.050   0.052   5.846
    3XTA    OA1  256  24.685   0.272   5.550
    3XTA    CO1  257  24.729   0.205   5.424
    3XTA    OA2  258  24.648   0.077   6.516
    3XTA    CO2  259  24.506   0.075   6.536
    3XTA    CL1  260  24.484   0.097   6.686
    3XTA    CL2  261  24.345   0.070   6.722
    3XTA    CL3  262  24.320  -0.087   6.730
    3XTA    CL4  263  24.359  -0.138   6.864
    3XTA    CO3  264  24.361  -0.292   6.885
    3XTA    OA3  265  24.251  -0.343   6.812
    3XTA    CO4  266  24.126  -0.333   6.866
    3XTA    CT1  267  24.018  -0.396   6.765
    3XTA    CL5  268  24.051  -0.331   6.623
    3XTA    CL6  269  23.985  -0.400   6.510
    3XTA    OA4  270  25.272  -0.336   5.949
    3XTA    CO5  271  25.296  -0.433   6.057
    3XTA    CL7  272  25.435  -0.496   6.046
    3XTA    CL8  273  25.501  -0.519   6.180
    3XTA    CL9  274  25.417  -0.604   6.278
    3XTA   CL10  275  25.401  -0.544   6.423
    3XTA    CO6  276  25.297  -0.432   6.435
    3XTA    OA5  277  25.359  -0.312   6.385
    3XTA    CO7  278  25.287  -0.193   6.432
    3XTA    CT2  279  25.341  -0.058   6.387
    3XTA   CL11  280  25.247   0.055   6.444
    3XTA   CL12  281  25.317   0.188   6.467
    3XTA    HL1  282  24.695   0.272   5.345
    3XTA    HL2  283  24.843   0.194   5.418
    3XTA    HL3  284  24.680   0.104   5.420
    3XTA    HL4  285  24.441   0.153   6.486
    3XTA    HL5  286  24.457  -0.020   6.511
    3XTA    HL6  287  24.523   0.187   6.731
    3XTA    HL7  288  24.546   0.015   6.724
    3XTA    HL8  289  24.271   0.103   6.649
    3XTA    HL9  290  24.328   0.121   6.810
    3XTA   HL10  291  24.218  -0.112   6.709
    3XTA   HL11  292  24.379  -0.136   6.654
    3XTA   HL12  293  24.299  -0.090   6.942
    3XTA   HL13  294  24.458  -0.108   6.879
    3XTA   HL14  295  24.450  -0.338   6.845
    3XTA   HL15  296  24.359  -0.317   6.988
    3XTA   HL16  297  24.125  -0.374   6.969
    3XTA   HL17  298  24.109  -0.224   6.874
    3XTA   HL18  299  24.156  -0.345   6.610
    3XTA   HL19  300  24.036  -0.224   6.629
    3XTA   HL20  301  24.029  -0.363   6.412
    3XTA   HL21  302  23.876  -0.401   6.521
    3XTA   HL22  303  24.024  -0.500   6.516
    3XTA   HL23  304  25.210  -0.497   6.058
    3XTA   HL24  305  25.298  -0.379   6.151
    3XTA   HL25  306  25.433  -0.591   5.998
    3XTA   HL26  307  25.499  -0.427   5.988
    3XTA   HL27  308  25.602  -0.553   6.173
    3XTA   HL28  309  25.524  -0.421   6.211
    3XTA   HL29  310  25.318  -0.631   6.230
    3XTA   HL30  311  25.460  -0.701   6.274
    3XTA   HL31  312  25.385  -0.634   6.491
    3XTA   HL32  313  25.501  -0.503   6.458
    3XTA   HL33  314  25.211  -0.446   6.363
    3XTA   HL34  315  25.255  -0.435   6.530
    3XTA   HL35  316  25.279  -0.186   6.543
    3XTA   HL36  317  25.180  -0.194   6.404
    3XTA   HL37  318  25.219   0.025   6.540
    3XTA   HL38  319  25.151   0.068   6.389
    3XTA   HL39  320  25.367   0.174   6.566
    3XTA   HL40  321  25.253   0.279   6.468
    3XTA   HL41  322  25.392   0.220   6.397
    3XTA    CO8  323  23.878  -0.354   6.814
    3XTA    CO9  324  24.031  -0.545   6.761
    3XTA    OA6  325  24.011  -0.576   6.864
    3XTA   HL42  326  23.866  -0.250   6.787
    3XTA   HL43  327  23.866  -0.362   6.954
    3XTA   HL44  328  25.404  -0.147   6.211
    3XTA   HL45  329  25.244  -0.091   6.187
    3XTA   CO10  330  25.338  -0.064   6.237
    3XTA   CO11  331  25.484  -0.047   6.435
    3XTA    OA7  332  25.502  -0.069   6.575
    3XTA   HL46  333  25.545  -0.115   6.380
    3XTA   HL47  334  25.513   0.053   6.401
    3XTA   HL48  335  24.139  -0.562   6.724
    3XTA   HL49  336  23.955  -0.608   6.700
    4XTA     NT  337  24.712  -1.506   1.010
    4XTA    CN1  338  24.634  -1.603   0.953
    4XTA     C1  339  24.604  -1.594   0.813
    4XTA     C2  340  24.511  -1.684   0.755
    4XTA     C3  341  24.462  -1.791   0.833
    4XTA     C4  342  24.479  -1.792   0.966
    4XTA     C5  343  24.570  -1.706   1.025
    4XTA    CN2  344  24.807  -1.546   1.107
    4XTA     C6  345  24.792  -1.542   1.245
    4XTA     C7  346  24.888  -1.596   1.330
    4XTA     C8  347  25.005  -1.650   1.274
    4XTA     C9  348  25.021  -1.647   1.136
    4XTA    C10  349  24.915  -1.613   1.053
    4XTA    CN3  350  24.702  -1.377   0.980
    4XTA    C11  351  24.799  -1.317   0.896
    4XTA    C12  352  24.776  -1.187   0.844
    4XTA    C13  353  24.662  -1.117   0.887
    4XTA    C14  354  24.566  -1.181   0.972
    4XTA    C15  355  24.586  -1.312   1.009
    4XTA     H1  356  24.638  -1.510   0.758
    4XTA     H2  357  24.477  -1.679   0.650
    4XTA     H3  358  24.430  -1.859   1.030
    4XTA     H4  359  24.579  -1.710   1.133
    4XTA     H5  360  24.703  -1.499   1.286
    4XTA     H6  361  24.878  -1.603   1.437
    4XTA     H7  362  25.111  -1.695   1.099
    4XTA     H8  363  24.915  -1.635   0.946
    4XTA     H9  364  24.891  -1.366   0.871
    4XTA    H10  365  24.859  -1.152   0.785
    4XTA    H11  366  24.476  -1.134   1.010
    4XTA    H12  367  24.514  -1.363   1.068
    4XTA    OA1  368  24.393  -1.884   0.766
    4XTA    CO1  369  24.399  -2.014   0.821
    4XTA    OA2  370  25.111  -1.705   1.344
    4XTA    CO2  371  25.125  -1.673   1.483
    4XTA    CL1  372  25.085  -1.784   1.575
    4XTA    CL2  373  25.186  -1.799   1.691
    4XTA    CL3  374  25.135  -1.905   1.783
    4XTA    CL4  375  25.204  -1.900   1.919
    4XTA    CO3  376  25.139  -2.011   2.004
    4XTA    OA3  377  25.196  -2.007   2.139
    4XTA    CO4  378  25.141  -2.113   2.216
    4XTA    CT1  379  25.183  -2.099   2.363
    4XTA    CL5  380  25.164  -1.963   2.421
    4XTA    CL6  381  25.018  -1.903   2.429
    4XTA    OA4  382  24.644  -0.991   0.841
    4XTA    CO5  383  24.514  -0.964   0.799
    4XTA    CL7  384  24.515  -0.805   0.781
    4XTA    CL8  385  24.378  -0.745   0.751
    4XTA    CL9  386  24.390  -0.598   0.727
    4XTA   CL10  387  24.257  -0.531   0.680
    4XTA    CO6  388  24.265  -0.381   0.658
    4XTA    OA5  389  24.321  -0.321   0.773
    4XTA    CO7  390  24.221  -0.295   0.873
    4XTA    CT2  391  24.285  -0.249   1.002
    4XTA   CL11  392  24.368  -0.362   1.055
    4XTA   CL12  393  24.426  -0.360   1.197
    4XTA    HL1  394  24.345  -2.027   0.910
    4XTA    HL2  395  24.368  -2.075   0.738
    4XTA    HL3  396  24.504  -2.046   0.848
    4XTA    HL4  397  25.233  -1.664   1.500
    4XTA    HL5  398  25.072  -1.581   1.503
    4XTA    HL6  399  25.077  -1.876   1.514
    4XTA    HL7  400  24.982  -1.769   1.615
    4XTA    HL8  401  25.199  -1.701   1.742
    4XTA    HL9  402  25.283  -1.835   1.648
    4XTA   HL10  403  25.030  -1.893   1.792
    4XTA   HL11  404  25.149  -2.004   1.733
    4XTA   HL12  405  25.200  -1.798   1.953
    4XTA   HL13  406  25.311  -1.920   1.907
    4XTA   HL14  407  25.031  -2.007   2.013
    4XTA   HL15  408  25.176  -2.103   1.960
    4XTA   HL16  409  25.031  -2.109   2.205
    4XTA   HL17  410  25.169  -2.211   2.178
    4XTA   HL18  411  25.235  -1.906   2.362
    4XTA   HL19  412  25.209  -1.966   2.522
    4XTA   HL20  413  25.022  -1.799   2.467
    4XTA   HL21  414  24.954  -1.951   2.506
    4XTA   HL22  415  24.961  -1.914   2.335
    4XTA   HL23  416  24.430  -0.997   0.863
    4XTA   HL24  417  24.488  -1.020   0.713
    4XTA   HL25  418  24.559  -0.758   0.872
    4XTA   HL26  419  24.585  -0.770   0.702
    4XTA   HL27  420  24.340  -0.792   0.658
    4XTA   HL28  421  24.320  -0.766   0.840
    4XTA   HL29  422  24.431  -0.547   0.816
    4XTA   HL30  423  24.465  -0.577   0.650
    4XTA   HL31  424  24.219  -0.582   0.586
    4XTA   HL32  425  24.177  -0.563   0.742
    4XTA   HL33  426  24.324  -0.364   0.576
    4XTA   HL34  427  24.170  -0.334   0.643
    4XTA   HL35  428  24.179  -0.390   0.896
    4XTA   HL36  429  24.144  -0.228   0.837
    4XTA   HL37  430  24.446  -0.381   0.983
    4XTA   HL38  431  24.305  -0.455   1.054
    4XTA   HL39  432  24.370  -0.292   1.253
    4XTA   HL40  433  24.521  -0.320   1.194
    4XTA   HL41  434  24.421  -0.455   1.244
    4XTA    CO8  435  25.335  -2.143   2.370
    4XTA    CO9  436  25.103  -2.205   2.455
    4XTA    OA6  437  25.380  -2.097   2.464
    4XTA   HL42  438  25.398  -2.105   2.292
    4XTA   HL43  439  25.346  -2.252   2.370
    4XTA   HL44  440  24.213  -0.122   1.156
    4XTA   HL45  441  24.082  -0.170   1.041
    4XTA   CO10  442  24.172  -0.202   1.103
    4XTA   CO11  443  24.374  -0.129   0.970
    4XTA    OA7  444  24.132  -0.300   1.210
    4XTA   HL46  445  24.469  -0.182   0.941
    4XTA   HL47  446  24.410  -0.085   1.063
    4XTA   HL48  447  24.960  -2.193   2.442
    4XTA   HL49  448  25.131  -2.310   2.442
    5XTA     NT  449  24.935   2.567   0.547
    5XTA    CN1  450  24.913   2.463   0.460
    5XTA     C1  451  24.964   2.470   0.334
    5XTA     C2  452  24.940   2.372   0.242
    5XTA     C3  453  24.858   2.264   0.279
    5XTA     C4  454  24.803   2.256   0.406
    5XTA     C5  455  24.833   2.355   0.503
    5XTA    CN2  456  25.063   2.588   0.593
    5XTA     C6  457  25.123   2.713   0.586
    5XTA     C7  458  25.237   2.746   0.668
    5XTA     C8  459  25.285   2.657   0.762
    5XTA     C9  460  25.229   2.523   0.763
    5XTA    C10  461  25.124   2.486   0.674
    5XTA    CN3  462  24.835   2.643   0.603
    5XTA    C11  463  24.829   2.673   0.741
    5XTA    C12  464  24.733   2.764   0.790
    5XTA    C13  465  24.643   2.824   0.701
    5XTA    C14  466  24.637   2.790   0.563
    5XTA    C15  467  24.731   2.692   0.511
    5XTA     H1  468  25.030   2.553   0.308
    5XTA     H2  469  24.966   2.387   0.134
    5XTA     H3  470  24.740   2.172   0.436
    5XTA     H4  471  24.809   2.351   0.603
    5XTA     H5  472  25.076   2.785   0.522
    5XTA     H6  473  25.274   2.847   0.670
    5XTA     H7  474  25.265   2.460   0.844
    5XTA     H8  475  25.077   2.392   0.676
    5XTA     H9  476  24.893   2.624   0.818
    5XTA    H10  477  24.718   2.787   0.896
    5XTA    H11  478  24.570   2.848   0.498
    5XTA    H12  479  24.726   2.669   0.407
    5XTA    OA1  480  24.816   2.172   0.181
    5XTA    CO1  481  24.852   2.190   0.049
    5XTA    OA2  482  25.368   2.703   0.861
    5XTA    CO2  483  25.319   2.696   1.001
    5XTA    CL1  484  25.212   2.805   1.035
    5XTA    CL2  485  25.071   2.783   0.984
    5XTA    CL3  486  24.957   2.831   1.067
    5XTA    CL4  487  24.963   2.987   1.084
    5XTA    CO3  488  24.897   3.060   0.961
    5XTA    OA3  489  24.982   3.060   0.844
    5XTA    CO4  490  24.903   3.101   0.729
    5XTA    CT1  491  25.002   3.187   0.651
    5XTA    CL5  492  25.040   3.307   0.739
    5XTA    CL6  493  25.149   3.394   0.669
    5XTA    OA4  494  24.552   2.905   0.761
    5XTA    CO5  495  24.466   2.986   0.680
    5XTA    CL7  496  24.393   3.093   0.761
    5XTA    CL8  497  24.474   3.173   0.872
    5XTA    CL9  498  24.577   3.270   0.822
    5XTA   CL10  499  24.529   3.416   0.817
    5XTA    CO6  500  24.634   3.526   0.794
    5XTA    OA5  501  24.696   3.497   0.675
    5XTA    CO7  502  24.630   3.520   0.553
    5XTA    CT2  503  24.736   3.510   0.442
    5XTA   CL11  504  24.689   3.564   0.306
    5XTA   CL12  505  24.569   3.501   0.250
    5XTA    HL1  506  24.814   2.103  -0.005
    5XTA    HL2  507  24.801   2.277   0.008
    5XTA    HL3  508  24.958   2.197   0.034
    5XTA    HL4  509  25.284   2.593   1.023
    5XTA    HL5  510  25.414   2.708   1.063
    5XTA    HL6  511  25.258   2.902   1.002
    5XTA    HL7  512  25.217   2.813   1.145
    5XTA    HL8  513  25.051   2.674   0.985
    5XTA    HL9  514  25.068   2.817   0.879
    5XTA   HL10  515  24.862   2.798   1.038
    5XTA   HL11  516  24.966   2.800   1.167
    5XTA   HL12  517  25.066   3.020   1.113
    5XTA   HL13  518  24.898   3.023   1.165
    5XTA   HL14  519  24.810   2.995   0.947
    5XTA   HL15  520  24.861   3.156   0.991
    5XTA   HL16  521  24.856   3.024   0.683
    5XTA   HL17  522  24.824   3.159   0.759
    5XTA   HL18  523  25.079   3.279   0.836
    5XTA   HL19  524  24.940   3.353   0.747
    5XTA   HL20  525  25.173   3.482   0.728
    5XTA   HL21  526  25.114   3.435   0.575
    5XTA   HL22  527  25.236   3.334   0.634
    5XTA   HL23  528  24.397   2.930   0.622
    5XTA   HL24  529  24.535   3.043   0.615
    5XTA   HL25  530  24.343   3.162   0.695
    5XTA   HL26  531  24.304   3.044   0.812
    5XTA   HL27  532  24.394   3.233   0.920
    5XTA   HL28  533  24.512   3.095   0.937
    5XTA   HL29  534  24.663   3.276   0.885
    5XTA   HL30  535  24.618   3.231   0.723
    5XTA   HL31  536  24.445   3.429   0.736
    5XTA   HL32  537  24.481   3.443   0.910
    5XTA   HL33  538  24.589   3.624   0.784
    5XTA   HL34  539  24.703   3.534   0.873
    5XTA   HL35  540  24.572   3.607   0.547
    5XTA   HL36  541  24.561   3.439   0.544
    5XTA   HL37  542  24.775   3.541   0.247
    5XTA   HL38  543  24.671   3.677   0.321
    5XTA   HL39  544  24.596   3.416   0.191
    5XTA   HL40  545  24.543   3.575   0.184
    5XTA   HL41  546  24.496   3.478   0.330
    5XTA    CO8  547  24.944   3.228   0.516
    5XTA    CO9  548  25.133   3.105   0.626
    5XTA    OA6  549  25.219   3.135   0.514
    5XTA   HL42  550  25.030   3.278   0.471
    5XTA   HL43  551  24.918   3.145   0.458
    5XTA   HL44  552  24.698   3.313   0.414
    5XTA   HL45  553  24.852   3.353   0.353
    5XTA   CO10  554  24.787   3.365   0.437
    5XTA   CO11  555  24.865   3.587   0.488
    5XTA    OA7  556  24.825   3.310   0.523
    5XTA   HL46  557  24.921   3.548   0.611
    5XTA   HL47  558  24.927   3.588   0.408
    5XTA   HL48  559  25.108   2.998   0.613
    5XTA   HL49  560  25.187   3.116   0.720
    6XTA     NT  561  23.880   4.926   6.776
    6XTA    CN1  562  23.809   5.037   6.768
    6XTA     C1  563  23.747   5.094   6.882
    6XTA     C2  564  23.682   5.211   6.866
    6XTA     C3  565  23.682   5.285   6.745
    6XTA     C4  566  23.747   5.231   6.635
    6XTA     C5  567  23.811   5.107   6.644
    6XTA    CN2  568  24.003   4.926   6.712
    6XTA     C6  569  24.005   4.863   6.584
    6XTA     C7  570  24.131   4.843   6.522
    6XTA     C8  571  24.247   4.882   6.597
    6XTA     C9  572  24.236   4.939   6.723
    6XTA    C10  573  24.116   4.967   6.782
    6XTA    CN3  574  23.848   4.822   6.865
    6XTA    C11  575  23.733   4.746   6.837
    6XTA    C12  576  23.706   4.633   6.919
    6XTA    C13  577  23.790   4.600   7.024
    6XTA    C14  578  23.900   4.683   7.055
    6XTA    C15  579  23.935   4.787   6.972
    6XTA     H1  580  23.729   5.032   6.968
    6XTA     H2  581  23.618   5.253   6.942
    6XTA     H3  582  23.757   5.282   6.543
    6XTA     H4  583  23.859   5.074   6.556
    6XTA     H5  584  23.916   4.833   6.530
    6XTA     H6  585  24.138   4.823   6.411
    6XTA     H7  586  24.335   4.961   6.765
    6XTA     H8  587  24.111   5.005   6.879
    6XTA     H9  588  23.675   4.778   6.754
    6XTA    H10  589  23.632   4.556   6.897
    6XTA    H11  590  23.965   4.674   7.139
    6XTA    H12  591  24.019   4.848   7.002
    6XTA    OA1  592  23.608   5.401   6.733
    6XTA    CO1  593  23.618   5.465   6.606
    6XTA    OA2  594  24.372   4.867   6.545
    6XTA    CO2  595  24.393   4.797   6.424
    6XTA    CL1  596  24.548   4.787   6.386
    6XTA    CL2  597  24.599   4.931   6.347
    6XTA    CL3  598  24.743   4.936   6.282
    6XTA    CL4  599  24.741   4.895   6.141
    6XTA    CO3  600  24.850   4.793   6.103
    6XTA    OA3  601  24.827   4.679   6.187
    6XTA    CO4  602  24.907   4.569   6.146
    6XTA    CT1  603  24.881   4.461   6.254
    6XTA    CL5  604  24.902   4.528   6.397
    6XTA    CL6  605  25.037   4.595   6.439
    6XTA    OA4  606  23.761   4.482   7.086
    6XTA    CO5  607  23.866   4.408   7.141
    6XTA    CL7  608  23.892   4.291   7.042
    6XTA    CL8  609  23.942   4.324   6.906
    6XTA    CL9  610  24.081   4.383   6.918
    6XTA   CL10  611  24.125   4.448   6.788
    6XTA    CO6  612  24.242   4.548   6.797
    6XTA    OA5  613  24.352   4.466   6.810
    6XTA    CO7  614  24.475   4.542   6.831
    6XTA    CT2  615  24.600   4.453   6.845
    6XTA   CL11  616  24.634   4.454   6.997
    6XTA   CL12  617  24.530   4.382   7.082
    6XTA    HL1  618  23.715   5.463   6.566
    6XTA    HL2  619  23.563   5.415   6.524
    6XTA    HL3  620  23.584   5.565   6.607
    6XTA    HL4  621  24.350   4.699   6.441
    6XTA    HL5  622  24.335   4.829   6.336
    6XTA    HL6  623  24.559   4.719   6.303
    6XTA    HL7  624  24.612   4.752   6.465
    6XTA    HL8  625  24.604   4.996   6.438
    6XTA    HL9  626  24.524   4.966   6.281
    6XTA   HL10  627  24.779   5.037   6.298
    6XTA   HL11  628  24.807   4.878   6.345
    6XTA   HL12  629  24.737   4.984   6.077
    6XTA   HL13  630  24.652   4.838   6.125
    6XTA   HL14  631  24.858   4.770   5.994
    6XTA   HL15  632  24.947   4.852   6.121
    6XTA   HL16  633  24.898   4.534   6.046
    6XTA   HL17  634  25.015   4.599   6.145
    6XTA   HL18  635  24.885   4.460   6.474
    6XTA   HL19  636  24.818   4.594   6.426
    6XTA   HL20  637  25.126   4.538   6.419
    6XTA   HL21  638  25.048   4.623   6.543
    6XTA   HL22  639  25.043   4.688   6.379
    6XTA   HL23  640  23.828   4.378   7.247
    6XTA   HL24  641  23.953   4.464   7.169
    6XTA   HL25  642  23.953   4.212   7.093
    6XTA   HL26  643  23.797   4.247   7.038
    6XTA   HL27  644  23.962   4.228   6.855
    6XTA   HL28  645  23.870   4.386   6.851
    6XTA   HL29  646  24.088   4.457   6.996
    6XTA   HL30  647  24.156   4.308   6.951
    6XTA   HL31  648  24.148   4.367   6.717
    6XTA   HL32  649  24.044   4.516   6.764
    6XTA   HL33  650  24.253   4.609   6.708
    6XTA   HL34  651  24.230   4.607   6.890
    6XTA   HL35  652  24.451   4.606   6.920
    6XTA   HL36  653  24.480   4.611   6.743
    6XTA   HL37  654  24.630   4.556   7.033
    6XTA   HL38  655  24.732   4.416   7.019
    6XTA   HL39  656  24.543   4.272   7.061
    6XTA   HL40  657  24.428   4.413   7.062
    6XTA   HL41  658  24.541   4.388   7.191
    6XTA    CO8  659  24.986   4.347   6.239
    6XTA    CO9  660  24.739   4.397   6.232
    6XTA    OA6  661  24.959   4.291   6.142
    6XTA   HL42  662  24.990   4.279   6.326
    6XTA   HL43  663  25.085   4.387   6.240
    6XTA   HL44  664  24.701   4.559   6.672
    6XTA   HL45  665  24.817   4.468   6.773
    6XTA   CO10  666  24.724   4.531   6.779
    6XTA   CO11  667  24.601   4.310   6.790
    6XTA    OA7  668  24.583   4.316   6.650
    6XTA   HL46  669  24.695   4.261   6.814
    6XTA   HL47  670  24.517   4.256   6.831
    6XTA   HL48  671  24.639   4.501   6.256
    6XTA   HL49  672  24.725   4.383   6.121
    7XTA     NT  673  26.026   2.129   5.700
    7XTA    CN1  674  25.913   2.167   5.762
    7XTA     C1  675  25.806   2.219   5.687
    7XTA     C2  676  25.693   2.267   5.761
    7XTA     C3  677  25.702   2.284   5.900
    7XTA     C4  678  25.810   2.236   5.970
    7XTA     C5  679  25.917   2.175   5.905
    7XTA    CN2  680  26.056   1.998   5.679
    7XTA     C6  681  25.965   1.900   5.634
    7XTA     C7  682  26.005   1.767   5.625
    7XTA     C8  683  26.136   1.728   5.652
    7XTA     C9  684  26.226   1.826   5.696
    7XTA    C10  685  26.185   1.957   5.718
    7XTA    CN3  686  26.086   2.218   5.624
    7XTA    C11  687  26.151   2.329   5.687
    7XTA    C12  688  26.197   2.435   5.610
    7XTA    C13  689  26.185   2.438   5.466
    7XTA    C14  690  26.114   2.334   5.406
    7XTA    C15  691  26.068   2.222   5.484
    7XTA     H1  692  25.808   2.212   5.573
    7XTA     H2  693  25.612   2.305   5.699
    7XTA     H3  694  25.817   2.259   6.072
    7XTA     H4  695  26.001   2.146   5.961
    7XTA     H5  696  25.866   1.932   5.610
    7XTA     H6  697  25.938   1.694   5.593
    7XTA     H7  698  26.333   1.815   5.702
    7XTA     H8  699  26.251   2.026   5.771
    7XTA     H9  700  26.172   2.328   5.795
    7XTA    H10  701  26.244   2.519   5.663
    7XTA    H11  702  26.100   2.328   5.300
    7XTA    H12  703  26.036   2.132   5.439
    7XTA    OA1  704  25.584   2.324   5.964
    7XTA    CO1  705  25.588   2.292   6.103
    7XTA    OA2  706  26.170   1.596   5.632
    7XTA    CO2  707  26.277   1.549   5.717
    7XTA    CL1  708  26.286   1.393   5.709
    7XTA    CL2  709  26.421   1.327   5.751
    7XTA    CL3  710  26.434   1.302   5.900
    7XTA    CL4  711  26.479   1.425   5.977
    7XTA    CO3  712  26.540   1.399   6.120
    7XTA    OA3  713  26.637   1.496   6.150
    7XTA    CO4  714  26.688   1.468   6.280
    7XTA    CT1  715  26.782   1.582   6.328
    7XTA    CL5  716  26.904   1.572   6.236
    7XTA    CL6  717  27.016   1.678   6.261
    7XTA    OA4  718  26.239   2.550   5.403
    7XTA    CO5  719  26.255   2.548   5.264
    7XTA    CL7  720  26.242   2.695   5.227
    7XTA    CL8  721  26.101   2.742   5.261
    7XTA    CL9  722  26.075   2.889   5.232
    7XTA   CL10  723  25.931   2.924   5.257
    7XTA    CO6  724  25.831   2.859   5.157
    7XTA    OA5  725  25.888   2.864   5.021
    7XTA    CO7  726  25.819   2.793   4.927
    7XTA    CT2  727  25.870   2.814   4.791
    7XTA   CL11  728  25.776   2.760   4.685
    7XTA   CL12  729  25.752   2.612   4.693
    7XTA    HL1  730  25.632   2.375   6.160
    7XTA    HL2  731  25.482   2.286   6.139
    7XTA    HL3  732  25.630   2.189   6.132
    7XTA    HL4  733  26.374   1.595   5.696
    7XTA    HL5  734  26.268   1.582   5.818
    7XTA    HL6  735  26.243   1.363   5.612
    7XTA    HL7  736  26.211   1.357   5.784
    7XTA    HL8  737  26.498   1.390   5.710
    7XTA    HL9  738  26.426   1.235   5.701
    7XTA   HL10  739  26.343   1.268   5.958
    7XTA   HL11  740  26.513   1.229   5.912
    7XTA   HL12  741  26.394   1.493   5.987
    7XTA   HL13  742  26.545   1.475   5.912
    7XTA   HL14  743  26.462   1.407   6.185
    7XTA   HL15  744  26.582   1.298   6.121
    7XTA   HL16  745  26.606   1.460   6.351
    7XTA   HL17  746  26.747   1.371   6.270
    7XTA   HL18  747  26.880   1.567   6.130
    7XTA   HL19  748  26.946   1.484   6.255
    7XTA   HL20  749  27.061   1.660   6.362
    7XTA   HL21  750  26.965   1.777   6.272
    7XTA   HL22  751  27.097   1.674   6.175
    7XTA   HL23  752  26.175   2.489   5.213
    7XTA   HL24  753  26.351   2.505   5.233
    7XTA   HL25  754  26.324   2.756   5.275
    7XTA   HL26  755  26.258   2.700   5.122
    7XTA   HL27  756  26.034   2.691   5.193
    7XTA   HL28  757  26.086   2.717   5.361
    7XTA   HL29  758  26.140   2.955   5.295
    7XTA   HL30  759  26.111   2.903   5.136
    7XTA   HL31  760  25.892   2.906   5.358
    7XTA   HL32  761  25.912   3.031   5.255
    7XTA   HL33  762  25.818   2.755   5.184
    7XTA   HL34  763  25.732   2.912   5.157
    7XTA   HL35  764  25.715   2.833   4.935
    7XTA   HL36  765  25.835   2.686   4.947
    7XTA   HL37  766  25.822   2.781   4.588
    7XTA   HL38  767  25.687   2.825   4.682
    7XTA   HL39  768  25.690   2.583   4.604
    7XTA   HL40  769  25.710   2.575   4.783
    7XTA   HL41  770  25.846   2.562   4.672
    7XTA    CO8  771  26.812   1.578   6.474
    7XTA    CO9  772  26.715   1.716   6.299
    7XTA    OA6  773  26.691   1.568   6.544
    7XTA   HL42  774  26.866   1.671   6.499
    7XTA   HL43  775  26.876   1.500   6.505
    7XTA   HL44  776  26.081   2.792   4.852
    7XTA   HL45  777  26.013   2.607   4.804
    7XTA   CO10  778  26.010   2.746   4.773
    7XTA   CO11  779  25.893   2.961   4.755
    7XTA    OA7  780  25.802   3.012   4.781
    7XTA   HL46  781  25.983   2.998   4.802
    7XTA   HL47  782  25.909   2.967   4.653
    7XTA   HL48  783  26.774   1.793   6.350
    7XTA   HL49  784  26.731   1.729   6.191
    8XTA     NT  785  24.184   0.476   6.466
    8XTA    CN1  786  24.230   0.590   6.531
    8XTA     C1  787  24.366   0.590   6.567
    8XTA     C2  788  24.413   0.705   6.631
    8XTA     C3  789  24.334   0.811   6.660
    8XTA     C4  790  24.194   0.810   6.632
    8XTA     C5  791  24.144   0.695   6.572
    8XTA    CN2  792  24.059   0.429   6.496
    8XTA     C6  793  23.946   0.448   6.415
    8XTA     C7  794  23.820   0.389   6.435
    8XTA     C8  795  23.809   0.302   6.551
    8XTA     C9  796  23.920   0.280   6.631
    8XTA    C10  797  24.038   0.348   6.610
    8XTA    CN3  798  24.239   0.449   6.343
    8XTA    C11  799  24.217   0.542   6.241
    8XTA    C12  800  24.244   0.506   6.109
    8XTA    C13  801  24.278   0.380   6.071
    8XTA    C14  802  24.309   0.288   6.176
    8XTA    C15  803  24.283   0.321   6.311
    8XTA     H1  804  24.426   0.508   6.540
    8XTA     H2  805  24.523   0.705   6.642
    8XTA     H3  806  24.125   0.888   6.658
    8XTA     H4  807  24.037   0.693   6.563
    8XTA     H5  808  23.947   0.500   6.329
    8XTA     H6  809  23.743   0.409   6.364
    8XTA     H7  810  23.916   0.206   6.707
    8XTA     H8  811  24.123   0.329   6.683
    8XTA     H9  812  24.180   0.641   6.276
    8XTA    H10  813  24.216   0.573   6.024
    8XTA    H11  814  24.332   0.186   6.147
    8XTA    H12  815  24.282   0.250   6.389
    8XTA    OA1  816  24.387   0.921   6.726
    8XTA    CO1  817  24.349   0.943   6.865
    8XTA    OA2  818  23.687   0.241   6.562
    8XTA    CO2  819  23.639   0.236   6.693
    8XTA    CL1  820  23.550   0.364   6.705
    8XTA    CL2  821  23.619   0.499   6.678
    8XTA    CL3  822  23.573   0.614   6.768
    8XTA    CL4  823  23.646   0.745   6.727
    8XTA    CO3  824  23.639   0.795   6.582
    8XTA    OA3  825  23.699   0.931   6.597
    8XTA    CO4  826  23.638   1.032   6.521
    8XTA    CT1  827  23.686   1.162   6.577
    8XTA    CL5  828  23.850   1.179   6.578
    8XTA    CL6  829  23.930   1.086   6.676
    8XTA    OA4  830  24.297   0.361   5.941
    8XTA    CO5  831  24.297   0.227   5.897
    8XTA    CL7  832  24.230   0.232   5.757
    8XTA    CL8  833  24.328   0.291   5.665
    8XTA    CL9  834  24.274   0.285   5.526
    8XTA   CL10  835  24.368   0.354   5.421
    8XTA    CO6  836  24.299   0.349   5.281
    8XTA    OA5  837  24.189   0.438   5.280
    8XTA    CO7  838  24.120   0.440   5.152
    8XTA    CT2  839  24.004   0.534   5.152
    8XTA   CL11  840  24.066   0.678   5.158
    8XTA   CL12  841  23.988   0.783   5.245
    8XTA    HL1  842  24.383   0.851   6.916
    8XTA    HL2  843  24.392   1.034   6.911
    8XTA    HL3  844  24.242   0.958   6.886
    8XTA    HL4  845  23.581   0.147   6.715
    8XTA    HL5  846  23.720   0.238   6.775
    8XTA    HL6  847  23.515   0.370   6.809
    8XTA    HL7  848  23.466   0.359   6.639
    8XTA    HL8  849  23.603   0.526   6.578
    8XTA    HL9  850  23.727   0.498   6.694
    8XTA   HL10  851  23.462   0.637   6.772
    8XTA   HL11  852  23.593   0.589   6.870
    8XTA   HL12  853  23.748   0.731   6.764
    8XTA   HL13  854  23.608   0.824   6.786
    8XTA   HL14  855  23.699   0.719   6.527
    8XTA   HL15  856  23.538   0.799   6.551
    8XTA   HL16  857  23.668   1.022   6.416
    8XTA   HL17  858  23.527   1.025   6.511
    8XTA   HL18  859  23.871   1.284   6.595
    8XTA   HL19  860  23.890   1.166   6.473
    8XTA   HL20  861  23.915   1.084   6.786
    8XTA   HL21  862  24.043   1.108   6.667
    8XTA   HL22  863  23.914   0.983   6.646
    8XTA   HL23  864  24.243   0.152   5.960
    8XTA   HL24  865  24.397   0.193   5.901
    8XTA   HL25  866  24.196   0.134   5.731
    8XTA   HL26  867  24.141   0.298   5.757
    8XTA   HL27  868  24.355   0.389   5.701
    8XTA   HL28  869  24.415   0.229   5.681
    8XTA   HL29  870  24.235   0.189   5.494
    8XTA   HL30  871  24.176   0.344   5.529
    8XTA   HL31  872  24.381   0.465   5.433
    8XTA   HL32  873  24.468   0.322   5.427
    8XTA   HL33  874  24.380   0.370   5.211
    8XTA   HL34  875  24.249   0.252   5.257
    8XTA   HL35  876  24.085   0.338   5.157
    8XTA   HL36  877  24.191   0.452   5.073
    8XTA   HL37  878  24.071   0.723   5.067
    8XTA   HL38  879  24.169   0.680   5.185
    8XTA   HL39  880  23.989   0.764   5.347
    8XTA   HL40  881  23.885   0.797   5.217
    8XTA   HL41  882  24.023   0.887   5.234
    8XTA    CO8  883  23.632   1.171   6.723
    8XTA    CO9  884  23.620   1.275   6.498
    8XTA    OA6  885  23.685   1.286   6.366
    8XTA   HL42  886  23.632   1.267   6.771
    8XTA   HL43  887  23.694   1.114   6.791
    8XTA   HL44  888  23.878   0.400   5.256
    8XTA   HL45  889  23.966   0.511   5.355
    8XTA   CO10  890  23.906   0.507   5.266
    8XTA   CO11  891  23.929   0.512   5.017
    8XTA    OA7  892  23.822   0.575   5.258
    8XTA   HL46  893  23.825   0.606   5.018
    8XTA   HL47  894  23.992   0.552   4.939
    8XTA   HL48  895  23.634   1.375   6.543
    8XTA   HL49  896  23.512   1.255   6.486
    9XTA     NT  897  25.601   0.073   0.877
    9XTA    CN1  898  25.503  -0.021   0.889
    9XTA     C1  899  25.519  -0.145   0.821
    9XTA     C2  900  25.426  -0.249   0.832
    9XTA     C3  901  25.313  -0.237   0.919
    9XTA     C4  902  25.294  -0.113   0.982
    9XTA     C5  903  25.387  -0.007   0.974
    9XTA    CN2  904  25.729   0.035   0.874
    9XTA     C6  905  25.816   0.067   0.770
    9XTA     C7  906  25.953   0.028   0.774
    9XTA     C8  907  26.001  -0.044   0.880
    9XTA     C9  908  25.908  -0.083   0.983
    9XTA    C10  909  25.773  -0.038   0.984
    9XTA    CN3  910  25.569   0.199   0.845
    9XTA    C11  911  25.492   0.226   0.733
    9XTA    C12  912  25.471   0.359   0.691
    9XTA    C13  913  25.541   0.462   0.751
    9XTA    C14  914  25.631   0.434   0.855
    9XTA    C15  915  25.635   0.304   0.909
    9XTA     H1  916  25.610  -0.155   0.767
    9XTA     H2  917  25.464  -0.338   0.792
    9XTA     H3  918  25.203  -0.093   1.044
    9XTA     H4  919  25.373   0.089   1.017
    9XTA     H5  920  25.789   0.135   0.693
    9XTA     H6  921  26.023   0.063   0.696
    9XTA     H7  922  25.936  -0.150   1.064
    9XTA     H8  923  25.715  -0.059   1.070
    9XTA     H9  924  25.457   0.145   0.670
    9XTA    H10  925  25.412   0.373   0.597
    9XTA    H11  926  25.678   0.523   0.895
    9XTA    H12  927  25.693   0.288   0.998
    9XTA    OA1  928  25.219  -0.335   0.938
    9XTA    CO1  929  25.243  -0.463   0.886
    9XTA    OA2  930  26.131  -0.090   0.906
    9XTA    CO2  931  26.225  -0.073   0.805
    9XTA    CL1  932  26.283   0.071   0.801
    9XTA    CL2  933  26.412   0.070   0.719
    9XTA    CL3  934  26.475   0.205   0.687
    9XTA    CL4  935  26.479   0.314   0.792
    9XTA    CO3  936  26.575   0.288   0.912
    9XTA    OA3  937  26.541   0.161   0.972
    9XTA    CO4  938  26.605   0.144   1.095
    9XTA    CT1  939  26.589   0.002   1.167
    9XTA    CL5  940  26.687  -0.104   1.115
    9XTA    CL6  941  26.663  -0.144   0.969
    9XTA    OA4  942  25.538   0.594   0.708
    9XTA    CO5  943  25.408   0.661   0.724
    9XTA    CL7  944  25.399   0.694   0.874
    9XTA    CL8  945  25.307   0.813   0.907
    9XTA    CL9  946  25.163   0.770   0.911
    9XTA   CL10  947  25.087   0.899   0.935
    9XTA    CO6  948  24.943   0.878   0.979
    9XTA    OA5  949  24.925   0.825   1.108
    9XTA    CO7  950  24.900   0.918   1.212
    9XTA    CT2  951  24.902   0.852   1.352
    9XTA   CL11  952  25.039   0.780   1.376
    9XTA   CL12  953  25.045   0.708   1.510
    9XTA    HL1  954  25.156  -0.524   0.896
    9XTA    HL2  955  25.266  -0.451   0.782
    9XTA    HL3  956  25.329  -0.508   0.935
    9XTA    HL4  957  26.308  -0.134   0.833
    9XTA    HL5  958  26.184  -0.113   0.716
    9XTA    HL6  959  26.291   0.112   0.903
    9XTA    HL7  960  26.212   0.140   0.760
    9XTA    HL8  961  26.400   0.010   0.634
    9XTA    HL9  962  26.489   0.015   0.773
    9XTA   HL10  963  26.579   0.192   0.657
    9XTA   HL11  964  26.423   0.243   0.597
    9XTA   HL12  965  26.369   0.325   0.835
    9XTA   HL13  966  26.494   0.413   0.741
    9XTA   HL14  967  26.684   0.296   0.883
    9XTA   HL15  968  26.566   0.358   0.986
    9XTA   HL16  969  26.713   0.171   1.099
    9XTA   HL17  970  26.562   0.217   1.171
    9XTA   HL18  971  26.677  -0.190   1.180
    9XTA   HL19  972  26.789  -0.066   1.129
    9XTA   HL20  973  26.727  -0.223   0.941
    9XTA   HL21  974  26.678  -0.067   0.899
    9XTA   HL22  975  26.566  -0.194   0.957
    9XTA   HL23  976  25.323   0.589   0.700
    9XTA   HL24  977  25.404   0.755   0.668
    9XTA   HL25  978  25.385   0.600   0.925
    9XTA   HL26  979  25.505   0.724   0.897
    9XTA   HL27  980  25.328   0.836   1.009
    9XTA   HL28  981  25.324   0.907   0.852
    9XTA   HL29  982  25.116   0.719   0.823
    9XTA   HL30  983  25.140   0.696   0.988
    9XTA   HL31  984  25.142   0.962   1.012
    9XTA   HL32  985  25.091   0.963   0.849
    9XTA   HL33  986  24.898   0.981   0.975
    9XTA   HL34  987  24.890   0.826   0.904
    9XTA   HL35  988  24.803   0.964   1.194
    9XTA   HL36  989  24.973   1.003   1.217
    9XTA   HL37  990  25.113   0.855   1.366
    9XTA   HL38  991  25.052   0.707   1.298
    9XTA   HL39  992  25.040   0.755   1.605
    9XTA   HL40  993  25.146   0.668   1.517
    9XTA   HL41  994  24.970   0.632   1.520
    9XTA    CO8  995  26.440  -0.034   1.160
    9XTA    CO9  996  26.621   0.021   1.313
    9XTA    OA6  997  26.357   0.062   1.225
    9XTA   HL42  998  26.411  -0.136   1.194
    9XTA   HL43  999  26.398  -0.030   1.059
    9XTA   HL44 1000  24.764   0.699   1.270
    9XTA   HL45 1001  24.662   0.834   1.340
    9XTA   CO10 1002  24.772   0.763   1.361
    9XTA   CO11 1003  24.872   0.962   1.463
    9XTA    OA7 1004  24.965   1.014   1.465
    9XTA   HL46 1005  24.777   1.009   1.447
    9XTA   HL47 1006  24.860   0.909   1.557
    9XTA   HL48 1007  26.625  -0.073   1.357
    9XTA   HL49 1008  26.542   0.081   1.351
   10XTA     NT 1009  26.932  -0.375   3.079
   10XTA    CN1 1010  26.963  -0.507   3.092
   10XTA     C1 1011  27.069  -0.560   3.017
   10XTA     C2 1012  27.112  -0.691   3.040
   10XTA     C3 1013  27.053  -0.775   3.137
   10XTA     C4 1014  26.932  -0.727   3.202
   10XTA     C5 1015  26.888  -0.594   3.185
   10XTA    CN2 1016  26.888  -0.327   2.960
   10XTA     C6 1017  26.755  -0.370   2.919
   10XTA     C7 1018  26.711  -0.314   2.798
   10XTA     C8 1019  26.787  -0.220   2.728
   10XTA     C9 1020  26.913  -0.182   2.771
   10XTA    C10 1021  26.964  -0.230   2.888
   10XTA    CN3 1022  26.936  -0.298   3.193
   10XTA    C11 1023  27.034  -0.306   3.296
   10XTA    C12 1024  27.038  -0.226   3.410
   10XTA    C13 1025  26.941  -0.128   3.430
   10XTA    C14 1026  26.837  -0.117   3.335
   10XTA    C15 1027  26.836  -0.200   3.222
   10XTA     H1 1028  27.124  -0.503   2.948
   10XTA     H2 1029  27.187  -0.729   2.972
   10XTA     H3 1030  26.870  -0.788   3.274
   10XTA     H4 1031  26.802  -0.564   3.239
   10XTA     H5 1032  26.682  -0.433   2.974
   10XTA     H6 1033  26.615  -0.344   2.754
   10XTA     H7 1034  26.981  -0.114   2.706
   10XTA     H8 1035  27.064  -0.207   2.916
   10XTA     H9 1036  27.119  -0.369   3.289
   10XTA    H10 1037  27.112  -0.223   3.490
   10XTA    H11 1038  26.751  -0.055   3.348
   10XTA    H12 1039  26.755  -0.189   3.152
   10XTA    OA1 1040  27.110  -0.896   3.159
   10XTA    CO1 1041  27.088  -0.952   3.284
   10XTA    OA2 1042  26.735  -0.158   2.616
   10XTA    CO2 1043  26.670  -0.239   2.528
   10XTA    CL1 1044  26.774  -0.325   2.452
   10XTA    CL2 1045  26.835  -0.450   2.526
   10XTA    CL3 1046  26.838  -0.581   2.442
   10XTA    CL4 1047  26.896  -0.699   2.523
   10XTA    CO3 1048  26.866  -0.846   2.485
   10XTA    OA3 1049  26.918  -0.880   2.359
   10XTA    CO4 1050  27.058  -0.903   2.346
   10XTA    CT1 1051  27.107  -0.857   2.199
   10XTA    CL5 1052  27.024  -0.925   2.088
   10XTA    CL6 1053  27.043  -1.077   2.081
   10XTA    OA4 1054  26.932  -0.048   3.545
   10XTA    CO5 1055  27.061  -0.002   3.595
   10XTA    CL7 1056  27.052  -0.018   3.748
   10XTA    CL8 1057  27.048  -0.168   3.789
   10XTA    CL9 1058  27.185  -0.228   3.812
   10XTA   CL10 1059  27.191  -0.377   3.825
   10XTA    CO6 1060  27.164  -0.464   3.703
   10XTA    OA5 1061  27.254  -0.453   3.599
   10XTA    CO7 1062  27.369  -0.522   3.617
   10XTA    CT2 1063  27.493  -0.428   3.591
   10XTA   CL11 1064  27.463  -0.342   3.472
   10XTA   CL12 1065  27.572  -0.264   3.404
   10XTA    HL1 1066  27.154  -0.910   3.360
   10XTA    HL2 1067  26.986  -0.961   3.313
   10XTA    HL3 1068  27.133  -1.049   3.289
   10XTA    HL4 1069  26.585  -0.294   2.557
   10XTA    HL5 1070  26.642  -0.165   2.452
   10XTA    HL6 1071  26.848  -0.252   2.421
   10XTA    HL7 1072  26.717  -0.351   2.362
   10XTA    HL8 1073  26.769  -0.464   2.613
   10XTA    HL9 1074  26.930  -0.424   2.571
   10XTA   HL10 1075  26.744  -0.613   2.416
   10XTA   HL11 1076  26.895  -0.564   2.357
   10XTA   HL12 1077  26.878  -0.685   2.635
   10XTA   HL13 1078  26.999  -0.676   2.527
   10XTA   HL14 1079  26.915  -0.916   2.554
   10XTA   HL15 1080  26.757  -0.858   2.483
   10XTA   HL16 1081  27.108  -0.841   2.423
   10XTA   HL17 1082  27.093  -0.997   2.383
   10XTA   HL18 1083  27.056  -0.882   1.993
   10XTA   HL19 1084  26.921  -0.907   2.107
   10XTA   HL20 1085  26.989  -1.117   2.162
   10XTA   HL21 1086  27.149  -1.110   2.100
   10XTA   HL22 1087  27.007  -1.120   1.984
   10XTA   HL23 1088  27.069   0.099   3.557
   10XTA   HL24 1089  27.148  -0.057   3.568
   10XTA   HL25 1090  27.134   0.036   3.796
   10XTA   HL26 1091  26.958   0.021   3.780
   10XTA   HL27 1092  26.987  -0.166   3.877
   10XTA   HL28 1093  26.992  -0.222   3.713
   10XTA   HL29 1094  27.241  -0.196   3.730
   10XTA   HL30 1095  27.234  -0.174   3.890
   10XTA   HL31 1096  27.284  -0.398   3.875
   10XTA   HL32 1097  27.116  -0.397   3.901
   10XTA   HL33 1098  27.153  -0.570   3.738
   10XTA   HL34 1099  27.070  -0.436   3.662
   10XTA   HL35 1100  27.365  -0.604   3.549
   10XTA   HL36 1101  27.365  -0.575   3.715
   10XTA   HL37 1102  27.382  -0.271   3.495
   10XTA   HL38 1103  27.423  -0.400   3.394
   10XTA   HL39 1104  27.631  -0.341   3.351
   10XTA   HL40 1105  27.638  -0.213   3.472
   10XTA   HL41 1106  27.527  -0.193   3.328
   10XTA    CO8 1107  27.263  -0.891   2.203
   10XTA    CO9 1108  27.088  -0.701   2.177
   10XTA    OA6 1109  27.134  -0.631   2.292
   10XTA   HL42 1110  27.279  -0.987   2.247
   10XTA   HL43 1111  27.308  -0.832   2.284
   10XTA   HL44 1112  27.696  -0.442   3.562
   10XTA   HL45 1113  27.628  -0.584   3.651
   10XTA   CO10 1114  27.616  -0.513   3.565
   10XTA   CO11 1115  27.516  -0.338   3.716
   10XTA    OA7 1116  27.601  -0.591   3.455
   10XTA   HL46 1117  27.506  -0.393   3.807
   10XTA   HL47 1118  27.444  -0.259   3.702
   10XTA   HL48 1119  26.984  -0.677   2.176
   10XTA   HL49 1120  27.128  -0.664   2.082
   11XTA     NT 1121  24.746  -0.325   1.584
   11XTA    CN1 1122  24.675  -0.237   1.521
   11XTA     C1 1123  24.568  -0.176   1.581
   11XTA     C2 1124  24.499  -0.073   1.509
   11XTA     C3 1125  24.524  -0.064   1.369
   11XTA     C4 1126  24.634  -0.127   1.309
   11XTA     C5 1127  24.712  -0.214   1.391
   11XTA    CN2 1128  24.694  -0.452   1.609
   11XTA     C6 1129  24.707  -0.516   1.735
   11XTA     C7 1130  24.644  -0.642   1.759
   11XTA     C8 1131  24.590  -0.714   1.649
   11XTA     C9 1132  24.596  -0.657   1.520
   11XTA    C10 1133  24.643  -0.528   1.505
   11XTA    CN3 1134  24.865  -0.292   1.635
   11XTA    C11 1135  24.979  -0.336   1.574
   11XTA    C12 1136  25.100  -0.305   1.631
   11XTA    C13 1137  25.111  -0.228   1.746
   11XTA    C14 1138  25.001  -0.188   1.814
   11XTA    C15 1139  24.871  -0.210   1.758
   11XTA     H1 1140  24.541  -0.182   1.686
   11XTA     H2 1141  24.426  -0.014   1.562
   11XTA     H3 1142  24.657  -0.102   1.208
   11XTA     H4 1143  24.798  -0.267   1.350
   11XTA     H5 1144  24.753  -0.466   1.822
   11XTA     H6 1145  24.645  -0.680   1.858
   11XTA     H7 1146  24.560  -0.709   1.431
   11XTA     H8 1147  24.629  -0.472   1.407
   11XTA     H9 1148  24.979  -0.405   1.482
   11XTA    H10 1149  25.188  -0.350   1.578
   11XTA    H11 1150  25.010  -0.143   1.907
   11XTA    H12 1151  24.786  -0.168   1.812
   11XTA    OA1 1152  24.456   0.022   1.289
   11XTA    CO1 1153  24.350   0.097   1.340
   11XTA    OA2 1154  24.540  -0.842   1.665
   11XTA    CO2 1155  24.614  -0.924   1.757
   11XTA    CL1 1156  24.727  -0.990   1.679
   11XTA    CL2 1157  24.847  -0.908   1.631
   11XTA    CL3 1158  24.939  -0.867   1.744
   11XTA    CL4 1159  25.026  -0.742   1.719
   11XTA    CO3 1160  25.099  -0.692   1.853
   11XTA    OA3 1161  24.990  -0.666   1.938
   11XTA    CO4 1162  25.026  -0.684   2.075
   11XTA    CT1 1163  25.117  -0.583   2.149
   11XTA    CL5 1164  25.077  -0.442   2.096
   11XTA    CL6 1165  24.925  -0.405   2.099
   11XTA    OA4 1166  25.232  -0.197   1.798
   11XTA    CO5 1167  25.326  -0.143   1.710
   11XTA    CL7 1168  25.441  -0.110   1.801
   11XTA    CL8 1169  25.578  -0.070   1.723
   11XTA    CL9 1170  25.683  -0.004   1.814
   11XTA   CL10 1171  25.703  -0.082   1.948
   11XTA    CO6 1172  25.729  -0.231   1.925
   11XTA    OA5 1173  25.718  -0.302   2.049
   11XTA    CO7 1174  25.583  -0.341   2.077
   11XTA    CT2 1175  25.579  -0.410   2.212
   11XTA   CL11 1176  25.548  -0.310   2.321
   11XTA   CL12 1177  25.401  -0.265   2.329
   11XTA    HL1 1178  24.374   0.164   1.425
   11XTA    HL2 1179  24.295   0.149   1.255
   11XTA    HL3 1180  24.270   0.037   1.374
   11XTA    HL4 1181  24.648  -0.870   1.844
   11XTA    HL5 1182  24.554  -1.009   1.796
   11XTA    HL6 1183  24.676  -1.043   1.597
   11XTA    HL7 1184  24.780  -1.050   1.750
   11XTA    HL8 1185  24.821  -0.818   1.579
   11XTA    HL9 1186  24.897  -0.977   1.567
   11XTA   HL10 1187  24.884  -0.859   1.836
   11XTA   HL11 1188  25.011  -0.948   1.764
   11XTA   HL12 1189  24.969  -0.662   1.666
   11XTA   HL13 1190  25.105  -0.773   1.645
   11XTA   HL14 1191  25.177  -0.761   1.892
   11XTA   HL15 1192  25.160  -0.598   1.833
   11XTA   HL16 1193  24.934  -0.702   2.128
   11XTA   HL17 1194  25.074  -0.784   2.091
   11XTA   HL18 1195  25.103  -0.431   1.984
   11XTA   HL19 1196  25.128  -0.355   2.146
   11XTA   HL20 1197  24.874  -0.486   2.047
   11XTA   HL21 1198  24.905  -0.308   2.038
   11XTA   HL22 1199  24.889  -0.391   2.200
   11XTA   HL23 1200  25.280  -0.059   1.651
   11XTA   HL24 1201  25.354  -0.223   1.641
   11XTA   HL25 1202  25.403  -0.026   1.860
   11XTA   HL26 1203  25.463  -0.184   1.873
   11XTA   HL27 1204  25.618  -0.160   1.679
   11XTA   HL28 1205  25.559  -0.012   1.637
   11XTA   HL29 1206  25.769   0.010   1.749
   11XTA   HL30 1207  25.640   0.099   1.846
   11XTA   HL31 1208  25.782  -0.039   2.004
   11XTA   HL32 1209  25.605  -0.066   1.997
   11XTA   HL33 1210  25.668  -0.294   1.850
   11XTA   HL34 1211  25.829  -0.244   1.896
   11XTA   HL35 1212  25.554  -0.411   2.002
   11XTA   HL36 1213  25.519  -0.254   2.071
   11XTA   HL37 1214  25.613  -0.224   2.312
   11XTA   HL38 1215  25.555  -0.356   2.419
   11XTA   HL39 1216  25.349  -0.241   2.234
   11XTA   HL40 1217  25.395  -0.175   2.389
   11XTA   HL41 1218  25.334  -0.333   2.383
   11XTA    CO8 1219  25.261  -0.608   2.124
   11XTA    CO9 1220  25.106  -0.593   2.302
   11XTA    OA6 1221  25.339  -0.490   2.140
   11XTA   HL42 1222  25.281  -0.634   2.027
   11XTA   HL43 1223  25.292  -0.690   2.188
   11XTA   HL44 1224  25.755  -0.534   2.168
   11XTA   HL45 1225  25.779  -0.393   2.290
   11XTA   CO10 1226  25.713  -0.476   2.254
   11XTA   CO11 1227  25.471  -0.519   2.198
   11XTA    OA7 1228  25.693  -0.550   2.331
   11XTA   HL46 1229  25.452  -0.585   2.314
   11XTA   HL47 1230  25.514  -0.593   2.135
   11XTA   HL48 1231  25.178  -0.533   2.346
   11XTA   HL49 1232  25.011  -0.559   2.330
   12XTA     NT 1233  31.093  -0.360   5.809
   12XTA    CN1 1234  31.142  -0.376   5.938
   12XTA     C1 1235  31.092  -0.472   6.025
   12XTA     C2 1236  31.120  -0.474   6.159
   12XTA     C3 1237  31.205  -0.378   6.221
   12XTA     C4 1238  31.251  -0.280   6.134
   12XTA     C5 1239  31.225  -0.281   5.997
   12XTA    CN2 1240  31.066  -0.241   5.760
   12XTA     C6 1241  31.137  -0.183   5.656
   12XTA     C7 1242  31.108  -0.058   5.605
   12XTA     C8 1243  31.005   0.015   5.661
   12XTA     C9 1244  30.921  -0.045   5.762
   12XTA    C10 1245  30.947  -0.181   5.803
   12XTA    CN3 1246  31.078  -0.467   5.730
   12XTA    C11 1247  30.952  -0.493   5.673
   12XTA    C12 1248  30.935  -0.611   5.595
   12XTA    C13 1249  31.037  -0.703   5.581
   12XTA    C14 1250  31.163  -0.671   5.626
   12XTA    C15 1251  31.188  -0.552   5.706
   12XTA     H1 1252  31.018  -0.537   5.990
   12XTA     H2 1253  31.071  -0.545   6.221
   12XTA     H3 1254  31.309  -0.200   6.159
   12XTA     H4 1255  31.253  -0.199   5.932
   12XTA     H5 1256  31.220  -0.241   5.610
   12XTA     H6 1257  31.161  -0.020   5.523
   12XTA     H7 1258  30.843   0.016   5.813
   12XTA     H8 1259  30.886  -0.232   5.870
   12XTA     H9 1260  30.874  -0.420   5.679
   12XTA    H10 1261  30.832  -0.617   5.551
   12XTA    H11 1262  31.251  -0.733   5.610
   12XTA    H12 1263  31.288  -0.519   5.728
   12XTA    OA1 1264  31.239  -0.397   6.355
   12XTA    CO1 1265  31.296  -0.284   6.417
   12XTA    OA2 1266  30.986   0.141   5.619
   12XTA    CO2 1267  30.952   0.162   5.482
   12XTA    CL1 1268  30.810   0.120   5.463
   12XTA    CL2 1269  30.758   0.173   5.330
   12XTA    CL3 1270  30.829   0.121   5.204
   12XTA    CL4 1271  30.835  -0.034   5.180
   12XTA    CO3 1272  30.920  -0.057   5.058
   12XTA    OA3 1273  31.058  -0.029   5.091
   12XTA    CO4 1274  31.149  -0.104   5.006
   12XTA    CT1 1275  31.296  -0.087   5.057
   12XTA    CL5 1276  31.306  -0.128   5.204
   12XTA    CL6 1277  31.444  -0.154   5.262
   12XTA    OA4 1278  31.012  -0.810   5.498
   12XTA    CO5 1279  31.064  -0.936   5.537
   12XTA    CL7 1280  30.999  -0.987   5.662
   12XTA    CL8 1281  30.849  -0.996   5.647
   12XTA    CL9 1282  30.784  -1.089   5.743
   12XTA   CL10 1283  30.649  -1.127   5.675
   12XTA    CO6 1284  30.548  -1.209   5.763
   12XTA    OA5 1285  30.617  -1.329   5.798
   12XTA    CO7 1286  30.545  -1.437   5.823
   12XTA    CT2 1287  30.649  -1.551   5.843
   12XTA   CL11 1288  30.573  -1.680   5.888
   12XTA   CL12 1289  30.653  -1.809   5.902
   12XTA    HL1 1290  31.404  -0.289   6.395
   12XTA    HL2 1291  31.249  -0.186   6.384
   12XTA    HL3 1292  31.272  -0.298   6.524
   12XTA    HL4 1293  30.960   0.267   5.459
   12XTA    HL5 1294  31.022   0.107   5.416
   12XTA    HL6 1295  30.746   0.153   5.543
   12XTA    HL7 1296  30.792   0.015   5.470
   12XTA    HL8 1297  30.751   0.276   5.315
   12XTA    HL9 1298  30.658   0.147   5.325
   12XTA   HL10 1299  30.762   0.145   5.124
   12XTA   HL11 1300  30.924   0.176   5.196
   12XTA   HL12 1301  30.730  -0.060   5.165
   12XTA   HL13 1302  30.881  -0.099   5.260
   12XTA   HL14 1303  30.909  -0.157   5.020
   12XTA   HL15 1304  30.910   0.011   4.979
   12XTA   HL16 1305  31.130  -0.205   5.015
   12XTA   HL17 1306  31.125  -0.083   4.903
   12XTA   HL18 1307  31.252  -0.223   5.215
   12XTA   HL19 1308  31.245  -0.053   5.255
   12XTA   HL20 1309  31.503  -0.066   5.242
   12XTA   HL21 1310  31.494  -0.243   5.227
   12XTA   HL22 1311  31.454  -0.177   5.369
   12XTA   HL23 1312  31.169  -0.937   5.540
   12XTA   HL24 1313  31.047  -1.000   5.453
   12XTA   HL25 1314  31.030  -1.082   5.695
   12XTA   HL26 1315  31.020  -0.916   5.736
   12XTA   HL27 1316  30.800  -0.900   5.620
   12XTA   HL28 1317  30.851  -1.059   5.555
   12XTA   HL29 1318  30.848  -1.170   5.774
   12XTA   HL30 1319  30.755  -1.050   5.839
   12XTA   HL31 1320  30.593  -1.033   5.654
   12XTA   HL32 1321  30.665  -1.189   5.588
   12XTA   HL33 1322  30.522  -1.155   5.858
   12XTA   HL34 1323  30.454  -1.241   5.706
   12XTA   HL35 1324  30.483  -1.469   5.738
   12XTA   HL36 1325  30.488  -1.417   5.910
   12XTA   HL37 1326  30.492  -1.696   5.814
   12XTA   HL38 1327  30.517  -1.663   5.981
   12XTA   HL39 1328  30.736  -1.796   5.832
   12XTA   HL40 1329  30.606  -1.901   5.870
   12XTA   HL41 1330  30.687  -1.825   6.008
   12XTA    CO8 1331  31.331   0.064   5.046
   12XTA    CO9 1332  31.385  -0.163   4.969
   12XTA    OA6 1333  31.464   0.094   5.075
   12XTA   HL42 1334  31.257   0.116   5.106
   12XTA   HL43 1335  31.317   0.102   4.942
   12XTA   HL44 1336  30.821  -1.608   5.943
   12XTA   HL45 1337  30.832  -1.401   5.859
   12XTA   CO10 1338  30.767  -1.510   5.929
   12XTA   CO11 1339  30.706  -1.570   5.705
   12XTA    OA7 1340  30.808  -1.618   5.707
   12XTA   HL46 1341  30.628  -1.625   5.644
   12XTA   HL47 1342  30.708  -1.466   5.658
   12XTA   HL48 1343  31.491  -0.130   4.987
   12XTA   HL49 1344  31.379  -0.269   4.996
   13XTA     NT 1345  23.634   3.931   6.025
   13XTA    CN1 1346  23.601   4.061   5.994
   13XTA     C1 1347  23.498   4.128   6.065
   13XTA     C2 1348  23.484   4.267   6.045
   13XTA     C3 1349  23.560   4.339   5.951
   13XTA     C4 1350  23.658   4.274   5.873
   13XTA     C5 1351  23.669   4.137   5.895
   13XTA    CN2 1352  23.768   3.921   6.065
   13XTA     C6 1353  23.829   4.019   6.152
   13XTA     C7 1354  23.965   4.011   6.183
   13XTA     C8 1355  24.047   3.907   6.141
   13XTA     C9 1356  23.979   3.797   6.073
   13XTA    C10 1357  23.845   3.810   6.030
   13XTA    CN3 1358  23.546   3.828   6.040
   13XTA    C11 1359  23.487   3.766   5.925
   13XTA    C12 1360  23.393   3.665   5.940
   13XTA    C13 1361  23.339   3.641   6.068
   13XTA    C14 1362  23.382   3.716   6.177
   13XTA    C15 1363  23.486   3.810   6.168
   13XTA     H1 1364  23.452   4.082   6.158
   13XTA     H2 1365  23.426   4.327   6.108
   13XTA     H3 1366  23.730   4.322   5.812
   13XTA     H4 1367  23.755   4.094   5.842
   13XTA     H5 1368  23.777   4.107   6.173
   13XTA     H6 1369  24.024   4.088   6.225
   13XTA     H7 1370  24.023   3.710   6.043
   13XTA     H8 1371  23.802   3.725   5.979
   13XTA     H9 1372  23.527   3.792   5.834
   13XTA    H10 1373  23.361   3.610   5.852
   13XTA    H11 1374  23.348   3.682   6.275
   13XTA    H12 1375  23.510   3.872   6.256
   13XTA    OA1 1376  23.543   4.477   5.940
   13XTA    CO1 1377  23.608   4.544   5.834
   13XTA    OA2 1378  24.178   3.901   6.184
   13XTA    CO2 1379  24.262   3.804   6.123
   13XTA    CL1 1380  24.376   3.789   6.217
   13XTA    CL2 1381  24.461   3.661   6.199
   13XTA    CL3 1382  24.530   3.643   6.068
   13XTA    CL4 1383  24.627   3.526   6.067
   13XTA    CO3 1384  24.718   3.517   5.950
   13XTA    OA3 1385  24.839   3.459   6.000
   13XTA    CO4 1386  24.941   3.446   5.899
   13XTA    CT1 1387  25.040   3.331   5.937
   13XTA    CL5 1388  24.974   3.190   5.924
   13XTA    CL6 1389  24.933   3.147   5.783
   13XTA    OA4 1390  23.254   3.533   6.079
   13XTA    CO5 1391  23.272   3.450   6.189
   13XTA    CL7 1392  23.203   3.312   6.162
   13XTA    CL8 1393  23.258   3.207   6.271
   13XTA    CL9 1394  23.206   3.069   6.240
   13XTA   CL10 1395  23.248   3.023   6.094
   13XTA    CO6 1396  23.198   2.888   6.056
   13XTA    OA5 1397  23.227   2.855   5.922
   13XTA    CO7 1398  23.257   2.724   5.902
   13XTA    CT2 1399  23.252   2.696   5.755
   13XTA   CL11 1400  23.371   2.761   5.677
   13XTA   CL12 1401  23.374   2.728   5.525
   13XTA    HL1 1402  23.716   4.538   5.846
   13XTA    HL2 1403  23.586   4.512   5.732
   13XTA    HL3 1404  23.575   4.651   5.830
   13XTA    HL4 1405  24.216   3.704   6.127
   13XTA    HL5 1406  24.296   3.839   6.023
   13XTA    HL6 1407  24.331   3.790   6.309
   13XTA    HL7 1408  24.441   3.873   6.233
   13XTA    HL8 1409  24.393   3.573   6.213
   13XTA    HL9 1410  24.529   3.649   6.287
   13XTA   HL10 1411  24.461   3.633   5.984
   13XTA   HL11 1412  24.599   3.730   6.056
   13XTA   HL12 1413  24.579   3.432   6.071
   13XTA   HL13 1414  24.688   3.537   6.155
   13XTA   HL14 1415  24.668   3.452   5.880
   13XTA   HL15 1416  24.751   3.611   5.914
   13XTA   HL16 1417  24.894   3.427   5.805
   13XTA   HL17 1418  25.004   3.537   5.890
   13XTA   HL18 1419  24.895   3.170   5.995
   13XTA   HL19 1420  25.050   3.112   5.947
   13XTA   HL20 1421  24.838   3.199   5.760
   13XTA   HL21 1422  24.915   3.038   5.783
   13XTA   HL22 1423  25.016   3.163   5.715
   13XTA   HL23 1424  23.236   3.492   6.280
   13XTA   HL24 1425  23.371   3.426   6.216
   13XTA   HL25 1426  23.098   3.320   6.174
   13XTA   HL26 1427  23.217   3.274   6.067
   13XTA   HL27 1428  23.370   3.214   6.263
   13XTA   HL28 1429  23.216   3.229   6.370
   13XTA   HL29 1430  23.242   3.009   6.324
   13XTA   HL30 1431  23.101   3.076   6.255
   13XTA   HL31 1432  23.193   3.085   6.016
   13XTA   HL32 1433  23.352   3.034   6.092
   13XTA   HL33 1434  23.248   2.824   6.130
   13XTA   HL34 1435  23.089   2.878   6.068
   13XTA   HL35 1436  23.181   2.664   5.945
   13XTA   HL36 1437  23.353   2.690   5.941
   13XTA   HL37 1438  23.467   2.723   5.716
   13XTA   HL38 1439  23.361   2.863   5.703
   13XTA   HL39 1440  23.429   2.811   5.473
   13XTA   HL40 1441  23.277   2.725   5.485
   13XTA   HL41 1442  23.409   2.628   5.504
   13XTA    CO8 1443  25.090   3.361   6.078
   13XTA    CO9 1444  25.174   3.342   5.851
   13XTA    OA6 1445  25.239   3.259   5.869
   13XTA   HL42 1446  25.165   3.288   6.111
   13XTA   HL43 1447  24.991   3.327   6.172
   13XTA   HL44 1448  23.120   2.854   5.699
   13XTA   HL45 1449  23.045   2.724   5.774
   13XTA   CO10 1450  23.118   2.746   5.704
   13XTA   CO11 1451  23.264   2.539   5.739
   13XTA    OA7 1452  23.381   2.486   5.793
   13XTA   HL46 1453  23.181   2.486   5.792
   13XTA   HL47 1454  23.263   2.506   5.635
   13XTA   HL48 1455  25.234   3.433   5.864
   13XTA   HL49 1456  25.144   3.352   5.749
   14XTA     NT 1457  26.919   5.000   5.182
   14XTA    CN1 1458  26.930   4.905   5.081
   14XTA     C1 1459  26.850   4.791   5.087
   14XTA     C2 1460  26.854   4.704   4.980
   14XTA     C3 1461  26.941   4.716   4.872
   14XTA     C4 1462  27.029   4.828   4.873
   14XTA     C5 1463  27.027   4.920   4.980
   14XTA    CN2 1464  26.964   4.973   5.305
   14XTA     C6 1465  26.891   5.019   5.416
   14XTA     C7 1466  26.941   4.991   5.545
   14XTA     C8 1467  27.070   4.945   5.558
   14XTA     C9 1468  27.147   4.908   5.445
   14XTA    C10 1469  27.086   4.912   5.320
   14XTA    CN3 1470  26.896   5.128   5.144
   14XTA    C11 1471  26.999   5.226   5.134
   14XTA    C12 1472  26.979   5.354   5.087
   14XTA    C13 1473  26.845   5.395   5.060
   14XTA    C14 1474  26.738   5.301   5.070
   14XTA    C15 1475  26.766   5.168   5.111
   14XTA     H1 1476  26.782   4.766   5.163
   14XTA     H2 1477  26.780   4.620   4.965
   14XTA     H3 1478  27.082   4.840   4.786
   14XTA     H4 1479  27.095   5.011   5.002
   14XTA     H5 1480  26.791   5.060   5.408
   14XTA     H6 1481  26.881   5.020   5.627
   14XTA     H7 1482  27.243   4.871   5.462
   14XTA     H8 1483  27.136   4.874   5.239
   14XTA     H9 1484  27.095   5.208   5.157
   14XTA    H10 1485  27.067   5.415   5.089
   14XTA    H11 1486  26.635   5.325   5.035
   14XTA    H12 1487  26.696   5.089   5.125
   14XTA    OA1 1488  26.932   4.629   4.767
   14XTA    CO1 1489  26.966   4.660   4.637
   14XTA    OA2 1490  27.113   4.927   5.688
   14XTA    CO2 1491  27.260   4.935   5.705
   14XTA    CL1 1492  27.327   4.811   5.736
   14XTA    CL2 1493  27.476   4.826   5.764
   14XTA    CL3 1494  27.556   4.693   5.749
   14XTA    CL4 1495  27.684   4.719   5.668
   14XTA    CO3 1496  27.772   4.594   5.649
   14XTA    OA3 1497  27.708   4.521   5.542
   14XTA    CO4 1498  27.786   4.417   5.488
   14XTA    CT1 1499  27.701   4.355   5.382
   14XTA    CL5 1500  27.564   4.306   5.446
   14XTA    CL6 1501  27.475   4.224   5.352
   14XTA    OA4 1502  26.827   5.528   5.021
   14XTA    CO5 1503  26.708   5.572   4.974
   14XTA    CL7 1504  26.684   5.518   4.835
   14XTA    CL8 1505  26.788   5.569   4.729
   14XTA    CL9 1506  26.789   5.488   4.599
   14XTA   CL10 1507  26.653   5.483   4.524
   14XTA    CO6 1508  26.598   5.626   4.496
   14XTA    OA5 1509  26.489   5.615   4.404
   14XTA    CO7 1510  26.381   5.708   4.426
   14XTA    CT2 1511  26.420   5.851   4.379
   14XTA   CL11 1512  26.280   5.901   4.323
   14XTA   CL12 1513  26.174   5.946   4.430
   14XTA    HL1 1514  26.983   4.576   4.559
   14XTA    HL2 1515  26.898   4.728   4.591
   14XTA    HL3 1516  27.056   4.721   4.639
   14XTA    HL4 1517  27.306   4.974   5.617
   14XTA    HL5 1518  27.293   5.003   5.778
   14XTA    HL6 1519  27.323   4.737   5.654
   14XTA    HL7 1520  27.274   4.762   5.813
   14XTA    HL8 1521  27.501   4.858   5.866
   14XTA    HL9 1522  27.517   4.896   5.691
   14XTA   HL10 1523  27.588   4.671   5.850
   14XTA   HL11 1524  27.505   4.610   5.698
   14XTA   HL12 1525  27.756   4.790   5.709
   14XTA   HL13 1526  27.661   4.762   5.571
   14XTA   HL14 1527  27.876   4.626   5.604
   14XTA   HL15 1528  27.789   4.534   5.732
   14XTA   HL16 1529  27.871   4.470   5.433
   14XTA   HL17 1530  27.832   4.355   5.560
   14XTA   HL18 1531  27.501   4.392   5.482
   14XTA   HL19 1532  27.579   4.243   5.530
   14XTA   HL20 1533  27.447   4.291   5.271
   14XTA   HL21 1534  27.386   4.182   5.400
   14XTA   HL22 1535  27.523   4.143   5.294
   14XTA   HL23 1536  26.708   5.683   4.973
   14XTA   HL24 1537  26.618   5.544   5.036
   14XTA   HL25 1538  26.676   5.410   4.833
   14XTA   HL26 1539  26.589   5.565   4.805
   14XTA   HL27 1540  26.776   5.674   4.708
   14XTA   HL28 1541  26.885   5.561   4.770
   14XTA   HL29 1542  26.856   5.525   4.525
   14XTA   HL30 1543  26.815   5.388   4.617
   14XTA   HL31 1544  26.667   5.437   4.426
   14XTA   HL32 1545  26.579   5.412   4.580
   14XTA   HL33 1546  26.564   5.669   4.593
   14XTA   HL34 1547  26.670   5.687   4.447
   14XTA   HL35 1548  26.346   5.706   4.530
   14XTA   HL36 1549  26.309   5.660   4.360
   14XTA   HL37 1550  26.235   5.833   4.256
   14XTA   HL38 1551  26.302   5.986   4.257
   14XTA   HL39 1552  26.201   5.998   4.528
   14XTA   HL40 1553  26.106   5.867   4.462
   14XTA   HL41 1554  26.115   6.009   4.370
   14XTA    CO8 1555  27.787   4.245   5.305
   14XTA    CO9 1556  27.677   4.459   5.270
   14XTA    OA6 1557  27.765   4.479   5.198
   14XTA   HL42 1558  27.738   4.216   5.206
   14XTA   HL43 1559  27.921   4.290   5.280
   14XTA   HL44 1560  26.506   5.760   4.212
   14XTA   HL45 1561  26.631   5.827   4.311
   14XTA   CO10 1562  26.533   5.848   4.266
   14XTA   CO11 1563  26.465   5.954   4.492
   14XTA    OA7 1564  26.607   5.952   4.511
   14XTA   HL46 1565  26.436   6.061   4.471
   14XTA   HL47 1566  26.417   5.918   4.583
   14XTA   HL48 1567  27.642   4.544   5.327
   14XTA   HL49 1568  27.592   4.418   5.210
   15XTA     NT 1569  28.718  -0.476   5.082
   15XTA    CN1 1570  28.700  -0.345   5.094
   15XTA     C1 1571  28.586  -0.287   5.030
   15XTA     C2 1572  28.563  -0.149   5.050
   15XTA     C3 1573  28.645  -0.066   5.135
   15XTA     C4 1574  28.744  -0.131   5.206
   15XTA     C5 1575  28.771  -0.266   5.186
   15XTA    CN2 1576  28.749  -0.531   4.965
   15XTA     C6 1577  28.689  -0.647   4.918
   15XTA     C7 1578  28.732  -0.711   4.799
   15XTA     C8 1579  28.843  -0.666   4.734
   15XTA     C9 1580  28.915  -0.549   4.782
   15XTA    C10 1581  28.858  -0.485   4.895
   15XTA    CN3 1582  28.717  -0.559   5.190
   15XTA    C11 1583  28.589  -0.577   5.259
   15XTA    C12 1584  28.591  -0.655   5.376
   15XTA    C13 1585  28.705  -0.710   5.434
   15XTA    C14 1586  28.827  -0.683   5.363
   15XTA    C15 1587  28.837  -0.603   5.246
   15XTA     H1 1588  28.521  -0.342   4.964
   15XTA     H2 1589  28.496  -0.097   4.983
   15XTA     H3 1590  28.802  -0.069   5.278
   15XTA     H4 1591  28.854  -0.315   5.234
   15XTA     H5 1592  28.603  -0.688   4.979
   15XTA     H6 1593  28.676  -0.794   4.754
   15XTA     H7 1594  29.006  -0.521   4.738
   15XTA     H8 1595  28.917  -0.403   4.924
   15XTA     H9 1596  28.495  -0.534   5.214
   15XTA    H10 1597  28.496  -0.665   5.427
   15XTA    H11 1598  28.913  -0.730   5.403
   15XTA    H12 1599  28.931  -0.592   5.191
   15XTA    OA1 1600  28.613   0.065   5.139
   15XTA    CO1 1601  28.673   0.141   5.243
   15XTA    OA2 1602  28.897  -0.729   4.624
   15XTA    CO2 1603  28.814  -0.755   4.512
   15XTA    CL1 1604  28.893  -0.768   4.376
   15XTA    CL2 1605  28.942  -0.636   4.321
   15XTA    CL3 1606  28.826  -0.555   4.260
   15XTA    CL4 1607  28.872  -0.419   4.202
   15XTA    CO3 1608  28.749  -0.337   4.152
   15XTA    OA3 1609  28.654  -0.412   4.078
   15XTA    CO4 1610  28.562  -0.336   3.997
   15XTA    CT1 1611  28.432  -0.292   4.057
   15XTA    CL5 1612  28.332  -0.251   3.942
   15XTA    CL6 1613  28.381  -0.131   3.863
   15XTA    OA4 1614  28.691  -0.767   5.558
   15XTA    CO5 1615  28.800  -0.831   5.620
   15XTA    CL7 1616  28.757  -0.911   5.748
   15XTA    CL8 1617  28.638  -1.002   5.713
   15XTA    CL9 1618  28.573  -1.057   5.840
   15XTA   CL10 1619  28.442  -1.135   5.808
   15XTA    CO6 1620  28.372  -1.178   5.936
   15XTA    OA5 1621  28.456  -1.268   6.002
   15XTA    CO7 1622  28.447  -1.399   5.945
   15XTA    CT2 1623  28.522  -1.490   6.039
   15XTA   CL11 1624  28.451  -1.507   6.178
   15XTA   CL12 1625  28.313  -1.575   6.171
   15XTA    HL1 1626  28.779   0.155   5.206
   15XTA    HL2 1627  28.640   0.248   5.239
   15XTA    HL3 1628  28.651   0.112   5.351
   15XTA    HL4 1629  28.763  -0.848   4.534
   15XTA    HL5 1630  28.749  -0.662   4.523
   15XTA    HL6 1631  28.829  -0.813   4.292
   15XTA    HL7 1632  28.970  -0.834   4.392
   15XTA    HL8 1633  29.026  -0.641   4.256
   15XTA    HL9 1634  28.974  -0.575   4.406
   15XTA   HL10 1635  28.784  -0.611   4.173
   15XTA   HL11 1636  28.751  -0.548   4.343
   15XTA   HL12 1637  28.941  -0.448   4.124
   15XTA   HL13 1638  28.920  -0.355   4.276
   15XTA   HL14 1639  28.706  -0.269   4.223
   15XTA   HL15 1640  28.796  -0.256   4.099
   15XTA   HL16 1641  28.609  -0.253   3.949
   15XTA   HL17 1642  28.544  -0.385   3.903
   15XTA   HL18 1643  28.234  -0.233   3.984
   15XTA   HL19 1644  28.314  -0.338   3.869
   15XTA   HL20 1645  28.304  -0.116   3.791
   15XTA   HL21 1646  28.477  -0.149   3.817
   15XTA   HL22 1647  28.402  -0.039   3.921
   15XTA   HL23 1648  28.883  -0.767   5.639
   15XTA   HL24 1649  28.836  -0.898   5.548
   15XTA   HL25 1650  28.850  -0.965   5.784
   15XTA   HL26 1651  28.725  -0.851   5.836
   15XTA   HL27 1652  28.576  -0.939   5.648
   15XTA   HL28 1653  28.667  -1.086   5.649
   15XTA   HL29 1654  28.646  -1.126   5.891
   15XTA   HL30 1655  28.544  -0.982   5.910
   15XTA   HL31 1656  28.394  -1.061   5.741
   15XTA   HL32 1657  28.467  -1.218   5.739
   15XTA   HL33 1658  28.345  -1.091   5.993
   15XTA   HL34 1659  28.282  -1.225   5.901
   15XTA   HL35 1660  28.488  -1.397   5.844
   15XTA   HL36 1661  28.345  -1.436   5.934
   15XTA   HL37 1662  28.436  -1.408   6.210
   15XTA   HL38 1663  28.519  -1.567   6.243
   15XTA   HL39 1664  28.267  -1.575   6.268
   15XTA   HL40 1665  28.317  -1.679   6.145
   15XTA   HL41 1666  28.239  -1.527   6.106
   15XTA    CO8 1667  28.452  -0.189   4.170
   15XTA    CO9 1668  28.378  -0.422   4.122
   15XTA    OA6 1669  28.246  -0.391   4.153
   15XTA   HL42 1670  28.518  -0.227   4.250
   15XTA   HL43 1671  28.524  -0.117   4.136
   15XTA   HL44 1672  28.652  -1.323   6.168
   15XTA   HL45 1673  28.726  -1.507   6.120
   15XTA   CO10 1674  28.667  -1.429   6.067
   15XTA   CO11 1675  28.544  -1.627   5.973
   15XTA    OA7 1676  28.607  -1.697   6.031
   15XTA   HL46 1677  28.446  -1.663   5.948
   15XTA   HL47 1678  28.598  -1.605   5.880
   15XTA   HL48 1679  28.428  -0.466   4.203
   15XTA   HL49 1680  28.380  -0.504   4.044
   16XTA     NT 1681  31.776  -1.032   6.970
   16XTA    CN1 1682  31.720  -1.159   6.979
   16XTA     C1 1683  31.765  -1.249   7.076
   16XTA     C2 1684  31.705  -1.375   7.085
   16XTA     C3 1685  31.617  -1.423   6.991
   16XTA     C4 1686  31.589  -1.341   6.882
   16XTA     C5 1687  31.640  -1.208   6.877
   16XTA    CN2 1688  31.874  -1.007   6.880
   16XTA     C6 1689  32.005  -1.069   6.891
   16XTA     C7 1690  32.094  -1.041   6.789
   16XTA     C8 1691  32.060  -0.959   6.678
   16XTA     C9 1692  31.931  -0.904   6.670
   16XTA    C10 1693  31.844  -0.922   6.776
   16XTA    CN3 1694  31.769  -0.956   7.082
   16XTA    C11 1695  31.646  -0.925   7.137
   16XTA    C12 1696  31.630  -0.836   7.252
   16XTA    C13 1697  31.746  -0.784   7.312
   16XTA    C14 1698  31.873  -0.812   7.250
   16XTA    C15 1699  31.883  -0.902   7.144
   16XTA     H1 1700  31.830  -1.218   7.160
   16XTA     H2 1701  31.728  -1.428   7.170
   16XTA     H3 1702  31.529  -1.374   6.805
   16XTA     H4 1703  31.610  -1.139   6.800
   16XTA     H5 1704  32.022  -1.146   6.957
   16XTA     H6 1705  32.193  -1.073   6.806
   16XTA     H7 1706  31.904  -0.836   6.598
   16XTA     H8 1707  31.742  -0.880   6.765
   16XTA     H9 1708  31.551  -0.957   7.094
   16XTA    H10 1709  31.533  -0.808   7.288
   16XTA    H11 1710  31.963  -0.776   7.306
   16XTA    H12 1711  31.979  -0.931   7.103
   16XTA    OA1 1712  31.561  -1.546   6.996
   16XTA    CO1 1713  31.421  -1.540   6.973
   16XTA    OA2 1714  32.158  -0.952   6.583
   16XTA    CO2 1715  32.131  -0.861   6.478
   16XTA    CL1 1716  32.257  -0.857   6.389
   16XTA    CL2 1717  32.231  -0.793   6.251
   16XTA    CL3 1718  32.271  -0.653   6.251
   16XTA    CL4 1719  32.231  -0.589   6.116
   16XTA    CO3 1720  32.243  -0.432   6.127
   16XTA    OA3 1721  32.169  -0.360   6.029
   16XTA    CO4 1722  32.240  -0.335   5.914
   16XTA    CT1 1723  32.175  -0.243   5.814
   16XTA    CL5 1724  32.244  -0.240   5.680
   16XTA    CL6 1725  32.388  -0.186   5.668
   16XTA    OA4 1726  31.752  -0.709   7.425
   16XTA    CO5 1727  31.640  -0.701   7.506
   16XTA    CL7 1728  31.671  -0.619   7.626
   16XTA    CL8 1729  31.557  -0.608   7.733
   16XTA    CL9 1730  31.600  -0.617   7.880
   16XTA   CL10 1731  31.492  -0.614   7.984
   16XTA    CO6 1732  31.545  -0.611   8.124
   16XTA    OA5 1733  31.451  -0.575   8.217
   16XTA    CO7 1734  31.346  -0.663   8.222
   16XTA    CT2 1735  31.267  -0.656   8.355
   16XTA   CL11 1736  31.165  -0.779   8.365
   16XTA   CL12 1737  31.082  -0.787   8.236
   16XTA    HL1 1738  31.376  -1.456   7.024
   16XTA    HL2 1739  31.405  -1.520   6.873
   16XTA    HL3 1740  31.370  -1.627   7.002
   16XTA    HL4 1741  32.050  -0.904   6.412
   16XTA    HL5 1742  32.101  -0.757   6.506
   16XTA    HL6 1743  32.280  -0.957   6.366
   16XTA    HL7 1744  32.341  -0.820   6.448
   16XTA    HL8 1745  32.123  -0.791   6.229
   16XTA    HL9 1746  32.273  -0.842   6.169
   16XTA   HL10 1747  32.237  -0.601   6.341
   16XTA   HL11 1748  32.380  -0.656   6.267
   16XTA   HL12 1749  32.126  -0.614   6.096
   16XTA   HL13 1750  32.279  -0.621   6.027
   16XTA   HL14 1751  32.200  -0.411   6.224
   16XTA   HL15 1752  32.347  -0.395   6.147
   16XTA   HL16 1753  32.336  -0.290   5.947
   16XTA   HL17 1754  32.274  -0.429   5.861
   16XTA   HL18 1755  32.179  -0.197   5.601
   16XTA   HL19 1756  32.255  -0.345   5.653
   16XTA   HL20 1757  32.383  -0.082   5.681
   16XTA   HL21 1758  32.425  -0.206   5.574
   16XTA   HL22 1759  32.456  -0.230   5.735
   16XTA   HL23 1760  31.597  -0.794   7.528
   16XTA   HL24 1761  31.568  -0.662   7.443
   16XTA   HL25 1762  31.760  -0.652   7.678
   16XTA   HL26 1763  31.698  -0.515   7.590
   16XTA   HL27 1764  31.513  -0.513   7.706
   16XTA   HL28 1765  31.478  -0.686   7.715
   16XTA   HL29 1766  31.661  -0.710   7.880
   16XTA   HL30 1767  31.673  -0.539   7.897
   16XTA   HL31 1768  31.442  -0.516   7.971
   16XTA   HL32 1769  31.416  -0.689   7.971
   16XTA   HL33 1770  31.576  -0.719   8.143
   16XTA   HL34 1771  31.626  -0.535   8.140
   16XTA   HL35 1772  31.391  -0.764   8.213
   16XTA   HL36 1773  31.284  -0.636   8.144
   16XTA   HL37 1774  31.104  -0.768   8.455
   16XTA   HL38 1775  31.221  -0.876   8.370
   16XTA   HL39 1776  31.146  -0.842   8.173
   16XTA   HL40 1777  31.051  -0.688   8.197
   16XTA   HL41 1778  30.999  -0.859   8.230
   16XTA    CO8 1779  32.175  -0.101   5.867
   16XTA    CO9 1780  32.025  -0.271   5.781
   16XTA    OA6 1781  32.015  -0.381   5.749
   16XTA   HL42 1782  32.126  -0.097   5.961
   16XTA   HL43 1783  32.301  -0.056   5.898
   16XTA   HL44 1784  31.247  -0.435   8.296
   16XTA   HL45 1785  31.103  -0.519   8.342
   16XTA   CO10 1786  31.207  -0.509   8.365
   16XTA   CO11 1787  31.373  -0.673   8.466
   16XTA    OA7 1788  31.214  -0.468   8.467
   16XTA   HL46 1789  31.301  -0.706   8.584
   16XTA   HL47 1790  31.413  -0.574   8.485
   16XTA   HL48 1791  31.990  -0.196   5.709
   16XTA   HL49 1792  31.968  -0.248   5.872
   17XTA     NT 1793  27.092   1.439   1.284
   17XTA    CN1 1794  27.166   1.551   1.252
   17XTA     C1 1795  27.121   1.683   1.268
   17XTA     C2 1796  27.204   1.798   1.244
   17XTA     C3 1797  27.322   1.775   1.169
   17XTA     C4 1798  27.365   1.643   1.135
   17XTA     C5 1799  27.284   1.535   1.178
   17XTA    CN2 1800  27.136   1.360   1.389
   17XTA     C6 1801  27.127   1.408   1.519
   17XTA     C7 1802  27.174   1.333   1.627
   17XTA     C8 1803  27.233   1.205   1.607
   17XTA     C9 1804  27.248   1.161   1.476
   17XTA    C10 1805  27.203   1.237   1.367
   17XTA    CN3 1806  26.957   1.432   1.248
   17XTA    C11 1807  26.858   1.399   1.347
   17XTA    C12 1808  26.719   1.385   1.300
   17XTA    C13 1809  26.690   1.404   1.166
   17XTA    C14 1810  26.786   1.436   1.072
   17XTA    C15 1811  26.926   1.447   1.109
   17XTA     H1 1812  27.028   1.697   1.314
   17XTA     H2 1813  27.172   1.894   1.273
   17XTA     H3 1814  27.457   1.621   1.077
   17XTA     H4 1815  27.317   1.435   1.152
   17XTA     H5 1816  27.084   1.502   1.534
   17XTA     H6 1817  27.156   1.369   1.729
   17XTA     H7 1818  27.300   1.066   1.459
   17XTA     H8 1819  27.212   1.200   1.270
   17XTA     H9 1820  26.880   1.381   1.454
   17XTA    H10 1821  26.644   1.351   1.379
   17XTA    H11 1822  26.754   1.438   0.968
   17XTA    H12 1823  26.999   1.467   1.035
   17XTA    OA1 1824  27.406   1.882   1.130
   17XTA    CO1 1825  27.338   2.008   1.102
   17XTA    OA2 1826  27.280   1.139   1.715
   17XTA    CO2 1827  27.356   1.020   1.703
   17XTA    CL1 1828  27.497   1.047   1.636
   17XTA    CL2 1829  27.566   0.931   1.573
   17XTA    CL3 1830  27.694   0.967   1.492
   17XTA    CL4 1831  27.651   1.037   1.361
   17XTA    CO3 1832  27.767   1.108   1.290
   17XTA    OA3 1833  27.715   1.196   1.191
   17XTA    CO4 1834  27.801   1.198   1.082
   17XTA    CT1 1835  27.753   1.282   0.962
   17XTA    CL5 1836  27.856   1.285   0.854
   17XTA    CL6 1837  27.991   1.348   0.899
   17XTA    OA4 1838  26.564   1.394   1.113
   17XTA    CO5 1839  26.452   1.415   1.199
   17XTA    CL7 1840  26.348   1.476   1.104
   17XTA    CL8 1841  26.211   1.526   1.169
   17XTA    CL9 1842  26.207   1.669   1.209
   17XTA   CL10 1843  26.078   1.705   1.283
   17XTA    CO6 1844  26.078   1.853   1.316
   17XTA    OA5 1845  26.007   1.864   1.436
   17XTA    CO7 1846  26.052   1.969   1.526
   17XTA    CT2 1847  26.025   1.917   1.669
   17XTA   CL11 1848  26.091   2.017   1.768
   17XTA   CL12 1849  26.092   1.965   1.921
   17XTA    HL1 1850  27.416   2.085   1.089
   17XTA    HL2 1851  27.260   1.995   1.023
   17XTA    HL3 1852  27.282   2.036   1.191
   17XTA    HL4 1853  27.375   0.973   1.802
   17XTA    HL5 1854  27.302   0.950   1.640
   17XTA    HL6 1855  27.570   1.105   1.699
   17XTA    HL7 1856  27.481   1.118   1.556
   17XTA    HL8 1857  27.491   0.879   1.513
   17XTA    HL9 1858  27.606   0.856   1.643
   17XTA   HL10 1859  27.755   1.036   1.549
   17XTA   HL11 1860  27.754   0.872   1.478
   17XTA   HL12 1861  27.584   1.122   1.386
   17XTA   HL13 1862  27.603   0.990   1.273
   17XTA   HL14 1863  27.830   1.164   1.362
   17XTA   HL15 1864  27.837   1.029   1.257
   17XTA   HL16 1865  27.900   1.237   1.117
   17XTA   HL17 1866  27.822   1.094   1.042
   17XTA   HL18 1867  27.813   1.342   0.779
   17XTA   HL19 1868  27.869   1.180   0.824
   17XTA   HL20 1869  28.061   1.349   0.819
   17XTA   HL21 1870  28.055   1.310   0.977
   17XTA   HL22 1871  27.985   1.450   0.919
   17XTA   HL23 1872  26.479   1.483   1.280
   17XTA   HL24 1873  26.425   1.309   1.234
   17XTA   HL25 1874  26.404   1.547   1.056
   17XTA   HL26 1875  26.315   1.387   1.049
   17XTA   HL27 1876  26.123   1.509   1.110
   17XTA   HL28 1877  26.205   1.464   1.258
   17XTA   HL29 1878  26.281   1.682   1.281
   17XTA   HL30 1879  26.216   1.743   1.123
   17XTA   HL31 1880  25.983   1.694   1.226
   17XTA   HL32 1881  26.069   1.654   1.374
   17XTA   HL33 1882  26.182   1.889   1.323
   17XTA   HL34 1883  26.026   1.911   1.239
   17XTA   HL35 1884  26.003   2.064   1.505
   17XTA   HL36 1885  26.156   1.994   1.510
   17XTA   HL37 1886  26.042   2.120   1.765
   17XTA   HL38 1887  26.199   2.022   1.746
   17XTA   HL39 1888  25.992   1.984   1.965
   17XTA   HL40 1889  26.160   2.018   1.979
   17XTA   HL41 1890  26.117   1.854   1.926
   17XTA    CO8 1891  27.716   1.421   1.004
   17XTA    CO9 1892  27.627   1.222   0.897
   17XTA    OA6 1893  27.612   1.081   0.892
   17XTA   HL42 1894  27.798   1.456   1.070
   17XTA   HL43 1895  27.634   1.437   1.081
   17XTA   HL44 1896  26.067   1.746   1.775
   17XTA   HL45 1897  26.052   1.708   1.606
   17XTA   CO10 1898  26.090   1.782   1.676
   17XTA   CO11 1899  25.873   1.909   1.692
   17XTA    OA7 1900  26.235   1.794   1.676
   17XTA   HL46 1901  25.845   1.905   1.798
   17XTA   HL47 1902  25.828   1.820   1.654
   17XTA   HL48 1903  27.614   1.266   0.798
   17XTA   HL49 1904  27.539   1.255   0.940
   18XTA     NT 1905  29.767  -0.390  -1.165
   18XTA    CN1 1906  29.646  -0.343  -1.126
   18XTA     C1 1907  29.536  -0.431  -1.103
   18XTA     C2 1908  29.411  -0.387  -1.053
   18XTA     C3 1909  29.395  -0.246  -1.034
   18XTA     C4 1910  29.504  -0.162  -1.056
   18XTA     C5 1911  29.625  -0.210  -1.096
   18XTA    CN2 1912  29.820  -0.371  -1.291
   18XTA     C6 1913  29.917  -0.276  -1.305
   18XTA     C7 1914  29.984  -0.257  -1.434
   18XTA     C8 1915  29.936  -0.323  -1.550
   18XTA     C9 1916  29.831  -0.420  -1.533
   18XTA    C10 1917  29.778  -0.449  -1.401
   18XTA    CN3 1918  29.836  -0.460  -1.072
   18XTA    C11 1919  29.930  -0.395  -0.992
   18XTA    C12 1920  30.002  -0.474  -0.898
   18XTA    C13 1921  29.971  -0.617  -0.883
   18XTA    C14 1922  29.870  -0.673  -0.959
   18XTA    C15 1923  29.801  -0.595  -1.053
   18XTA     H1 1924  29.543  -0.542  -1.123
   18XTA     H2 1925  29.334  -0.459  -1.046
   18XTA     H3 1926  29.504  -0.053  -1.039
   18XTA     H4 1927  29.708  -0.138  -1.102
   18XTA     H5 1928  29.954  -0.223  -1.217
   18XTA     H6 1929  30.060  -0.185  -1.451
   18XTA     H7 1930  29.787  -0.480  -1.616
   18XTA     H8 1931  29.699  -0.521  -1.391
   18XTA     H9 1932  29.958  -0.290  -1.000
   18XTA    H10 1933  30.085  -0.428  -0.842
   18XTA    H11 1934  29.849  -0.777  -0.958
   18XTA    H12 1935  29.721  -0.636  -1.116
   18XTA    OA1 1936  29.275  -0.193  -0.991
   18XTA    CO1 1937  29.195  -0.279  -0.913
   18XTA    OA2 1938  29.986  -0.291  -1.677
   18XTA    CO2 1939  29.961  -0.381  -1.786
   18XTA    CL1 1940  30.058  -0.502  -1.797
   18XTA    CL2 1941  30.026  -0.622  -1.709
   18XTA    CL3 1942  30.144  -0.726  -1.717
   18XTA    CL4 1943  30.116  -0.868  -1.660
   18XTA    CO3 1944  30.238  -0.961  -1.633
   18XTA    OA3 1945  30.202  -1.071  -1.552
   18XTA    CO4 1946  30.148  -1.191  -1.613
   18XTA    CT1 1947  30.106  -1.288  -1.508
   18XTA    CL5 1948  30.004  -1.391  -1.572
   18XTA    CL6 1949  30.074  -1.487  -1.668
   18XTA    OA4 1950  30.048  -0.710  -0.807
   18XTA    CO5 1951  30.128  -0.645  -0.710
   18XTA    CL7 1952  30.216  -0.751  -0.643
   18XTA    CL8 1953  30.278  -0.697  -0.516
   18XTA    CL9 1954  30.399  -0.606  -0.531
   18XTA   CL10 1955  30.355  -0.463  -0.527
   18XTA    CO6 1956  30.468  -0.362  -0.488
   18XTA    OA5 1957  30.416  -0.246  -0.416
   18XTA    CO7 1958  30.361  -0.158  -0.508
   18XTA    CT2 1959  30.409  -0.006  -0.503
   18XTA   CL11 1960  30.552   0.004  -0.561
   18XTA   CL12 1961  30.672  -0.047  -0.476
   18XTA    HL1 1962  29.256  -0.324  -0.833
   18XTA    HL2 1963  29.103  -0.232  -0.867
   18XTA    HL3 1964  29.156  -0.360  -0.977
   18XTA    HL4 1965  29.858  -0.418  -1.786
   18XTA    HL5 1966  29.965  -0.332  -1.878
   18XTA    HL6 1967  30.159  -0.473  -1.779
   18XTA    HL7 1968  30.065  -0.530  -1.907
   18XTA    HL8 1969  29.940  -0.666  -1.750
   18XTA    HL9 1970  30.008  -0.593  -1.607
   18XTA   HL10 1971  30.188  -0.745  -1.820
   18XTA   HL11 1972  30.226  -0.686  -1.664
   18XTA   HL12 1973  30.035  -0.929  -1.698
   18XTA   HL13 1974  30.054  -0.833  -1.573
   18XTA   HL14 1975  30.274  -1.011  -1.726
   18XTA   HL15 1976  30.318  -0.900  -1.589
   18XTA   HL16 1977  30.057  -1.163  -1.658
   18XTA   HL17 1978  30.205  -1.240  -1.687
   18XTA   HL18 1979  29.915  -1.350  -1.620
   18XTA   HL19 1980  29.957  -1.454  -1.492
   18XTA   HL20 1981  30.006  -1.570  -1.692
   18XTA   HL21 1982  30.158  -1.541  -1.637
   18XTA   HL22 1983  30.110  -1.437  -1.757
   18XTA   HL23 1984  30.075  -0.582  -0.635
   18XTA   HL24 1985  30.199  -0.589  -0.770
   18XTA   HL25 1986  30.162  -0.832  -0.607
   18XTA   HL26 1987  30.282  -0.794  -0.715
   18XTA   HL27 1988  30.211  -0.658  -0.447
   18XTA   HL28 1989  30.308  -0.788  -0.467
   18XTA   HL29 1990  30.473  -0.621  -0.459
   18XTA   HL30 1991  30.470  -0.613  -0.609
   18XTA   HL31 1992  30.315  -0.434  -0.619
   18XTA   HL32 1993  30.281  -0.454  -0.447
   18XTA   HL33 1994  30.540  -0.407  -0.418
   18XTA   HL34 1995  30.525  -0.346  -0.578
   18XTA   HL35 1996  30.254  -0.160  -0.474
   18XTA   HL36 1997  30.368  -0.197  -0.612
   18XTA   HL37 1998  30.573   0.113  -0.579
   18XTA   HL38 1999  30.552  -0.050  -0.657
   18XTA   HL39 2000  30.672  -0.157  -0.464
   18XTA   HL40 2001  30.666  -0.002  -0.374
   18XTA   HL41 2002  30.773  -0.029  -0.523
   18XTA    CO8 2003  30.033  -1.206  -1.393
   18XTA    CO9 2004  30.231  -1.355  -1.449
   18XTA    OA6 2005  29.969  -1.285  -1.291
   18XTA   HL42 2006  29.960  -1.135  -1.437
   18XTA   HL43 2007  30.115  -1.140  -1.350
   18XTA   HL44 2008  30.457  -0.021  -0.274
   18XTA   HL45 2009  30.307   0.056  -0.323
   18XTA   CO10 2010  30.412   0.043  -0.355
   18XTA   CO11 2011  30.314   0.083  -0.576
   18XTA    OA7 2012  30.180   0.036  -0.560
   18XTA   HL46 2013  30.313   0.187  -0.544
   18XTA   HL47 2014  30.336   0.079  -0.686
   18XTA   HL48 2015  30.282  -1.291  -1.371
   18XTA   HL49 2016  30.312  -1.366  -1.523
   19XTH     NT 2017  29.534   4.115  -0.831
   19XTH    CN1 2018  29.671   4.110  -0.812
   19XTH     C1 2019  29.717   4.068  -0.685
   19XTH     C2 2020  29.857   4.068  -0.657
   19XTH     C3 2021  29.947   4.116  -0.751
   19XTH     C4 2022  29.898   4.163  -0.876
   19XTH     C5 2023  29.764   4.157  -0.906
   19XTH    CN2 2024  29.484   4.063  -0.949
   19XTH     C6 2025  29.466   3.922  -0.966
   19XTH     C7 2026  29.407   3.865  -1.081
   19XTH     C8 2027  29.371   3.954  -1.189
   19XTH     C9 2028  29.383   4.093  -1.168
   19XTH    C10 2029  29.444   4.148  -1.054
   19XTH    CN3 2030  29.450   4.194  -0.758
   19XTH    C11 2031  29.495   4.316  -0.703
   19XTH    C12 2032  29.414   4.396  -0.618
   19XTH    C13 2033  29.285   4.355  -0.578
   19XTH    C14 2034  29.241   4.231  -0.630
   19XTH    C15 2035  29.324   4.152  -0.712
   19XTH     H1 2036  29.645   4.027  -0.605
   19XTH     H2 2037  29.897   4.021  -0.559
   19XTH     H3 2038  29.960   4.204  -0.950
   19XTH     H4 2039  29.739   4.190  -1.009
   19XTH     H5 2040  29.503   3.854  -0.893
   19XTH     H6 2041  29.398   3.750  -1.093
   19XTH     H7 2042  29.343   4.163  -1.237
   19XTH     H8 2043  29.465   4.258  -1.039
   19XTH     H9 2044  29.598   4.355  -0.733
   19XTH    H10 2045  29.463   4.486  -0.580
   19XTH    H11 2046  29.136   4.208  -0.606
   19XTH    H12 2047  29.282   4.060  -0.746
   19XTH    OA1 2048  30.087   4.120  -0.732
   19XTH    CO1 2049  30.140   4.097  -0.600
   19XTH    OA2 2050  29.311   3.914  -1.306
   19XTH    CO2 2051  29.300   3.772  -1.324
   19XTH    CL1 2052  29.416   3.715  -1.395
   19XTH    CL2 2053  29.411   3.758  -1.537
   19XTH    CL3 2054  29.533   3.714  -1.610
   19XTH    CL4 2055  29.511   3.692  -1.762
   19XTH    CO3 2056  29.646   3.658  -1.837
   19XTH    OA3 2057  29.707   3.538  -1.783
   19XTH    CO4 2058  29.635   3.420  -1.805
   19XTH    CT1 2059  29.690   3.300  -1.725
   19XTH    CL5 2060  29.829   3.272  -1.775
   19XTH    CL6 2061  29.904   3.171  -1.700
   19XTH    OA4 2062  29.213   4.428  -0.487
   19XTH    CO5 2063  29.104   4.364  -0.422
   19XTH    CL7 2064  29.061   4.447  -0.303
   19XTH    CL8 2065  29.174   4.461  -0.197
   19XTH    CL9 2066  29.127   4.499  -0.058
   19XTH   CL10 2067  29.235   4.487   0.054
   19XTH    CO6 2068  29.188   4.562   0.181
   19XTH    OA5 2069  29.260   4.517   0.294
   19XTH    CO7 2070  29.384   4.593   0.317
   19XTH    CT2 2071  29.463   4.539   0.439
   19XTH   CL11 2072  29.504   4.394   0.426
   19XTH   CL12 2073  29.393   4.293   0.457
   19XTH    HL1 2074  30.246   4.096  -0.613
   19XTH    HL2 2075  30.101   4.163  -0.524
   19XTH    HL3 2076  30.115   3.998  -0.571
   19XTH    HL4 2077  29.271   3.718  -1.235
   19XTH    HL5 2078  29.209   3.759  -1.380
   19XTH    HL6 2079  29.419   3.606  -1.387
   19XTH    HL7 2080  29.503   3.749  -1.346
   19XTH    HL8 2081  29.422   3.860  -1.544
   19XTH    HL9 2082  29.322   3.726  -1.589
   19XTH   HL10 2083  29.609   3.793  -1.594
   19XTH   HL11 2084  29.576   3.628  -1.570
   19XTH   HL12 2085  29.489   3.793  -1.796
   19XTH   HL13 2086  29.428   3.623  -1.777
   19XTH   HL14 2087  29.640   3.644  -1.948
   19XTH   HL15 2088  29.711   3.735  -1.807
   19XTH   HL16 2089  29.530   3.431  -1.783
   19XTH   HL17 2090  29.632   3.390  -1.913
   19XTH   HL18 2091  29.898   3.364  -1.778
   19XTH   HL19 2092  29.818   3.221  -1.868
   19XTH   HL20 2093  29.999   3.177  -1.737
   19XTH   HL21 2094  29.861   3.070  -1.708
   19XTH   HL22 2095  29.923   3.199  -1.592
   19XTH   HL23 2096  29.138   4.268  -0.372
   19XTH   HL24 2097  29.018   4.336  -0.492
   19XTH   HL25 2098  29.015   4.551  -0.330
   19XTH   HL26 2099  28.979   4.389  -0.254
   19XTH   HL27 2100  29.221   4.367  -0.186
   19XTH   HL28 2101  29.251   4.529  -0.236
   19XTH   HL29 2102  29.077   4.591  -0.059
   19XTH   HL30 2103  29.052   4.419  -0.028
   19XTH   HL31 2104  29.253   4.384   0.076
   19XTH   HL32 2105  29.328   4.528   0.023
   19XTH   HL33 2106  29.201   4.666   0.159
   19XTH   HL34 2107  29.085   4.531   0.207
   19XTH   HL35 2108  29.359   4.699   0.328
   19XTH   HL36 2109  29.440   4.584   0.231
   19XTH   HL37 2110  29.595   4.388   0.486
   19XTH   HL38 2111  29.543   4.382   0.324
   19XTH   HL39 2112  29.341   4.303   0.552
   19XTH   HL40 2113  29.437   4.191   0.477
   19XTH   HL41 2114  29.316   4.284   0.375
   19XTH    CO8 2115  29.591   3.185  -1.731
   19XTH    CO9 2116  29.692   3.348  -1.579
   19XTH    OA6 2117  29.571   3.146  -1.829
   19XTH   HL42 2118  29.506   3.221  -1.676
   19XTH   HL43 2119  29.630   3.103  -1.674
   19XTH   HL44 2120  29.329   4.664   0.575
   19XTH   HL45 2121  29.281   4.506   0.532
   19XTH   CO10 2122  29.369   4.565   0.563
   19XTH   CO11 2123  29.582   4.631   0.471
   19XTH    OA7 2124  29.417   4.530   0.656
   19XTH   HL46 2125  29.541   4.734   0.559
   19XTH   HL47 2126  29.655   4.576   0.527
   19XTH   HL48 2127  29.788   3.454  -1.571
   19XTH   HL49 2128  29.590   3.390  -1.570
   20XTA     NT 2129  24.254   6.761   0.218
   20XTA    CN1 2130  24.232   6.844   0.117
   20XTA     C1 2131  24.103   6.883   0.084
   20XTA     C2 2132  24.075   6.972  -0.017
   20XTA     C3 2133  24.181   7.037  -0.084
   20XTA     C4 2134  24.316   6.998  -0.052
   20XTA     C5 2135  24.342   6.898   0.046
   20XTA    CN2 2136  24.364   6.777   0.297
   20XTA     C6 2137  24.361   6.861   0.404
   20XTA     C7 2138  24.479   6.880   0.474
   20XTA     C8 2139  24.598   6.805   0.449
   20XTA     C9 2140  24.597   6.704   0.349
   20XTA    C10 2141  24.483   6.697   0.267
   20XTA    CN3 2142  24.207   6.631   0.218
   20XTA    C11 2143  24.133   6.586   0.330
   20XTA    C12 2144  24.103   6.452   0.348
   20XTA    C13 2145  24.135   6.358   0.247
   20XTA    C14 2146  24.211   6.397   0.133
   20XTA    C15 2147  24.239   6.534   0.118
   20XTA     H1 2148  24.015   6.838   0.138
   20XTA     H2 2149  23.970   6.988  -0.025
   20XTA     H3 2150  24.387   7.037  -0.122
   20XTA     H4 2151  24.440   6.867   0.070
   20XTA     H5 2152  24.270   6.910   0.425
   20XTA     H6 2153  24.485   6.941   0.564
   20XTA     H7 2154  24.681   6.647   0.322
   20XTA     H8 2155  24.488   6.628   0.179
   20XTA     H9 2156  24.110   6.657   0.411
   20XTA    H10 2157  24.053   6.419   0.438
   20XTA    H11 2158  24.254   6.336   0.054
   20XTA    H12 2159  24.292   6.579   0.038
   20XTA    OA1 2160  24.159   7.143  -0.164
   20XTA    CO1 2161  24.032   7.154  -0.219
   20XTA    OA2 2162  24.710   6.830   0.522
   20XTA    CO2 2163  24.839   6.804   0.468
   20XTA    CL1 2164  24.881   6.658   0.500
   20XTA    CL2 2165  24.892   6.627   0.645
   20XTA    CL3 2166  24.928   6.482   0.682
   20XTA    CL4 2167  24.966   6.448   0.826
   20XTA    CO3 2168  24.977   6.295   0.844
   20XTA    OA3 2169  25.063   6.262   0.953
   20XTA    CO4 2170  25.068   6.124   0.983
   20XTA    CT1 2171  25.165   6.082   1.097
   20XTA    CL5 2172  25.124   6.152   1.228
   20XTA    CL6 2173  24.993   6.098   1.293
   20XTA    OA4 2174  24.116   6.221   0.264
   20XTA    CO5 2175  24.217   6.158   0.334
   20XTA    CL7 2176  24.201   6.003   0.342
   20XTA    CL8 2177  24.336   5.945   0.382
   20XTA    CL9 2178  24.340   5.795   0.399
   20XTA   CL10 2179  24.486   5.723   0.393
   20XTA    CO6 2180  24.485   5.570   0.364
   20XTA    OA5 2181  24.613   5.519   0.377
   20XTA    CO7 2182  24.629   5.375   0.347
   20XTA    CT2 2183  24.760   5.317   0.409
   20XTA   CL11 2184  24.780   5.380   0.557
   20XTA   CL12 2185  24.918   5.363   0.624
   20XTA    HL1 2186  23.999   7.062  -0.261
   20XTA    HL2 2187  23.953   7.181  -0.145
   20XTA    HL3 2188  24.020   7.235  -0.291
   20XTA    HL4 2189  24.848   6.834   0.365
   20XTA    HL5 2190  24.912   6.871   0.506
   20XTA    HL6 2191  24.969   6.637   0.445
   20XTA    HL7 2192  24.802   6.596   0.456
   20XTA    HL8 2193  24.795   6.651   0.693
   20XTA    HL9 2194  24.957   6.707   0.690
   20XTA   HL10 2195  24.844   6.416   0.657
   20XTA   HL11 2196  25.016   6.455   0.619
   20XTA   HL12 2197  24.883   6.475   0.894
   20XTA   HL13 2198  25.046   6.515   0.858
   20XTA   HL14 2199  24.887   6.246   0.866
   20XTA   HL15 2200  25.016   6.253   0.749
   20XTA   HL16 2201  24.966   6.100   1.000
   20XTA   HL17 2202  25.101   6.068   0.894
   20XTA   HL18 2203  25.103   6.262   1.207
   20XTA   HL19 2204  25.204   6.154   1.299
   20XTA   HL20 2205  24.906   6.091   1.231
   20XTA   HL21 2206  24.967   6.146   1.379
   20XTA   HL22 2207  24.998   5.991   1.324
   20XTA   HL23 2208  24.218   6.203   0.431
   20XTA   HL24 2209  24.308   6.182   0.283
   20XTA   HL25 2210  24.121   5.972   0.407
   20XTA   HL26 2211  24.175   5.951   0.248
   20XTA   HL27 2212  24.405   5.972   0.299
   20XTA   HL28 2213  24.363   5.991   0.477
   20XTA   HL29 2214  24.309   5.761   0.496
   20XTA   HL30 2215  24.288   5.736   0.319
   20XTA   HL31 2216  24.544   5.770   0.312
   20XTA   HL32 2217  24.551   5.748   0.475
   20XTA   HL33 2218  24.421   5.523   0.441
   20XTA   HL34 2219  24.437   5.545   0.270
   20XTA   HL35 2220  24.611   5.368   0.241
   20XTA   HL36 2221  24.536   5.320   0.376
   20XTA   HL37 2222  24.710   5.333   0.618
   20XTA   HL38 2223  24.766   5.486   0.547
   20XTA   HL39 2224  24.914   5.393   0.730
   20XTA   HL40 2225  24.991   5.428   0.590
   20XTA   HL41 2226  24.962   5.259   0.618
   20XTA    CO8 2227  25.316   6.123   1.070
   20XTA    CO9 2228  25.178   5.932   1.125
   20XTA    OA6 2229  25.218   5.869   1.043
   20XTA   HL42 2230  25.352   6.064   0.988
   20XTA   HL43 2231  25.396   6.090   1.183
   20XTA   HL44 2232  24.870   5.284   0.204
   20XTA   HL45 2233  24.979   5.309   0.362
   20XTA   CO10 2234  24.883   5.348   0.326
   20XTA   CO11 2235  24.759   5.163   0.421
   20XTA    OA7 2236  24.731   5.097   0.340
   20XTA   HL46 2237  24.861   5.137   0.454
   20XTA   HL47 2238  24.699   5.136   0.510
   20XTA   HL48 2239  25.091   5.895   1.176
   20XTA   HL49 2240  25.261   5.913   1.202
   21XTA     NT 2241  32.128   1.551   2.410
   21XTA    CN1 2242  32.163   1.474   2.513
   21XTA     C1 2243  32.237   1.532   2.608
   21XTA     C2 2244  32.277   1.457   2.719
   21XTA     C3 2245  32.231   1.326   2.740
   21XTA     C4 2246  32.145   1.267   2.644
   21XTA     C5 2247  32.115   1.346   2.529
   21XTA    CN2 2248  32.171   1.506   2.282
   21XTA     C6 2249  32.302   1.505   2.237
   21XTA     C7 2250  32.344   1.444   2.117
   21XTA     C8 2251  32.248   1.380   2.039
   21XTA     C9 2252  32.111   1.378   2.082
   21XTA    C10 2253  32.072   1.445   2.203
   21XTA    CN3 2254  32.029   1.644   2.419
   21XTA    C11 2255  31.897   1.607   2.452
   21XTA    C12 2256  31.801   1.711   2.459
   21XTA    C13 2257  31.840   1.847   2.432
   21XTA    C14 2258  31.968   1.881   2.391
   21XTA    C15 2259  32.064   1.777   2.383
   21XTA     H1 2260  32.268   1.636   2.610
   21XTA     H2 2261  32.337   1.508   2.798
   21XTA     H3 2262  32.120   1.164   2.631
   21XTA     H4 2263  32.060   1.298   2.449
   21XTA     H5 2264  32.372   1.543   2.306
   21XTA     H6 2265  32.448   1.440   2.084
   21XTA     H7 2266  32.043   1.347   2.003
   21XTA     H8 2267  31.968   1.462   2.221
   21XTA     H9 2268  31.873   1.500   2.470
   21XTA    H10 2269  31.702   1.690   2.492
   21XTA    H11 2270  31.997   1.984   2.366
   21XTA    H12 2271  32.162   1.808   2.351
   21XTA    OA1 2272  32.263   1.260   2.854
   21XTA    CO1 2273  32.162   1.173   2.910
   21XTA    OA2 2274  32.293   1.315   1.926
   21XTA    CO2 2275  32.230   1.185   1.911
   21XTA    CL1 2276  32.290   1.116   1.785
   21XTA    CL2 2277  32.289   1.193   1.659
   21XTA    CL3 2278  32.321   1.106   1.537
   21XTA    CL4 2279  32.297   1.183   1.408
   21XTA    CO3 2280  32.357   1.326   1.400
   21XTA    OA3 2281  32.274   1.413   1.469
   21XTA    CO4 2282  32.336   1.534   1.504
   21XTA    CT1 2283  32.247   1.655   1.533
   21XTA    CL5 2284  32.156   1.683   1.413
   21XTA    CL6 2285  32.221   1.694   1.282
   21XTA    OA4 2286  31.740   1.940   2.450
   21XTA    CO5 2287  31.777   2.077   2.445
   21XTA    CL7 2288  31.736   2.150   2.310
   21XTA    CL8 2289  31.789   2.075   2.191
   21XTA    CL9 2290  31.758   2.154   2.067
   21XTA   CL10 2291  31.633   2.111   1.996
   21XTA    CO6 2292  31.610   2.213   1.882
   21XTA    OA5 2293  31.721   2.219   1.797
   21XTA    CO7 2294  31.736   2.112   1.704
   21XTA    CT2 2295  31.879   2.117   1.643
   21XTA   CL11 2296  31.901   1.995   1.546
   21XTA   CL12 2297  31.821   1.987   1.414
   21XTA    HL1 2298  32.128   1.090   2.853
   21XTA    HL2 2299  32.197   1.125   2.997
   21XTA    HL3 2300  32.075   1.238   2.917
   21XTA    HL4 2301  32.248   1.118   1.990
   21XTA    HL5 2302  32.126   1.178   1.904
   21XTA    HL6 2303  32.235   1.027   1.766
   21XTA    HL7 2304  32.396   1.086   1.800
   21XTA    HL8 2305  32.352   1.280   1.665
   21XTA    HL9 2306  32.186   1.226   1.640
   21XTA   HL10 2307  32.427   1.074   1.552
   21XTA   HL11 2308  32.262   1.021   1.529
   21XTA   HL12 2309  32.195   1.182   1.380
   21XTA   HL13 2310  32.348   1.124   1.336
   21XTA   HL14 2311  32.459   1.314   1.435
   21XTA   HL15 2312  32.367   1.356   1.299
   21XTA   HL16 2313  32.403   1.519   1.588
   21XTA   HL17 2314  32.396   1.562   1.420
   21XTA   HL18 2315  32.103   1.780   1.421
   21XTA   HL19 2316  32.077   1.611   1.411
   21XTA   HL20 2317  32.307   1.755   1.277
   21XTA   HL21 2318  32.148   1.713   1.201
   21XTA   HL22 2319  32.265   1.602   1.260
   21XTA   HL23 2320  31.880   2.088   2.472
   21XTA   HL24 2321  31.733   2.124   2.536
   21XTA   HL25 2322  31.627   2.168   2.297
   21XTA   HL26 2323  31.784   2.244   2.317
   21XTA   HL27 2324  31.895   2.061   2.203
   21XTA   HL28 2325  31.745   1.968   2.194
   21XTA   HL29 2326  31.754   2.258   2.087
   21XTA   HL30 2327  31.841   2.150   1.997
   21XTA   HL31 2328  31.633   2.007   1.951
   21XTA   HL32 2329  31.540   2.128   2.047
   21XTA   HL33 2330  31.532   2.183   1.819
   21XTA   HL34 2331  31.582   2.311   1.923
   21XTA   HL35 2332  31.673   2.123   1.618
   21XTA   HL36 2333  31.718   2.021   1.756
   21XTA   HL37 2334  31.889   1.911   1.609
   21XTA   HL38 2335  32.006   1.989   1.519
   21XTA   HL39 2336  31.712   1.981   1.438
   21XTA   HL40 2337  31.839   1.905   1.355
   21XTA   HL41 2338  31.843   2.078   1.353
   21XTA    CO8 2339  32.333   1.779   1.566
   21XTA    CO9 2340  32.153   1.613   1.652
   21XTA    OA6 2341  32.149   1.716   1.751
   21XTA   HL42 2342  32.262   1.860   1.579
   21XTA   HL43 2343  32.384   1.771   1.663
   21XTA   HL44 2344  31.980   2.206   1.853
   21XTA   HL45 2345  32.086   2.099   1.723
   21XTA   CO10 2346  31.982   2.104   1.759
   21XTA   CO11 2347  31.895   2.245   1.567
   21XTA    OA7 2348  31.998   2.272   1.538
   21XTA   HL46 2349  31.833   2.243   1.484
   21XTA   HL47 2350  31.851   2.323   1.633
   21XTA   HL48 2351  32.185   1.528   1.708
   21XTA   HL49 2352  32.056   1.601   1.602
   22XTA     NT 2353  31.236   4.005   2.905
   22XTA    CN1 2354  31.206   4.126   2.849
   22XTA     C1 2355  31.261   4.242   2.907
   22XTA     C2 2356  31.242   4.370   2.844
   22XTA     C3 2357  31.164   4.380   2.729
   22XTA     C4 2358  31.109   4.266   2.671
   22XTA     C5 2359  31.126   4.139   2.733
   22XTA    CN2 2360  31.132   3.930   2.953
   22XTA     C6 2361  31.084   3.825   2.867
   22XTA     C7 2362  30.978   3.745   2.909
   22XTA     C8 2363  30.914   3.774   3.033
   22XTA     C9 2364  30.969   3.870   3.122
   22XTA    C10 2365  31.068   3.957   3.075
   22XTA    CN3 2366  31.355   3.946   2.897
   22XTA    C11 2367  31.434   3.940   3.011
   22XTA    C12 2368  31.558   3.873   3.010
   22XTA    C13 2369  31.606   3.811   2.891
   22XTA    C14 2370  31.525   3.812   2.780
   22XTA    C15 2371  31.404   3.885   2.779
   22XTA     H1 2372  31.324   4.246   2.994
   22XTA     H2 2373  31.278   4.458   2.897
   22XTA     H3 2374  31.045   4.283   2.590
   22XTA     H4 2375  31.077   4.053   2.681
   22XTA     H5 2376  31.125   3.809   2.768
   22XTA     H6 2377  30.919   3.675   2.848
   22XTA     H7 2378  30.919   3.882   3.219
   22XTA     H8 2379  31.097   4.040   3.136
   22XTA     H9 2380  31.406   3.993   3.094
   22XTA    H10 2381  31.619   3.869   3.102
   22XTA    H11 2382  31.546   3.747   2.692
   22XTA    H12 2383  31.357   3.884   2.685
   22XTA    OA1 2384  31.145   4.500   2.667
   22XTA    CO1 2385  31.239   4.600   2.689
   22XTA    OA2 2386  30.784   3.725   3.054
   22XTA    CO2 2387  30.745   3.709   3.191
   22XTA    CL1 2388  30.608   3.632   3.201
   22XTA    CL2 2389  30.502   3.719   3.150
   22XTA    CL3 2390  30.358   3.690   3.180
   22XTA    CL4 2391  30.274   3.799   3.121
   22XTA    CO3 2392  30.122   3.781   3.154
   22XTA    OA3 2393  30.078   3.651   3.135
   22XTA    CO4 2394  30.022   3.645   3.010
   22XTA    CT1 2395  29.987   3.496   2.968
   22XTA    CL5 2396  29.886   3.435   3.074
   22XTA    CL6 2397  29.848   3.284   3.068
   22XTA    OA4 2398  31.722   3.740   2.885
   22XTA    CO5 2399  31.814   3.744   2.994
   22XTA    CL7 2400  31.947   3.673   2.955
   22XTA    CL8 2401  32.035   3.643   3.072
   22XTA    CL9 2402  32.150   3.554   3.018
   22XTA   CL10 2403  32.270   3.531   3.120
   22XTA    CO6 2404  32.223   3.445   3.245
   22XTA    OA5 2405  32.139   3.516   3.331
   22XTA    CO7 2406  32.132   3.457   3.458
   22XTA    CT2 2407  32.004   3.525   3.527
   22XTA   CL11 2408  31.975   3.422   3.641
   22XTA   CL12 2409  31.904   3.461   3.763
   22XTA    HL1 2410  31.207   4.684   2.629
   22XTA    HL2 2411  31.238   4.640   2.792
   22XTA    HL3 2412  31.336   4.572   2.655
   22XTA    HL4 2413  30.810   3.650   3.255
   22XTA    HL5 2414  30.718   3.812   3.228
   22XTA    HL6 2415  30.591   3.612   3.304
   22XTA    HL7 2416  30.597   3.541   3.148
   22XTA    HL8 2417  30.511   3.737   3.042
   22XTA    HL9 2418  30.515   3.812   3.185
   22XTA   HL10 2419  30.334   3.593   3.135
   22XTA   HL11 2420  30.338   3.700   3.284
   22XTA   HL12 2421  30.294   3.799   3.012
   22XTA   HL13 2422  30.308   3.897   3.153
   22XTA   HL14 2423  30.110   3.812   3.261
   22XTA   HL15 2424  30.065   3.858   3.105
   22XTA   HL16 2425  29.928   3.693   3.028
   22XTA   HL17 2426  30.069   3.705   2.921
   22XTA   HL18 2427  29.787   3.486   3.074
   22XTA   HL19 2428  29.939   3.445   3.169
   22XTA   HL20 2429  29.829   3.255   2.957
   22XTA   HL21 2430  29.749   3.261   3.121
   22XTA   HL22 2431  29.932   3.220   3.104
   22XTA   HL23 2432  31.762   3.692   3.075
   22XTA   HL24 2433  31.829   3.847   3.019
   22XTA   HL25 2434  31.919   3.577   2.917
   22XTA   HL26 2435  32.003   3.721   2.876
   22XTA   HL27 2436  32.070   3.743   3.114
   22XTA   HL28 2437  31.975   3.590   3.152
   22XTA   HL29 2438  32.113   3.453   3.003
   22XTA   HL30 2439  32.201   3.588   2.929
   22XTA   HL31 2440  32.344   3.470   3.076
   22XTA   HL32 2441  32.320   3.627   3.150
   22XTA   HL33 2442  32.160   3.361   3.209
   22XTA   HL34 2443  32.314   3.409   3.293
   22XTA   HL35 2444  32.224   3.465   3.504
   22XTA   HL36 2445  32.126   3.341   3.445
   22XTA   HL37 2446  32.077   3.382   3.675
   22XTA   HL38 2447  31.924   3.330   3.611
   22XTA   HL39 2448  31.881   3.378   3.834
   22XTA   HL40 2449  31.807   3.496   3.737
   22XTA   HL41 2450  31.956   3.533   3.824
   22XTA    CO8 2451  30.113   3.418   2.948
   22XTA    CO9 2452  29.909   3.511   2.836
   22XTA    OA6 2453  29.843   3.599   2.818
   22XTA   HL42 2454  30.196   3.474   2.904
   22XTA   HL43 2455  30.176   3.379   3.070
   22XTA   HL44 2456  31.896   3.426   3.371
   22XTA   HL45 2457  31.873   3.591   3.347
   22XTA   CO10 2458  31.882   3.518   3.429
   22XTA   CO11 2459  32.021   3.674   3.571
   22XTA    OA7 2460  32.026   3.750   3.456
   22XTA   HL46 2461  31.941   3.711   3.631
   22XTA   HL47 2462  32.114   3.688   3.615
   22XTA   HL48 2463  29.852   3.414   2.823
   22XTA   HL49 2464  29.996   3.513   2.770
   23XTH     NT 2465  24.709   0.728   5.448
   23XTH    CN1 2466  24.829   0.685   5.496
   23XTH     C1 2467  24.912   0.761   5.576
   23XTH     C2 2468  25.025   0.718   5.640
   23XTH     C3 2469  25.053   0.578   5.640
   23XTH     C4 2470  24.976   0.496   5.552
   23XTH     C5 2471  24.863   0.548   5.483
   23XTH    CN2 2472  24.671   0.709   5.319
   23XTH     C6 2473  24.595   0.599   5.273
   23XTH     C7 2474  24.568   0.583   5.133
   23XTH     C8 2475  24.624   0.671   5.047
   23XTH     C9 2476  24.684   0.785   5.095
   23XTH    C10 2477  24.712   0.800   5.228
   23XTH    CN3 2478  24.626   0.763   5.544
   23XTH    C11 2479  24.593   0.679   5.653
   23XTH    C12 2480  24.513   0.722   5.764
   23XTH    C13 2481  24.468   0.856   5.766
   23XTH    C14 2482  24.481   0.934   5.647
   23XTH    C15 2483  24.548   0.881   5.536
   23XTH     H1 2484  24.888   0.865   5.582
   23XTH     H2 2485  25.076   0.797   5.692
   23XTH     H3 2486  25.001   0.391   5.558
   23XTH     H4 2487  24.791   0.481   5.438
   23XTH     H5 2488  24.563   0.514   5.327
   23XTH     H6 2489  24.505   0.503   5.103
   23XTH     H7 2490  24.723   0.856   5.023
   23XTH     H8 2491  24.765   0.884   5.272
   23XTH     H9 2492  24.643   0.586   5.663
   23XTH    H10 2493  24.517   0.654   5.853
   23XTH    H11 2494  24.454   1.043   5.656
   23XTH    H12 2495  24.563   0.955   5.455
   23XTH    OA1 2496  25.171   0.529   5.705
   23XTH    CO1 2497  25.227   0.629   5.797
   23XTH    OA2 2498  24.609   0.653   4.912
   23XTH    CO2 2499  24.539   0.550   4.856
   23XTH    CL1 2500  24.393   0.568   4.872
   23XTH    CL2 2501  24.335   0.712   4.844
   23XTH    CL3 2502  24.195   0.711   4.795
   23XTH    CL4 2503  24.126   0.840   4.815
   23XTH    CO3 2504  24.185   0.961   4.745
   23XTH    OA3 2505  24.097   1.071   4.743
   23XTH    CO4 2506  24.135   1.189   4.675
   23XTH    CT1 2507  24.026   1.295   4.694
   23XTH    CL5 2508  23.881   1.242   4.688
   23XTH    CL6 2509  23.841   1.173   4.556
   23XTH    OA4 2510  24.419   0.901   5.888
   23XTH    CO5 2511  24.394   1.042   5.888
   23XTH    CL7 2512  24.380   1.101   6.022
   23XTH    CL8 2513  24.355   1.256   6.022
   23XTH    CL9 2514  24.208   1.298   6.036
   23XTH   CL10 2515  24.130   1.275   5.906
   23XTH    CO6 2516  23.979   1.261   5.923
   23XTH    OA5 2517  23.945   1.337   6.041
   23XTH    CO7 2518  23.810   1.324   6.081
   23XTH    CT2 2519  23.773   1.429   6.186
   23XTH   CL11 2520  23.754   1.567   6.123
   23XTH   CL12 2521  23.866   1.625   6.026
   23XTH    HL1 2522  25.297   0.585   5.863
   23XTH    HL2 2523  25.272   0.716   5.746
   23XTH    HL3 2524  25.149   0.669   5.855
   23XTH    HL4 2525  24.586   0.541   4.757
   23XTH    HL5 2526  24.576   0.455   4.906
   23XTH    HL6 2527  24.360   0.544   4.967
   23XTH    HL7 2528  24.352   0.505   4.798
   23XTH    HL8 2529  24.401   0.769   4.769
   23XTH    HL9 2530  24.342   0.775   4.938
   23XTH   HL10 2531  24.180   0.673   4.691
   23XTH   HL11 2532  24.141   0.659   4.858
   23XTH   HL12 2533  24.111   0.847   4.921
   23XTH   HL13 2534  24.027   0.830   4.780
   23XTH   HL14 2535  24.274   0.994   4.801
   23XTH   HL15 2536  24.219   0.943   4.639
   23XTH   HL16 2537  24.232   1.219   4.720
   23XTH   HL17 2538  24.147   1.168   4.569
   23XTH   HL18 2539  23.807   1.319   4.698
   23XTH   HL19 2540  23.861   1.165   4.766
   23XTH   HL20 2541  23.734   1.156   4.557
   23XTH   HL21 2542  23.891   1.080   4.562
   23XTH   HL22 2543  23.857   1.219   4.462
   23XTH   HL23 2544  24.316   1.067   5.808
   23XTH   HL24 2545  24.484   1.093   5.852
   23XTH   HL25 2546  24.303   1.061   6.082
   23XTH   HL26 2547  24.475   1.087   6.069
   23XTH   HL27 2548  24.416   1.302   6.103
   23XTH   HL28 2549  24.398   1.300   5.932
   23XTH   HL29 2550  24.159   1.249   6.123
   23XTH   HL30 2551  24.219   1.407   6.051
   23XTH   HL31 2552  24.158   1.340   5.816
   23XTH   HL32 2553  24.164   1.177   5.876
   23XTH   HL33 2554  23.920   1.289   5.837
   23XTH   HL34 2555  23.959   1.154   5.937
   23XTH   HL35 2556  23.781   1.223   6.112
   23XTH   HL36 2557  23.752   1.356   5.990
   23XTH   HL37 2558  23.737   1.646   6.200
   23XTH   HL38 2559  23.654   1.568   6.068
   23XTH   HL39 2560  23.955   1.623   6.080
   23XTH   HL40 2561  23.848   1.732   6.000
   23XTH   HL41 2562  23.880   1.571   5.937
   23XTH    CO8 2563  24.050   1.413   4.596
   23XTH    CO9 2564  24.043   1.357   4.832
   23XTH    OA6 2565  23.935   1.440   4.869
   23XTH   HL42 2566  24.002   1.505   4.622
   23XTH   HL43 2567  23.996   1.395   4.498
   23XTH   HL44 2568  23.917   1.335   6.326
   23XTH   HL45 2569  23.988   1.473   6.239
   23XTH   CO10 2570  23.896   1.438   6.288
   23XTH   CO11 2571  23.656   1.386   6.274
   23XTH    OA7 2572  23.873   1.513   6.403
   23XTH   HL46 2573  23.562   1.372   6.222
   23XTH   HL47 2574  23.623   1.486   6.316
   23XTH   HL48 2575  24.134   1.416   4.843
   23XTH   HL49 2576  24.044   1.282   4.908
   24XTA     NT 2577  23.982   4.113   4.440
   24XTA    CN1 2578  24.058   4.052   4.350
   24XTA     C1 2579  24.175   4.104   4.289
   24XTA     C2 2580  24.264   4.034   4.210
   24XTA     C3 2581  24.245   3.899   4.187
   24XTA     C4 2582  24.132   3.837   4.246
   24XTA     C5 2583  24.040   3.916   4.326
   24XTA    CN2 2584  23.973   4.059   4.564
   24XTA     C6 2585  23.872   3.971   4.600
   24XTA     C7 2586  23.872   3.917   4.726
   24XTA     C8 2587  23.957   3.962   4.824
   24XTA     C9 2588  24.059   4.052   4.788
   24XTA    C10 2589  24.068   4.106   4.660
   24XTA    CN3 2590  23.901   4.217   4.408
   24XTA    C11 2591  23.822   4.216   4.291
   24XTA    C12 2592  23.733   4.323   4.262
   24XTA    C13 2593  23.734   4.438   4.347
   24XTA    C14 2594  23.814   4.437   4.459
   24XTA    C15 2595  23.896   4.329   4.487
   24XTA     H1 2596  24.197   4.211   4.305
   24XTA     H2 2597  24.343   4.092   4.164
   24XTA     H3 2598  24.107   3.733   4.225
   24XTA     H4 2599  23.955   3.864   4.365
   24XTA     H5 2600  23.809   3.934   4.522
   24XTA     H6 2601  23.799   3.849   4.749
   24XTA     H7 2602  24.116   4.096   4.869
   24XTA     H8 2603  24.151   4.173   4.645
   24XTA     H9 2604  23.828   4.137   4.216
   24XTA    H10 2605  23.662   4.309   4.177
   24XTA    H11 2606  23.813   4.521   4.525
   24XTA    H12 2607  23.955   4.330   4.575
   24XTA    OA1 2608  24.335   3.837   4.107
   24XTA    CO1 2609  24.287   3.796   3.980
   24XTA    OA2 2610  23.955   3.922   4.956
   24XTA    CO2 2611  23.827   3.898   5.008
   24XTA    CL1 2612  23.851   3.872   5.156
   24XTA    CL2 2613  23.897   3.722   5.191
   24XTA    CL3 2614  24.028   3.685   5.134
   24XTA    CL4 2615  24.084   3.552   5.181
   24XTA    CO3 2616  24.220   3.522   5.119
   24XTA    OA3 2617  24.236   3.385   5.129
   24XTA    CO4 2618  24.350   3.335   5.060
   24XTA    CT1 2619  24.377   3.180   5.094
   24XTA    CL5 2620  24.432   3.157   5.233
   24XTA    CL6 2621  24.343   3.195   5.356
   24XTA    OA4 2622  23.652   4.542   4.314
   24XTA    CO5 2623  23.695   4.673   4.357
   24XTA    CL7 2624  23.600   4.766   4.287
   24XTA    CL8 2625  23.611   4.917   4.328
   24XTA    CL9 2626  23.523   5.009   4.258
   24XTA   CL10 2627  23.373   4.994   4.297
   24XTA    CO6 2628  23.283   5.021   4.176
   24XTA    OA5 2629  23.308   4.922   4.080
   24XTA    CO7 2630  23.210   4.931   3.980
   24XTA    CT2 2631  23.239   4.810   3.876
   24XTA   CL11 2632  23.376   4.827   3.798
   24XTA   CL12 2633  23.491   4.869   3.883
   24XTA    HL1 2634  24.249   3.872   3.910
   24XTA    HL2 2635  24.360   3.741   3.929
   24XTA    HL3 2636  24.205   3.727   3.982
   24XTA    HL4 2637  23.759   3.983   4.979
   24XTA    HL5 2638  23.780   3.811   4.965
   24XTA    HL6 2639  23.766   3.886   5.214
   24XTA    HL7 2640  23.926   3.946   5.187
   24XTA    HL8 2641  23.841   3.635   5.161
   24XTA    HL9 2642  23.898   3.710   5.302
   24XTA   HL10 2643  24.031   3.679   5.026
   24XTA   HL11 2644  24.100   3.771   5.137
   24XTA   HL12 2645  24.021   3.465   5.149
   24XTA   HL13 2646  24.081   3.531   5.293
   24XTA   HL14 2647  24.223   3.558   5.021
   24XTA   HL15 2648  24.304   3.572   5.172
   24XTA   HL16 2649  24.333   3.344   4.956
   24XTA   HL17 2650  24.433   3.399   5.087
   24XTA   HL18 2651  24.523   3.217   5.238
   24XTA   HL19 2652  24.461   3.050   5.253
   24XTA   HL20 2653  24.268   3.117   5.372
   24XTA   HL21 2654  24.277   3.284   5.340
   24XTA   HL22 2655  24.410   3.205   5.448
   24XTA   HL23 2656  23.797   4.699   4.329
   24XTA   HL24 2657  23.698   4.690   4.461
   24XTA   HL25 2658  23.618   4.756   4.185
   24XTA   HL26 2659  23.500   4.722   4.304
   24XTA   HL27 2660  23.592   4.935   4.431
   24XTA   HL28 2661  23.711   4.957   4.318
   24XTA   HL29 2662  23.560   5.107   4.286
   24XTA   HL30 2663  23.532   5.016   4.157
   24XTA   HL31 2664  23.355   4.897   4.343
   24XTA   HL32 2665  23.346   5.060   4.380
   24XTA   HL33 2666  23.177   5.021   4.207
   24XTA   HL34 2667  23.302   5.115   4.127
   24XTA   HL35 2668  23.207   5.031   3.933
   24XTA   HL36 2669  23.110   4.923   4.020
   24XTA   HL37 2670  23.357   4.910   3.724
   24XTA   HL38 2671  23.386   4.744   3.729
   24XTA   HL39 2672  23.501   4.810   3.975
   24XTA   HL40 2673  23.469   4.974   3.913
   24XTA   HL41 2674  23.592   4.863   3.833
   24XTA    CO8 2675  24.490   3.140   5.003
   24XTA    CO9 2676  24.260   3.080   5.075
   24XTA    OA6 2677  24.448   3.139   4.870
   24XTA   HL42 2678  24.531   3.046   5.037
   24XTA   HL43 2679  24.578   3.211   5.004
   24XTA   HL44 2680  23.145   4.725   3.694
   24XTA   HL45 2681  23.028   4.791   3.817
   24XTA   CO10 2682  23.124   4.800   3.767
   24XTA   CO11 2683  23.246   4.669   3.947
   24XTA    OA7 2684  23.121   4.919   3.702
   24XTA   HL46 2685  23.313   4.680   4.032
   24XTA   HL47 2686  23.283   4.595   3.874
   24XTA   HL48 2687  24.225   3.086   4.971
   24XTA   HL49 2688  24.183   3.138   5.124
   25XTH     NT 2689  26.457  -1.991  -0.789
   25XTH    CN1 2690  26.423  -2.104  -0.731
   25XTH     C1 2691  26.378  -2.106  -0.595
   25XTH     C2 2692  26.337  -2.232  -0.541
   25XTH     C3 2693  26.345  -2.355  -0.609
   25XTH     C4 2694  26.401  -2.343  -0.744
   25XTH     C5 2695  26.438  -2.221  -0.807
   25XTH    CN2 2696  26.586  -1.970  -0.839
   25XTH     C6 2697  26.611  -1.982  -0.975
   25XTH     C7 2698  26.737  -1.952  -1.028
   25XTH     C8 2699  26.841  -1.900  -0.946
   25XTH     C9 2700  26.811  -1.884  -0.812
   25XTH    C10 2701  26.687  -1.918  -0.753
   25XTH    CN3 2702  26.362  -1.897  -0.797
   25XTH    C11 2703  26.393  -1.762  -0.764
   25XTH    C12 2704  26.300  -1.665  -0.778
   25XTH    C13 2705  26.169  -1.686  -0.825
   25XTH    C14 2706  26.138  -1.816  -0.872
   25XTH    C15 2707  26.237  -1.921  -0.853
   25XTH     H1 2708  26.378  -2.019  -0.535
   25XTH     H2 2709  26.310  -2.238  -0.436
   25XTH     H3 2710  26.427  -2.439  -0.798
   25XTH     H4 2711  26.479  -2.221  -0.913
   25XTH     H5 2712  26.539  -2.036  -1.042
   25XTH     H6 2713  26.749  -1.958  -1.136
   25XTH     H7 2714  26.888  -1.844  -0.757
   25XTH     H8 2715  26.668  -1.906  -0.650
   25XTH     H9 2716  26.485  -1.734  -0.725
   25XTH    H10 2717  26.324  -1.566  -0.759
   25XTH    H11 2718  26.041  -1.838  -0.922
   25XTH    H12 2719  26.224  -2.020  -0.894
   25XTH    OA1 2720  26.318  -2.472  -0.547
   25XTH    CO1 2721  26.418  -2.569  -0.555
   25XTH    OA2 2722  26.969  -1.883  -0.987
   25XTH    CO2 2723  27.019  -1.976  -1.081
   25XTH    CL1 2724  27.150  -2.047  -1.029
   25XTH    CL2 2725  27.133  -2.125  -0.897
   25XTH    CL3 2726  27.077  -2.266  -0.924
   25XTH    CL4 2727  27.099  -2.357  -0.801
   25XTH    CO3 2728  27.237  -2.402  -0.761
   25XTH    OA3 2729  27.239  -2.417  -0.617
   25XTH    CO4 2730  27.141  -2.502  -0.560
   25XTH    CT1 2731  27.211  -2.563  -0.443
   25XTH    CL5 2732  27.319  -2.664  -0.481
   25XTH    CL6 2733  27.279  -2.781  -0.563
   25XTH    OA4 2734  26.068  -1.592  -0.830
   25XTH    CO5 2735  26.096  -1.464  -0.782
   25XTH    CL7 2736  25.964  -1.383  -0.787
   25XTH    CL8 2737  25.973  -1.257  -0.707
   25XTH    CL9 2738  26.063  -1.144  -0.766
   25XTH   CL10 2739  26.141  -1.164  -0.894
   25XTH    CO6 2740  26.189  -1.037  -0.951
   25XTH    OA5 2741  26.283  -0.970  -0.867
   25XTH    CO7 2742  26.298  -0.837  -0.914
   25XTH    CT2 2743  26.410  -0.766  -0.832
   25XTH   CL11 2744  26.406  -0.614  -0.844
   25XTH   CL12 2745  26.386  -0.551  -0.977
   25XTH    HL1 2746  26.394  -2.646  -0.488
   25XTH    HL2 2747  26.415  -2.608  -0.659
   25XTH    HL3 2748  26.517  -2.533  -0.523
   25XTH    HL4 2749  26.948  -2.059  -1.120
   25XTH    HL5 2750  27.036  -1.918  -1.174
   25XTH    HL6 2751  27.237  -1.975  -1.012
   25XTH    HL7 2752  27.197  -2.116  -1.098
   25XTH    HL8 2753  27.057  -2.069  -0.840
   25XTH    HL9 2754  27.229  -2.130  -0.854
   25XTH   HL10 2755  26.972  -2.250  -0.961
   25XTH   HL11 2756  27.108  -2.321  -1.012
   25XTH   HL12 2757  27.032  -2.442  -0.804
   25XTH   HL13 2758  27.062  -2.299  -0.722
   25XTH   HL14 2759  27.267  -2.498  -0.801
   25XTH   HL15 2760  27.304  -2.330  -0.787
   25XTH   HL16 2761  27.049  -2.448  -0.545
   25XTH   HL17 2762  27.104  -2.571  -0.631
   25XTH   HL18 2763  27.355  -2.713  -0.381
   25XTH   HL19 2764  27.399  -2.613  -0.519
   25XTH   HL20 2765  27.359  -2.859  -0.595
   25XTH   HL21 2766  27.230  -2.750  -0.656
   25XTH   HL22 2767  27.202  -2.827  -0.510
   25XTH   HL23 2768  26.183  -1.425  -0.818
   25XTH   HL24 2769  26.122  -1.474  -0.674
   25XTH   HL25 2770  25.926  -1.356  -0.889
   25XTH   HL26 2771  25.882  -1.437  -0.746
   25XTH   HL27 2772  25.876  -1.205  -0.706
   25XTH   HL28 2773  26.001  -1.276  -0.598
   25XTH   HL29 2774  26.004  -1.050  -0.759
   25XTH   HL30 2775  26.133  -1.129  -0.683
   25XTH   HL31 2776  26.224  -1.227  -0.871
   25XTH   HL32 2777  26.082  -1.209  -0.974
   25XTH   HL33 2778  26.233  -1.061  -1.043
   25XTH   HL34 2779  26.112  -0.966  -0.961
   25XTH   HL35 2780  26.201  -0.781  -0.920
   25XTH   HL36 2781  26.324  -0.847  -1.020
   25XTH   HL37 2782  26.494  -0.570  -0.795
   25XTH   HL38 2783  26.333  -0.576  -0.777
   25XTH   HL39 2784  26.293  -0.561  -1.031
   25XTH   HL40 2785  26.452  -0.605  -1.041
   25XTH   HL41 2786  26.408  -0.441  -0.978
   25XTH    CO8 2787  27.086  -2.634  -0.372
   25XTH    CO9 2788  27.271  -2.460  -0.341
   25XTH    OA6 2789  27.331  -2.508  -0.265
   25XTH   HL42 2790  27.030  -2.550  -0.339
   25XTH   HL43 2791  27.015  -2.709  -0.469
   25XTH   HL44 2792  26.558  -0.928  -0.866
   25XTH   HL45 2793  26.544  -0.822  -1.001
   25XTH   CO10 2794  26.549  -0.823  -0.893
   25XTH   CO11 2795  26.403  -0.802  -0.680
   25XTH    OA7 2796  26.643  -0.776  -0.854
   25XTH   HL46 2797  26.430  -0.938  -0.685
   25XTH   HL47 2798  26.500  -0.770  -0.639
   25XTH   HL48 2799  27.211  -2.383  -0.296
   25XTH   HL49 2800  27.339  -2.399  -0.403
   26XTA     NT 2801  24.626   3.356  -0.202
   26XTA    CN1 2802  24.513   3.409  -0.238
   26XTA     C1 2803  24.430   3.326  -0.314
   26XTA     C2 2804  24.303   3.376  -0.346
   26XTA     C3 2805  24.259   3.503  -0.298
   26XTA     C4 2806  24.344   3.578  -0.211
   26XTA     C5 2807  24.469   3.531  -0.183
   26XTA    CN2 2808  24.727   3.332  -0.293
   26XTA     C6 2809  24.808   3.443  -0.338
   26XTA     C7 2810  24.912   3.431  -0.435
   26XTA     C8 2811  24.923   3.302  -0.488
   26XTA     C9 2812  24.834   3.194  -0.456
   26XTA    C10 2813  24.741   3.207  -0.356
   26XTA    CN3 2814  24.651   3.297  -0.086
   26XTA    C11 2815  24.778   3.319  -0.021
   26XTA    C12 2816  24.813   3.240   0.086
   26XTA    C13 2817  24.725   3.150   0.150
   26XTA    C14 2818  24.594   3.140   0.096
   26XTA    C15 2819  24.556   3.211  -0.025
   26XTA     H1 2820  24.459   3.232  -0.354
   26XTA     H2 2821  24.248   3.318  -0.413
   26XTA     H3 2822  24.316   3.671  -0.164
   26XTA     H4 2823  24.538   3.577  -0.119
   26XTA     H5 2824  24.805   3.540  -0.300
   26XTA     H6 2825  24.980   3.506  -0.471
   26XTA     H7 2826  24.842   3.097  -0.505
   26XTA     H8 2827  24.668   3.132  -0.332
   26XTA     H9 2828  24.847   3.385  -0.071
   26XTA    H10 2829  24.917   3.245   0.121
   26XTA    H11 2830  24.533   3.068   0.140
   26XTA    H12 2831  24.467   3.178  -0.079
   26XTA    OA1 2832  24.132   3.533  -0.334
   26XTA    CO1 2833  24.078   3.635  -0.257
   26XTA    OA2 2834  25.016   3.286  -0.587
   26XTA    CO2 2835  25.100   3.166  -0.589
   26XTA    CL1 2836  25.202   3.174  -0.706
   26XTA    CL2 2837  25.142   3.174  -0.841
   26XTA    CL3 2838  25.244   3.205  -0.949
   26XTA    CL4 2839  25.360   3.098  -0.946
   26XTA    CO3 2840  25.403   3.080  -1.096
   26XTA    OA3 2841  25.312   2.981  -1.150
   26XTA    CO4 2842  25.374   2.924  -1.263
   26XTA    CT1 2843  25.262   2.862  -1.344
   26XTA    CL5 2844  25.304   2.794  -1.479
   26XTA    CL6 2845  25.418   2.693  -1.458
   26XTA    OA4 2846  24.755   3.061   0.254
   26XTA    CO5 2847  24.841   2.962   0.210
   26XTA    CL7 2848  24.749   2.851   0.146
   26XTA    CL8 2849  24.825   2.720   0.103
   26XTA    CL9 2850  24.754   2.636  -0.007
   26XTA   CL10 2851  24.632   2.571   0.050
   26XTA    CO6 2852  24.545   2.493  -0.054
   26XTA    OA5 2853  24.439   2.568  -0.111
   26XTA    CO7 2854  24.485   2.683  -0.181
   26XTA    CT2 2855  24.376   2.732  -0.269
   26XTA   CL11 2856  24.426   2.827  -0.384
   26XTA   CL12 2857  24.483   2.957  -0.314
   26XTA    HL1 2858  24.082   3.609  -0.156
   26XTA    HL2 2859  24.135   3.721  -0.285
   26XTA    HL3 2860  23.977   3.648  -0.287
   26XTA    HL4 2861  25.159   3.153  -0.499
   26XTA    HL5 2862  25.034   3.077  -0.594
   26XTA    HL6 2863  25.267   3.089  -0.682
   26XTA    HL7 2864  25.255   3.270  -0.691
   26XTA    HL8 2865  25.070   3.251  -0.841
   26XTA    HL9 2866  25.090   3.084  -0.859
   26XTA   HL10 2867  25.203   3.214  -1.049
   26XTA   HL11 2868  25.281   3.298  -0.916
   26XTA   HL12 2869  25.331   3.008  -0.895
   26XTA   HL13 2870  25.447   3.145  -0.898
   26XTA   HL14 2871  25.402   3.173  -1.152
   26XTA   HL15 2872  25.507   3.041  -1.103
   26XTA   HL16 2873  25.418   2.997  -1.325
   26XTA   HL17 2874  25.443   2.850  -1.229
   26XTA   HL18 2875  25.326   2.869  -1.556
   26XTA   HL19 2876  25.219   2.731  -1.515
   26XTA   HL20 2877  25.511   2.729  -1.414
   26XTA   HL21 2878  25.454   2.645  -1.548
   26XTA   HL22 2879  25.385   2.610  -1.400
   26XTA   HL23 2880  24.891   2.927   0.300
   26XTA   HL24 2881  24.920   2.990   0.140
   26XTA   HL25 2882  24.675   2.811   0.220
   26XTA   HL26 2883  24.698   2.872   0.049
   26XTA   HL27 2884  24.913   2.746   0.046
   26XTA   HL28 2885  24.861   2.668   0.194
   26XTA   HL29 2886  24.724   2.703  -0.087
   26XTA   HL30 2887  24.810   2.560  -0.059
   26XTA   HL31 2888  24.674   2.505   0.129
   26XTA   HL32 2889  24.581   2.647   0.113
   26XTA   HL33 2890  24.594   2.433  -0.127
   26XTA   HL34 2891  24.489   2.415   0.003
   26XTA   HL35 2892  24.574   2.653  -0.245
   26XTA   HL36 2893  24.514   2.760  -0.109
   26XTA   HL37 2894  24.339   2.852  -0.447
   26XTA   HL38 2895  24.500   2.771  -0.460
   26XTA   HL39 2896  24.413   3.008  -0.248
   26XTA   HL40 2897  24.499   3.033  -0.394
   26XTA   HL41 2898  24.589   2.952  -0.277
   26XTA    CO8 2899  25.166   2.979  -1.381
   26XTA    CO9 2900  25.171   2.758  -1.265
   26XTA    OA6 2901  25.227   2.674  -1.221
   26XTA   HL42 2902  25.215   3.054  -1.438
   26XTA   HL43 2903  25.129   3.038  -1.264
   26XTA   HL44 2904  24.314   2.891  -0.119
   26XTA   HL45 2905  24.195   2.847  -0.237
   26XTA   CO10 2906  24.277   2.811  -0.175
   26XTA   CO11 2907  24.296   2.618  -0.332
   26XTA    OA7 2908  24.238   2.750  -0.103
   26XTA   HL46 2909  24.233   2.526  -0.241
   26XTA   HL47 2910  24.211   2.654  -0.386
   26XTA   HL48 2911  25.090   2.722  -1.314
   26XTA   HL49 2912  25.129   2.816  -1.187
   27XTA     NT 2913  25.124   3.771   0.027
   27XTA    CN1 2914  25.183   3.701  -0.072
   27XTA     C1 2915  25.259   3.588  -0.043
   27XTA     C2 2916  25.342   3.528  -0.135
   27XTA     C3 2917  25.338   3.582  -0.264
   27XTA     C4 2918  25.248   3.681  -0.299
   27XTA     C5 2919  25.172   3.745  -0.200
   27XTA    CN2 2920  24.988   3.778   0.023
   27XTA     C6 2921  24.928   3.905   0.002
   27XTA     C7 2922  24.789   3.925   0.003
   27XTA     C8 2923  24.704   3.817   0.018
   27XTA     C9 2924  24.765   3.691   0.011
   27XTA    C10 2925  24.899   3.665   0.032
   27XTA    CN3 2926  25.191   3.851   0.114
   27XTA    C11 2927  25.234   3.979   0.084
   27XTA    C12 2928  25.279   4.058   0.192
   27XTA    C13 2929  25.298   4.003   0.325
   27XTA    C14 2930  25.259   3.871   0.347
   27XTA    C15 2931  25.201   3.794   0.245
   27XTA     H1 2932  25.255   3.550   0.062
   27XTA     H2 2933  25.409   3.445  -0.110
   27XTA     H3 2934  25.249   3.711  -0.400
   27XTA     H4 2935  25.108   3.825  -0.220
   27XTA     H5 2936  24.998   3.986  -0.005
   27XTA     H6 2937  24.748   4.020  -0.019
   27XTA     H7 2938  24.709   3.598   0.004
   27XTA     H8 2939  24.940   3.570   0.037
   27XTA     H9 2940  25.221   4.022  -0.011
   27XTA    H10 2941  25.319   4.156   0.171
   27XTA    H11 2942  25.268   3.832   0.449
   27XTA    H12 2943  25.152   3.702   0.254
   27XTA    OA1 2944  25.423   3.538  -0.362
   27XTA    CO1 2945  25.502   3.425  -0.333
   27XTA    OA2 2946  24.566   3.828   0.020
   27XTA    CO2 2947  24.507   3.953   0.021
   27XTA    CL1 2948  24.361   3.930   0.057
   27XTA    CL2 2949  24.348   3.841   0.182
   27XTA    CL3 2950  24.224   3.856   0.264
   27XTA    CL4 2951  24.212   3.763   0.389
   27XTA    CO3 2952  24.341   3.755   0.471
   27XTA    OA3 2953  24.356   3.869   0.562
   27XTA    CO4 2954  24.406   3.988   0.509
   27XTA    CT1 2955  24.434   4.095   0.617
   27XTA    CL5 2956  24.295   4.124   0.678
   27XTA    CL6 2957  24.291   4.243   0.778
   27XTA    OA4 2958  25.339   4.080   0.437
   27XTA    CO5 2959  25.352   4.222   0.422
   27XTA    CL7 2960  25.230   4.306   0.456
   27XTA    CL8 2961  25.127   4.275   0.363
   27XTA    CL9 2962  25.005   4.358   0.392
   27XTA   CL10 2963  24.896   4.331   0.290
   27XTA    CO6 2964  24.870   4.178   0.272
   27XTA    OA5 2965  24.840   4.121   0.397
   27XTA    CO7 2966  24.877   3.981   0.404
   27XTA    CT2 2967  24.860   3.936   0.552
   27XTA   CL11 2968  24.960   4.024   0.630
   27XTA   CL12 2969  24.947   3.993   0.778
   27XTA    HL1 2970  25.576   3.410  -0.414
   27XTA    HL2 2971  25.549   3.429  -0.234
   27XTA    HL3 2972  25.435   3.336  -0.326
   27XTA    HL4 2973  24.553   4.025   0.082
   27XTA    HL5 2974  24.520   3.994  -0.078
   27XTA    HL6 2975  24.311   3.904  -0.042
   27XTA    HL7 2976  24.311   4.028   0.071
   27XTA    HL8 2977  24.434   3.869   0.243
   27XTA    HL9 2978  24.371   3.735   0.160
   27XTA   HL10 2979  24.219   3.963   0.293
   27XTA   HL11 2980  24.136   3.841   0.205
   27XTA   HL12 2981  24.209   3.660   0.360
   27XTA   HL13 2982  24.128   3.791   0.447
   27XTA   HL14 2983  24.341   3.659   0.529
   27XTA   HL15 2984  24.429   3.746   0.409
   27XTA   HL16 2985  24.487   3.967   0.442
   27XTA   HL17 2986  24.345   4.044   0.443
   27XTA   HL18 2987  24.263   4.032   0.727
   27XTA   HL19 2988  24.220   4.150   0.600
   27XTA   HL20 2989  24.330   4.214   0.873
   27XTA   HL21 2990  24.192   4.282   0.797
   27XTA   HL22 2991  24.348   4.328   0.745
   27XTA   HL23 2992  25.408   4.257   0.337
   27XTA   HL24 2993  25.418   4.246   0.502
   27XTA   HL25 2994  25.189   4.291   0.558
   27XTA   HL26 2995  25.265   4.410   0.443
   27XTA   HL27 2996  25.148   4.291   0.263
   27XTA   HL28 2997  25.102   4.170   0.378
   27XTA   HL29 2998  24.964   4.326   0.489
   27XTA   HL30 2999  25.029   4.468   0.408
   27XTA   HL31 3000  24.803   4.375   0.318
   27XTA   HL32 3001  24.919   4.376   0.195
   27XTA   HL33 3002  24.779   4.177   0.215
   27XTA   HL34 3003  24.938   4.123   0.207
   27XTA   HL35 3004  24.977   3.974   0.368
   27XTA   HL36 3005  24.825   3.919   0.335
   27XTA   HL37 3006  24.933   4.130   0.612
   27XTA   HL38 3007  25.060   4.013   0.596
   27XTA   HL39 3008  24.851   3.964   0.825
   27XTA   HL40 3009  24.989   4.068   0.842
   27XTA   HL41 3010  25.010   3.910   0.797
   27XTA    CO8 3011  24.501   4.225   0.563
   27XTA    CO9 3012  24.536   4.043   0.715
   27XTA    OA6 3013  24.667   4.059   0.664
   27XTA   HL42 3014  24.505   4.304   0.641
   27XTA   HL43 3015  24.603   4.197   0.526
   27XTA   HL44 3016  25.002   3.772   0.514
   27XTA   HL45 3017  24.904   3.745   0.652
   27XTA   CO10 3018  24.901   3.787   0.548
   27XTA   CO11 3019  24.716   3.941   0.608
   27XTA    OA7 3020  24.830   3.721   0.492
   27XTA   HL46 3021  24.712   3.835   0.707
   27XTA   HL47 3022  24.652   3.904   0.530
   27XTA   HL48 3023  24.515   3.943   0.746
   27XTA   HL49 3024  24.532   4.104   0.806
   28XTA     NT 3025  31.925  -0.048   0.503
   28XTA    CN1 3026  31.969   0.068   0.448
   28XTA     C1 3027  31.974   0.076   0.305
   28XTA     C2 3028  32.002   0.201   0.243
   28XTA     C3 3029  32.007   0.320   0.325
   28XTA     C4 3030  32.002   0.302   0.463
   28XTA     C5 3031  32.002   0.180   0.523
   28XTA    CN2 3032  32.013  -0.146   0.519
   28XTA     C6 3033  32.091  -0.158   0.635
   28XTA     C7 3034  32.174  -0.269   0.656
   28XTA     C8 3035  32.172  -0.372   0.556
   28XTA     C9 3036  32.098  -0.363   0.440
   28XTA    C10 3037  32.021  -0.246   0.418
   28XTA    CN3 3038  31.807  -0.054   0.563
   28XTA    C11 3039  31.797  -0.056   0.705
   28XTA    C12 3040  31.674  -0.058   0.769
   28XTA    C13 3041  31.553  -0.056   0.697
   28XTA    C14 3042  31.564  -0.052   0.557
   28XTA    C15 3043  31.681  -0.056   0.487
   28XTA     H1 3044  31.949  -0.004   0.235
   28XTA     H2 3045  31.995   0.209   0.135
   28XTA     H3 3046  32.013   0.384   0.528
   28XTA     H4 3047  32.018   0.172   0.638
   28XTA     H5 3048  32.080  -0.078   0.702
   28XTA     H6 3049  32.225  -0.263   0.750
   28XTA     H7 3050  32.104  -0.434   0.363
   28XTA     H8 3051  31.972  -0.230   0.331
   28XTA     H9 3052  31.885  -0.036   0.760
   28XTA    H10 3053  31.673  -0.058   0.881
   28XTA    H11 3054  31.473  -0.040   0.491
   28XTA    H12 3055  31.689  -0.060   0.375
   28XTA    OA1 3056  32.024   0.442   0.269
   28XTA    CO1 3057  32.078   0.443   0.138
   28XTA    OA2 3058  32.247  -0.484   0.587
   28XTA    CO2 3059  32.231  -0.605   0.510
   28XTA    CL1 3060  32.245  -0.720   0.608
   28XTA    CL2 3061  32.248  -0.857   0.536
   28XTA    CL3 3062  32.123  -0.911   0.475
   28XTA    CL4 3063  31.993  -0.901   0.558
   28XTA    CO3 3064  32.002  -0.957   0.697
   28XTA    OA3 3065  31.871  -0.977   0.733
   28XTA    CO4 3066  31.847  -1.055   0.844
   28XTA    CT1 3067  31.693  -1.062   0.875
   28XTA    CL5 3068  31.635  -1.130   0.752
   28XTA    CL6 3069  31.487  -1.155   0.750
   28XTA    OA4 3070  31.434  -0.050   0.766
   28XTA    CO5 3071  31.323  -0.080   0.694
   28XTA    CL7 3072  31.210  -0.089   0.791
   28XTA    CL8 3073  31.071  -0.139   0.738
   28XTA    CL9 3074  30.987  -0.018   0.696
   28XTA   CL10 3075  30.943   0.082   0.809
   28XTA    CO6 3076  30.873   0.021   0.934
   28XTA    OA5 3077  30.849   0.116   1.032
   28XTA    CO7 3078  30.961   0.200   1.079
   28XTA    CT2 3079  30.914   0.266   1.210
   28XTA   CL11 3080  30.810   0.377   1.183
   28XTA   CL12 3081  30.771   0.467   1.298
   28XTA    HL1 3082  32.105   0.543   0.110
   28XTA    HL2 3083  32.173   0.392   0.128
   28XTA    HL3 3084  31.995   0.414   0.073
   28XTA    HL4 3085  32.127  -0.616   0.483
   28XTA    HL5 3086  32.295  -0.601   0.422
   28XTA    HL6 3087  32.163  -0.715   0.677
   28XTA    HL7 3088  32.333  -0.715   0.665
   28XTA    HL8 3089  32.292  -0.933   0.598
   28XTA    HL9 3090  32.308  -0.833   0.444
   28XTA   HL10 3091  32.100  -0.864   0.381
   28XTA   HL11 3092  32.148  -1.014   0.447
   28XTA   HL12 3093  31.919  -0.956   0.505
   28XTA   HL13 3094  31.953  -0.800   0.569
   28XTA   HL14 3095  32.057  -1.051   0.694
   28XTA   HL15 3096  32.065  -0.886   0.758
   28XTA   HL16 3097  31.892  -1.150   0.829
   28XTA   HL17 3098  31.908  -1.027   0.931
   28XTA   HL18 3099  31.688  -1.222   0.738
   28XTA   HL19 3100  31.648  -1.069   0.664
   28XTA   HL20 3101  31.434  -1.059   0.758
   28XTA   HL21 3102  31.462  -1.218   0.840
   28XTA   HL22 3103  31.458  -1.206   0.659
   28XTA   HL23 3104  31.337  -0.174   0.628
   28XTA   HL24 3105  31.298  -0.000   0.631
   28XTA   HL25 3106  31.238  -0.158   0.868
   28XTA   HL26 3107  31.194  -0.001   0.852
   28XTA   HL27 3108  31.082  -0.207   0.654
   28XTA   HL28 3109  31.014  -0.189   0.817
   28XTA   HL29 3110  31.046   0.041   0.625
   28XTA   HL30 3111  30.902  -0.061   0.647
   28XTA   HL31 3112  31.024   0.151   0.841
   28XTA   HL32 3113  30.868   0.155   0.781
   28XTA   HL33 3114  30.781  -0.033   0.906
   28XTA   HL34 3115  30.931  -0.055   0.972
   28XTA   HL35 3116  30.983   0.267   1.000
   28XTA   HL36 3117  31.044   0.129   1.103
   28XTA   HL37 3118  30.725   0.332   1.138
   28XTA   HL38 3119  30.838   0.444   1.096
   28XTA   HL39 3120  30.683   0.511   1.271
   28XTA   HL40 3121  30.847   0.538   1.329
   28XTA   HL41 3122  30.752   0.407   1.391
   28XTA    CO8 3123  31.627  -0.925   0.899
   28XTA    CO9 3124  31.676  -1.150   0.998
   28XTA    OA6 3125  31.503  -0.942   0.963
   28XTA   HL42 3126  31.620  -0.875   0.799
   28XTA   HL43 3127  31.691  -0.859   0.948
   28XTA   HL44 3128  31.031   0.362   1.361
   28XTA   HL45 3129  31.112   0.244   1.277
   28XTA   CO10 3130  31.042   0.325   1.267
   28XTA   CO11 3131  30.864   0.160   1.308
   28XTA    OA7 3132  31.092   0.419   1.176
   28XTA   HL46 3133  30.765   0.128   1.263
   28XTA   HL47 3134  30.838   0.203   1.406
   28XTA   HL48 3135  31.732  -1.240   0.969
   28XTA   HL49 3136  31.572  -1.170   1.014
   29XTA     NT 3137  25.233   3.110   4.854
   29XTA    CN1 3138  25.198   3.230   4.904
   29XTA     C1 3139  25.062   3.254   4.932
   29XTA     C2 3140  25.024   3.381   4.983
   29XTA     C3 3141  25.116   3.482   4.997
   29XTA     C4 3142  25.253   3.452   4.979
   29XTA     C5 3143  25.290   3.331   4.920
   29XTA    CN2 3144  25.266   3.007   4.937
   29XTA     C6 3145  25.372   2.924   4.902
   29XTA     C7 3146  25.406   2.813   4.984
   29XTA     C8 3147  25.336   2.791   5.107
   29XTA     C9 3148  25.242   2.889   5.145
   29XTA    C10 3149  25.200   2.997   5.061
   29XTA    CN3 3150  25.226   3.082   4.721
   29XTA    C11 3151  25.333   3.117   4.634
   29XTA    C12 3152  25.327   3.091   4.499
   29XTA    C13 3153  25.214   3.039   4.438
   29XTA    C14 3154  25.103   3.008   4.517
   29XTA    C15 3155  25.109   3.032   4.656
   29XTA     H1 3156  24.985   3.180   4.912
   29XTA     H2 3157  24.918   3.401   4.991
   29XTA     H3 3158  25.328   3.533   4.980
   29XTA     H4 3159  25.391   3.314   4.885
   29XTA     H5 3160  25.430   2.953   4.816
   29XTA     H6 3161  25.485   2.746   4.956
   29XTA     H7 3162  25.207   2.880   5.252
   29XTA     H8 3163  25.133   3.080   5.095
   29XTA     H9 3164  25.424   3.162   4.676
   29XTA    H10 3165  25.411   3.118   4.438
   29XTA    H11 3166  25.017   2.961   4.476
   29XTA    H12 3167  25.025   2.998   4.718
   29XTA    OA1 3168  25.087   3.608   5.035
   29XTA    CO1 3169  24.975   3.674   5.004
   29XTA    OA2 3170  25.365   2.688   5.197
   29XTA    CO2 3171  25.397   2.567   5.142
   29XTA    CL1 3172  25.442   2.470   5.254
   29XTA    CL2 3173  25.336   2.467   5.368
   29XTA    CL3 3174  25.354   2.357   5.468
   29XTA    CL4 3175  25.273   2.380   5.592
   29XTA    CO3 3176  25.134   2.320   5.579
   29XTA    OA3 3177  25.051   2.389   5.478
   29XTA    CO4 3178  24.916   2.374   5.485
   29XTA    CT1 3179  24.859   2.420   5.348
   29XTA    CL5 3180  24.878   2.317   5.235
   29XTA    CL6 3181  25.019   2.273   5.218
   29XTA    OA4 3182  25.230   3.001   4.306
   29XTA    CO5 3183  25.125   2.940   4.236
   29XTA    CL7 3184  25.147   2.893   4.092
   29XTA    CL8 3185  25.258   2.793   4.082
   29XTA    CL9 3186  25.205   2.651   4.123
   29XTA   CL10 3187  25.239   2.611   4.271
   29XTA    CO6 3188  25.157   2.494   4.326
   29XTA    OA5 3189  25.198   2.468   4.457
   29XTA    CO7 3190  25.207   2.586   4.527
   29XTA    CT2 3191  25.210   2.548   4.680
   29XTA   CL11 3192  25.315   2.445   4.729
   29XTA   CL12 3193  25.459   2.479   4.710
   29XTA    HL1 3194  24.963   3.679   4.898
   29XTA    HL2 3195  24.886   3.627   5.053
   29XTA    HL3 3196  24.976   3.775   5.052
   29XTA    HL4 3197  25.302   2.540   5.098
   29XTA    HL5 3198  25.464   2.579   5.056
   29XTA    HL6 3199  25.531   2.515   5.291
   29XTA    HL7 3200  25.472   2.378   5.209
   29XTA    HL8 3201  25.238   2.461   5.317
   29XTA    HL9 3202  25.342   2.558   5.419
   29XTA   HL10 3203  25.343   2.253   5.436
   29XTA   HL11 3204  25.464   2.358   5.504
   29XTA   HL12 3205  25.270   2.487   5.599
   29XTA   HL13 3206  25.328   2.344   5.683
   29XTA   HL14 3207  25.140   2.210   5.555
   29XTA   HL15 3208  25.087   2.338   5.676
   29XTA   HL16 3209  24.873   2.274   5.509
   29XTA   HL17 3210  24.879   2.435   5.564
   29XTA   HL18 3211  24.851   2.374   5.147
   29XTA   HL19 3212  24.806   2.235   5.245
   29XTA   HL20 3213  25.025   2.200   5.131
   29XTA   HL21 3214  25.066   2.225   5.306
   29XTA   HL22 3215  25.087   2.358   5.183
   29XTA   HL23 3216  25.035   3.005   4.243
   29XTA   HL24 3217  25.091   2.854   4.290
   29XTA   HL25 3218  25.046   2.864   4.057
   29XTA   HL26 3219  25.161   2.973   4.026
   29XTA   HL27 3220  25.289   2.813   3.978
   29XTA   HL28 3221  25.339   2.829   4.154
   29XTA   HL29 3222  25.097   2.650   4.099
   29XTA   HL30 3223  25.258   2.584   4.053
   29XTA   HL31 3224  25.342   2.581   4.282
   29XTA   HL32 3225  25.226   2.706   4.328
   29XTA   HL33 3226  25.055   2.511   4.326
   29XTA   HL34 3227  25.169   2.402   4.266
   29XTA   HL35 3228  25.132   2.664   4.504
   29XTA   HL36 3229  25.304   2.617   4.504
   29XTA   HL37 3230  25.304   2.358   4.665
   29XTA   HL38 3231  25.292   2.396   4.822
   29XTA   HL39 3232  25.486   2.515   4.612
   29XTA   HL40 3233  25.511   2.382   4.728
   29XTA   HL41 3234  25.497   2.558   4.775
   29XTA    CO8 3235  24.921   2.556   5.305
   29XTA    CO9 3236  24.707   2.451   5.358
   29XTA    OA6 3237  24.688   2.533   5.429
   29XTA   HL42 3238  24.919   2.618   5.393
   29XTA   HL43 3239  25.059   2.555   5.277
   29XTA   HL44 3240  24.995   2.567   4.668
   29XTA   HL45 3241  25.039   2.419   4.763
   29XTA   CO10 3242  25.069   2.522   4.734
   29XTA   CO11 3243  25.207   2.667   4.769
   29XTA    OA7 3244  25.094   2.619   4.841
   29XTA   HL46 3245  25.291   2.682   4.834
   29XTA   HL47 3246  25.193   2.761   4.713
   29XTA   HL48 3247  24.658   2.362   5.389
   29XTA   HL49 3248  24.679   2.481   5.258
   30XTA     NT 3249  25.599   3.917   4.110
   30XTA    CN1 3250  25.575   3.996   4.218
   30XTA     C1 3251  25.586   4.135   4.211
   30XTA     C2 3252  25.576   4.206   4.330
   30XTA     C3 3253  25.536   4.148   4.450
   30XTA     C4 3254  25.523   4.012   4.451
   30XTA     C5 3255  25.542   3.933   4.340
   30XTA    CN2 3256  25.555   3.960   3.987
   30XTA     C6 3257  25.419   3.967   3.951
   30XTA     C7 3258  25.374   4.014   3.826
   30XTA     C8 3259  25.472   4.059   3.732
   30XTA     C9 3260  25.606   4.042   3.763
   30XTA    C10 3261  25.650   3.995   3.886
   30XTA    CN3 3262  25.684   3.814   4.114
   30XTA    C11 3263  25.632   3.682   4.103
   30XTA    C12 3264  25.719   3.570   4.111
   30XTA    C13 3265  25.852   3.596   4.130
   30XTA    C14 3266  25.903   3.726   4.133
   30XTA    C15 3267  25.819   3.836   4.130
   30XTA     H1 3268  25.616   4.183   4.118
   30XTA     H2 3269  25.583   4.316   4.323
   30XTA     H3 3270  25.493   3.970   4.545
   30XTA     H4 3271  25.510   3.833   4.341
   30XTA     H5 3272  25.355   3.921   4.023
   30XTA     H6 3273  25.267   4.035   3.812
   30XTA     H7 3274  25.685   4.081   3.698
   30XTA     H8 3275  25.753   4.007   3.904
   30XTA     H9 3276  25.529   3.654   4.093
   30XTA    H10 3277  25.683   3.467   4.106
   30XTA    H11 3278  26.008   3.739   4.152
   30XTA    H12 3279  25.849   3.938   4.148
   30XTA    OA1 3280  25.515   4.217   4.572
   30XTA    CO1 3281  25.570   4.341   4.576
   30XTA    OA2 3282  25.442   4.117   3.614
   30XTA    CO2 3283  25.324   4.085   3.553
   30XTA    CL1 3284  25.290   4.190   3.439
   30XTA    CL2 3285  25.149   4.164   3.381
   30XTA    CL3 3286  25.092   4.276   3.298
   30XTA    CL4 3287  25.068   4.402   3.380
   30XTA    CO3 3288  24.948   4.482   3.334
   30XTA    OA3 3289  25.000   4.537   3.215
   30XTA    CO4 3290  25.068   4.660   3.231
   30XTA    CT1 3291  25.075   4.721   3.083
   30XTA    CL5 3292  24.932   4.767   3.040
   30XTA    CL6 3293  24.928   4.897   2.955
   30XTA    OA4 3294  25.932   3.483   4.123
   30XTA    CO5 3295  26.075   3.500   4.138
   30XTA    CL7 3296  26.137   3.368   4.095
   30XTA    CL8 3297  26.115   3.360   3.940
   30XTA    CL9 3298  26.205   3.261   3.868
   30XTA   CL10 3299  26.210   3.260   3.709
   30XTA    CO6 3300  26.076   3.245   3.635
   30XTA    OA5 3301  26.006   3.367   3.652
   30XTA    CO7 3302  25.864   3.351   3.622
   30XTA    CT2 3303  25.788   3.483   3.604
   30XTA   CL11 3304  25.791   3.549   3.740
   30XTA   CL12 3305  25.726   3.693   3.754
   30XTA    HL1 3306  25.665   4.348   4.538
   30XTA    HL2 3307  25.511   4.416   4.516
   30XTA    HL3 3308  25.575   4.376   4.681
   30XTA    HL4 3309  25.342   3.985   3.507
   30XTA    HL5 3310  25.245   4.089   3.627
   30XTA    HL6 3311  25.366   4.189   3.369
   30XTA    HL7 3312  25.286   4.292   3.479
   30XTA    HL8 3313  25.085   4.126   3.461
   30XTA    HL9 3314  25.152   4.078   3.315
   30XTA   HL10 3315  25.166   4.303   3.224
   30XTA   HL11 3316  24.999   4.243   3.252
   30XTA   HL12 3317  25.163   4.461   3.383
   30XTA   HL13 3318  25.059   4.374   3.476
   30XTA   HL14 3319  24.856   4.418   3.314
   30XTA   HL15 3320  24.913   4.566   3.396
   30XTA   HL16 3321  25.013   4.724   3.302
   30XTA   HL17 3322  25.167   4.644   3.261
   30XTA   HL18 3323  24.886   4.799   3.130
   30XTA   HL19 3324  24.860   4.697   2.995
   30XTA   HL20 3325  24.830   4.914   2.915
   30XTA   HL21 3326  24.999   4.896   2.875
   30XTA   HL22 3327  24.938   4.985   3.016
   30XTA   HL23 3328  26.115   3.535   4.239
   30XTA   HL24 3329  26.107   3.574   4.064
   30XTA   HL25 3330  26.248   3.366   4.118
   30XTA   HL26 3331  26.094   3.288   4.152
   30XTA   HL27 3332  26.011   3.338   3.921
   30XTA   HL28 3333  26.121   3.450   3.891
   30XTA   HL29 3334  26.302   3.282   3.907
   30XTA   HL30 3335  26.183   3.161   3.896
   30XTA   HL31 3336  26.262   3.353   3.674
   30XTA   HL32 3337  26.278   3.170   3.694
   30XTA   HL33 3338  26.097   3.221   3.526
   30XTA   HL34 3339  26.011   3.167   3.678
   30XTA   HL35 3340  25.812   3.308   3.711
   30XTA   HL36 3341  25.852   3.285   3.533
   30XTA   HL37 3342  25.891   3.562   3.767
   30XTA   HL38 3343  25.755   3.485   3.822
   30XTA   HL39 3344  25.680   3.701   3.856
   30XTA   HL40 3345  25.647   3.709   3.680
   30XTA   HL41 3346  25.794   3.775   3.732
   30XTA    CO8 3347  25.127   4.618   2.982
   30XTA    CO9 3348  25.169   4.844   3.085
   30XTA    OA6 3349  25.299   4.805   3.116
   30XTA   HL42 3350  25.215   4.567   3.017
   30XTA   HL43 3351  25.058   4.537   2.976
   30XTA   HL44 3352  25.640   3.396   3.485
   30XTA   HL45 3353  25.610   3.564   3.513
   30XTA   CO10 3354  25.642   3.469   3.561
   30XTA   CO11 3355  25.868   3.569   3.502
   30XTA    OA7 3356  25.863   3.488   3.385
   30XTA   HL46 3357  25.828   3.672   3.480
   30XTA   HL47 3358  25.972   3.586   3.532
   30XTA   HL48 3359  25.128   4.926   3.151
   30XTA   HL49 3360  25.181   4.881   2.980
   31XTA     NT 3361  26.434   1.243   6.828
   31XTA    CN1 3362  26.542   1.191   6.892
   31XTA     C1 3363  26.663   1.165   6.829
   31XTA     C2 3364  26.778   1.106   6.891
   31XTA     C3 3365  26.772   1.075   7.028
   31XTA     C4 3366  26.650   1.090   7.092
   31XTA     C5 3367  26.544   1.157   7.028
   31XTA    CN2 3368  26.349   1.159   6.769
   31XTA     C6 3369  26.274   1.068   6.837
   31XTA     C7 3370  26.197   0.975   6.768
   31XTA     C8 3371  26.185   0.978   6.629
   31XTA     C9 3372  26.266   1.071   6.557
   31XTA    C10 3373  26.346   1.163   6.628
   31XTA    CN3 3374  26.396   1.370   6.826
   31XTA    C11 3375  26.283   1.414   6.894
   31XTA    C12 3376  26.234   1.544   6.874
   31XTA    C13 3377  26.295   1.636   6.793
   31XTA    C14 3378  26.416   1.585   6.725
   31XTA    C15 3379  26.468   1.455   6.740
   31XTA     H1 3380  26.674   1.192   6.727
   31XTA     H2 3381  26.860   1.111   6.822
   31XTA     H3 3382  26.649   1.064   7.194
   31XTA     H4 3383  26.461   1.181   7.092
   31XTA     H5 3384  26.287   1.050   6.940
   31XTA     H6 3385  26.130   0.905   6.816
   31XTA     H7 3386  26.256   1.073   6.447
   31XTA     H8 3387  26.402   1.241   6.576
   31XTA     H9 3388  26.233   1.343   6.959
   31XTA    H10 3389  26.150   1.583   6.925
   31XTA    H11 3390  26.471   1.656   6.667
   31XTA    H12 3391  26.551   1.418   6.673
   31XTA    OA1 3392  26.879   1.024   7.105
   31XTA    CO1 3393  26.997   0.998   7.038
   31XTA    OA2 3394  26.099   0.885   6.562
   31XTA    CO2 3395  26.065   0.897   6.424
   31XTA    CL1 3396  25.914   0.880   6.410
   31XTA    CL2 3397  25.847   0.942   6.289
   31XTA    CL3 3398  25.926   0.931   6.158
   31XTA    CL4 3399  25.853   1.014   6.053
   31XTA    CO3 3400  25.928   1.022   5.917
   31XTA    OA3 3401  25.846   1.068   5.816
   31XTA    CO4 3402  25.918   1.073   5.698
   31XTA    CT1 3403  25.847   1.141   5.581
   31XTA    CL5 3404  25.690   1.132   5.592
   31XTA    CL6 3405  25.611   1.111   5.459
   31XTA    OA4 3406  26.252   1.765   6.777
   31XTA    CO5 3407  26.147   1.805   6.871
   31XTA    CL7 3408  26.132   1.955   6.847
   31XTA    CL8 3409  26.064   2.024   6.970
   31XTA    CL9 3410  26.041   2.171   6.951
   31XTA   CL10 3411  25.934   2.216   7.048
   31XTA    CO6 3412  25.960   2.186   7.186
   31XTA    OA5 3413  26.083   2.246   7.230
   31XTA    CO7 3414  26.083   2.276   7.370
   31XTA    CT2 3415  26.216   2.241   7.434
   31XTA   CL11 3416  26.190   2.244   7.587
   31XTA   CL12 3417  26.102   2.139   7.646
   31XTA    HL1 3418  27.043   1.088   6.992
   31XTA    HL2 3419  27.061   0.950   7.113
   31XTA    HL3 3420  26.972   0.931   6.961
   31XTA    HL4 3421  26.086   0.998   6.381
   31XTA    HL5 3422  26.121   0.825   6.361
   31XTA    HL6 3423  25.855   0.919   6.492
   31XTA    HL7 3424  25.897   0.776   6.408
   31XTA    HL8 3425  25.812   1.043   6.305
   31XTA    HL9 3426  25.753   0.887   6.272
   31XTA   HL10 3427  26.029   0.962   6.172
   31XTA   HL11 3428  25.925   0.832   6.120
   31XTA   HL12 3429  25.845   1.118   6.092
   31XTA   HL13 3430  25.749   0.981   6.050
   31XTA   HL14 3431  26.019   1.072   5.934
   31XTA   HL15 3432  25.961   0.923   5.897
   31XTA   HL16 3433  26.011   1.125   5.713
   31XTA   HL17 3434  25.948   0.974   5.665
   31XTA   HL18 3435  25.651   1.227   5.640
   31XTA   HL19 3436  25.661   1.051   5.664
   31XTA   HL20 3437  25.649   1.024   5.404
   31XTA   HL21 3438  25.612   1.189   5.391
   31XTA   HL22 3439  25.507   1.102   5.477
   31XTA   HL23 3440  26.181   1.782   6.974
   31XTA   HL24 3441  26.052   1.763   6.862
   31XTA   HL25 3442  26.233   1.988   6.832
   31XTA   HL26 3443  26.074   1.973   6.750
   31XTA   HL27 3444  25.969   1.985   7.008
   31XTA   HL28 3445  26.133   2.020   7.058
   31XTA   HL29 3446  26.140   2.225   6.972
   31XTA   HL30 3447  26.011   2.189   6.847
   31XTA   HL31 3448  25.935   2.328   7.035
   31XTA   HL32 3449  25.833   2.194   7.008
   31XTA   HL33 3450  25.873   2.228   7.233
   31XTA   HL34 3451  25.965   2.078   7.190
   31XTA   HL35 3452  25.998   2.227   7.413
   31XTA   HL36 3453  26.063   2.384   7.397
   31XTA   HL37 3454  26.144   2.343   7.604
   31XTA   HL38 3455  26.274   2.253   7.660
   31XTA   HL39 3456  26.153   2.044   7.632
   31XTA   HL40 3457  26.005   2.130   7.606
   31XTA   HL41 3458  26.076   2.153   7.757
   31XTA    CO8 3459  25.905   1.076   5.451
   31XTA    CO9 3460  25.876   1.294   5.562
   31XTA    OA6 3461  25.824   1.358   5.677
   31XTA   HL42 3462  25.895   0.973   5.456
   31XTA   HL43 3463  25.848   1.105   5.364
   31XTA   HL44 3464  26.327   2.370   7.293
   31XTA   HL45 3465  26.292   2.455   7.441
   31XTA   CO10 3466  26.322   2.360   7.406
   31XTA   CO11 3467  26.273   2.110   7.371
   31XTA    OA7 3468  26.451   2.319   7.446
   31XTA   HL46 3469  26.303   2.137   7.269
   31XTA   HL47 3470  26.366   2.088   7.418
   31XTA   HL48 3471  25.827   1.331   5.476
   31XTA   HL49 3472  25.981   1.304   5.533
   32XTA     NT 3473  27.099   2.006   3.607
   32XTA    CN1 3474  27.072   1.966   3.731
   32XTA     C1 3475  27.006   1.840   3.752
   32XTA     C2 3476  26.982   1.795   3.885
   32XTA     C3 3477  27.011   1.881   3.994
   32XTA     C4 3478  27.078   2.002   3.978
   32XTA     C5 3479  27.113   2.040   3.845
   32XTA    CN2 3480  27.054   2.123   3.564
   32XTA     C6 3481  27.126   2.241   3.595
   32XTA     C7 3482  27.076   2.366   3.550
   32XTA     C8 3483  26.954   2.367   3.475
   32XTA     C9 3484  26.887   2.249   3.446
   32XTA    C10 3485  26.933   2.120   3.489
   32XTA    CN3 3486  27.217   1.963   3.551
   32XTA    C11 3487  27.223   1.914   3.424
   32XTA    C12 3488  27.344   1.874   3.367
   32XTA    C13 3489  27.462   1.867   3.448
   32XTA    C14 3490  27.458   1.916   3.582
   32XTA    C15 3491  27.334   1.960   3.631
   32XTA     H1 3492  26.976   1.787   3.664
   32XTA     H2 3493  26.928   1.702   3.891
   32XTA     H3 3494  27.097   2.077   4.056
   32XTA     H4 3495  27.152   2.138   3.834
   32XTA     H5 3496  27.211   2.233   3.659
   32XTA     H6 3497  27.120   2.465   3.562
   32XTA     H7 3498  26.796   2.251   3.393
   32XTA     H8 3499  26.877   2.029   3.470
   32XTA     H9 3500  27.141   1.904   3.355
   32XTA    H10 3501  27.345   1.837   3.262
   32XTA    H11 3502  27.544   1.913   3.655
   32XTA    H12 3503  27.329   1.989   3.738
   32XTA    OA1 3504  26.971   1.845   4.123
   32XTA    CO1 3505  26.963   1.709   4.160
   32XTA    OA2 3506  26.918   2.491   3.429
   32XTA    CO2 3507  26.783   2.528   3.442
   32XTA    CL1 3508  26.773   2.666   3.376
   32XTA    CL2 3509  26.630   2.707   3.344
   32XTA    CL3 3510  26.613   2.854   3.298
   32XTA    CL4 3511  26.722   2.956   3.331
   32XTA    CO3 3512  26.834   2.962   3.232
   32XTA    OA3 3513  26.913   3.074   3.251
   32XTA    CO4 3514  27.041   3.034   3.287
   32XTA    CT1 3515  27.131   3.163   3.327
   32XTA    CL5 3516  27.165   3.245   3.201
   32XTA    CL6 3517  27.044   3.298   3.128
   32XTA    OA4 3518  27.585   1.827   3.402
   32XTA    CO5 3519  27.603   1.707   3.337
   32XTA    CL7 3520  27.638   1.728   3.194
   32XTA    CL8 3521  27.676   1.590   3.127
   32XTA    CL9 3522  27.675   1.615   2.975
   32XTA   CL10 3523  27.538   1.624   2.912
   32XTA    CO6 3524  27.547   1.668   2.762
   32XTA    OA5 3525  27.589   1.804   2.747
   32XTA    CO7 3526  27.476   1.888   2.798
   32XTA    CT2 3527  27.475   2.038   2.750
   32XTA   CL11 3528  27.530   2.053   2.606
   32XTA   CL12 3529  27.567   2.198   2.568
   32XTA    HL1 3530  26.889   1.651   4.103
   32XTA    HL2 3531  27.067   1.675   4.150
   32XTA    HL3 3532  26.940   1.696   4.267
   32XTA    HL4 3533  26.719   2.452   3.386
   32XTA    HL5 3534  26.748   2.530   3.541
   32XTA    HL6 3535  26.819   2.654   3.281
   32XTA    HL7 3536  26.841   2.729   3.427
   32XTA    HL8 3537  26.573   2.696   3.438
   32XTA    HL9 3538  26.587   2.629   3.275
   32XTA   HL10 3539  26.599   2.857   3.190
   32XTA   HL11 3540  26.513   2.890   3.324
   32XTA   HL12 3541  26.751   2.941   3.431
   32XTA   HL13 3542  26.671   3.047   3.331
   32XTA   HL14 3543  26.897   2.869   3.227
   32XTA   HL15 3544  26.777   2.969   3.135
   32XTA   HL16 3545  27.035   2.965   3.381
   32XTA   HL17 3546  27.090   2.972   3.213
   32XTA   HL18 3547  27.225   3.195   3.130
   32XTA   HL19 3548  27.210   3.331   3.249
   32XTA   HL20 3549  26.989   3.218   3.073
   32XTA   HL21 3550  27.083   3.377   3.057
   32XTA   HL22 3551  26.964   3.349   3.183
   32XTA   HL23 3552  27.523   1.634   3.356
   32XTA   HL24 3553  27.697   1.661   3.384
   32XTA   HL25 3554  27.558   1.778   3.145
   32XTA   HL26 3555  27.725   1.785   3.189
   32XTA   HL27 3556  27.775   1.573   3.156
   32XTA   HL28 3557  27.608   1.505   3.136
   32XTA   HL29 3558  27.720   1.709   2.952
   32XTA   HL30 3559  27.736   1.544   2.923
   32XTA   HL31 3560  27.497   1.525   2.911
   32XTA   HL32 3561  27.483   1.696   2.974
   32XTA   HL33 3562  27.620   1.605   2.712
   32XTA   HL34 3563  27.446   1.657   2.727
   32XTA   HL35 3564  27.473   1.877   2.908
   32XTA   HL36 3565  27.377   1.839   2.774
   32XTA   HL37 3566  27.455   2.017   2.532
   32XTA   HL38 3567  27.625   2.002   2.605
   32XTA   HL39 3568  27.559   2.208   2.459
   32XTA   HL40 3569  27.667   2.224   2.607
   32XTA   HL41 3570  27.489   2.266   2.606
   32XTA    CO8 3571  27.265   3.127   3.397
   32XTA    CO9 3572  27.049   3.251   3.424
   32XTA    OA6 3573  27.327   3.024   3.328
   32XTA   HL42 3574  27.230   3.086   3.494
   32XTA   HL43 3575  27.326   3.215   3.414
   32XTA   HL44 3576  27.509   2.235   2.833
   32XTA   HL45 3577  27.513   2.122   2.953
   32XTA   CO10 3578  27.543   2.135   2.853
   32XTA   CO11 3579  27.326   2.079   2.744
   32XTA    OA7 3580  27.279   2.065   2.880
   32XTA   HL46 3581  27.306   2.177   2.699
   32XTA   HL47 3582  27.260   2.006   2.696
   32XTA   HL48 3583  26.949   3.254   3.385
   32XTA   HL49 3584  27.095   3.348   3.427
   33XTA     NT 3585  24.764   1.292   0.785
   33XTA    CN1 3586  24.898   1.282   0.799
   33XTA     C1 3587  24.965   1.249   0.916
   33XTA     C2 3588  25.107   1.252   0.926
   33XTA     C3 3589  25.177   1.290   0.810
   33XTA     C4 3590  25.110   1.304   0.691
   33XTA     C5 3591  24.972   1.294   0.683
   33XTA    CN2 3592  24.712   1.408   0.730
   33XTA     C6 3593  24.740   1.533   0.786
   33XTA     C7 3594  24.688   1.653   0.733
   33XTA     C8 3595  24.603   1.647   0.618
   33XTA     C9 3596  24.578   1.521   0.561
   33XTA    C10 3597  24.640   1.402   0.607
   33XTA    CN3 3598  24.695   1.179   0.800
   33XTA    C11 3599  24.694   1.076   0.699
   33XTA    C12 3600  24.606   0.967   0.719
   33XTA    C13 3601  24.526   0.958   0.835
   33XTA    C14 3602  24.532   1.059   0.935
   33XTA    C15 3603  24.616   1.166   0.914
   33XTA     H1 3604  24.910   1.238   1.014
   33XTA     H2 3605  25.166   1.224   1.012
   33XTA     H3 3606  25.165   1.331   0.591
   33XTA     H4 3607  24.917   1.324   0.595
   33XTA     H5 3608  24.803   1.537   0.877
   33XTA     H6 3609  24.720   1.752   0.771
   33XTA     H7 3610  24.505   1.516   0.476
   33XTA     H8 3611  24.623   1.310   0.557
   33XTA     H9 3612  24.750   1.086   0.605
   33XTA    H10 3613  24.586   0.893   0.647
   33XTA    H11 3614  24.459   1.057   1.015
   33XTA    H12 3615  24.606   1.250   0.977
   33XTA    OA1 3616  25.317   1.322   0.813
   33XTA    CO1 3617  25.393   1.287   0.923
   33XTA    OA2 3618  24.549   1.765   0.581
   33XTA    CO2 3619  24.475   1.762   0.460
   33XTA    CL1 3620  24.420   1.912   0.460
   33XTA    CL2 3621  24.334   1.939   0.339
   33XTA    CL3 3622  24.253   2.067   0.343
   33XTA    CL4 3623  24.340   2.189   0.321
   33XTA    CO3 3624  24.391   2.250   0.453
   33XTA    OA3 3625  24.285   2.312   0.528
   33XTA    CO4 3626  24.338   2.358   0.655
   33XTA    CT1 3627  24.220   2.394   0.746
   33XTA    CL5 3628  24.147   2.522   0.701
   33XTA    CL6 3629  24.245   2.644   0.702
   33XTA    OA4 3630  24.453   0.846   0.846
   33XTA    CO5 3631  24.313   0.868   0.865
   33XTA    CL7 3632  24.235   0.821   0.742
   33XTA    CL8 3633  24.080   0.813   0.762
   33XTA    CL9 3634  24.006   0.778   0.636
   33XTA   CL10 3635  24.048   0.644   0.575
   33XTA    CO6 3636  23.960   0.603   0.450
   33XTA    OA5 3637  24.042   0.519   0.375
   33XTA    CO7 3638  24.045   0.388   0.435
   33XTA    CT2 3639  24.158   0.304   0.373
   33XTA   CL11 3640  24.103   0.257   0.232
   33XTA   CL12 3641  24.180   0.155   0.153
   33XTA    HL1 3642  25.374   1.181   0.941
   33XTA    HL2 3643  25.491   1.304   0.881
   33XTA    HL3 3644  25.367   1.353   1.012
   33XTA    HL4 3645  24.539   1.731   0.375
   33XTA    HL5 3646  24.389   1.686   0.465
   33XTA    HL6 3647  24.511   1.970   0.444
   33XTA    HL7 3648  24.368   1.938   0.554
   33XTA    HL8 3649  24.267   1.850   0.325
   33XTA    HL9 3650  24.387   1.943   0.242
   33XTA   HL10 3651  24.175   2.057   0.269
   33XTA   HL11 3652  24.201   2.089   0.433
   33XTA   HL12 3653  24.284   2.277   0.277
   33XTA   HL13 3654  24.429   2.165   0.261
   33XTA   HL14 3655  24.460   2.178   0.500
   33XTA   HL15 3656  24.469   2.325   0.427
   33XTA   HL16 3657  24.395   2.272   0.695
   33XTA   HL17 3658  24.406   2.439   0.636
   33XTA   HL18 3659  24.067   2.530   0.777
   33XTA   HL19 3660  24.096   2.507   0.604
   33XTA   HL20 3661  24.335   2.636   0.638
   33XTA   HL21 3662  24.288   2.663   0.805
   33XTA   HL22 3663  24.194   2.730   0.664
   33XTA   HL23 3664  24.291   0.964   0.911
   33XTA   HL24 3665  24.286   0.805   0.946
   33XTA   HL25 3666  24.263   0.887   0.662
   33XTA   HL26 3667  24.280   0.721   0.720
   33XTA   HL27 3668  24.063   0.744   0.851
   33XTA   HL28 3669  24.039   0.904   0.806
   33XTA   HL29 3670  23.899   0.796   0.645
   33XTA   HL30 3671  24.028   0.855   0.566
   33XTA   HL31 3672  24.148   0.641   0.538
   33XTA   HL32 3673  24.033   0.567   0.654
   33XTA   HL33 3674  23.854   0.579   0.478
   33XTA   HL34 3675  23.945   0.697   0.391
   33XTA   HL35 3676  23.953   0.340   0.427
   33XTA   HL36 3677  24.054   0.395   0.539
   33XTA   HL37 3678  24.105   0.344   0.166
   33XTA   HL38 3679  24.001   0.229   0.239
   33XTA   HL39 3680  24.200   0.069   0.212
   33XTA   HL40 3681  24.274   0.198   0.134
   33XTA   HL41 3682  24.131   0.138   0.052
   33XTA    CO8 3683  24.238   2.379   0.896
   33XTA    CO9 3684  24.125   2.275   0.748
   33XTA    OA6 3685  24.129   2.280   0.889
   33XTA   HL42 3686  24.216   2.469   0.951
   33XTA   HL43 3687  24.330   2.320   0.925
   33XTA   HL44 3688  24.114   0.116   0.452
   33XTA   HL45 3689  24.277   0.131   0.421
   33XTA   CO10 3690  24.192   0.186   0.457
   33XTA   CO11 3691  24.285   0.387   0.354
   33XTA    OA7 3692  24.209   0.214   0.562
   33XTA   HL46 3693  24.313   0.474   0.462
   33XTA   HL47 3694  24.271   0.446   0.264
   33XTA   HL48 3695  24.169   2.182   0.707
   33XTA   HL49 3696  24.022   2.303   0.717
   34XTA     NT 3697  25.555   1.752   2.252
   34XTA    CN1 3698  25.486   1.680   2.350
   34XTA     C1 3699  25.412   1.748   2.452
   34XTA     C2 3700  25.335   1.666   2.542
   34XTA     C3 3701  25.331   1.526   2.528
   34XTA     C4 3702  25.415   1.467   2.431
   34XTA     C5 3703  25.496   1.539   2.342
   34XTA    CN2 3704  25.673   1.801   2.283
   34XTA     C6 3705  25.674   1.935   2.329
   34XTA     C7 3706  25.795   1.998   2.362
   34XTA     C8 3707  25.913   1.919   2.359
   34XTA     C9 3708  25.915   1.790   2.306
   34XTA    C10 3709  25.792   1.732   2.274
   34XTA    CN3 3710  25.498   1.753   2.129
   34XTA    C11 3711  25.387   1.834   2.100
   34XTA    C12 3712  25.322   1.829   1.970
   34XTA    C13 3713  25.374   1.745   1.874
   34XTA    C14 3714  25.482   1.658   1.907
   34XTA    C15 3715  25.541   1.664   2.029
   34XTA     H1 3716  25.411   1.860   2.451
   34XTA     H2 3717  25.274   1.715   2.624
   34XTA     H3 3718  25.436   1.359   2.426
   34XTA     H4 3719  25.555   1.497   2.265
   34XTA     H5 3720  25.572   1.989   2.330
   34XTA     H6 3721  25.794   2.089   2.413
   34XTA     H7 3722  26.007   1.731   2.310
   34XTA     H8 3723  25.786   1.630   2.234
   34XTA     H9 3724  25.342   1.895   2.176
   34XTA    H10 3725  25.236   1.883   1.941
   34XTA    H11 3726  25.516   1.577   1.838
   34XTA    H12 3727  25.633   1.609   2.054
   34XTA    OA1 3728  25.266   1.444   2.609
   34XTA    CO1 3729  25.127   1.473   2.643
   34XTA    OA2 3730  26.025   1.964   2.411
   34XTA    CO2 3731  26.052   1.925   2.537
   34XTA    CL1 3732  25.965   1.989   2.643
   34XTA    CL2 3733  25.951   1.906   2.774
   34XTA    CL3 3734  25.806   1.847   2.803
   34XTA    CL4 3735  25.734   1.765   2.697
   34XTA    CO3 3736  25.595   1.714   2.743
   34XTA    OA3 3737  25.594   1.664   2.877
   34XTA    CO4 3738  25.465   1.612   2.913
   34XTA    CT1 3739  25.456   1.546   3.047
   34XTA    CL5 3740  25.310   1.533   3.086
   34XTA    CL6 3741  25.224   1.661   3.112
   34XTA    OA4 3742  25.308   1.729   1.757
   34XTA    CO5 3743  25.209   1.623   1.748
   34XTA    CL7 3744  25.079   1.696   1.786
   34XTA    CL8 3745  24.959   1.638   1.697
   34XTA    CL9 3746  24.816   1.702   1.723
   34XTA   CL10 3747  24.780   1.817   1.626
   34XTA    CO6 3748  24.858   1.943   1.640
   34XTA    OA5 3749  24.985   1.914   1.579
   34XTA    CO7 3750  24.997   1.942   1.445
   34XTA    CT2 3751  25.138   1.943   1.399
   34XTA   CL11 3752  25.152   1.961   1.243
   34XTA   CL12 3753  25.090   2.095   1.189
   34XTA    HL1 3754  25.116   1.566   2.690
   34XTA    HL2 3755  25.047   1.464   2.569
   34XTA    HL3 3756  25.110   1.393   2.713
   34XTA    HL4 3757  26.048   1.817   2.534
   34XTA    HL5 3758  26.155   1.963   2.568
   34XTA    HL6 3759  25.860   2.017   2.614
   34XTA    HL7 3760  26.011   2.088   2.663
   34XTA    HL8 3761  25.971   1.976   2.854
   34XTA    HL9 3762  26.026   1.832   2.792
   34XTA   HL10 3763  25.815   1.783   2.893
   34XTA   HL11 3764  25.737   1.930   2.831
   34XTA   HL12 3765  25.775   1.672   2.662
   34XTA   HL13 3766  25.715   1.815   2.601
   34XTA   HL14 3767  25.531   1.807   2.739
   34XTA   HL15 3768  25.551   1.630   2.680
   34XTA   HL16 3769  25.400   1.700   2.906
   34XTA   HL17 3770  25.442   1.538   2.836
   34XTA   HL18 3771  25.308   1.479   3.174
   34XTA   HL19 3772  25.254   1.467   3.013
   34XTA   HL20 3773  25.248   1.722   3.199
   34XTA   HL21 3774  25.120   1.631   3.135
   34XTA   HL22 3775  25.220   1.730   3.028
   34XTA   HL23 3776  25.244   1.532   1.806
   34XTA   HL24 3777  25.210   1.602   1.639
   34XTA   HL25 3778  25.057   1.695   1.896
   34XTA   HL26 3779  25.097   1.797   1.760
   34XTA   HL27 3780  24.980   1.664   1.595
   34XTA   HL28 3781  24.958   1.536   1.712
   34XTA   HL29 3782  24.742   1.624   1.719
   34XTA   HL30 3783  24.802   1.747   1.818
   34XTA   HL31 3784  24.777   1.783   1.523
   34XTA   HL32 3785  24.675   1.848   1.641
   34XTA   HL33 3786  24.808   2.037   1.605
   34XTA   HL34 3787  24.864   1.954   1.745
   34XTA   HL35 3788  24.953   2.039   1.417
   34XTA   HL36 3789  24.945   1.871   1.385
   34XTA   HL37 3790  25.118   1.872   1.197
   34XTA   HL38 3791  25.257   1.969   1.217
   34XTA   HL39 3792  25.098   2.185   1.247
   34XTA   HL40 3793  24.983   2.085   1.182
   34XTA   HL41 3794  25.121   2.117   1.094
   34XTA    CO8 3795  25.527   1.634   3.149
   34XTA    CO9 3796  25.520   1.405   3.044
   34XTA    OA6 3797  25.504   1.586   3.279
   34XTA   HL42 3798  25.488   1.739   3.138
   34XTA   HL43 3799  25.634   1.627   3.132
   34XTA   HL44 3800  25.203   1.792   1.544
   34XTA   HL45 3801  25.311   1.796   1.417
   34XTA   CO10 3802  25.206   1.803   1.439
   34XTA   CO11 3803  25.219   2.052   1.472
   34XTA    OA7 3804  25.349   2.023   1.442
   34XTA   HL46 3805  25.194   2.155   1.444
   34XTA   HL47 3806  25.209   2.044   1.588
   34XTA   HL48 3807  25.524   1.368   3.143
   34XTA   HL49 3808  25.625   1.416   3.013
   35XTA     NT 3809  30.034   7.374   5.026
   35XTA    CN1 3810  30.144   7.379   4.949
   35XTA     C1 3811  30.268   7.364   5.012
   35XTA     C2 3812  30.386   7.360   4.937
   35XTA     C3 3813  30.389   7.365   4.798
   35XTA     C4 3814  30.263   7.376   4.731
   35XTA     C5 3815  30.142   7.388   4.808
   35XTA    CN2 3816  29.959   7.268   5.047
   35XTA     C6 3817  29.999   7.164   5.135
   35XTA     C7 3818  29.921   7.052   5.169
   35XTA     C8 3819  29.795   7.050   5.115
   35XTA     C9 3820  29.744   7.161   5.044
   35XTA    C10 3821  29.826   7.267   4.998
   35XTA    CN3 3822  29.987   7.491   5.067
   35XTA    C11 3823  29.974   7.513   5.209
   35XTA    C12 3824  29.884   7.615   5.258
   35XTA    C13 3825  29.828   7.708   5.168
   35XTA    C14 3826  29.854   7.691   5.029
   35XTA    C15 3827  29.928   7.584   4.982
   35XTA     H1 3828  30.271   7.361   5.121
   35XTA     H2 3829  30.485   7.366   4.985
   35XTA     H3 3830  30.247   7.382   4.622
   35XTA     H4 3831  30.051   7.393   4.749
   35XTA     H5 3832  30.098   7.173   5.178
   35XTA     H6 3833  29.967   6.980   5.233
   35XTA     H7 3834  29.640   7.160   5.013
   35XTA     H8 3835  29.784   7.344   4.936
   35XTA     H9 3836  30.012   7.442   5.283
   35XTA    H10 3837  29.859   7.623   5.364
   35XTA    H11 3838  29.786   7.741   4.961
   35XTA    H12 3839  29.922   7.579   4.877
   35XTA    OA1 3840  30.512   7.367   4.733
   35XTA    CO1 3841  30.500   7.414   4.598
   35XTA    OA2 3842  29.735   6.932   5.138
   35XTA    CO2 3843  29.624   6.905   5.055
   35XTA    CL1 3844  29.594   6.753   5.070
   35XTA    CL2 3845  29.473   6.690   4.992
   35XTA    CL3 3846  29.485   6.715   4.837
   35XTA    CL4 3847  29.367   6.670   4.756
   35XTA    CO3 3848  29.357   6.520   4.767
   35XTA    OA3 3849  29.273   6.470   4.663
   35XTA    CO4 3850  29.139   6.463   4.706
   35XTA    CT1 3851  29.051   6.392   4.605
   35XTA    CL5 3852  29.100   6.246   4.582
   35XTA    CL6 3853  29.126   6.158   4.709
   35XTA    OA4 3854  29.748   7.803   5.221
   35XTA    CO5 3855  29.666   7.890   5.142
   35XTA    CL7 3856  29.587   7.968   5.243
   35XTA    CL8 3857  29.505   8.087   5.192
   35XTA    CL9 3858  29.417   8.161   5.301
   35XTA   CL10 3859  29.488   8.212   5.419
   35XTA    CO6 3860  29.386   8.294   5.505
   35XTA    OA5 3861  29.421   8.304   5.642
   35XTA    CO7 3862  29.523   8.395   5.670
   35XTA    CT2 3863  29.530   8.418   5.818
   35XTA   CL11 3864  29.528   8.276   5.892
   35XTA   CL12 3865  29.577   8.268   6.031
   35XTA    HL1 3866  30.593   7.433   4.569
   35XTA    HL2 3867  30.463   7.343   4.530
   35XTA    HL3 3868  30.439   7.508   4.595
   35XTA    HL4 3869  29.541   6.963   5.094
   35XTA    HL5 3870  29.645   6.931   4.955
   35XTA    HL6 3871  29.585   6.741   5.178
   35XTA    HL7 3872  29.686   6.698   5.039
   35XTA    HL8 3873  29.387   6.742   5.020
   35XTA    HL9 3874  29.455   6.585   5.024
   35XTA   HL10 3875  29.507   6.823   4.815
   35XTA   HL11 3876  29.578   6.662   4.811
   35XTA   HL12 3877  29.363   6.715   4.655
   35XTA   HL13 3878  29.279   6.718   4.803
   35XTA   HL14 3879  29.451   6.471   4.756
   35XTA   HL15 3880  29.325   6.497   4.860
   35XTA   HL16 3881  29.129   6.399   4.793
   35XTA   HL17 3882  29.086   6.561   4.725
   35XTA   HL18 3883  29.198   6.257   4.540
   35XTA   HL19 3884  29.045   6.201   4.501
   35XTA   HL20 3885  29.107   6.049   4.684
   35XTA   HL21 3886  29.059   6.182   4.788
   35XTA   HL22 3887  29.230   6.162   4.746
   35XTA   HL23 3888  29.586   7.842   5.097
   35XTA   HL24 3889  29.716   7.946   5.063
   35XTA   HL25 3890  29.508   7.904   5.281
   35XTA   HL26 3891  29.644   8.001   5.330
   35XTA   HL27 3892  29.582   8.159   5.159
   35XTA   HL28 3893  29.445   8.059   5.107
   35XTA   HL29 3894  29.370   8.246   5.251
   35XTA   HL30 3895  29.337   8.086   5.330
   35XTA   HL31 3896  29.546   8.139   5.471
   35XTA   HL32 3897  29.568   8.286   5.385
   35XTA   HL33 3898  29.362   8.384   5.457
   35XTA   HL34 3899  29.291   8.241   5.506
   35XTA   HL35 3900  29.518   8.490   5.610
   35XTA   HL36 3901  29.614   8.344   5.630
   35XTA   HL37 3902  29.590   8.197   5.839
   35XTA   HL38 3903  29.436   8.224   5.883
   35XTA   HL39 3904  29.532   8.343   6.095
   35XTA   HL40 3905  29.690   8.274   6.055
   35XTA   HL41 3906  29.551   8.175   6.069
   35XTA    CO8 3907  29.054   6.473   4.468
   35XTA    CO9 3908  28.902   6.392   4.650
   35XTA    OA6 3909  29.007   6.395   4.358
   35XTA   HL42 3910  29.158   6.489   4.442
   35XTA   HL43 3911  28.996   6.567   4.475
   35XTA   HL44 3912  29.356   8.535   5.780
   35XTA   HL45 3913  29.339   8.416   5.906
   35XTA   CO10 3914  29.408   8.495   5.868
   35XTA   CO11 3915  29.651   8.497   5.839
   35XTA    OA7 3916  29.771   8.426   5.802
   35XTA   HL46 3917  29.640   8.598   5.808
   35XTA   HL47 3918  29.660   8.505   5.950
   35XTA   HL48 3919  28.888   6.424   4.756
   35XTA   HL49 3920  28.879   6.293   4.648
   36XTA     NT 3921  32.508   2.478   6.576
   36XTA    CN1 3922  32.523   2.377   6.492
   36XTA     C1 3923  32.454   2.255   6.509
   36XTA     C2 3924  32.477   2.151   6.418
   36XTA     C3 3925  32.575   2.171   6.311
   36XTA     C4 3926  32.645   2.294   6.297
   36XTA     C5 3927  32.608   2.398   6.385
   36XTA    CN2 3928  32.397   2.545   6.587
   36XTA     C6 3929  32.309   2.516   6.692
   36XTA     C7 3930  32.202   2.601   6.719
   36XTA     C8 3931  32.178   2.705   6.638
   36XTA     C9 3932  32.264   2.740   6.531
   36XTA    C10 3933  32.375   2.657   6.507
   36XTA    CN3 3934  32.611   2.523   6.653
   36XTA    C11 3935  32.652   2.656   6.635
   36XTA    C12 3936  32.744   2.713   6.724
   36XTA    C13 3937  32.816   2.621   6.809
   36XTA    C14 3938  32.784   2.481   6.818
   36XTA    C15 3939  32.678   2.437   6.742
   36XTA     H1 3940  32.399   2.241   6.596
   36XTA     H2 3941  32.430   2.057   6.429
   36XTA     H3 3942  32.713   2.308   6.215
   36XTA     H4 3943  32.664   2.492   6.386
   36XTA     H5 3944  32.322   2.429   6.761
   36XTA     H6 3945  32.132   2.585   6.805
   36XTA     H7 3946  32.242   2.821   6.467
   36XTA     H8 3947  32.451   2.684   6.430
   36XTA     H9 3948  32.602   2.711   6.555
   36XTA    H10 3949  32.766   2.820   6.722
   36XTA    H11 3950  32.842   2.401   6.871
   36XTA    H12 3951  32.650   2.334   6.741
   36XTA    OA1 3952  32.605   2.063   6.239
   36XTA    CO1 3953  32.707   2.087   6.147
   36XTA    OA2 3954  32.071   2.787   6.659
   36XTA    CO2 3955  32.031   2.813   6.791
   36XTA    CL1 3956  32.004   2.962   6.804
   36XTA    CL2 3957  32.108   3.041   6.719
   36XTA    CL3 3958  32.110   3.193   6.757
   36XTA    CL4 3959  32.193   3.220   6.881
   36XTA    CO3 3960  32.175   3.366   6.909
   36XTA    OA3 3961  32.229   3.399   7.036
   36XTA    CO4 3962  32.205   3.534   7.070
   36XTA    CT1 3963  32.261   3.557   7.217
   36XTA    CL5 3964  32.174   3.526   7.342
   36XTA    CL6 3965  32.090   3.397   7.331
   36XTA    OA4 3966  32.912   2.673   6.893
   36XTA    CO5 3967  33.014   2.589   6.953
   36XTA    CL7 3968  33.067   2.673   7.073
   36XTA    CL8 3969  33.190   2.595   7.132
   36XTA    CL9 3970  33.147   2.490   7.230
   36XTA   CL10 3971  33.161   2.345   7.174
   36XTA    CO6 3972  33.123   2.241   7.278
   36XTA    OA5 3973  33.063   2.127   7.227
   36XTA    CO7 3974  33.004   2.037   7.320
   36XTA    CT2 3975  32.942   1.912   7.253
   36XTA   CL11 3976  33.053   1.815   7.210
   36XTA   CL12 3977  33.151   1.870   7.101
   36XTA    HL1 3978  32.692   2.162   6.071
   36XTA    HL2 3979  32.804   2.100   6.195
   36XTA    HL3 3980  32.697   2.002   6.079
   36XTA    HL4 3981  31.939   2.752   6.828
   36XTA    HL5 3982  32.115   2.792   6.865
   36XTA    HL6 3983  32.017   2.981   6.908
   36XTA    HL7 3984  31.902   2.991   6.775
   36XTA    HL8 3985  32.079   3.046   6.615
   36XTA    HL9 3986  32.217   3.007   6.727
   36XTA   HL10 3987  32.144   3.249   6.673
   36XTA   HL11 3988  32.006   3.210   6.779
   36XTA   HL12 3989  32.296   3.189   6.870
   36XTA   HL13 3990  32.152   3.152   6.955
   36XTA   HL14 3991  32.217   3.425   6.825
   36XTA   HL15 3992  32.069   3.384   6.915
   36XTA   HL16 3993  32.247   3.605   7.013
   36XTA   HL17 3994  32.097   3.548   7.070
   36XTA   HL18 3995  32.098   3.603   7.338
   36XTA   HL19 3996  32.230   3.543   7.435
   36XTA   HL20 3997  32.157   3.311   7.311
   36XTA   HL21 3998  32.019   3.404   7.249
   36XTA   HL22 3999  32.033   3.378   7.418
   36XTA   HL23 4000  33.092   2.577   6.877
   36XTA   HL24 4001  32.975   2.489   6.989
   36XTA   HL25 4002  33.101   2.769   7.032
   36XTA   HL26 4003  32.991   2.695   7.153
   36XTA   HL27 4004  33.253   2.534   7.062
   36XTA   HL28 4005  33.257   2.668   7.184
   36XTA   HL29 4006  33.204   2.492   7.319
   36XTA   HL30 4007  33.045   2.506   7.270
   36XTA   HL31 4008  33.100   2.328   7.087
   36XTA   HL32 4009  33.264   2.325   7.142
   36XTA   HL33 4010  33.212   2.215   7.335
   36XTA   HL34 4011  33.054   2.293   7.351
   36XTA   HL35 4012  32.941   2.084   7.393
   36XTA   HL36 4013  33.075   1.998   7.387
   36XTA   HL37 4014  33.007   1.720   7.184
   36XTA   HL38 4015  33.113   1.797   7.298
   36XTA   HL39 4016  33.218   1.949   7.148
   36XTA   HL40 4017  33.114   1.902   7.005
   36XTA   HL41 4018  33.229   1.794   7.086
   36XTA    CO8 4019  32.320   3.693   7.235
   36XTA    CO9 4020  32.394   3.508   7.221
   36XTA    OA6 4021  32.419   3.653   7.255
   36XTA   HL42 4022  32.294   3.736   7.332
   36XTA   HL43 4023  32.299   3.749   7.146
   36XTA   HL44 4024  32.769   2.006   7.162
   36XTA   HL45 4025  32.916   2.022   7.073
   36XTA   CO10 4026  32.857   1.950   7.133
   36XTA   CO11 4027  32.847   1.853   7.363
   36XTA    OA7 4028  32.913   1.817   7.482
   36XTA   HL46 4029  32.760   1.914   7.384
   36XTA   HL47 4030  32.816   1.762   7.318
   36XTA   HL48 4031  32.443   3.467   7.098
   36XTA   HL49 4032  32.407   3.436   7.305
   37XTA     NT 4033  24.840   0.064   4.651
   37XTA    CN1 4034  24.850   0.145   4.760
   37XTA     C1 4035  24.737   0.190   4.835
   37XTA     C2 4036  24.753   0.274   4.944
   37XTA     C3 4037  24.878   0.325   4.976
   37XTA     C4 4038  24.993   0.285   4.907
   37XTA     C5 4039  24.978   0.195   4.797
   37XTA    CN2 4040  24.808  -0.066   4.667
   37XTA     C6 4041  24.871  -0.136   4.770
   37XTA     C7 4042  24.832  -0.270   4.800
   37XTA     C8 4043  24.733  -0.335   4.725
   37XTA     C9 4044  24.675  -0.264   4.617
   37XTA    C10 4045  24.713  -0.131   4.590
   37XTA    CN3 4046  24.892   0.103   4.534
   37XTA    C11 4047  25.004   0.035   4.479
   37XTA    C12 4048  25.060   0.073   4.353
   37XTA    C13 4049  25.011   0.188   4.294
   37XTA    C14 4050  24.914   0.268   4.356
   37XTA    C15 4051  24.849   0.223   4.472
   37XTA     H1 4052  24.642   0.151   4.803
   37XTA     H2 4053  24.664   0.302   4.998
   37XTA     H3 4054  25.092   0.318   4.943
   37XTA     H4 4055  25.060   0.154   4.739
   37XTA     H5 4056  24.948  -0.080   4.820
   37XTA     H6 4057  24.865  -0.326   4.894
   37XTA     H7 4058  24.607  -0.309   4.543
   37XTA     H8 4059  24.668  -0.083   4.510
   37XTA     H9 4060  25.040  -0.047   4.541
   37XTA    H10 4061  25.128   0.008   4.299
   37XTA    H11 4062  24.874   0.355   4.310
   37XTA    H12 4063  24.769   0.287   4.508
   37XTA    OA1 4064  24.888   0.399   5.093
   37XTA    CO1 4065  24.971   0.511   5.083
   37XTA    OA2 4066  24.700  -0.469   4.762
   37XTA    CO2 4067  24.611  -0.545   4.682
   37XTA    CL1 4068  24.689  -0.593   4.553
   37XTA    CL2 4069  24.607  -0.692   4.471
   37XTA    CL3 4070  24.492  -0.642   4.380
   37XTA    CL4 4071  24.413  -0.765   4.326
   37XTA    CO3 4072  24.261  -0.754   4.331
   37XTA    OA3 4073  24.206  -0.814   4.447
   37XTA    CO4 4074  24.224  -0.745   4.566
   37XTA    CT1 4075  24.144  -0.814   4.682
   37XTA    CL5 4076  23.992  -0.818   4.659
   37XTA    CL6 4077  23.939  -0.931   4.567
   37XTA    OA4 4078  25.076   0.223   4.172
   37XTA    CO5 4079  25.029   0.342   4.096
   37XTA    CL7 4080  25.132   0.368   3.977
   37XTA    CL8 4081  25.075   0.449   3.867
   37XTA    CL9 4082  24.949   0.402   3.796
   37XTA   CL10 4083  24.956   0.255   3.772
   37XTA    CO6 4084  25.082   0.209   3.697
   37XTA    OA5 4085  25.105   0.289   3.585
   37XTA    CO7 4086  25.233   0.267   3.529
   37XTA    CT2 4087  25.236   0.340   3.397
   37XTA   CL11 4088  25.220   0.488   3.441
   37XTA   CL12 4089  25.317   0.542   3.549
   37XTA    HL1 4090  25.073   0.486   5.095
   37XTA    HL2 4091  24.957   0.555   4.981
   37XTA    HL3 4092  24.932   0.592   5.151
   37XTA    HL4 4093  24.588  -0.624   4.751
   37XTA    HL5 4094  24.517  -0.503   4.658
   37XTA    HL6 4095  24.782  -0.649   4.584
   37XTA    HL7 4096  24.726  -0.518   4.485
   37XTA    HL8 4097  24.567  -0.766   4.540
   37XTA    HL9 4098  24.672  -0.738   4.400
   37XTA   HL10 4099  24.427  -0.556   4.416
   37XTA   HL11 4100  24.538  -0.588   4.295
   37XTA   HL12 4101  24.439  -0.853   4.378
   37XTA   HL13 4102  24.451  -0.776   4.225
   37XTA   HL14 4103  24.233  -0.651   4.320
   37XTA   HL15 4104  24.232  -0.809   4.244
   37XTA   HL16 4105  24.332  -0.754   4.594
   37XTA   HL17 4106  24.204  -0.633   4.561
   37XTA   HL18 4107  23.963  -0.723   4.616
   37XTA   HL19 4108  23.932  -0.839   4.745
   37XTA   HL20 4109  23.833  -0.917   4.543
   37XTA   HL21 4110  23.935  -1.024   4.621
   37XTA   HL22 4111  24.010  -0.951   4.481
   37XTA   HL23 4112  25.025   0.425   4.162
   37XTA   HL24 4113  24.927   0.328   4.058
   37XTA   HL25 4114  25.218   0.419   4.013
   37XTA   HL26 4115  25.173   0.279   3.935
   37XTA   HL27 4116  25.054   0.546   3.905
   37XTA   HL28 4117  25.158   0.472   3.791
   37XTA   HL29 4118  24.859   0.431   3.854
   37XTA   HL30 4119  24.946   0.450   3.695
   37XTA   HL31 4120  24.956   0.201   3.866
   37XTA   HL32 4121  24.866   0.219   3.726
   37XTA   HL33 4122  25.170   0.225   3.754
   37XTA   HL34 4123  25.077   0.109   3.675
   37XTA   HL35 4124  25.233   0.164   3.509
   37XTA   HL36 4125  25.320   0.286   3.597
   37XTA   HL37 4126  25.124   0.492   3.473
   37XTA   HL38 4127  25.221   0.551   3.354
   37XTA   HL39 4128  25.274   0.520   3.650
   37XTA   HL40 4129  25.349   0.643   3.544
   37XTA   HL41 4130  25.414   0.490   3.544
   37XTA    CO8 4131  24.164  -0.732   4.816
   37XTA    CO9 4132  24.214  -0.943   4.702
   37XTA    OA6 4133  24.184  -1.001   4.831
   37XTA   HL42 4134  24.112  -0.774   4.904
   37XTA   HL43 4135  24.273  -0.756   4.832
   37XTA   HL44 4136  25.145   0.339   3.203
   37XTA   HL45 4137  25.030   0.311   3.353
   37XTA   CO10 4138  25.124   0.293   3.304
   37XTA   CO11 4139  25.372   0.297   3.338
   37XTA    OA7 4140  25.385   0.154   3.325
   37XTA   HL46 4141  25.377   0.340   3.237
   37XTA   HL47 4142  25.447   0.349   3.400
   37XTA   HL48 4143  24.324  -0.932   4.705
   37XTA   HL49 4144  24.197  -1.007   4.620
   38XTA     NT 4145  26.920   3.116   2.724
   38XTA    CN1 4146  26.893   3.248   2.706
   38XTA     C1 4147  26.857   3.343   2.807
   38XTA     C2 4148  26.839   3.478   2.774
   38XTA     C3 4149  26.856   3.530   2.642
   38XTA     C4 4150  26.889   3.437   2.542
   38XTA     C5 4151  26.909   3.301   2.570
   38XTA    CN2 4152  27.043   3.084   2.689
   38XTA     C6 4153  27.071   3.024   2.565
   38XTA     C7 4154  27.198   2.992   2.533
   38XTA     C8 4155  27.306   3.024   2.618
   38XTA     C9 4156  27.276   3.079   2.742
   38XTA    C10 4157  27.142   3.114   2.780
   38XTA    CN3 4158  26.828   3.020   2.735
   38XTA    C11 4159  26.815   2.947   2.855
   38XTA    C12 4160  26.719   2.841   2.870
   38XTA    C13 4161  26.632   2.820   2.765
   38XTA    C14 4162  26.633   2.901   2.647
   38XTA    C15 4163  26.736   2.993   2.629
   38XTA     H1 4164  26.861   3.314   2.912
   38XTA     H2 4165  26.847   3.542   2.867
   38XTA     H3 4166  26.902   3.473   2.445
   38XTA     H4 4167  26.920   3.238   2.483
   38XTA     H5 4168  26.993   2.993   2.495
   38XTA     H6 4169  27.215   2.943   2.436
   38XTA     H7 4170  27.355   3.105   2.803
   38XTA     H8 4171  27.136   3.156   2.878
   38XTA     H9 4172  26.887   2.971   2.932
   38XTA    H10 4173  26.710   2.781   2.953
   38XTA    H11 4174  26.557   2.886   2.571
   38XTA    H12 4175  26.746   3.046   2.534
   38XTA    OA1 4176  26.858   3.664   2.622
   38XTA    CO1 4177  26.811   3.712   2.499
   38XTA    OA2 4178  27.432   2.984   2.574
   38XTA    CO2 4179  27.545   3.067   2.575
   38XTA    CL1 4180  27.582   3.092   2.426
   38XTA    CL2 4181  27.559   2.977   2.330
   38XTA    CL3 4182  27.632   3.001   2.194
   38XTA    CL4 4183  27.630   2.884   2.106
   38XTA    CO3 4184  27.654   2.917   1.961
   38XTA    OA3 4185  27.532   2.909   1.887
   38XTA    CO4 4186  27.457   3.030   1.898
   38XTA    CT1 4187  27.314   3.029   1.836
   38XTA    CL5 4188  27.239   2.901   1.873
   38XTA    CL6 4189  27.271   2.828   2.007
   38XTA    OA4 4190  26.539   2.721   2.778
   38XTA    CO5 4191  26.586   2.597   2.832
   38XTA    CL7 4192  26.539   2.563   2.979
   38XTA    CL8 4193  26.597   2.435   3.032
   38XTA    CL9 4194  26.746   2.423   3.081
   38XTA   CL10 4195  26.858   2.484   2.995
   38XTA    CO6 4196  26.998   2.494   3.057
   38XTA    OA5 4197  27.083   2.384   3.029
   38XTA    CO7 4198  27.036   2.257   3.070
   38XTA    CT2 4199  27.133   2.143   3.050
   38XTA   CL11 4200  27.264   2.156   3.134
   38XTA   CL12 4201  27.338   2.294   3.122
   38XTA    HL1 4202  26.809   3.818   2.504
   38XTA    HL2 4203  26.877   3.677   2.426
   38XTA    HL3 4204  26.703   3.696   2.476
   38XTA    HL4 4205  27.532   3.160   2.616
   38XTA    HL5 4206  27.628   3.022   2.630
   38XTA    HL6 4207  27.690   3.113   2.423
   38XTA    HL7 4208  27.535   3.181   2.401
   38XTA    HL8 4209  27.451   2.952   2.316
   38XTA    HL9 4210  27.606   2.884   2.370
   38XTA   HL10 4211  27.579   3.079   2.148
   38XTA   HL11 4212  27.735   3.042   2.203
   38XTA   HL12 4213  27.530   2.852   2.115
   38XTA   HL13 4214  27.698   2.811   2.136
   38XTA   HL14 4215  27.698   3.019   1.965
   38XTA   HL15 4216  27.729   2.854   1.924
   38XTA   HL16 4217  27.447   3.052   2.002
   38XTA   HL17 4218  27.516   3.117   1.859
   38XTA   HL18 4219  27.262   2.827   1.796
   38XTA   HL19 4220  27.136   2.921   1.871
   38XTA   HL20 4221  27.291   2.892   2.092
   38XTA   HL21 4222  27.367   2.778   1.994
   38XTA   HL22 4223  27.200   2.754   2.041
   38XTA   HL23 4224  26.691   2.584   2.836
   38XTA   HL24 4225  26.547   2.523   2.761
   38XTA   HL25 4226  26.553   2.648   3.041
   38XTA   HL26 4227  26.429   2.546   2.974
   38XTA   HL27 4228  26.542   2.413   3.120
   38XTA   HL28 4229  26.580   2.360   2.952
   38XTA   HL29 4230  26.748   2.485   3.169
   38XTA   HL30 4231  26.767   2.317   3.102
   38XTA   HL31 4232  26.860   2.445   2.896
   38XTA   HL32 4233  26.841   2.589   2.980
   38XTA   HL33 4234  27.049   2.578   3.010
   38XTA   HL34 4235  27.004   2.508   3.165
   38XTA   HL35 4236  26.949   2.215   3.014
   38XTA   HL36 4237  27.008   2.259   3.177
   38XTA   HL37 4238  27.332   2.070   3.131
   38XTA   HL38 4239  27.234   2.150   3.242
   38XTA   HL39 4240  27.437   2.284   3.178
   38XTA   HL40 4241  27.282   2.374   3.169
   38XTA   HL41 4242  27.356   2.322   3.014
   38XTA    CO8 4243  27.328   3.035   1.683
   38XTA    CO9 4244  27.235   3.153   1.882
   38XTA    OA6 4245  27.191   3.014   1.628
   38XTA   HL42 4246  27.397   2.954   1.646
   38XTA   HL43 4247  27.356   3.133   1.646
   38XTA   HL44 4248  27.069   2.105   2.848
   38XTA   HL45 4249  27.183   2.237   2.860
   38XTA   CO10 4250  27.158   2.139   2.901
   38XTA   CO11 4251  27.065   2.008   3.088
   38XTA    OA7 4252  26.956   1.977   3.003
   38XTA   HL46 4253  27.138   1.920   3.086
   38XTA   HL47 4254  27.020   2.013   3.190
   38XTA   HL48 4255  27.293   3.245   1.851
   38XTA   HL49 4256  27.140   3.162   1.823
   39XTA     NT 4257  28.999   3.329   6.987
   39XTA    CN1 4258  28.893   3.256   7.020
   39XTA     C1 4259  28.911   3.120   7.043
   39XTA     C2 4260  28.803   3.032   7.076
   39XTA     C3 4261  28.675   3.083   7.087
   39XTA     C4 4262  28.655   3.217   7.045
   39XTA     C5 4263  28.761   3.304   7.021
   39XTA    CN2 4264  29.015   3.370   6.858
   39XTA     C6 4265  28.986   3.279   6.749
   39XTA     C7 4266  28.986   3.330   6.625
   39XTA     C8 4267  29.022   3.463   6.598
   39XTA     C9 4268  29.078   3.543   6.702
   39XTA    C10 4269  29.065   3.497   6.834
   39XTA    CN3 4270  29.082   3.382   7.081
   39XTA    C11 4271  29.023   3.459   7.187
   39XTA    C12 4272  29.101   3.518   7.284
   39XTA    C13 4273  29.244   3.492   7.287
   39XTA    C14 4274  29.300   3.427   7.180
   39XTA    C15 4275  29.223   3.383   7.072
   39XTA     H1 4276  29.018   3.070   7.041
   39XTA     H2 4277  28.832   2.932   7.106
   39XTA     H3 4278  28.555   3.257   7.049
   39XTA     H4 4279  28.729   3.406   7.014
   39XTA     H5 4280  28.959   3.178   6.779
   39XTA     H6 4281  28.953   3.263   6.550
   39XTA     H7 4282  29.110   3.642   6.680
   39XTA     H8 4283  29.076   3.561   6.920
   39XTA     H9 4284  28.920   3.482   7.182
   39XTA    H10 4285  29.046   3.570   7.359
   39XTA    H11 4286  29.412   3.415   7.176
   39XTA    H12 4287  29.272   3.328   6.996
   39XTA    OA1 4288  28.571   3.017   7.133
   39XTA    CO1 4289  28.594   2.874   7.145
   39XTA    OA2 4290  29.014   3.513   6.467
   39XTA    CO2 4291  29.039   3.645   6.451
   39XTA    CL1 4292  29.030   3.662   6.301
   39XTA    CL2 4293  28.932   3.578   6.218
   39XTA    CL3 4294  28.791   3.597   6.273
   39XTA    CL4 4295  28.729   3.733   6.233
   39XTA    CO3 4296  28.635   3.793   6.338
   39XTA    OA3 4297  28.712   3.834   6.453
   39XTA    CO4 4298  28.798   3.946   6.438
   39XTA    CT1 4299  28.833   4.009   6.579
   39XTA    CL5 4300  28.910   3.918   6.670
   39XTA    CL6 4301  28.844   3.787   6.735
   39XTA    OA4 4302  29.329   3.554   7.373
   39XTA    CO5 4303  29.296   3.555   7.516
   39XTA    CL7 4304  29.311   3.424   7.586
   39XTA    CL8 4305  29.458   3.396   7.605
   39XTA    CL9 4306  29.549   3.378   7.483
   39XTA   CL10 4307  29.689   3.330   7.522
   39XTA    CO6 4308  29.786   3.327   7.402
   39XTA    OA5 4309  29.741   3.235   7.304
   39XTA    CO7 4310  29.733   3.305   7.186
   39XTA    CT2 4311  29.711   3.207   7.070
   39XTA   CL11 4312  29.827   3.119   7.078
   39XTA   CL12 4313  29.833   3.001   6.981
   39XTA    HL1 4314  28.498   2.825   7.166
   39XTA    HL2 4315  28.632   2.814   7.067
   39XTA    HL3 4316  28.653   2.841   7.229
   39XTA    HL4 4317  28.963   3.702   6.497
   39XTA    HL5 4318  29.132   3.683   6.492
   39XTA    HL6 4319  29.127   3.621   6.274
   39XTA    HL7 4320  29.010   3.762   6.271
   39XTA    HL8 4321  28.961   3.470   6.230
   39XTA    HL9 4322  28.944   3.621   6.119
   39XTA   HL10 4323  28.717   3.517   6.249
   39XTA   HL11 4324  28.802   3.597   6.381
   39XTA   HL12 4325  28.669   3.717   6.144
   39XTA   HL13 4326  28.798   3.812   6.210
   39XTA   HL14 4327  28.578   3.872   6.297
   39XTA   HL15 4328  28.566   3.716   6.378
   39XTA   HL16 4329  28.886   3.931   6.381
   39XTA   HL17 4330  28.744   4.024   6.379
   39XTA   HL18 4331  28.945   3.966   6.753
   39XTA   HL19 4332  29.005   3.888   6.621
   39XTA   HL20 4333  28.921   3.738   6.796
   39XTA   HL21 4334  28.792   3.730   6.655
   39XTA   HL22 4335  28.767   3.815   6.819
   39XTA   HL23 4336  29.192   3.590   7.521
   39XTA   HL24 4337  29.360   3.628   7.576
   39XTA   HL25 4338  29.270   3.426   7.683
   39XTA   HL26 4339  29.260   3.349   7.534
   39XTA   HL27 4340  29.498   3.472   7.669
   39XTA   HL28 4341  29.466   3.308   7.667
   39XTA   HL29 4342  29.502   3.320   7.411
   39XTA   HL30 4343  29.569   3.482   7.445
   39XTA   HL31 4344  29.730   3.391   7.598
   39XTA   HL32 4345  29.674   3.224   7.559
   39XTA   HL33 4346  29.808   3.425   7.363
   39XTA   HL34 4347  29.882   3.297   7.447
   39XTA   HL35 4348  29.833   3.345   7.174
   39XTA   HL36 4349  29.663   3.390   7.193
   39XTA   HL37 4350  29.827   3.059   7.165
   39XTA   HL38 4351  29.922   3.174   7.079
   39XTA   HL39 4352  29.742   2.937   6.989
   39XTA   HL40 4353  29.917   2.940   6.999
   39XTA   HL41 4354  29.832   3.040   6.886
   39XTA    CO8 4355  28.707   4.064   6.651
   39XTA    CO9 4356  28.931   4.132   6.543
   39XTA    OA6 4357  28.679   4.160   6.612
   39XTA   HL42 4358  28.741   4.072   6.757
   39XTA   HL43 4359  28.627   3.988   6.641
   39XTA   HL44 4360  29.599   3.360   6.976
   39XTA   HL45 4361  29.775   3.377   6.964
   39XTA   CO10 4362  29.694   3.304   6.952
   39XTA   CO11 4363  29.568   3.138   7.084
   39XTA    OA7 4364  29.695   3.256   6.850
   39XTA   HL46 4365  29.523   3.082   6.966
   39XTA   HL47 4366  29.492   3.212   7.111
   39XTA   HL48 4367  28.864   4.237   6.473
   39XTA   HL49 4368  29.014   4.094   6.482
   40XTA     NT 4369  23.709   4.522   7.754
   40XTA    CN1 4370  23.743   4.597   7.647
   40XTA     C1 4371  23.825   4.711   7.669
   40XTA     C2 4372  23.861   4.795   7.564
   40XTA     C3 4373  23.828   4.763   7.432
   40XTA     C4 4374  23.748   4.649   7.409
   40XTA     C5 4375  23.698   4.564   7.515
   40XTA    CN2 4376  23.764   4.401   7.761
   40XTA     C6 4377  23.693   4.292   7.708
   40XTA     C7 4378  23.740   4.162   7.731
   40XTA     C8 4379  23.863   4.145   7.790
   40XTA     C9 4380  23.942   4.255   7.839
   40XTA    C10 4381  23.886   4.384   7.826
   40XTA    CN3 4382  23.607   4.564   7.833
   40XTA    C11 4383  23.505   4.650   7.783
   40XTA    C12 4384  23.410   4.708   7.870
   40XTA    C13 4385  23.405   4.665   8.008
   40XTA    C14 4386  23.510   4.587   8.060
   40XTA    C15 4387  23.605   4.531   7.973
   40XTA     H1 4388  23.852   4.726   7.772
   40XTA     H2 4389  23.924   4.881   7.586
   40XTA     H3 4390  23.728   4.618   7.304
   40XTA     H4 4391  23.640   4.480   7.484
   40XTA     H5 4392  23.601   4.318   7.658
   40XTA     H6 4393  23.671   4.082   7.719
   40XTA     H7 4394  24.039   4.238   7.887
   40XTA     H8 4395  23.934   4.471   7.863
   40XTA     H9 4396  23.503   4.666   7.676
   40XTA    H10 4397  23.333   4.764   7.824
   40XTA    H11 4398  23.507   4.566   8.163
   40XTA    H12 4399  23.673   4.458   8.008
   40XTA    OA1 4400  23.872   4.823   7.320
   40XTA    CO1 4401  23.922   4.949   7.323
   40XTA    OA2 4402  23.918   4.021   7.815
   40XTA    CO2 4403  23.883   3.918   7.723
   40XTA    CL1 4404  24.005   3.823   7.733
   40XTA    CL2 4405  23.988   3.695   7.659
   40XTA    CL3 4406  24.108   3.607   7.673
   40XTA    CL4 4407  24.088   3.467   7.608
   40XTA    CO3 4408  23.972   3.381   7.666
   40XTA    OA3 4409  23.941   3.260   7.599
   40XTA    CO4 4410  24.008   3.135   7.630
   40XTA    CT1 4411  23.995   3.030   7.524
   40XTA    CL5 4412  23.844   2.985   7.496
   40XTA    CL6 4413  23.812   2.918   7.359
   40XTA    OA4 4414  23.298   4.718   8.080
   40XTA    CO5 4415  23.272   4.657   8.202
   40XTA    CL7 4416  23.220   4.508   8.194
   40XTA    CL8 4417  23.114   4.473   8.296
   40XTA    CL9 4418  23.062   4.332   8.281
   40XTA   CL10 4419  22.961   4.292   8.386
   40XTA    CO6 4420  22.849   4.389   8.420
   40XTA    OA5 4421  22.743   4.319   8.486
   40XTA    CO7 4422  22.764   4.279   8.618
   40XTA    CT2 4423  22.658   4.174   8.636
   40XTA   CL11 4424  22.516   4.241   8.627
   40XTA   CL12 4425  22.474   4.310   8.756
   40XTA    HL1 4426  24.020   4.948   7.366
   40XTA    HL2 4427  23.926   4.998   7.217
   40XTA    HL3 4428  23.857   5.006   7.378
   40XTA    HL4 4429  23.792   3.885   7.753
   40XTA    HL5 4430  23.873   3.963   7.630
   40XTA    HL6 4431  24.018   3.794   7.840
   40XTA    HL7 4432  24.099   3.865   7.705
   40XTA    HL8 4433  23.977   3.708   7.549
   40XTA    HL9 4434  23.892   3.643   7.692
   40XTA   HL10 4435  24.196   3.661   7.638
   40XTA   HL11 4436  24.124   3.605   7.781
   40XTA   HL12 4437  24.173   3.406   7.628
   40XTA   HL13 4438  24.089   3.474   7.502
   40XTA   HL14 4439  23.992   3.357   7.767
   40XTA   HL15 4440  23.880   3.435   7.661
   40XTA   HL16 4441  24.114   3.152   7.647
   40XTA   HL17 4442  23.957   3.109   7.727
   40XTA   HL18 4443  23.768   3.059   7.498
   40XTA   HL19 4444  23.808   2.920   7.579
   40XTA   HL20 4445  23.846   2.977   7.269
   40XTA   HL21 4446  23.700   2.901   7.347
   40XTA   HL22 4447  23.869   2.825   7.351
   40XTA   HL23 4448  23.192   4.709   8.248
   40XTA   HL24 4449  23.352   4.674   8.278
   40XTA   HL25 4450  23.173   4.489   8.097
   40XTA   HL26 4451  23.300   4.439   8.195
   40XTA   HL27 4452  23.164   4.473   8.391
   40XTA   HL28 4453  23.041   4.549   8.304
   40XTA   HL29 4454  23.011   4.319   8.186
   40XTA   HL30 4455  23.142   4.264   8.289
   40XTA   HL31 4456  22.915   4.195   8.359
   40XTA   HL32 4457  23.020   4.276   8.477
   40XTA   HL33 4458  22.881   4.462   8.487
   40XTA   HL34 4459  22.809   4.424   8.320
   40XTA   HL35 4460  22.762   4.358   8.695
   40XTA   HL36 4461  22.860   4.230   8.632
   40XTA   HL37 4462  22.447   4.166   8.590
   40XTA   HL38 4463  22.517   4.322   8.555
   40XTA   HL39 4464  22.425   4.236   8.816
   40XTA   HL40 4465  22.402   4.393   8.744
   40XTA   HL41 4466  22.551   4.368   8.811
   40XTA    CO8 4467  24.078   2.916   7.575
   40XTA    CO9 4468  24.069   3.065   7.393
   40XTA    OA6 4469  24.074   2.802   7.489
   40XTA   HL42 4470  24.044   2.902   7.683
   40XTA   HL43 4471  24.184   2.946   7.585
   40XTA   HL44 4472  22.761   4.014   8.752
   40XTA   HL45 4473  22.699   4.142   8.854
   40XTA   CO10 4474  22.680   4.078   8.766
   40XTA   CO11 4475  22.659   4.064   8.526
   40XTA    OA7 4476  22.557   4.006   8.794
   40XTA   HL46 4477  22.619   4.101   8.430
   40XTA   HL47 4478  22.582   3.986   8.551
   40XTA   HL48 4479  24.003   3.144   7.349
   40XTA   HL49 4480  24.069   2.979   7.321
   41XTA     NT 4481  26.305   3.085  -0.280
   41XTA    CN1 4482  26.199   3.043  -0.350
   41XTA     C1 4483  26.086   3.011  -0.274
   41XTA     C2 4484  25.968   2.972  -0.333
   41XTA     C3 4485  25.957   2.959  -0.475
   41XTA     C4 4486  26.071   2.990  -0.554
   41XTA     C5 4487  26.194   3.033  -0.491
   41XTA    CN2 4488  26.302   3.167  -0.177
   41XTA     C6 4489  26.378   3.135  -0.063
   41XTA     C7 4490  26.384   3.226   0.047
   41XTA     C8 4491  26.304   3.336   0.046
   41XTA     C9 4492  26.232   3.370  -0.065
   41XTA    C10 4493  26.235   3.292  -0.185
   41XTA    CN3 4494  26.426   3.067  -0.334
   41XTA    C11 4495  26.493   2.944  -0.319
   41XTA    C12 4496  26.624   2.928  -0.375
   41XTA    C13 4497  26.685   3.033  -0.440
   41XTA    C14 4498  26.610   3.150  -0.465
   41XTA    C15 4499  26.486   3.166  -0.409
   41XTA     H1 4500  26.097   3.005  -0.163
   41XTA     H2 4501  25.884   2.958  -0.264
   41XTA     H3 4502  26.071   2.982  -0.666
   41XTA     H4 4503  26.285   3.056  -0.545
   41XTA     H5 4504  26.433   3.044  -0.057
   41XTA     H6 4505  26.447   3.206   0.134
   41XTA     H7 4506  26.166   3.455  -0.073
   41XTA     H8 4507  26.183   3.322  -0.273
   41XTA     H9 4508  26.439   2.873  -0.268
   41XTA    H10 4509  26.687   2.841  -0.368
   41XTA    H11 4510  26.660   3.237  -0.518
   41XTA    H12 4511  26.429   3.253  -0.414
   41XTA    OA1 4512  25.849   2.909  -0.542
   41XTA    CO1 4513  25.726   2.926  -0.468
   41XTA    OA2 4514  26.299   3.400   0.170
   41XTA    CO2 4515  26.173   3.459   0.204
   41XTA    CL1 4516  26.162   3.439   0.359
   41XTA    CL2 4517  26.128   3.302   0.419
   41XTA    CL3 4518  26.253   3.209   0.405
   41XTA    CL4 4519  26.228   3.074   0.476
   41XTA    CO3 4520  26.331   2.971   0.436
   41XTA    OA3 4521  26.472   3.001   0.447
   41XTA    CO4 4522  26.561   2.932   0.366
   41XTA    CT1 4523  26.698   2.919   0.437
   41XTA    CL5 4524  26.799   2.831   0.352
   41XTA    CL6 4525  26.835   2.892   0.210
   41XTA    OA4 4526  26.814   3.017  -0.486
   41XTA    CO5 4527  26.845   3.081  -0.606
   41XTA    CL7 4528  26.986   3.032  -0.644
   41XTA    CL8 4529  26.979   2.898  -0.715
   41XTA    CL9 4530  26.919   2.904  -0.854
   41XTA   CL10 4531  26.816   2.792  -0.882
   41XTA    CO6 4532  26.871   2.652  -0.885
   41XTA    OA5 4533  26.767   2.552  -0.883
   41XTA    CO7 4534  26.701   2.538  -0.752
   41XTA    CT2 4535  26.635   2.404  -0.764
   41XTA   CL11 4536  26.732   2.303  -0.833
   41XTA   CL12 4537  26.872   2.299  -0.776
   41XTA    HL1 4538  25.730   3.021  -0.420
   41XTA    HL2 4539  25.641   2.928  -0.536
   41XTA    HL3 4540  25.730   2.844  -0.397
   41XTA    HL4 4541  26.173   3.560   0.165
   41XTA    HL5 4542  26.085   3.399   0.166
   41XTA    HL6 4543  26.078   3.496   0.400
   41XTA    HL7 4544  26.248   3.473   0.414
   41XTA    HL8 4545  26.040   3.268   0.368
   41XTA    HL9 4546  26.111   3.325   0.530
   41XTA   HL10 4547  26.253   3.177   0.300
   41XTA   HL11 4548  26.344   3.262   0.428
   41XTA   HL12 4549  26.127   3.033   0.453
   41XTA   HL13 4550  26.241   3.096   0.583
   41XTA   HL14 4551  26.314   2.878   0.485
   41XTA   HL15 4552  26.321   2.942   0.337
   41XTA   HL16 4553  26.523   2.836   0.323
   41XTA   HL17 4554  26.582   3.000   0.284
   41XTA   HL18 4555  26.749   2.734   0.340
   41XTA   HL19 4556  26.892   2.805   0.409
   41XTA   HL20 4557  26.859   2.999   0.219
   41XTA   HL21 4558  26.760   2.883   0.134
   41XTA   HL22 4559  26.921   2.842   0.171
   41XTA   HL23 4560  26.845   3.190  -0.611
   41XTA   HL24 4561  26.765   3.042  -0.676
   41XTA   HL25 4562  27.037   3.098  -0.718
   41XTA   HL26 4563  27.053   3.019  -0.562
   41XTA   HL27 4564  27.076   2.848  -0.726
   41XTA   HL28 4565  26.918   2.830  -0.652
   41XTA   HL29 4566  26.859   2.996  -0.885
   41XTA   HL30 4567  27.008   2.887  -0.917
   41XTA   HL31 4568  26.740   2.793  -0.809
   41XTA   HL32 4569  26.774   2.819  -0.975
   41XTA   HL33 4570  26.932   2.641  -0.969
   41XTA   HL34 4571  26.937   2.614  -0.808
   41XTA   HL35 4572  26.629   2.622  -0.732
   41XTA   HL36 4573  26.766   2.551  -0.668
   41XTA   HL37 4574  26.735   2.332  -0.939
   41XTA   HL38 4575  26.689   2.203  -0.820
   41XTA   HL39 4576  26.914   2.199  -0.761
   41XTA   HL40 4577  26.877   2.323  -0.671
   41XTA   HL41 4578  26.943   2.366  -0.822
   41XTA    CO8 4579  26.670   2.843   0.569
   41XTA    CO9 4580  26.760   3.055   0.464
   41XTA    OA6 4581  26.857   3.034   0.513
   41XTA   HL42 4582  26.760   2.832   0.624
   41XTA   HL43 4583  26.589   2.918   0.654
   41XTA   HL44 4584  26.466   2.520  -0.811
   41XTA   HL45 4585  26.571   2.492  -0.977
   41XTA   CO10 4586  26.522   2.441  -0.855
   41XTA   CO11 4587  26.570   2.350  -0.628
   41XTA    OA7 4588  26.646   2.361  -0.548
   41XTA   HL46 4589  26.472   2.395  -0.602
   41XTA   HL47 4590  26.564   2.241  -0.645
   41XTA   HL48 4591  26.689   3.115   0.521
   41XTA   HL49 4592  26.778   3.122   0.375
   42XTA     NT 4593  24.275   5.065   1.059
   42XTA    CN1 4594  24.308   5.112   0.940
   42XTA     C1 4595  24.373   5.028   0.847
   42XTA     C2 4596  24.410   5.086   0.720
   42XTA     C3 4597  24.387   5.222   0.697
   42XTA     C4 4598  24.332   5.300   0.798
   42XTA     C5 4599  24.284   5.244   0.913
   42XTA    CN2 4600  24.356   5.104   1.163
   42XTA     C6 4601  24.305   5.180   1.272
   42XTA     C7 4602  24.390   5.221   1.383
   42XTA     C8 4603  24.531   5.195   1.376
   42XTA     C9 4604  24.580   5.124   1.267
   42XTA    C10 4605  24.498   5.078   1.163
   42XTA    CN3 4606  24.173   4.981   1.084
   42XTA    C11 4607  24.199   4.850   1.137
   42XTA    C12 4608  24.092   4.763   1.174
   42XTA    C13 4609  23.960   4.793   1.139
   42XTA    C14 4610  23.933   4.913   1.073
   42XTA    C15 4611  24.035   5.008   1.045
   42XTA     H1 4612  24.399   4.931   0.877
   42XTA     H2 4613  24.466   5.020   0.654
   42XTA     H3 4614  24.304   5.406   0.779
   42XTA     H4 4615  24.221   5.304   0.973
   42XTA     H5 4616  24.202   5.205   1.274
   42XTA     H6 4617  24.356   5.274   1.469
   42XTA     H7 4618  24.688   5.122   1.250
   42XTA     H8 4619  24.551   5.026   1.074
   42XTA     H9 4620  24.299   4.830   1.176
   42XTA    H10 4621  24.114   4.672   1.236
   42XTA    H11 4622  23.837   4.942   1.053
   42XTA    H12 4623  24.014   5.105   0.996
   42XTA    OA1 4624  24.405   5.277   0.574
   42XTA    CO1 4625  24.310   5.224   0.483
   42XTA    OA2 4626  24.621   5.242   1.475
   42XTA    CO2 4627  24.579   5.348   1.557
   42XTA    CL1 4628  24.583   5.486   1.493
   42XTA    CL2 4629  24.715   5.535   1.437
   42XTA    CL3 4630  24.703   5.683   1.393
   42XTA    CL4 4631  24.816   5.714   1.287
   42XTA    CO3 4632  24.772   5.659   1.149
   42XTA    OA3 4633  24.861   5.711   1.052
   42XTA    CO4 4634  24.990   5.637   1.059
   42XTA    CT1 4635  25.070   5.676   0.928
   42XTA    CL5 4636  25.191   5.584   0.900
   42XTA    CL6 4637  25.147   5.442   0.869
   42XTA    OA4 4638  23.846   4.709   1.151
   42XTA    CO5 4639  23.883   4.568   1.153
   42XTA    CL7 4640  23.928   4.523   1.014
   42XTA    CL8 4641  23.920   4.376   0.988
   42XTA    CL9 4642  24.014   4.281   1.072
   42XTA   CL10 4643  23.951   4.237   1.203
   42XTA    CO6 4644  24.006   4.105   1.265
   42XTA    OA5 4645  23.948   3.997   1.193
   42XTA    CO7 4646  23.847   3.943   1.277
   42XTA    CT2 4647  23.767   3.833   1.210
   42XTA   CL11 4648  23.698   3.870   1.073
   42XTA   CL12 4649  23.610   3.990   1.072
   42XTA    HL1 4650  24.326   5.121   0.452
   42XTA    HL2 4651  24.209   5.226   0.519
   42XTA    HL3 4652  24.302   5.290   0.390
   42XTA    HL4 4653  24.484   5.339   1.607
   42XTA    HL5 4654  24.646   5.338   1.642
   42XTA    HL6 4655  24.534   5.562   1.559
   42XTA    HL7 4656  24.507   5.487   1.420
   42XTA    HL8 4657  24.730   5.476   1.358
   42XTA    HL9 4658  24.804   5.523   1.499
   42XTA   HL10 4659  24.602   5.698   1.354
   42XTA   HL11 4660  24.708   5.747   1.481
   42XTA   HL12 4661  24.918   5.689   1.319
   42XTA   HL13 4662  24.812   5.825   1.283
   42XTA   HL14 4663  24.757   5.551   1.159
   42XTA   HL15 4664  24.675   5.704   1.120
   42XTA   HL16 4665  25.050   5.651   1.150
   42XTA   HL17 4666  24.972   5.530   1.057
   42XTA   HL18 4667  25.255   5.592   0.983
   42XTA   HL19 4668  25.240   5.632   0.812
   42XTA   HL20 4669  25.235   5.383   0.890
   42XTA   HL21 4670  25.115   5.444   0.766
   42XTA   HL22 4671  25.070   5.411   0.933
   42XTA   HL23 4672  23.791   4.512   1.168
   42XTA   HL24 4673  23.952   4.538   1.232
   42XTA   HL25 4674  23.870   4.574   0.943
   42XTA   HL26 4675  24.029   4.561   1.003
   42XTA   HL27 4676  23.816   4.344   0.990
   42XTA   HL28 4677  23.938   4.354   0.883
   42XTA   HL29 4678  24.033   4.191   1.010
   42XTA   HL30 4679  24.108   4.340   1.087
   42XTA   HL31 4680  23.973   4.316   1.278
   42XTA   HL32 4681  23.847   4.232   1.191
   42XTA   HL33 4682  24.111   4.108   1.246
   42XTA   HL34 4683  23.991   4.102   1.374
   42XTA   HL35 4684  23.788   4.029   1.280
   42XTA   HL36 4685  23.882   3.913   1.378
   42XTA   HL37 4686  23.646   3.781   1.036
   42XTA   HL38 4687  23.786   3.894   1.018
   42XTA   HL39 4688  23.556   3.993   0.986
   42XTA   HL40 4689  23.693   4.069   1.080
   42XTA   HL41 4690  23.552   3.992   1.163
   42XTA    CO8 4691  25.116   5.818   0.950
   42XTA    CO9 4692  24.977   5.685   0.811
   42XTA    OA6 4693  25.032   5.718   0.689
   42XTA   HL42 4694  25.025   5.883   0.966
   42XTA   HL43 4695  25.152   5.843   0.855
   42XTA   HL44 4696  23.589   3.714   1.263
   42XTA   HL45 4697  23.583   3.882   1.353
   42XTA   CO10 4698  23.664   3.776   1.314
   42XTA   CO11 4699  23.845   3.703   1.175
   42XTA    OA7 4700  23.918   3.712   1.087
   42XTA   HL46 4701  23.886   3.680   1.273
   42XTA   HL47 4702  23.774   3.619   1.145
   42XTA   HL48 4703  24.909   5.768   0.816
   42XTA   HL49 4704  24.927   5.590   0.804
   43XTA     NT 4705  32.569   4.695   1.620
   43XTA    CN1 4706  32.613   4.606   1.530
   43XTA     C1 4707  32.681   4.642   1.409
   43XTA     C2 4708  32.701   4.552   1.300
   43XTA     C3 4709  32.657   4.411   1.320
   43XTA     C4 4710  32.598   4.376   1.445
   43XTA     C5 4711  32.580   4.472   1.550
   43XTA    CN2 4712  32.592   4.680   1.752
   43XTA     C6 4713  32.507   4.602   1.833
   43XTA     C7 4714  32.535   4.600   1.970
   43XTA     C8 4715  32.638   4.676   2.028
   43XTA     C9 4716  32.714   4.754   1.943
   43XTA    C10 4717  32.697   4.754   1.803
   43XTA    CN3 4718  32.488   4.796   1.572
   43XTA    C11 4719  32.535   4.928   1.568
   43XTA    C12 4720  32.446   5.031   1.532
   43XTA    C13 4721  32.315   5.004   1.485
   43XTA    C14 4722  32.274   4.870   1.482
   43XTA    C15 4723  32.358   4.767   1.531
   43XTA     H1 4724  32.703   4.751   1.394
   43XTA     H2 4725  32.739   4.591   1.211
   43XTA     H3 4726  32.559   4.272   1.468
   43XTA     H4 4727  32.536   4.436   1.641
   43XTA     H5 4728  32.438   4.543   1.782
   43XTA     H6 4729  32.463   4.537   2.025
   43XTA     H7 4730  32.788   4.821   1.992
   43XTA     H8 4731  32.762   4.814   1.742
   43XTA     H9 4732  32.632   4.959   1.619
   43XTA    H10 4733  32.489   5.127   1.543
   43XTA    H11 4734  32.176   4.846   1.439
   43XTA    H12 4735  32.325   4.662   1.530
   43XTA    OA1 4736  32.664   4.310   1.226
   43XTA    CO1 4737  32.738   4.341   1.101
   43XTA    OA2 4738  32.658   4.685   2.167
   43XTA    CO2 4739  32.605   4.589   2.252
   43XTA    CL1 4740  32.683   4.576   2.382
   43XTA    CL2 4741  32.608   4.499   2.484
   43XTA    CL3 4742  32.686   4.499   2.615
   43XTA    CL4 4743  32.619   4.412   2.726
   43XTA    CO3 4744  32.662   4.437   2.874
   43XTA    OA3 4745  32.808   4.425   2.887
   43XTA    CO4 4746  32.856   4.294   2.899
   43XTA    CT1 4747  33.010   4.295   2.922
   43XTA    CL5 4748  33.051   4.303   3.067
   43XTA    CL6 4749  33.043   4.173   3.147
   43XTA    OA4 4750  32.249   5.110   1.430
   43XTA    CO5 4751  32.117   5.089   1.396
   43XTA    CL7 4752  32.054   5.222   1.352
   43XTA    CL8 4753  32.067   5.334   1.460
   43XTA    CL9 4754  32.029   5.293   1.600
   43XTA   CL10 4755  32.041   5.402   1.711
   43XTA    CO6 4756  32.181   5.413   1.781
   43XTA    OA5 4757  32.179   5.482   1.908
   43XTA    CO7 4758  32.310   5.502   1.963
   43XTA    CT2 4759  32.312   5.605   2.076
   43XTA   CL11 4760  32.460   5.608   2.128
   43XTA   CL12 4761  32.555   5.708   2.056
   43XTA    HL1 4762  32.688   4.428   1.055
   43XTA    HL2 4763  32.843   4.359   1.120
   43XTA    HL3 4764  32.721   4.256   1.034
   43XTA    HL4 4765  32.503   4.623   2.281
   43XTA    HL5 4766  32.604   4.492   2.197
   43XTA    HL6 4767  32.722   4.671   2.426
   43XTA    HL7 4768  32.776   4.522   2.364
   43XTA    HL8 4769  32.583   4.394   2.451
   43XTA    HL9 4770  32.510   4.540   2.506
   43XTA   HL10 4771  32.788   4.461   2.596
   43XTA   HL11 4772  32.700   4.600   2.656
   43XTA   HL12 4773  32.615   4.305   2.692
   43XTA   HL13 4774  32.510   4.419   2.726
   43XTA   HL14 4775  32.636   4.540   2.900
   43XTA   HL15 4776  32.624   4.372   2.962
   43XTA   HL16 4777  32.797   4.245   2.976
   43XTA   HL17 4778  32.833   4.256   2.794
   43XTA   HL18 4779  32.996   4.387   3.123
   43XTA   HL19 4780  33.159   4.340   3.066
   43XTA   HL20 4781  32.939   4.135   3.155
   43XTA   HL21 4782  33.056   4.186   3.252
   43XTA   HL22 4783  33.115   4.102   3.111
   43XTA   HL23 4784  32.070   5.041   1.484
   43XTA   HL24 4785  32.124   5.014   1.322
   43XTA   HL25 4786  32.098   5.249   1.250
   43XTA   HL26 4787  31.946   5.200   1.342
   43XTA   HL27 4788  32.165   5.375   1.461
   43XTA   HL28 4789  32.002   5.413   1.435
   43XTA   HL29 4790  31.921   5.282   1.594
   43XTA   HL30 4791  32.073   5.191   1.629
   43XTA   HL31 4792  32.003   5.497   1.664
   43XTA   HL32 4793  31.971   5.380   1.787
   43XTA   HL33 4794  32.229   5.326   1.810
   43XTA   HL34 4795  32.246   5.457   1.708
   43XTA   HL35 4796  32.382   5.531   1.889
   43XTA   HL36 4797  32.353   5.406   2.000
   43XTA   HL37 4798  32.504   5.508   2.117
   43XTA   HL38 4799  32.466   5.627   2.234
   43XTA   HL39 4800  32.665   5.699   2.091
   43XTA   HL40 4801  32.531   5.813   2.059
   43XTA   HL41 4802  32.543   5.689   1.952
   43XTA    CO8 4803  33.089   4.397   2.843
   43XTA    CO9 4804  33.093   4.192   2.854
   43XTA    OA6 4805  33.176   4.293   2.806
   43XTA   HL42 4806  33.144   4.476   2.898
   43XTA   HL43 4807  33.030   4.438   2.758
   43XTA   HL44 4808  32.245   5.603   2.293
   43XTA   HL45 4809  32.264   5.448   2.208
   43XTA   CO10 4810  32.227   5.553   2.195
   43XTA   CO11 4811  32.257   5.740   2.039
   43XTA    OA7 4812  32.294   5.803   1.913
   43XTA   HL46 4813  32.142   5.740   2.047
   43XTA   HL47 4814  32.273   5.816   2.116
   43XTA   HL48 4815  33.048   4.149   2.758
   43XTA   HL49 4816  33.156   4.123   2.899
   44XTA     NT 4817  32.580   6.886   1.472
   44XTA    CN1 4818  32.645   6.991   1.404
   44XTA     C1 4819  32.782   6.977   1.397
   44XTA     C2 4820  32.856   7.087   1.350
   44XTA     C3 4821  32.795   7.205   1.303
   44XTA     C4 4822  32.653   7.209   1.309
   44XTA     C5 4823  32.578   7.104   1.358
   44XTA    CN2 4824  32.561   6.770   1.419
   44XTA     C6 4825  32.655   6.667   1.453
   44XTA     C7 4826  32.649   6.548   1.378
   44XTA     C8 4827  32.564   6.532   1.266
   44XTA     C9 4828  32.469   6.629   1.238
   44XTA    C10 4829  32.474   6.752   1.307
   44XTA    CN3 4830  32.529   6.916   1.594
   44XTA    C11 4831  32.618   6.963   1.692
   44XTA    C12 4832  32.562   6.998   1.816
   44XTA    C13 4833  32.427   6.982   1.847
   44XTA    C14 4834  32.340   6.930   1.750
   44XTA    C15 4835  32.393   6.900   1.625
   44XTA     H1 4836  32.828   6.889   1.436
   44XTA     H2 4837  32.962   7.077   1.366
   44XTA     H3 4838  32.598   7.297   1.279
   44XTA     H4 4839  32.476   7.129   1.386
   44XTA     H5 4840  32.724   6.676   1.531
   44XTA     H6 4841  32.711   6.474   1.409
   44XTA     H7 4842  32.391   6.626   1.165
   44XTA     H8 4843  32.413   6.838   1.273
   44XTA     H9 4844  32.722   6.972   1.679
   44XTA    H10 4845  32.622   7.035   1.902
   44XTA    H11 4846  32.232   6.925   1.769
   44XTA    H12 4847  32.332   6.859   1.548
   44XTA    OA1 4848  32.879   7.306   1.260
   44XTA    CO1 4849  32.814   7.421   1.224
   44XTA    OA2 4850  32.567   6.418   1.192
   44XTA    CO2 4851  32.457   6.389   1.115
   44XTA    CL1 4852  32.469   6.236   1.091
   44XTA    CL2 4853  32.359   6.202   0.999
   44XTA    CL3 4854  32.384   6.236   0.853
   44XTA    CL4 4855  32.258   6.241   0.769
   44XTA    CO3 4856  32.297   6.256   0.620
   44XTA    OA3 4857  32.191   6.226   0.534
   44XTA    CO4 4858  32.098   6.327   0.517
   44XTA    CT1 4859  31.980   6.275   0.436
   44XTA    CL5 4860  32.025   6.261   0.298
   44XTA    CL6 4861  31.944   6.188   0.190
   44XTA    OA4 4862  32.377   7.013   1.965
   44XTA    CO5 4863  32.241   7.040   1.987
   44XTA    CL7 4864  32.235   7.107   2.131
   44XTA    CL8 4865  32.098   7.160   2.164
   44XTA    CL9 4866  32.086   7.201   2.318
   44XTA   CL10 4867  32.208   7.279   2.375
   44XTA    CO6 4868  32.217   7.429   2.329
   44XTA    OA5 4869  32.337   7.485   2.363
   44XTA    CO7 4870  32.343   7.610   2.309
   44XTA    CT2 4871  32.441   7.628   2.195
   44XTA   CL11 4872  32.452   7.775   2.154
   44XTA   CL12 4873  32.507   7.805   2.001
   44XTA    HL1 4874  32.749   7.415   1.136
   44XTA    HL2 4875  32.750   7.455   1.309
   44XTA    HL3 4876  32.884   7.491   1.204
   44XTA    HL4 4877  32.352   6.417   1.145
   44XTA    HL5 4878  32.485   6.438   1.019
   44XTA    HL6 4879  32.462   6.181   1.188
   44XTA    HL7 4880  32.560   6.208   1.047
   44XTA    HL8 4881  32.261   6.246   1.021
   44XTA    HL9 4882  32.328   6.092   1.007
   44XTA   HL10 4883  32.425   6.337   0.849
   44XTA   HL11 4884  32.458   6.163   0.814
   44XTA   HL12 4885  32.205   6.331   0.800
   44XTA   HL13 4886  32.193   6.159   0.784
   44XTA   HL14 4887  32.319   6.359   0.616
   44XTA   HL15 4888  32.391   6.206   0.588
   44XTA   HL16 4889  32.068   6.342   0.621
   44XTA   HL17 4890  32.138   6.420   0.477
   44XTA   HL18 4891  32.119   6.216   0.291
   44XTA   HL19 4892  32.047   6.364   0.268
   44XTA   HL20 4893  31.928   6.079   0.208
   44XTA   HL21 4894  31.995   6.196   0.088
   44XTA   HL22 4895  31.843   6.226   0.166
   44XTA   HL23 4896  32.189   6.943   1.969
   44XTA   HL24 4897  32.201   7.110   1.914
   44XTA   HL25 4898  32.275   7.036   2.200
   44XTA   HL26 4899  32.310   7.191   2.144
   44XTA   HL27 4900  32.071   7.240   2.097
   44XTA   HL28 4901  32.031   7.078   2.145
   44XTA   HL29 4902  31.990   7.259   2.335
   44XTA   HL30 4903  32.072   7.122   2.383
   44XTA   HL31 4904  32.202   7.261   2.485
   44XTA   HL32 4905  32.304   7.233   2.351
   44XTA   HL33 4906  32.186   7.440   2.220
   44XTA   HL34 4907  32.154   7.486   2.396
   44XTA   HL35 4908  32.384   7.673   2.390
   44XTA   HL36 4909  32.247   7.658   2.284
   44XTA   HL37 4910  32.515   7.825   2.227
   44XTA   HL38 4911  32.352   7.811   2.157
   44XTA   HL39 4912  32.488   7.905   1.965
   44XTA   HL40 4913  32.452   7.744   1.928
   44XTA   HL41 4914  32.614   7.785   1.987
   44XTA    CO8 4915  31.871   6.393   0.437
   44XTA    CO9 4916  31.921   6.145   0.500
   44XTA    OA6 4917  31.770   6.357   0.436
   44XTA   HL42 4918  31.879   6.452   0.344
   44XTA   HL43 4919  31.899   6.464   0.522
   44XTA   HL44 4920  32.483   7.542   2.012
   44XTA   HL45 4921  32.388   7.408   2.123
   44XTA   CO10 4922  32.399   7.541   2.076
   44XTA   CO11 4923  32.580   7.573   2.247
   44XTA    OA7 4924  32.651   7.586   2.170
   44XTA   HL46 4925  32.598   7.627   2.342
   44XTA   HL47 4926  32.564   7.471   2.273
   44XTA   HL48 4927  31.818   6.095   0.419
   44XTA   HL49 4928  31.990   6.061   0.479
   45XTA     NT 4929  24.951   4.779   3.709
   45XTA    CN1 4930  24.828   4.788   3.770
   45XTA     C1 4931  24.714   4.707   3.732
   45XTA     C2 4932  24.596   4.724   3.800
   45XTA     C3 4933  24.586   4.823   3.901
   45XTA     C4 4934  24.690   4.908   3.936
   45XTA     C5 4935  24.813   4.895   3.864
   45XTA    CN2 4936  25.033   4.682   3.749
   45XTA     C6 4937  25.024   4.553   3.698
   45XTA     C7 4938  25.105   4.449   3.753
   45XTA     C8 4939  25.175   4.474   3.873
   45XTA     C9 4940  25.185   4.606   3.914
   45XTA    C10 4941  25.116   4.709   3.857
   45XTA    CN3 4942  24.972   4.864   3.613
   45XTA    C11 4943  25.080   4.957   3.624
   45XTA    C12 4944  25.090   5.050   3.515
   45XTA    C13 4945  25.007   5.053   3.402
   45XTA    C14 4946  24.911   4.953   3.394
   45XTA    C15 4947  24.894   4.857   3.496
   45XTA     H1 4948  24.712   4.621   3.661
   45XTA     H2 4949  24.513   4.661   3.780
   45XTA     H3 4950  24.679   4.975   4.020
   45XTA     H4 4951  24.903   4.954   3.893
   45XTA     H5 4952  24.968   4.537   3.605
   45XTA     H6 4953  25.088   4.348   3.720
   45XTA     H7 4954  25.244   4.631   4.000
   45XTA     H8 4955  25.128   4.805   3.901
   45XTA     H9 4956  25.143   4.967   3.714
   45XTA    H10 4957  25.167   5.125   3.515
   45XTA    H11 4958  24.841   4.960   3.319
   45XTA    H12 4959  24.805   4.795   3.490
   45XTA    OA1 4960  24.457   4.842   3.958
   45XTA    CO1 4961  24.445   4.907   4.084
   45XTA    OA2 4962  25.241   4.372   3.938
   45XTA    CO2 4963  25.290   4.402   4.067
   45XTA    CL1 4964  25.292   4.272   4.142
   45XTA    CL2 4965  25.145   4.232   4.151
   45XTA    CL3 4966  25.119   4.088   4.185
   45XTA    CL4 4967  24.994   4.015   4.119
   45XTA    CO3 4968  24.978   3.888   4.194
   45XTA    OA3 4969  25.086   3.804   4.170
   45XTA    CO4 4970  25.059   3.665   4.210
   45XTA    CT1 4971  25.178   3.580   4.188
   45XTA    CL5 4972  25.308   3.627   4.267
   45XTA    CL6 4973  25.283   3.661   4.421
   45XTA    OA4 4974  25.007   5.151   3.300
   45XTA    CO5 4975  25.091   5.264   3.301
   45XTA    CL7 4976  25.221   5.230   3.229
   45XTA    CL8 4977  25.331   5.342   3.206
   45XTA    CL9 4978  25.448   5.270   3.147
   45XTA   CL10 4979  25.448   5.270   2.992
   45XTA    CO6 4980  25.569   5.212   2.919
   45XTA    OA5 4981  25.543   5.070   2.919
   45XTA    CO7 4982  25.619   4.997   3.012
   45XTA    CT2 4983  25.540   4.873   3.045
   45XTA   CL11 4984  25.526   4.769   2.927
   45XTA   CL12 4985  25.660   4.719   2.864
   45XTA    HL1 4986  24.348   4.902   4.121
   45XTA    HL2 4987  24.519   4.854   4.146
   45XTA    HL3 4988  24.457   5.017   4.080
   45XTA    HL4 4989  25.386   4.443   4.082
   45XTA    HL5 4990  25.221   4.469   4.115
   45XTA    HL6 4991  25.323   4.292   4.249
   45XTA    HL7 4992  25.357   4.196   4.102
   45XTA    HL8 4993  25.099   4.243   4.055
   45XTA    HL9 4994  25.090   4.297   4.219
   45XTA   HL10 4995  25.204   4.040   4.141
   45XTA   HL11 4996  25.123   4.072   4.289
   45XTA   HL12 4997  25.010   4.004   4.012
   45XTA   HL13 4998  24.906   4.078   4.131
   45XTA   HL14 4999  24.984   3.892   4.304
   45XTA   HL15 5000  24.882   3.856   4.163
   45XTA   HL16 5001  25.034   3.666   4.312
   45XTA   HL17 5002  24.961   3.624   4.164
   45XTA   HL18 5003  25.340   3.716   4.225
   45XTA   HL19 5004  25.393   3.557   4.250
   45XTA   HL20 5005  25.275   3.563   4.472
   45XTA   HL21 5006  25.197   3.721   4.432
   45XTA   HL22 5007  25.364   3.721   4.462
   45XTA   HL23 5008  25.121   5.292   3.399
   45XTA   HL24 5009  25.039   5.348   3.246
   45XTA   HL25 5010  25.264   5.148   3.295
   45XTA   HL26 5011  25.203   5.188   3.126
   45XTA   HL27 5012  25.288   5.418   3.142
   45XTA   HL28 5013  25.346   5.388   3.301
   45XTA   HL29 5014  25.534   5.341   3.164
   45XTA   HL30 5015  25.463   5.185   3.209
   45XTA   HL31 5016  25.344   5.234   2.961
   45XTA   HL32 5017  25.454   5.377   2.957
   45XTA   HL33 5018  25.563   5.242   2.813
   45XTA   HL34 5019  25.664   5.239   2.963
   45XTA   HL35 5020  25.641   5.049   3.108
   45XTA   HL36 5021  25.723   4.977   2.975
   45XTA   HL37 5022  25.462   4.812   2.852
   45XTA   HL38 5023  25.483   4.691   2.989
   45XTA   HL39 5024  25.628   4.638   2.796
   45XTA   HL40 5025  25.726   4.683   2.940
   45XTA   HL41 5026  25.711   4.798   2.816
   45XTA    CO8 5027  25.217   3.574   4.042
   45XTA    CO9 5028  25.151   3.437   4.231
   45XTA    OA6 5029  25.327   3.478   4.025
   45XTA   HL42 5030  25.227   3.677   4.017
   45XTA   HL43 5031  25.136   3.549   3.972
   45XTA   HL44 5032  25.382   4.971   3.184
   45XTA   HL45 5033  25.353   4.984   3.018
   45XTA   CO10 5034  25.393   4.917   3.089
   45XTA   CO11 5035  25.597   4.793   3.168
   45XTA    OA7 5036  25.617   4.868   3.288
   45XTA   HL46 5037  25.540   4.706   3.184
   45XTA   HL47 5038  25.693   4.750   3.136
   45XTA   HL48 5039  25.103   3.380   4.148
   45XTA   HL49 5040  25.240   3.379   4.234
   46XTA     NT 5041  24.948   5.004   5.710
   46XTA    CN1 5042  25.023   4.998   5.603
   46XTA     C1 5043  25.159   4.947   5.609
   46XTA     C2 5044  25.234   4.944   5.492
   46XTA     C3 5045  25.176   4.976   5.371
   46XTA     C4 5046  25.038   5.007   5.361
   46XTA     C5 5047  24.964   5.024   5.479
   46XTA    CN2 5048  24.994   5.075   5.816
   46XTA     C6 5049  25.079   5.019   5.918
   46XTA     C7 5050  25.123   5.105   6.019
   46XTA     C8 5051  25.079   5.240   6.026
   46XTA     C9 5052  24.997   5.295   5.927
   46XTA    C10 5053  24.959   5.211   5.822
   46XTA    CN3 5054  24.839   4.927   5.723
   46XTA    C11 5055  24.848   4.783   5.722
   46XTA    C12 5056  24.735   4.708   5.748
   46XTA    C13 5057  24.610   4.769   5.778
   46XTA    C14 5058  24.604   4.908   5.773
   46XTA    C15 5059  24.716   4.992   5.750
   46XTA     H1 5060  25.189   4.909   5.701
   46XTA     H2 5061  25.331   4.904   5.488
   46XTA     H3 5062  24.989   5.030   5.268
   46XTA     H4 5063  24.864   5.061   5.474
   46XTA     H5 5064  25.123   4.919   5.919
   46XTA     H6 5065  25.185   5.052   6.089
   46XTA     H7 5066  24.979   5.404   5.920
   46XTA     H8 5067  24.906   5.254   5.743
   46XTA     H9 5068  24.948   4.747   5.695
   46XTA    H10 5069  24.743   4.605   5.739
   46XTA    H11 5070  24.510   4.951   5.798
   46XTA    H12 5071  24.717   5.096   5.783
   46XTA    OA1 5072  25.240   4.966   5.252
   46XTA    CO1 5073  25.354   4.879   5.238
   46XTA    OA2 5074  25.115   5.310   6.138
   46XTA    CO2 5075  25.058   5.440   6.149
   46XTA    CL1 5076  25.092   5.499   6.288
   46XTA    CL2 5077  25.047   5.427   6.413
   46XTA    CL3 5078  25.070   5.499   6.545
   46XTA    CL4 5079  25.138   5.400   6.636
   46XTA    CO3 5080  25.193   5.458   6.759
   46XTA    OA3 5081  25.222   5.349   6.837
   46XTA    CO4 5082  25.276   5.377   6.966
   46XTA    CT1 5083  25.262   5.250   7.056
   46XTA    CL5 5084  25.288   5.290   7.200
   46XTA    CL6 5085  25.424   5.355   7.224
   46XTA    OA4 5086  24.493   4.699   5.804
   46XTA    CO5 5087  24.508   4.560   5.839
   46XTA    CL7 5088  24.375   4.479   5.859
   46XTA    CL8 5089  24.381   4.356   5.943
   46XTA    CL9 5090  24.461   4.237   5.871
   46XTA   CL10 5091  24.471   4.118   5.956
   46XTA    CO6 5092  24.569   4.010   5.900
   46XTA    OA5 5093  24.705   4.037   5.899
   46XTA    CO7 5094  24.763   4.075   6.027
   46XTA    CT2 5095  24.913   4.067   6.025
   46XTA   CL11 5096  24.980   4.124   5.898
   46XTA   CL12 5097  25.132   4.127   5.906
   46XTA    HL1 5098  25.381   4.872   5.130
   46XTA    HL2 5099  25.441   4.920   5.288
   46XTA    HL3 5100  25.329   4.781   5.288
   46XTA    HL4 5101  25.112   5.490   6.070
   46XTA    HL5 5102  24.955   5.423   6.132
   46XTA    HL6 5103  25.064   5.607   6.281
   46XTA    HL7 5104  25.199   5.511   6.284
   46XTA    HL8 5105  25.077   5.322   6.409
   46XTA    HL9 5106  24.944   5.425   6.395
   46XTA   HL10 5107  25.148   5.577   6.519
   46XTA   HL11 5108  24.992   5.553   6.589
   46XTA   HL12 5109  25.214   5.349   6.579
   46XTA   HL13 5110  25.070   5.318   6.655
   46XTA   HL14 5111  25.272   5.523   6.720
   46XTA   HL15 5112  25.132   5.520   6.824
   46XTA   HL16 5113  25.371   5.420   6.966
   46XTA   HL17 5114  25.233   5.459   7.015
   46XTA   HL18 5115  25.269   5.206   7.258
   46XTA   HL19 5116  25.212   5.358   7.230
   46XTA   HL20 5117  25.501   5.278   7.236
   46XTA   HL21 5118  25.419   5.412   7.323
   46XTA   HL22 5119  25.451   5.424   7.158
   46XTA   HL23 5120  24.566   4.555   5.934
   46XTA   HL24 5121  24.567   4.503   5.769
   46XTA   HL25 5122  24.308   4.554   5.903
   46XTA   HL26 5123  24.321   4.455   5.765
   46XTA   HL27 5124  24.426   4.373   6.043
   46XTA   HL28 5125  24.281   4.324   5.967
   46XTA   HL29 5126  24.412   4.206   5.785
   46XTA   HL30 5127  24.556   4.264   5.831
   46XTA   HL31 5128  24.493   4.132   6.058
   46XTA   HL32 5129  24.371   4.082   5.958
   46XTA   HL33 5130  24.553   3.916   5.942
   46XTA   HL34 5131  24.549   3.990   5.790
   46XTA   HL35 5132  24.723   4.020   6.119
   46XTA   HL36 5133  24.743   4.176   6.043
   46XTA   HL37 5134  24.947   4.224   5.872
   46XTA   HL38 5135  24.957   4.062   5.815
   46XTA   HL39 5136  25.177   4.161   5.818
   46XTA   HL40 5137  25.174   4.025   5.913
   46XTA   HL41 5138  25.167   4.181   5.996
   46XTA    CO8 5139  25.362   5.134   7.010
   46XTA    CO9 5140  25.116   5.200   7.037
   46XTA    OA6 5141  25.027   5.263   7.061
   46XTA   HL42 5142  25.342   5.050   7.067
   46XTA   HL43 5143  25.328   5.079   6.880
   46XTA   HL44 5144  24.890   3.861   5.961
   46XTA   HL45 5145  25.060   3.891   6.010
   46XTA   CO10 5146  24.952   3.917   6.037
   46XTA   CO11 5147  24.967   4.150   6.151
   46XTA    OA7 5148  24.924   3.849   6.162
   46XTA   HL46 5149  24.902   4.122   6.236
   46XTA   HL47 5150  25.069   4.112   6.182
   46XTA   HL48 5151  25.104   5.109   7.097
   46XTA   HL49 5152  25.104   5.156   6.932
   47XTA     NT 5153  31.302   5.640   3.556
   47XTA    CN1 5154  31.399   5.625   3.648
   47XTA     C1 5155  31.502   5.716   3.669
   47XTA     C2 5156  31.603   5.697   3.764
   47XTA     C3 5157  31.594   5.587   3.852
   47XTA     C4 5158  31.478   5.501   3.839
   47XTA     C5 5159  31.389   5.508   3.728
   47XTA    CN2 5160  31.345   5.662   3.428
   47XTA     C6 5161  31.396   5.550   3.359
   47XTA     C7 5162  31.425   5.569   3.220
   47XTA     C8 5163  31.403   5.686   3.152
   47XTA     C9 5164  31.369   5.801   3.228
   47XTA    C10 5165  31.338   5.785   3.363
   47XTA    CN3 5166  31.174   5.677   3.598
   47XTA    C11 5167  31.149   5.802   3.653
   47XTA    C12 5168  31.021   5.842   3.667
   47XTA    C13 5169  30.909   5.773   3.616
   47XTA    C14 5170  30.936   5.649   3.559
   47XTA    C15 5171  31.068   5.601   3.545
   47XTA     H1 5172  31.513   5.792   3.598
   47XTA     H2 5173  31.694   5.755   3.761
   47XTA     H3 5174  31.459   5.425   3.909
   47XTA     H4 5175  31.307   5.439   3.712
   47XTA     H5 5176  31.413   5.459   3.423
   47XTA     H6 5177  31.458   5.485   3.168
   47XTA     H7 5178  31.350   5.894   3.183
   47XTA     H8 5179  31.303   5.869   3.417
   47XTA     H9 5180  31.238   5.856   3.687
   47XTA    H10 5181  30.994   5.934   3.714
   47XTA    H11 5182  30.850   5.597   3.516
   47XTA    H12 5183  31.092   5.519   3.482
   47XTA    OA1 5184  31.683   5.562   3.946
   47XTA    CO1 5185  31.818   5.618   3.936
   47XTA    OA2 5186  31.416   5.703   3.013
   47XTA    CO2 5187  31.348   5.596   2.942
   47XTA    CL1 5188  31.271   5.642   2.816
   47XTA    CL2 5189  31.363   5.698   2.705
   47XTA    CL3 5190  31.281   5.767   2.592
   47XTA    CL4 5191  31.370   5.840   2.489
   47XTA    CO3 5192  31.463   5.738   2.421
   47XTA    OA3 5193  31.515   5.804   2.306
   47XTA    CO4 5194  31.602   5.707   2.231
   47XTA    CT1 5195  31.639   5.751   2.086
   47XTA    CL5 5196  31.707   5.886   2.103
   47XTA    CL6 5197  31.846   5.887   2.172
   47XTA    OA4 5198  30.778   5.818   3.613
   47XTA    CO5 5199  30.757   5.953   3.636
   47XTA    CL7 5200  30.804   6.043   3.515
   47XTA    CL8 5201  30.753   5.996   3.384
   47XTA    CL9 5202  30.826   6.085   3.283
   47XTA   CL10 5203  30.774   6.069   3.137
   47XTA    CO6 5204  30.785   6.203   3.060
   47XTA    OA5 5205  30.914   6.249   3.069
   47XTA    CO7 5206  30.987   6.199   2.953
   47XTA    CT2 5207  31.140   6.246   2.951
   47XTA   CL11 5208  31.133   6.393   2.907
   47XTA   CL12 5209  31.062   6.492   2.998
   47XTA    HL1 5210  31.828   5.730   3.927
   47XTA    HL2 5211  31.867   5.575   4.024
   47XTA    HL3 5212  31.869   5.581   3.847
   47XTA    HL4 5213  31.442   5.555   2.913
   47XTA    HL5 5214  31.289   5.528   3.009
   47XTA    HL6 5215  31.214   5.729   2.853
   47XTA    HL7 5216  31.195   5.572   2.778
   47XTA    HL8 5217  31.429   5.617   2.670
   47XTA    HL9 5218  31.430   5.774   2.733
   47XTA   HL10 5219  31.213   5.690   2.546
   47XTA   HL11 5220  31.223   5.839   2.636
   47XTA   HL12 5221  31.431   5.911   2.545
   47XTA   HL13 5222  31.316   5.902   2.423
   47XTA   HL14 5223  31.534   5.699   2.493
   47XTA   HL15 5224  31.406   5.651   2.390
   47XTA   HL16 5225  31.689   5.669   2.290
   47XTA   HL17 5226  31.544   5.622   2.230
   47XTA   HL18 5227  31.637   5.951   2.150
   47XTA   HL19 5228  31.721   5.940   2.007
   47XTA   HL20 5229  31.914   5.820   2.112
   47XTA   HL21 5230  31.837   5.861   2.275
   47XTA   HL22 5231  31.884   5.989   2.169
   47XTA   HL23 5232  30.792   5.977   3.735
   47XTA   HL24 5233  30.648   5.954   3.652
   47XTA   HL25 5234  30.756   6.140   3.527
   47XTA   HL26 5235  30.913   6.038   3.522
   47XTA   HL27 5236  30.771   5.887   3.359
   47XTA   HL28 5237  30.647   6.001   3.369
   47XTA   HL29 5238  30.811   6.187   3.314
   47XTA   HL30 5239  30.931   6.050   3.292
   47XTA   HL31 5240  30.827   5.985   3.089
   47XTA   HL32 5241  30.666   6.042   3.137
   47XTA   HL33 5242  30.763   6.186   2.954
   47XTA   HL34 5243  30.718   6.289   3.091
   47XTA   HL35 5244  30.931   6.236   2.867
   47XTA   HL36 5245  30.981   6.092   2.959
   47XTA   HL37 5246  31.081   6.396   2.811
   47XTA   HL38 5247  31.235   6.426   2.894
   47XTA   HL39 5248  31.064   6.590   2.958
   47XTA   HL40 5249  31.086   6.494   3.103
   47XTA   HL41 5250  30.951   6.483   2.998
   47XTA    CO8 5251  31.504   5.786   2.000
   47XTA    CO9 5252  31.724   5.638   2.015
   47XTA    OA6 5253  31.792   5.586   2.083
   47XTA   HL42 5254  31.454   5.691   1.980
   47XTA   HL43 5255  31.546   5.827   1.868
   47XTA   HL44 5256  31.321   6.232   2.832
   47XTA   HL45 5257  31.256   6.083   2.868
   47XTA   CO10 5258  31.225   6.183   2.837
   47XTA   CO11 5259  31.213   6.230   3.089
   47XTA    OA7 5260  31.160   6.178   2.715
   47XTA   HL46 5261  31.272   6.139   3.111
   47XTA   HL47 5262  31.142   6.242   3.167
   47XTA   HL48 5263  31.786   5.698   1.941
   47XTA   HL49 5264  31.654   5.570   1.968
   48XTA     NT 5265  24.555   3.562   5.560
   48XTA    CN1 5266  24.478   3.667   5.526
   48XTA     C1 5267  24.497   3.793   5.586
   48XTA     C2 5268  24.426   3.910   5.544
   48XTA     C3 5269  24.317   3.893   5.448
   48XTA     C4 5270  24.290   3.767   5.407
   48XTA     C5 5271  24.364   3.651   5.452
   48XTA    CN2 5272  24.511   3.463   5.645
   48XTA     C6 5273  24.545   3.331   5.622
   48XTA     C7 5274  24.492   3.231   5.703
   48XTA     C8 5275  24.411   3.254   5.814
   48XTA     C9 5276  24.379   3.387   5.840
   48XTA    C10 5277  24.432   3.489   5.760
   48XTA    CN3 5278  24.682   3.554   5.508
   48XTA    C11 5279  24.790   3.608   5.577
   48XTA    C12 5280  24.917   3.604   5.514
   48XTA    C13 5281  24.935   3.537   5.390
   48XTA    C14 5282  24.825   3.472   5.330
   48XTA    C15 5283  24.700   3.487   5.388
   48XTA     H1 5284  24.587   3.806   5.642
   48XTA     H2 5285  24.446   4.007   5.586
   48XTA     H3 5286  24.206   3.754   5.342
   48XTA     H4 5287  24.334   3.551   5.415
   48XTA     H5 5288  24.608   3.306   5.535
   48XTA     H6 5289  24.504   3.126   5.674
   48XTA     H7 5290  24.324   3.410   5.926
   48XTA     H8 5291  24.407   3.590   5.771
   48XTA     H9 5292  24.767   3.666   5.667
   48XTA    H10 5293  25.008   3.644   5.557
   48XTA    H11 5294  24.826   3.422   5.234
   48XTA    H12 5295  24.614   3.458   5.329
   48XTA    OA1 5296  24.246   4.009   5.409
   48XTA    CO1 5297  24.124   3.989   5.352
   48XTA    OA2 5298  24.351   3.150   5.867
   48XTA    CO2 5299  24.259   3.175   5.966
   48XTA    CL1 5300  24.204   3.035   6.006
   48XTA    CL2 5301  24.312   2.945   6.072
   48XTA    CL3 5302  24.260   2.809   6.106
   48XTA    CL4 5303  24.349   2.719   6.190
   48XTA    CO3 5304  24.495   2.719   6.151
   48XTA    OA3 5305  24.580   2.626   6.224
   48XTA    CO4 5306  24.614   2.671   6.355
   48XTA    CT1 5307  24.735   2.585   6.403
   48XTA    CL5 5308  24.680   2.444   6.407
   48XTA    CL6 5309  24.782   2.328   6.408
   48XTA    OA4 5310  25.066   3.513   5.351
   48XTA    CO5 5311  25.105   3.379   5.344
   48XTA    CL7 5312  25.252   3.394   5.380
   48XTA    CL8 5313  25.325   3.256   5.372
   48XTA    CL9 5314  25.466   3.261   5.433
   48XTA   CL10 5315  25.529   3.126   5.451
   48XTA    CO6 5316  25.644   3.129   5.545
   48XTA    OA5 5317  25.599   3.186   5.667
   48XTA    CO7 5318  25.564   3.102   5.772
   48XTA    CT2 5319  25.474   3.177   5.872
   48XTA   CL11 5320  25.547   3.301   5.935
   48XTA   CL12 5321  25.664   3.274   6.029
   48XTA    HL1 5322  24.067   4.083   5.345
   48XTA    HL2 5323  24.135   3.936   5.263
   48XTA    HL3 5324  24.067   3.929   5.417
   48XTA    HL4 5325  24.313   3.215   6.048
   48XTA    HL5 5326  24.166   3.234   5.938
   48XTA    HL6 5327  24.147   2.978   5.931
   48XTA    HL7 5328  24.129   3.038   6.081
   48XTA    HL8 5329  24.346   2.996   6.161
   48XTA    HL9 5330  24.392   2.937   6.001
   48XTA   HL10 5331  24.166   2.814   6.170
   48XTA   HL11 5332  24.239   2.766   6.009
   48XTA   HL12 5333  24.316   2.616   6.172
   48XTA   HL13 5334  24.335   2.745   6.293
   48XTA   HL14 5335  24.499   2.691   6.049
   48XTA   HL15 5336  24.542   2.818   6.158
   48XTA   HL16 5337  24.638   2.779   6.357
   48XTA   HL17 5338  24.528   2.660   6.417
   48XTA   HL18 5339  24.628   2.416   6.318
   48XTA   HL19 5340  24.619   2.426   6.499
   48XTA   HL20 5341  24.843   2.335   6.317
   48XTA   HL21 5342  24.746   2.224   6.419
   48XTA   HL22 5343  24.850   2.348   6.486
   48XTA   HL23 5344  25.100   3.334   5.247
   48XTA   HL24 5345  25.049   3.303   5.401
   48XTA   HL25 5346  25.288   3.472   5.307
   48XTA   HL26 5347  25.263   3.422   5.482
   48XTA   HL27 5348  25.274   3.183   5.429
   48XTA   HL28 5349  25.323   3.231   5.271
   48XTA   HL29 5350  25.525   3.323   5.373
   48XTA   HL30 5351  25.456   3.310   5.532
   48XTA   HL31 5352  25.455   3.054   5.485
   48XTA   HL32 5353  25.547   3.089   5.348
   48XTA   HL33 5354  25.697   3.033   5.551
   48XTA   HL34 5355  25.721   3.193   5.499
   48XTA   HL35 5356  25.655   3.064   5.819
   48XTA   HL36 5357  25.504   3.021   5.729
   48XTA   HL37 5358  25.473   3.347   6.004
   48XTA   HL38 5359  25.563   3.383   5.864
   48XTA   HL39 5360  25.747   3.230   5.979
   48XTA   HL40 5361  25.633   3.211   6.111
   48XTA   HL41 5362  25.702   3.358   6.072
   48XTA    CO8 5363  24.795   2.629   6.539
   48XTA    CO9 5364  24.843   2.608   6.296
   48XTA    OA6 5365  24.854   2.760   6.534
   48XTA   HL42 5366  24.883   2.562   6.561
   48XTA   HL43 5367  24.714   2.636   6.606
   48XTA   HL44 5368  25.339   3.132   6.039
   48XTA   HL45 5369  25.360   2.999   5.924
   48XTA   CO10 5370  25.415   3.080   5.978
   48XTA   CO11 5371  25.361   3.236   5.788
   48XTA    OA7 5372  25.485   3.028   6.045
   48XTA   HL46 5373  25.320   3.160   5.671
   48XTA   HL47 5374  25.389   3.335   5.741
   48XTA   HL48 5375  24.817   2.550   6.210
   48XTA   HL49 5376  24.855   2.714   6.273
   49XTA     NT 5377  24.452  -0.446   6.347
   49XTA    CN1 5378  24.577  -0.421   6.392
   49XTA     C1 5379  24.690  -0.422   6.305
   49XTA     C2 5380  24.823  -0.394   6.348
   49XTA     C3 5381  24.853  -0.368   6.480
   49XTA     C4 5382  24.740  -0.362   6.564
   49XTA     C5 5383  24.609  -0.395   6.524
   49XTA    CN2 5384  24.405  -0.564   6.374
   49XTA     C6 5385  24.450  -0.678   6.301
   49XTA     C7 5386  24.392  -0.807   6.318
   49XTA     C8 5387  24.298  -0.823   6.418
   49XTA     C9 5388  24.255  -0.714   6.500
   49XTA    C10 5389  24.309  -0.587   6.478
   49XTA    CN3 5390  24.374  -0.341   6.315
   49XTA    C11 5391  24.336  -0.317   6.183
   49XTA    C12 5392  24.240  -0.225   6.158
   49XTA    C13 5393  24.187  -0.143   6.258
   49XTA    C14 5394  24.228  -0.165   6.390
   49XTA    C15 5395  24.317  -0.272   6.419
   49XTA     H1 5396  24.684  -0.433   6.195
   49XTA     H2 5397  24.897  -0.394   6.270
   49XTA     H3 5398  24.755  -0.340   6.675
   49XTA     H4 5399  24.530  -0.387   6.600
   49XTA     H5 5400  24.524  -0.665   6.218
   49XTA     H6 5401  24.428  -0.890   6.263
   49XTA     H7 5402  24.177  -0.725   6.576
   49XTA     H8 5403  24.272  -0.504   6.539
   49XTA     H9 5404  24.384  -0.389   6.114
   49XTA    H10 5405  24.208  -0.211   6.058
   49XTA    H11 5406  24.187  -0.118   6.482
   49XTA    H12 5407  24.350  -0.307   6.523
   49XTA    OA1 5408  24.981  -0.324   6.518
   49XTA    CO1 5409  25.009  -0.336   6.656
   49XTA    OA2 5410  24.246  -0.943   6.454
   49XTA    CO2 5411  24.333  -1.056   6.446
   49XTA    CL1 5412  24.264  -1.163   6.530
   49XTA    CL2 5413  24.365  -1.281   6.544
   49XTA    CL3 5414  24.296  -1.377   6.643
   49XTA    CL4 5415  24.385  -1.502   6.664
   49XTA    CO3 5416  24.350  -1.588   6.788
   49XTA    OA3 5417  24.208  -1.613   6.789
   49XTA    CO4 5418  24.146  -1.620   6.913
   49XTA    CT1 5419  23.991  -1.610   6.892
   49XTA    CL5 5420  23.948  -1.474   6.841
   49XTA    CL6 5421  23.964  -1.359   6.945
   49XTA    OA4 5422  24.084  -0.059   6.216
   49XTA    CO5 5423  24.015   0.006   6.320
   49XTA    CL7 5424  23.878   0.052   6.267
   49XTA    CL8 5425  23.796  -0.076   6.254
   49XTA    CL9 5426  23.725  -0.121   6.382
   49XTA   CL10 5427  23.595  -0.061   6.407
   49XTA    CO6 5428  23.539  -0.110   6.544
   49XTA    OA5 5429  23.471  -0.234   6.526
   49XTA    CO7 5430  23.441  -0.306   6.647
   49XTA    CT2 5431  23.550  -0.423   6.670
   49XTA   CL11 5432  23.566  -0.520   6.560
   49XTA   CL12 5433  23.608  -0.479   6.422
   49XTA    HL1 5434  25.115  -0.347   6.670
   49XTA    HL2 5435  24.971  -0.257   6.721
   49XTA    HL3 5436  24.967  -0.426   6.702
   49XTA    HL4 5437  24.365  -1.086   6.351
   49XTA    HL5 5438  24.421  -1.036   6.509
   49XTA    HL6 5439  24.169  -1.193   6.486
   49XTA    HL7 5440  24.241  -1.128   6.625
   49XTA    HL8 5441  24.457  -1.240   6.587
   49XTA    HL9 5442  24.388  -1.325   6.447
   49XTA   HL10 5443  24.276  -1.324   6.737
   49XTA   HL11 5444  24.200  -1.409   6.605
   49XTA   HL12 5445  24.487  -1.479   6.675
   49XTA   HL13 5446  24.374  -1.566   6.572
   49XTA   HL14 5447  24.408  -1.679   6.797
   49XTA   HL15 5448  24.383  -1.527   6.870
   49XTA   HL16 5449  24.181  -1.717   6.948
   49XTA   HL17 5450  24.177  -1.541   6.980
   49XTA   HL18 5451  23.844  -1.464   6.803
   49XTA   HL19 5452  24.010  -1.454   6.750
   49XTA   HL20 5453  23.949  -1.260   6.905
   49XTA   HL21 5454  24.059  -1.363   6.991
   49XTA   HL22 5455  23.885  -1.365   7.023
   49XTA   HL23 5456  24.076   0.094   6.356
   49XTA   HL24 5457  24.003  -0.061   6.407
   49XTA   HL25 5458  23.841   0.141   6.325
   49XTA   HL26 5459  23.896   0.097   6.175
   49XTA   HL27 5460  23.713  -0.054   6.186
   49XTA   HL28 5461  23.854  -0.160   6.216
   49XTA   HL29 5462  23.706  -0.232   6.380
   49XTA   HL30 5463  23.786  -0.101   6.474
   49XTA   HL31 5464  23.588   0.045   6.395
   49XTA   HL32 5465  23.527  -0.103   6.332
   49XTA   HL33 5466  23.605  -0.103   6.626
   49XTA   HL34 5467  23.465  -0.042   6.577
   49XTA   HL35 5468  23.344  -0.344   6.633
   49XTA   HL36 5469  23.447  -0.232   6.728
   49XTA   HL37 5470  23.467  -0.559   6.546
   49XTA   HL38 5471  23.626  -0.607   6.594
   49XTA   HL39 5472  23.715  -0.452   6.430
   49XTA   HL40 5473  23.549  -0.392   6.382
   49XTA   HL41 5474  23.599  -0.564   6.349
   49XTA    CO8 5475  23.926  -1.648   7.026
   49XTA    CO9 5476  23.944  -1.721   6.800
   49XTA    OA6 5477  23.783  -1.641   7.015
   49XTA   HL42 5478  23.961  -1.569   7.095
   49XTA   HL43 5479  23.958  -1.744   7.056
   49XTA   HL44 5480  23.425  -0.564   6.746
   49XTA   HL45 5481  23.612  -0.593   6.824
   49XTA   CO10 5482  23.505  -0.508   6.790
   49XTA   CO11 5483  23.677  -0.349   6.708
   49XTA    OA7 5484  23.764  -0.411   6.748
   49XTA   HL46 5485  23.713  -0.299   6.621
   49XTA   HL47 5486  23.651  -0.277   6.785
   49XTA   HL48 5487  23.838  -1.709   6.785
   49XTA   HL49 5488  23.995  -1.712   6.704
   50XTH     NT 5489  27.922   3.314   4.818
   50XTH    CN1 5490  28.052   3.274   4.808
   50XTH     C1 5491  28.123   3.205   4.913
   50XTH     C2 5492  28.261   3.168   4.892
   50XTH     C3 5493  28.323   3.196   4.769
   50XTH     C4 5494  28.251   3.261   4.669
   50XTH     C5 5495  28.120   3.299   4.688
   50XTH    CN2 5496  27.907   3.444   4.850
   50XTH     C6 5497  27.936   3.496   4.978
   50XTH     C7 5498  27.946   3.640   5.000
   50XTH     C8 5499  27.911   3.730   4.899
   50XTH     C9 5500  27.864   3.678   4.779
   50XTH    C10 5501  27.871   3.541   4.752
   50XTH    CN3 5502  27.824   3.222   4.805
   50XTH    C11 5503  27.808   3.129   4.913
   50XTH    C12 5504  27.707   3.032   4.917
   50XTH    C13 5505  27.611   3.037   4.815
   50XTH    C14 5506  27.633   3.125   4.702
   50XTH    C15 5507  27.736   3.217   4.699
   50XTH     H1 5508  28.080   3.174   5.011
   50XTH     H2 5509  28.317   3.130   4.972
   50XTH     H3 5510  28.290   3.275   4.573
   50XTH     H4 5511  28.064   3.336   4.602
   50XTH     H5 5512  27.969   3.426   5.057
   50XTH     H6 5513  27.970   3.670   5.100
   50XTH     H7 5514  27.838   3.756   4.710
   50XTH     H8 5515  27.840   3.512   4.657
   50XTH     H9 5516  27.871   3.135   5.000
   50XTH    H10 5517  27.703   2.953   4.993
   50XTH    H11 5518  27.564   3.117   4.612
   50XTH    H12 5519  27.735   3.284   4.621
   50XTH    OA1 5520  28.458   3.168   4.755
   50XTH    CO1 5521  28.535   3.225   4.650
   50XTH    OA2 5522  27.904   3.870   4.921
   50XTH    CO2 5523  27.768   3.916   4.937
   50XTH    CL1 5524  27.736   4.038   5.027
   50XTH    CL2 5525  27.606   4.111   4.992
   50XTH    CL3 5526  27.483   4.024   5.022
   50XTH    CL4 5527  27.356   4.102   5.007
   50XTH    CO3 5528  27.245   4.002   4.989
   50XTH    OA3 5529  27.138   4.091   4.959
   50XTH    CO4 5530  27.010   4.026   4.976
   50XTH    CT1 5531  26.898   4.086   4.888
   50XTH    CL5 5532  26.905   4.249   4.895
   50XTH    CL6 5533  26.927   4.304   5.038
   50XTH    OA4 5534  27.500   2.950   4.820
   50XTH    CO5 5535  27.470   2.894   4.951
   50XTH    CL7 5536  27.326   2.841   4.964
   50XTH    CL8 5537  27.223   2.961   4.967
   50XTH    CL9 5538  27.082   2.909   4.973
   50XTH   CL10 5539  27.054   2.841   5.104
   50XTH    CO6 5540  26.900   2.850   5.128
   50XTH    OA5 5541  26.865   2.756   5.232
   50XTH    CO7 5542  26.845   2.625   5.181
   50XTH    CT2 5543  26.831   2.528   5.299
   50XTH   CL11 5544  26.715   2.569   5.398
   50XTH   CL12 5545  26.572   2.563   5.345
   50XTH    HL1 5546  28.518   3.170   4.559
   50XTH    HL2 5547  28.516   3.334   4.637
   50XTH    HL3 5548  28.642   3.216   4.678
   50XTH    HL4 5549  27.723   3.939   4.834
   50XTH    HL5 5550  27.713   3.826   4.984
   50XTH    HL6 5551  27.812   4.114   5.005
   50XTH    HL7 5552  27.745   4.018   5.135
   50XTH    HL8 5553  27.609   4.131   4.881
   50XTH    HL9 5554  27.599   4.214   5.041
   50XTH   HL10 5555  27.475   3.955   4.939
   50XTH   HL11 5556  27.500   3.972   5.114
   50XTH   HL12 5557  27.358   4.165   4.917
   50XTH   HL13 5558  27.345   4.155   5.099
   50XTH   HL14 5559  27.261   3.935   4.908
   50XTH   HL15 5560  27.227   3.940   5.080
   50XTH   HL16 5561  27.029   3.928   4.939
   50XTH   HL17 5562  26.982   4.026   5.084
   50XTH   HL18 5563  26.818   4.299   4.848
   50XTH   HL19 5564  26.990   4.277   4.836
   50XTH   HL20 5565  27.014   4.266   5.096
   50XTH   HL21 5566  26.836   4.302   5.100
   50XTH   HL22 5567  26.952   4.411   5.040
   50XTH   HL23 5568  27.483   2.964   5.031
   50XTH   HL24 5569  27.542   2.816   4.972
   50XTH   HL25 5570  27.299   2.775   4.882
   50XTH   HL26 5571  27.308   2.790   5.062
   50XTH   HL27 5572  27.248   3.036   5.038
   50XTH   HL28 5573  27.225   3.024   4.882
   50XTH   HL29 5574  27.013   2.992   4.959
   50XTH   HL30 5575  27.058   2.841   4.885
   50XTH   HL31 5576  27.094   2.739   5.108
   50XTH   HL32 5577  27.100   2.890   5.186
   50XTH   HL33 5578  26.878   2.953   5.172
   50XTH   HL34 5579  26.840   2.847   5.040
   50XTH   HL35 5580  26.928   2.602   5.117
   50XTH   HL36 5581  26.758   2.622   5.113
   50XTH   HL37 5582  26.736   2.670   5.427
   50XTH   HL38 5583  26.719   2.508   5.482
   50XTH   HL39 5584  26.522   2.608   5.429
   50XTH   HL40 5585  26.544   2.456   5.335
   50XTH   HL41 5586  26.551   2.603   5.244
   50XTH    CO8 5587  26.762   4.019   4.930
   50XTH    CO9 5588  26.925   4.047   4.743
   50XTH    OA6 5589  26.778   3.882   4.950
   50XTH   HL42 5590  26.684   4.035   4.854
   50XTH   HL43 5591  26.717   4.067   5.023
   50XTH   HL44 5592  27.053   2.489   5.305
   50XTH   HL45 5593  26.995   2.623   5.404
   50XTH   CO10 5594  26.965   2.522   5.368
   50XTH   CO11 5595  26.811   2.382   5.244
   50XTH    OA7 5596  26.959   2.464   5.456
   50XTH   HL46 5597  26.924   2.341   5.167
   50XTH   HL47 5598  26.804   2.315   5.331
   50XTH   HL48 5599  27.036   4.055   4.725
   50XTH   HL49 5600  26.894   3.947   4.720
   51XTA     NT 5601  24.121   3.607   2.517
   51XTA    CN1 5602  24.135   3.540   2.635
   51XTA     C1 5603  24.029   3.467   2.698
   51XTA     C2 5604  24.050   3.404   2.817
   51XTA     C3 5605  24.177   3.381   2.870
   51XTA     C4 5606  24.291   3.433   2.802
   51XTA     C5 5607  24.267   3.514   2.690
   51XTA    CN2 5608  24.187   3.724   2.498
   51XTA     C6 5609  24.314   3.724   2.433
   51XTA     C7 5610  24.388   3.843   2.419
   51XTA     C8 5611  24.333   3.968   2.459
   51XTA     C9 5612  24.207   3.970   2.517
   51XTA    C10 5613  24.140   3.849   2.544
   51XTA    CN3 5614  24.074   3.545   2.407
   51XTA    C11 5615  24.114   3.416   2.375
   51XTA    C12 5616  24.067   3.365   2.247
   51XTA    C13 5617  23.994   3.443   2.156
   51XTA    C14 5618  23.955   3.570   2.195
   51XTA    C15 5619  23.999   3.622   2.320
   51XTA     H1 5620  23.927   3.476   2.660
   51XTA     H2 5621  23.965   3.349   2.854
   51XTA     H3 5622  24.396   3.424   2.841
   51XTA     H4 5623  24.348   3.562   2.641
   51XTA     H5 5624  24.356   3.631   2.393
   51XTA     H6 5625  24.476   3.838   2.365
   51XTA     H7 5626  24.171   4.063   2.554
   51XTA     H8 5627  24.043   3.856   2.586
   51XTA     H9 5628  24.180   3.347   2.430
   51XTA    H10 5629  24.080   3.258   2.230
   51XTA    H11 5630  23.890   3.630   2.132
   51XTA    H12 5631  23.990   3.733   2.348
   51XTA    OA1 5632  24.194   3.313   2.984
   51XTA    CO1 5633  24.280   3.370   3.086
   51XTA    OA2 5634  24.400   4.084   2.438
   51XTA    CO2 5635  24.539   4.076   2.459
   51XTA    CL1 5636  24.595   4.217   2.422
   51XTA    CL2 5637  24.751   4.216   2.432
   51XTA    CL3 5638  24.824   4.334   2.388
   51XTA    CL4 5639  24.875   4.326   2.242
   51XTA    CO3 5640  24.966   4.440   2.206
   51XTA    OA3 5641  24.894   4.550   2.156
   51XTA    CO4 5642  24.969   4.668   2.152
   51XTA    CT1 5643  24.883   4.796   2.150
   51XTA    CL5 5644  24.792   4.801   2.277
   51XTA    CL6 5645  24.669   4.708   2.287
   51XTA    OA4 5646  23.949   3.395   2.036
   51XTA    CO5 5647  23.974   3.262   2.007
   51XTA    CL7 5648  23.906   3.231   1.873
   51XTA    CL8 5649  23.892   3.081   1.828
   51XTA    CL9 5650  23.833   3.062   1.687
   51XTA   CL10 5651  23.948   3.081   1.585
   51XTA    CO6 5652  23.925   3.030   1.443
   51XTA    OA5 5653  23.825   3.106   1.366
   51XTA    CO7 5654  23.694   3.108   1.405
   51XTA    CT2 5655  23.599   3.152   1.291
   51XTA   CL11 5656  23.646   3.282   1.227
   51XTA   CL12 5657  23.525   3.377   1.184
   51XTA    HL1 5658  24.386   3.371   3.044
   51XTA    HL2 5659  24.250   3.472   3.106
   51XTA    HL3 5660  24.281   3.325   3.187
   51XTA    HL4 5661  24.565   4.050   2.560
   51XTA    HL5 5662  24.577   3.999   2.397
   51XTA    HL6 5663  24.543   4.299   2.485
   51XTA    HL7 5664  24.570   4.241   2.319
   51XTA    HL8 5665  24.778   4.129   2.381
   51XTA    HL9 5666  24.778   4.201   2.539
   51XTA   HL10 5667  24.760   4.417   2.384
   51XTA   HL11 5668  24.912   4.354   2.447
   51XTA   HL12 5669  24.783   4.326   2.177
   51XTA   HL13 5670  24.936   4.239   2.223
   51XTA   HL14 5671  25.017   4.480   2.291
   51XTA   HL15 5672  25.045   4.407   2.133
   51XTA   HL16 5673  25.028   4.680   2.239
   51XTA   HL17 5674  25.044   4.659   2.075
   51XTA   HL18 5675  24.757   4.904   2.292
   51XTA   HL19 5676  24.858   4.786   2.368
   51XTA   HL20 5677  24.599   4.749   2.218
   51XTA   HL21 5678  24.624   4.702   2.391
   51XTA   HL22 5679  24.685   4.603   2.253
   51XTA   HL23 5680  23.925   3.201   2.086
   51XTA   HL24 5681  24.081   3.227   1.997
   51XTA   HL25 5682  23.809   3.269   1.891
   51XTA   HL26 5683  23.944   3.288   1.792
   51XTA   HL27 5684  23.989   3.038   1.847
   51XTA   HL28 5685  23.827   3.035   1.893
   51XTA   HL29 5686  23.799   2.960   1.688
   51XTA   HL30 5687  23.748   3.130   1.680
   51XTA   HL31 5688  23.963   3.187   1.596
   51XTA   HL32 5689  24.043   3.025   1.623
   51XTA   HL33 5690  24.020   3.043   1.396
   51XTA   HL34 5691  23.915   2.923   1.439
   51XTA   HL35 5692  23.689   3.184   1.484
   51XTA   HL36 5693  23.660   3.013   1.448
   51XTA   HL37 5694  23.704   3.264   1.139
   51XTA   HL38 5695  23.711   3.339   1.295
   51XTA   HL39 5696  23.564   3.464   1.135
   51XTA   HL40 5697  23.474   3.410   1.279
   51XTA   HL41 5698  23.445   3.323   1.124
   51XTA    CO8 5699  24.795   4.784   2.026
   51XTA    CO9 5700  24.969   4.917   2.138
   51XTA    OA6 5701  25.059   4.920   2.250
   51XTA   HL42 5702  24.738   4.693   2.035
   51XTA   HL43 5703  24.713   4.866   2.049
   51XTA   HL44 5704  23.385   3.171   1.285
   51XTA   HL45 5705  23.443   3.067   1.407
   51XTA   CO10 5706  23.463   3.158   1.360
   51XTA   CO11 5707  23.600   3.038   1.184
   51XTA    OA7 5708  23.454   3.264   1.451
   51XTA   HL46 5709  23.676   3.047   1.115
   51XTA   HL47 5710  23.515   3.058   1.122
   51XTA   HL48 5711  24.910   5.012   2.125
   51XTA   HL49 5712  25.032   4.912   2.048
   52XTA     NT 5713  26.603   5.288   7.028
   52XTA    CN1 5714  26.632   5.165   6.990
   52XTA     C1 5715  26.528   5.081   6.949
   52XTA     C2 5716  26.555   4.950   6.900
   52XTA     C3 5717  26.690   4.901   6.903
   52XTA     C4 5718  26.792   4.985   6.951
   52XTA     C5 5719  26.761   5.115   6.999
   52XTA    CN2 5720  26.581   5.375   6.932
   52XTA     C6 5721  26.452   5.388   6.871
   52XTA     C7 5722  26.446   5.471   6.755
   52XTA     C8 5723  26.550   5.563   6.729
   52XTA     C9 5724  26.670   5.557   6.798
   52XTA    C10 5725  26.688   5.457   6.894
   52XTA    CN3 5726  26.574   5.316   7.159
   52XTA    C11 5727  26.672   5.291   7.257
   52XTA    C12 5728  26.639   5.313   7.394
   52XTA    C13 5729  26.508   5.357   7.430
   52XTA    C14 5730  26.414   5.378   7.328
   52XTA    C15 5731  26.446   5.362   7.193
   52XTA     H1 5732  26.430   5.122   6.953
   52XTA     H2 5733  26.470   4.894   6.872
   52XTA     H3 5734  26.903   4.951   6.954
   52XTA     H4 5735  26.845   5.175   7.037
   52XTA     H5 5736  26.380   5.318   6.909
   52XTA     H6 5737  26.358   5.470   6.690
   52XTA     H7 5738  26.761   5.605   6.763
   52XTA     H8 5739  26.783   5.444   6.946
   52XTA     H9 5740  26.770   5.250   7.222
   52XTA    H10 5741  26.719   5.298   7.465
   52XTA    H11 5742  26.317   5.403   7.357
   52XTA    H12 5743  26.370   5.387   7.124
   52XTA    OA1 5744  26.719   4.771   6.861
   52XTA    CO1 5745  26.611   4.681   6.825
   52XTA    OA2 5746  26.541   5.658   6.630
   52XTA    CO2 5747  26.410   5.695   6.593
   52XTA    CL1 5748  26.424   5.826   6.516
   52XTA    CL2 5749  26.292   5.910   6.498
   52XTA    CL3 5750  26.237   5.981   6.627
   52XTA    CL4 5751  26.187   6.119   6.583
   52XTA    CO3 5752  26.306   6.223   6.574
   52XTA    OA3 5753  26.263   6.340   6.507
   52XTA    CO4 5754  26.371   6.417   6.478
   52XTA    CT1 5755  26.342   6.559   6.423
   52XTA    CL5 5756  26.311   6.545   6.274
   52XTA    CL6 5757  26.186   6.453   6.248
   52XTA    OA4 5758  26.468   5.373   7.561
   52XTA    CO5 5759  26.559   5.324   7.659
   52XTA    CL7 5760  26.518   5.367   7.804
   52XTA    CL8 5761  26.620   5.340   7.920
   52XTA    CL9 5762  26.569   5.418   8.047
   52XTA   CL10 5763  26.605   5.568   8.035
   52XTA    CO6 5764  26.596   5.655   8.161
   52XTA    OA5 5765  26.707   5.621   8.252
   52XTA    CO7 5766  26.836   5.657   8.208
   52XTA    CT2 5767  26.941   5.549   8.236
   52XTA   CL11 5768  26.951   5.529   8.385
   52XTA   CL12 5769  26.972   5.648   8.483
   52XTA    HL1 5770  26.552   4.709   6.740
   52XTA    HL2 5771  26.663   4.587   6.800
   52XTA    HL3 5772  26.536   4.676   6.904
   52XTA    HL4 5773  26.376   5.618   6.518
   52XTA    HL5 5774  26.349   5.714   6.680
   52XTA    HL6 5775  26.461   5.799   6.416
   52XTA    HL7 5776  26.506   5.888   6.558
   52XTA    HL8 5777  26.212   5.847   6.452
   52XTA    HL9 5778  26.314   5.989   6.435
   52XTA   HL10 5779  26.159   5.922   6.664
   52XTA   HL11 5780  26.310   5.994   6.703
   52XTA   HL12 5781  26.118   6.156   6.662
   52XTA   HL13 5782  26.128   6.112   6.486
   52XTA   HL14 5783  26.335   6.249   6.678
   52XTA   HL15 5784  26.392   6.173   6.516
   52XTA   HL16 5785  26.440   6.426   6.563
   52XTA   HL17 5786  26.430   6.365   6.402
   52XTA   HL18 5787  26.389   6.504   6.216
   52XTA   HL19 5788  26.301   6.644   6.230
   52XTA   HL20 5789  26.166   6.463   6.142
   52XTA   HL21 5790  26.091   6.479   6.296
   52XTA   HL22 5791  26.212   6.346   6.260
   52XTA   HL23 5792  26.655   5.375   7.654
   52XTA   HL24 5793  26.581   5.218   7.642
   52XTA   HL25 5794  26.504   5.480   7.791
   52XTA   HL26 5795  26.424   5.313   7.828
   52XTA   HL27 5796  26.618   5.234   7.938
   52XTA   HL28 5797  26.727   5.380   7.897
   52XTA   HL29 5798  26.462   5.402   8.049
   52XTA   HL30 5799  26.616   5.369   8.134
   52XTA   HL31 5800  26.690   5.584   7.968
   52XTA   HL32 5801  26.530   5.614   7.970
   52XTA   HL33 5802  26.602   5.759   8.139
   52XTA   HL34 5803  26.500   5.634   8.212
   52XTA   HL35 5804  26.863   5.748   8.258
   52XTA   HL36 5805  26.829   5.688   8.098
   52XTA   HL37 5806  27.045   5.470   8.395
   52XTA   HL38 5807  26.873   5.461   8.415
   52XTA   HL39 5808  26.879   5.695   8.495
   52XTA   HL40 5809  27.040   5.723   8.448
   52XTA   HL41 5810  27.012   5.623   8.583
   52XTA    CO8 5811  26.468   6.645   6.423
   52XTA    CO9 5812  26.242   6.635   6.511
   52XTA    OA6 5813  26.186   6.762   6.465
   52XTA   HL42 5814  26.560   6.581   6.401
   52XTA   HL43 5815  26.449   6.727   6.351
   52XTA   HL44 5816  27.095   5.709   8.207
   52XTA   HL45 5817  27.158   5.563   8.250
   52XTA   CO10 5818  27.076   5.602   8.184
   52XTA   CO11 5819  26.917   5.416   8.157
   52XTA    OA7 5820  27.113   5.585   8.051
   52XTA   HL46 5821  26.905   5.433   8.046
   52XTA   HL47 5822  26.827   5.374   8.193
   52XTA   HL48 5823  26.280   6.660   6.611
   52XTA   HL49 5824  26.158   6.563   6.536
   53XTA     NT 5825  22.071   3.094   1.717
   53XTA    CN1 5826  21.988   2.989   1.721
   53XTA     C1 5827  21.859   2.989   1.662
   53XTA     C2 5828  21.779   2.873   1.657
   53XTA     C3 5829  21.829   2.753   1.714
   53XTA     C4 5830  21.951   2.753   1.774
   53XTA     C5 5831  22.038   2.868   1.771
   53XTA    CN2 5832  22.017   3.211   1.775
   53XTA     C6 5833  21.977   3.199   1.910
   53XTA     C7 5834  21.916   3.307   1.973
   53XTA     C8 5835  21.904   3.438   1.910
   53XTA     C9 5836  21.940   3.447   1.772
   53XTA    C10 5837  22.000   3.337   1.714
   53XTA    CN3 5838  22.172   3.118   1.629
   53XTA    C11 5839  22.303   3.138   1.675
   53XTA    C12 5840  22.415   3.137   1.592
   53XTA    C13 5841  22.391   3.122   1.451
   53XTA    C14 5842  22.258   3.108   1.408
   53XTA    C15 5843  22.152   3.102   1.497
   53XTA     H1 5844  21.809   3.083   1.626
   53XTA     H2 5845  21.683   2.882   1.607
   53XTA     H3 5846  21.983   2.664   1.827
   53XTA     H4 5847  22.148   2.875   1.805
   53XTA     H5 5848  21.994   3.103   1.954
   53XTA     H6 5849  21.879   3.297   2.072
   53XTA     H7 5850  21.922   3.539   1.718
   53XTA     H8 5851  22.019   3.342   1.612
   53XTA     H9 5852  22.318   3.169   1.781
   53XTA    H10 5853  22.518   3.160   1.628
   53XTA    H11 5854  22.228   3.091   1.302
   53XTA    H12 5855  22.050   3.094   1.467
   53XTA    OA1 5856  21.765   2.634   1.709
   53XTA    CO1 5857  21.653   2.615   1.625
   53XTA    OA2 5858  21.846   3.543   1.981
   53XTA    CO2 5859  21.824   3.663   1.903
   53XTA    CL1 5860  21.751   3.772   1.980
   53XTA    CL2 5861  21.840   3.817   2.098
   53XTA    CL3 5862  21.968   3.877   2.042
   53XTA    CL4 5863  22.021   3.967   2.152
   53XTA    CO3 5864  22.154   4.023   2.112
   53XTA    OA3 5865  22.199   4.118   2.204
   53XTA    CO4 5866  22.254   4.056   2.321
   53XTA    CT1 5867  22.308   4.161   2.424
   53XTA    CL5 5868  22.422   4.252   2.367
   53XTA    CL6 5869  22.522   4.189   2.268
   53XTA    OA4 5870  22.490   3.130   1.351
   53XTA    CO5 5871  22.615   3.180   1.385
   53XTA    CL7 5872  22.712   3.167   1.268
   53XTA    CL8 5873  22.828   3.265   1.259
   53XTA    CL9 5874  22.946   3.232   1.357
   53XTA   CL10 5875  22.901   3.228   1.504
   53XTA    CO6 5876  23.018   3.222   1.612
   53XTA    OA5 5877  23.068   3.353   1.588
   53XTA    CO7 5878  23.165   3.398   1.678
   53XTA    CT2 5879  23.297   3.422   1.597
   53XTA   CL11 5880  23.276   3.539   1.504
   53XTA   CL12 5881  23.146   3.556   1.419
   53XTA    HL1 5882  21.639   2.505   1.625
   53XTA    HL2 5883  21.560   2.652   1.671
   53XTA    HL3 5884  21.659   2.649   1.519
   53XTA    HL4 5885  21.915   3.701   1.864
   53XTA    HL5 5886  21.763   3.633   1.817
   53XTA    HL6 5887  21.662   3.728   2.014
   53XTA    HL7 5888  21.727   3.852   1.909
   53XTA    HL8 5889  21.871   3.733   2.154
   53XTA    HL9 5890  21.789   3.882   2.167
   53XTA   HL10 5891  22.042   3.809   2.003
   53XTA   HL11 5892  21.951   3.945   1.958
   53XTA   HL12 5893  22.048   3.905   2.231
   53XTA   HL13 5894  21.955   4.050   2.173
   53XTA   HL14 5895  22.224   3.936   2.104
   53XTA   HL15 5896  22.151   4.072   2.019
   53XTA   HL16 5897  22.179   3.997   2.374
   53XTA   HL17 5898  22.344   3.997   2.286
   53XTA   HL18 5899  22.478   4.299   2.442
   53XTA   HL19 5900  22.364   4.329   2.320
   53XTA   HL20 5901  22.580   4.110   2.313
   53XTA   HL21 5902  22.594   4.269   2.231
   53XTA   HL22 5903  22.469   4.133   2.183
   53XTA   HL23 5904  22.650   3.119   1.463
   53XTA   HL24 5905  22.590   3.280   1.410
   53XTA   HL25 5906  22.748   3.071   1.273
   53XTA   HL26 5907  22.654   3.180   1.181
   53XTA   HL27 5908  22.876   3.250   1.161
   53XTA   HL28 5909  22.801   3.371   1.263
   53XTA   HL29 5910  22.990   3.134   1.330
   53XTA   HL30 5911  23.025   3.313   1.349
   53XTA   HL31 5912  22.821   3.306   1.527
   53XTA   HL32 5913  22.852   3.132   1.518
   53XTA   HL33 5914  22.978   3.213   1.711
   53XTA   HL34 5915  23.084   3.142   1.591
   53XTA   HL35 5916  23.183   3.337   1.764
   53XTA   HL36 5917  23.141   3.483   1.734
   53XTA   HL37 5918  23.366   3.536   1.437
   53XTA   HL38 5919  23.278   3.625   1.559
   53XTA   HL39 5920  23.143   3.486   1.334
   53XTA   HL40 5921  23.149   3.654   1.366
   53XTA   HL41 5922  23.055   3.542   1.481
   53XTA    CO8 5923  22.359   4.080   2.550
   53XTA    CO9 5924  22.185   4.240   2.482
   53XTA    OA6 5925  22.366   4.147   2.639
   53XTA   HL42 5926  22.458   4.036   2.533
   53XTA   HL43 5927  22.293   3.986   2.565
   53XTA   HL44 5928  23.333   3.180   1.602
   53XTA   HL45 5929  23.258   3.275   1.440
   53XTA   CO10 5930  23.334   3.293   1.516
   53XTA   CO11 5931  23.410   3.457   1.699
   53XTA    OA7 5932  23.497   3.496   1.645
   53XTA   HL46 5933  23.379   3.538   1.771
   53XTA   HL47 5934  23.444   3.373   1.762
   53XTA   HL48 5935  22.221   4.323   2.588
   53XTA   HL49 5936  22.151   4.310   2.402
   54XTA     NT 5937  26.516   0.616   3.389
   54XTA    CN1 5938  26.629   0.653   3.330
   54XTA     C1 5939  26.738   0.691   3.396
   54XTA     C2 5940  26.844   0.758   3.342
   54XTA     C3 5941  26.847   0.774   3.197
   54XTA     C4 5942  26.735   0.733   3.119
   54XTA     C5 5943  26.626   0.679   3.192
   54XTA    CN2 5944  26.523   0.501   3.458
   54XTA     C6 5945  26.558   0.382   3.392
   54XTA     C7 5946  26.566   0.255   3.462
   54XTA     C8 5947  26.537   0.253   3.598
   54XTA     C9 5948  26.506   0.373   3.662
   54XTA    C10 5949  26.501   0.496   3.597
   54XTA    CN3 5950  26.407   0.702   3.390
   54XTA    C11 5951  26.281   0.671   3.336
   54XTA    C12 5952  26.184   0.775   3.344
   54XTA    C13 5953  26.199   0.893   3.421
   54XTA    C14 5954  26.324   0.919   3.485
   54XTA    C15 5955  26.424   0.824   3.464
   54XTA     H1 5956  26.741   0.684   3.500
   54XTA     H2 5957  26.917   0.800   3.415
   54XTA     H3 5958  26.713   0.753   3.017
   54XTA     H4 5959  26.536   0.657   3.137
   54XTA     H5 5960  26.574   0.391   3.288
   54XTA     H6 5961  26.586   0.158   3.406
   54XTA     H7 5962  26.469   0.359   3.765
   54XTA     H8 5963  26.460   0.584   3.647
   54XTA     H9 5964  26.254   0.582   3.287
   54XTA    H10 5965  26.085   0.769   3.293
   54XTA    H11 5966  26.337   1.013   3.546
   54XTA    H12 5967  26.519   0.829   3.511
   54XTA    OA1 5968  26.955   0.837   3.135
   54XTA    CO1 5969  27.046   0.899   3.223
   54XTA    OA2 5970  26.535   0.139   3.673
   54XTA    CO2 5971  26.662   0.070   3.662
   54XTA    CL1 5972  26.655  -0.039   3.769
   54XTA    CL2 5973  26.657   0.016   3.916
   54XTA    CL3 5974  26.579  -0.074   4.009
   54XTA    CL4 5975  26.453  -0.010   4.063
   54XTA    CO3 5976  26.344   0.037   3.969
   54XTA    OA3 5977  26.253   0.109   4.038
   54XTA    CO4 5978  26.133   0.112   3.964
   54XTA    CT1 5979  26.047   0.231   4.018
   54XTA    CL5 5980  26.120   0.349   4.080
   54XTA    CL6 5981  26.035   0.470   4.119
   54XTA    OA4 5982  26.102   0.986   3.437
   54XTA    CO5 5983  25.967   0.952   3.398
   54XTA    CL7 5984  25.877   1.066   3.443
   54XTA    CL8 5985  25.930   1.197   3.376
   54XTA    CL9 5986  25.915   1.189   3.223
   54XTA   CL10 5987  25.927   1.321   3.147
   54XTA    CO6 5988  25.885   1.306   2.998
   54XTA    OA5 5989  25.768   1.229   2.977
   54XTA    CO7 5990  25.715   1.246   2.849
   54XTA    CT2 5991  25.590   1.159   2.849
   54XTA   CL11 5992  25.625   1.010   2.862
   54XTA   CL12 5993  25.731   0.942   2.773
   54XTA    HL1 5994  27.097   0.829   3.291
   54XTA    HL2 5995  27.120   0.939   3.165
   54XTA    HL3 5996  27.003   0.970   3.286
   54XTA    HL4 5997  26.677   0.020   3.566
   54XTA    HL5 5998  26.735   0.143   3.678
   54XTA    HL6 5999  26.729  -0.118   3.746
   54XTA    HL7 6000  26.561  -0.087   3.761
   54XTA    HL8 6001  26.606   0.108   3.919
   54XTA    HL9 6002  26.762   0.029   3.942
   54XTA   HL10 6003  26.559  -0.166   3.953
   54XTA   HL11 6004  26.640  -0.108   4.096
   54XTA   HL12 6005  26.471   0.073   4.134
   54XTA   HL13 6006  26.407  -0.089   4.128
   54XTA   HL14 6007  26.410   0.103   3.905
   54XTA   HL15 6008  26.304  -0.040   3.908
   54XTA   HL16 6009  26.147   0.120   3.855
   54XTA   HL17 6010  26.091   0.008   3.988
   54XTA   HL18 6011  26.189   0.369   3.999
   54XTA   HL19 6012  26.181   0.315   4.165
   54XTA   HL20 6013  25.958   0.493   4.047
   54XTA   HL21 6014  26.097   0.554   4.130
   54XTA   HL22 6015  25.994   0.444   4.214
   54XTA   HL23 6016  25.947   0.848   3.441
   54XTA   HL24 6017  25.963   0.948   3.286
   54XTA   HL25 6018  25.773   1.055   3.410
   54XTA   HL26 6019  25.888   1.075   3.553
   54XTA   HL27 6020  25.864   1.282   3.395
   54XTA   HL28 6021  26.035   1.219   3.403
   54XTA   HL29 6022  25.991   1.120   3.180
   54XTA   HL30 6023  25.814   1.142   3.198
   54XTA   HL31 6024  25.865   1.395   3.184
   54XTA   HL32 6025  26.020   1.374   3.141
   54XTA   HL33 6026  25.878   1.406   2.961
   54XTA   HL34 6027  25.959   1.258   2.926
   54XTA   HL35 6028  25.780   1.213   2.772
   54XTA   HL36 6029  25.691   1.351   2.828
   54XTA   HL37 6030  25.536   0.953   2.848
   54XTA   HL38 6031  25.645   1.001   2.971
   54XTA   HL39 6032  25.689   0.919   2.673
   54XTA   HL40 6033  25.750   0.845   2.815
   54XTA   HL41 6034  25.827   0.990   2.784
   54XTA    CO8 6035  25.947   0.184   4.127
   54XTA    CO9 6036  25.956   0.278   3.899
   54XTA    OA6 6037  26.013   0.127   4.238
   54XTA   HL42 6038  25.897   0.103   4.082
   54XTA   HL43 6039  25.886   0.269   4.164
   54XTA   HL44 6040  25.485   1.318   2.700
   54XTA   HL45 6041  25.590   1.172   2.632
   54XTA   CO10 6042  25.520   1.177   2.715
   54XTA   CO11 6043  25.499   1.206   2.961
   54XTA    OA7 6044  25.462   1.310   2.966
   54XTA   HL46 6045  25.412   1.141   2.962
   54XTA   HL47 6046  25.547   1.174   3.052
   54XTA   HL48 6047  25.892   0.192   3.884
   54XTA   HL49 6048  25.891   0.366   3.924
   55XTA     NT 6049  23.885   4.666   3.034
   55XTA    CN1 6050  23.885   4.584   2.922
   55XTA     C1 6051  23.952   4.457   2.923
   55XTA     C2 6052  23.956   4.377   2.809
   55XTA     C3 6053  23.900   4.426   2.695
   55XTA     C4 6054  23.829   4.545   2.691
   55XTA     C5 6055  23.820   4.627   2.806
   55XTA    CN2 6056  23.774   4.670   3.107
   55XTA     C6 6057  23.765   4.595   3.226
   55XTA     C7 6058  23.646   4.614   3.307
   55XTA     C8 6059  23.559   4.715   3.280
   55XTA     C9 6060  23.566   4.793   3.162
   55XTA    C10 6061  23.672   4.762   3.078
   55XTA    CN3 6062  23.976   4.760   3.052
   55XTA    C11 6063  23.960   4.873   2.971
   55XTA    C12 6064  24.052   4.979   2.981
   55XTA    C13 6065  24.167   4.966   3.057
   55XTA    C14 6066  24.183   4.851   3.136
   55XTA    C15 6067  24.088   4.745   3.136
   55XTA     H1 6068  23.996   4.420   3.014
   55XTA     H2 6069  24.008   4.287   2.803
   55XTA     H3 6070  23.777   4.581   2.603
   55XTA     H4 6071  23.760   4.720   2.810
   55XTA     H5 6072  23.851   4.525   3.252
   55XTA     H6 6073  23.637   4.555   3.399
   55XTA     H7 6074  23.488   4.866   3.131
   55XTA     H8 6075  23.687   4.821   2.983
   55XTA     H9 6076  23.877   4.883   2.897
   55XTA    H10 6077  24.029   5.068   2.924
   55XTA    H11 6078  24.264   4.829   3.203
   55XTA    H12 6079  24.107   4.655   3.188
   55XTA    OA1 6080  23.909   4.353   2.575
   55XTA    CO1 6081  24.012   4.258   2.555
   55XTA    OA2 6082  23.450   4.747   3.359
   55XTA    CO2 6083  23.389   4.642   3.426
   55XTA    CL1 6084  23.302   4.570   3.320
   55XTA    CL2 6085  23.212   4.675   3.244
   55XTA    CL3 6086  23.078   4.628   3.199
   55XTA    CL4 6087  23.010   4.717   3.099
   55XTA    CO3 6088  22.934   4.832   3.174
   55XTA    OA3 6089  23.028   4.898   3.259
   55XTA    CO4 6090  22.976   5.007   3.330
   55XTA    CT1 6091  23.062   5.030   3.465
   55XTA    CL5 6092  23.001   5.157   3.524
   55XTA    CL6 6093  22.864   5.136   3.589
   55XTA    OA4 6094  24.258   5.070   3.050
   55XTA    CO5 6095  24.368   5.071   3.142
   55XTA    CL7 6096  24.477   4.978   3.083
   55XTA    CL8 6097  24.588   4.943   3.185
   55XTA    CL9 6098  24.542   4.841   3.293
   55XTA   CL10 6099  24.514   4.702   3.224
   55XTA    CO6 6100  24.490   4.575   3.307
   55XTA    OA5 6101  24.360   4.576   3.364
   55XTA    CO7 6102  24.344   4.654   3.477
   55XTA    CT2 6103  24.234   4.604   3.576
   55XTA   CL11 6104  24.104   4.589   3.496
   55XTA   CL12 6105  23.981   4.576   3.590
   55XTA    HL1 6106  23.992   4.184   2.637
   55XTA    HL2 6107  23.998   4.202   2.463
   55XTA    HL3 6108  24.107   4.312   2.557
   55XTA    HL4 6109  23.456   4.574   3.485
   55XTA    HL5 6110  23.324   4.673   3.508
   55XTA    HL6 6111  23.245   4.495   3.378
   55XTA    HL7 6112  23.368   4.519   3.241
   55XTA    HL8 6113  23.264   4.710   3.154
   55XTA    HL9 6114  23.191   4.768   3.303
   55XTA   HL10 6115  23.107   4.529   3.150
   55XTA   HL11 6116  23.014   4.578   3.278
   55XTA   HL12 6117  22.942   4.663   3.036
   55XTA   HL13 6118  23.082   4.759   3.034
   55XTA   HL14 6119  22.908   4.905   3.093
   55XTA   HL15 6120  22.861   4.770   3.231
   55XTA   HL16 6121  22.982   5.098   3.275
   55XTA   HL17 6122  22.877   4.979   3.372
   55XTA   HL18 6123  22.985   5.230   3.447
   55XTA   HL19 6124  23.073   5.209   3.595
   55XTA   HL20 6125  22.856   5.065   3.669
   55XTA   HL21 6126  22.796   5.116   3.513
   55XTA   HL22 6127  22.824   5.231   3.624
   55XTA   HL23 6128  24.326   5.027   3.234
   55XTA   HL24 6129  24.401   5.172   3.154
   55XTA   HL25 6130  24.444   4.888   3.028
   55XTA   HL26 6131  24.535   5.027   3.004
   55XTA   HL27 6132  24.681   4.892   3.131
   55XTA   HL28 6133  24.628   5.032   3.237
   55XTA   HL29 6134  24.620   4.830   3.364
   55XTA   HL30 6135  24.450   4.878   3.337
   55XTA   HL31 6136  24.422   4.716   3.166
   55XTA   HL32 6137  24.585   4.692   3.145
   55XTA   HL33 6138  24.479   4.487   3.241
   55XTA   HL34 6139  24.557   4.549   3.385
   55XTA   HL35 6140  24.334   4.753   3.444
   55XTA   HL36 6141  24.437   4.658   3.527
   55XTA   HL37 6142  24.108   4.510   3.422
   55XTA   HL38 6143  24.099   4.676   3.443
   55XTA   HL39 6144  23.892   4.575   3.523
   55XTA   HL40 6145  23.965   4.651   3.665
   55XTA   HL41 6146  23.986   4.475   3.635
   55XTA    CO8 6147  23.212   5.062   3.429
   55XTA    CO9 6148  23.071   4.914   3.570
   55XTA    OA6 6149  23.272   5.102   3.521
   55XTA   HL42 6150  23.221   5.127   3.341
   55XTA   HL43 6151  23.262   4.971   3.391
   55XTA   HL44 6152  24.138   4.690   3.756
   55XTA   HL45 6153  24.309   4.708   3.751
   55XTA   CO10 6154  24.215   4.710   3.686
   55XTA   CO11 6155  24.283   4.463   3.636
   55XTA    OA7 6156  24.410   4.482   3.692
   55XTA   HL46 6157  24.215   4.436   3.718
   55XTA   HL47 6158  24.270   4.383   3.565
   55XTA   HL48 6159  23.095   4.795   3.519
   55XTA   HL49 6160  22.960   4.896   3.579
   56XTA     NT 6161  25.811   6.996   0.933
   56XTA    CN1 6162  25.708   7.001   1.026
   56XTA     C1 6163  25.670   6.890   1.101
   56XTA     C2 6164  25.556   6.886   1.179
   56XTA     C3 6165  25.480   7.002   1.192
   56XTA     C4 6166  25.515   7.123   1.113
   56XTA     C5 6167  25.632   7.119   1.027
   56XTA    CN2 6168  25.937   6.969   0.974
   56XTA     C6 6169  26.035   7.070   0.988
   56XTA     C7 6170  26.169   7.032   1.024
   56XTA     C8 6171  26.195   6.899   1.063
   56XTA     C9 6172  26.093   6.802   1.064
   56XTA    C10 6173  25.974   6.838   1.009
   56XTA    CN3 6174  25.781   6.986   0.804
   56XTA    C11 6175  25.757   6.853   0.763
   56XTA    C12 6176  25.718   6.840   0.627
   56XTA    C13 6177  25.740   6.951   0.533
   56XTA    C14 6178  25.769   7.082   0.585
   56XTA    C15 6179  25.780   7.099   0.720
   56XTA     H1 6180  25.735   6.803   1.115
   56XTA     H2 6181  25.538   6.796   1.233
   56XTA     H3 6182  25.451   7.211   1.121
   56XTA     H4 6183  25.653   7.204   0.964
   56XTA     H5 6184  26.013   7.173   0.957
   56XTA     H6 6185  26.254   7.097   1.023
   56XTA     H7 6186  26.114   6.701   1.096
   56XTA     H8 6187  25.902   6.763   0.990
   56XTA     H9 6188  25.742   6.772   0.843
   56XTA    H10 6189  25.677   6.748   0.598
   56XTA    H11 6190  25.791   7.169   0.526
   56XTA    H12 6191  25.788   7.201   0.763
   56XTA    OA1 6192  25.363   7.003   1.266
   56XTA    CO1 6193  25.307   6.875   1.291
   56XTA    OA2 6194  26.326   6.859   1.076
   56XTA    CO2 6195  26.359   6.768   1.174
   56XTA    CL1 6196  26.467   6.669   1.127
   56XTA    CL2 6197  26.434   6.588   1.007
   56XTA    CL3 6198  26.562   6.533   0.934
   56XTA    CL4 6199  26.538   6.400   0.872
   56XTA    CO3 6200  26.666   6.341   0.805
   56XTA    OA3 6201  26.770   6.316   0.901
   56XTA    CO4 6202  26.752   6.180   0.950
   56XTA    CT1 6203  26.845   6.163   1.072
   56XTA    CL5 6204  26.830   6.281   1.171
   56XTA    CL6 6205  26.710   6.279   1.268
   56XTA    OA4 6206  25.728   6.938   0.398
   56XTA    CO5 6207  25.673   6.822   0.354
   56XTA    CL7 6208  25.646   6.827   0.203
   56XTA    CL8 6209  25.571   6.702   0.156
   56XTA    CL9 6210  25.505   6.724   0.023
   56XTA   CL10 6211  25.423   6.601  -0.026
   56XTA    CO6 6212  25.393   6.617  -0.180
   56XTA    OA5 6213  25.323   6.742  -0.201
   56XTA    CO7 6214  25.282   6.762  -0.332
   56XTA    CT2 6215  25.331   6.895  -0.402
   56XTA   CL11 6216  25.486   6.915  -0.391
   56XTA   CL12 6217  25.574   6.825  -0.476
   56XTA    HL1 6218  25.271   6.821   1.204
   56XTA    HL2 6219  25.366   6.805   1.349
   56XTA    HL3 6220  25.210   6.887   1.341
   56XTA    HL4 6221  26.398   6.840   1.248
   56XTA    HL5 6222  26.271   6.718   1.211
   56XTA    HL6 6223  26.508   6.606   1.209
   56XTA    HL7 6224  26.556   6.725   1.089
   56XTA    HL8 6225  26.385   6.649   0.936
   56XTA    HL9 6226  26.368   6.504   1.035
   56XTA   HL10 6227  26.592   6.611   0.855
   56XTA   HL11 6228  26.647   6.530   1.006
   56XTA   HL12 6229  26.460   6.394   0.798
   56XTA   HL13 6230  26.515   6.326   0.944
   56XTA   HL14 6231  26.644   6.255   0.740
   56XTA   HL15 6232  26.711   6.423   0.753
   56XTA   HL16 6233  26.649   6.157   0.983
   56XTA   HL17 6234  26.785   6.103   0.883
   56XTA   HL18 6235  26.833   6.379   1.123
   56XTA   HL19 6236  26.922   6.279   1.231
   56XTA   HL20 6237  26.612   6.281   1.217
   56XTA   HL21 6238  26.712   6.354   1.353
   56XTA   HL22 6239  26.710   6.190   1.326
   56XTA   HL23 6240  25.579   6.815   0.401
   56XTA   HL24 6241  25.733   6.735   0.381
   56XTA   HL25 6242  25.587   6.912   0.184
   56XTA   HL26 6243  25.739   6.845   0.153
   56XTA   HL27 6244  25.643   6.620   0.152
   56XTA   HL28 6245  25.498   6.687   0.234
   56XTA   HL29 6246  25.432   6.804   0.029
   56XTA   HL30 6247  25.565   6.762  -0.056
   56XTA   HL31 6248  25.483   6.505  -0.020
   56XTA   HL32 6249  25.335   6.587   0.043
   56XTA   HL33 6250  25.490   6.612  -0.227
   56XTA   HL34 6251  25.326   6.533  -0.208
   56XTA   HL35 6252  25.181   6.777  -0.326
   56XTA   HL36 6253  25.303   6.670  -0.394
   56XTA   HL37 6254  25.524   6.916  -0.291
   56XTA   HL38 6255  25.501   7.015  -0.435
   56XTA   HL39 6256  25.579   6.861  -0.578
   56XTA   HL40 6257  25.522   6.733  -0.462
   56XTA   HL41 6258  25.673   6.794  -0.447
   56XTA    CO8 6259  26.991   6.166   1.014
   56XTA    CO9 6260  26.836   6.026   1.138
   56XTA    OA6 6261  26.729   5.999   1.148
   56XTA   HL42 6262  27.015   6.269   0.978
   56XTA   HL43 6263  27.010   6.087   0.898
   56XTA   HL44 6264  25.290   7.097  -0.418
   56XTA   HL45 6265  25.161   7.015  -0.333
   56XTA   CO10 6266  25.268   7.020  -0.345
   56XTA   CO11 6267  25.297   6.893  -0.551
   56XTA    OA7 6268  25.329   7.058  -0.224
   56XTA   HL46 6269  25.318   6.792  -0.590
   56XTA   HL47 6270  25.362   6.960  -0.612
   56XTA   HL48 6271  26.873   6.039   1.237
   56XTA   HL49 6272  26.902   5.947   1.088
   57XTA     NT 6273  26.646   3.991   7.725
   57XTA    CN1 6274  26.558   3.968   7.616
   57XTA     C1 6275  26.449   4.056   7.605
   57XTA     C2 6276  26.357   4.039   7.500
   57XTA     C3 6277  26.379   3.937   7.404
   57XTA     C4 6278  26.485   3.850   7.420
   57XTA     C5 6279  26.571   3.860   7.528
   57XTA    CN2 6280  26.646   3.898   7.824
   57XTA     C6 6281  26.732   3.789   7.806
   57XTA     C7 6282  26.733   3.687   7.905
   57XTA     C8 6283  26.641   3.690   8.012
   57XTA     C9 6284  26.551   3.798   8.023
   57XTA    C10 6285  26.557   3.901   7.928
   57XTA    CN3 6286  26.709   4.106   7.736
   57XTA    C11 6287  26.842   4.116   7.696
   57XTA    C12 6288  26.919   4.228   7.722
   57XTA    C13 6289  26.863   4.340   7.778
   57XTA    C14 6290  26.733   4.331   7.824
   57XTA    C15 6291  26.659   4.215   7.801
   57XTA     H1 6292  26.435   4.134   7.673
   57XTA     H2 6293  26.271   4.111   7.488
   57XTA     H3 6294  26.492   3.763   7.355
   57XTA     H4 6295  26.655   3.794   7.537
   57XTA     H5 6296  26.792   3.779   7.716
   57XTA     H6 6297  26.802   3.604   7.890
   57XTA     H7 6298  26.479   3.791   8.101
   57XTA     H8 6299  26.487   3.977   7.933
   57XTA     H9 6300  26.883   4.033   7.650
   57XTA    H10 6301  27.017   4.233   7.691
   57XTA    H11 6302  26.686   4.415   7.875
   57XTA    H12 6303  26.561   4.212   7.840
   57XTA    OA1 6304  26.294   3.941   7.302
   57XTA    CO1 6305  26.338   3.881   7.177
   57XTA    OA2 6306  26.631   3.584   8.103
   57XTA    CO2 6307  26.702   3.461   8.084
   57XTA    CL1 6308  26.648   3.357   8.186
   57XTA    CL2 6309  26.694   3.369   8.332
   57XTA    CL3 6310  26.825   3.288   8.362
   57XTA    CL4 6311  26.911   3.347   8.478
   57XTA    CO3 6312  27.060   3.329   8.461
   57XTA    OA3 6313  27.107   3.370   8.334
   57XTA    CO4 6314  27.231   3.301   8.314
   57XTA    CT1 6315  27.285   3.338   8.177
   57XTA    CL5 6316  27.318   3.489   8.158
   57XTA    CL6 6317  27.435   3.532   8.250
   57XTA    OA4 6318  26.934   4.457   7.785
   57XTA    CO5 6319  26.858   4.574   7.785
   57XTA    CL7 6320  26.931   4.698   7.752
   57XTA    CL8 6321  26.846   4.822   7.794
   57XTA    CL9 6322  26.710   4.816   7.735
   57XTA   CL10 6323  26.610   4.922   7.760
   57XTA    CO6 6324  26.560   4.921   7.904
   57XTA    OA5 6325  26.441   5.002   7.905
   57XTA    CO7 6326  26.369   4.976   8.022
   57XTA    CT2 6327  26.223   5.019   8.009
   57XTA   CL11 6328  26.208   5.157   7.952
   57XTA   CL12 6329  26.083   5.229   7.967
   57XTA    HL1 6330  26.351   3.773   7.183
   57XTA    HL2 6331  26.257   3.885   7.106
   57XTA    HL3 6332  26.435   3.927   7.140
   57XTA    HL4 6333  26.688   3.423   7.984
   57XTA    HL5 6334  26.814   3.466   8.096
   57XTA    HL6 6335  26.664   3.255   8.152
   57XTA    HL7 6336  26.542   3.369   8.178
   57XTA    HL8 6337  26.610   3.333   8.396
   57XTA    HL9 6338  26.717   3.471   8.356
   57XTA   HL10 6339  26.795   3.182   8.384
   57XTA   HL11 6340  26.888   3.297   8.273
   57XTA   HL12 6341  26.866   3.300   8.571
   57XTA   HL13 6342  26.883   3.461   8.482
   57XTA   HL14 6343  27.111   3.391   8.539
   57XTA   HL15 6344  27.080   3.223   8.486
   57XTA   HL16 6345  27.307   3.333   8.387
   57XTA   HL17 6346  27.221   3.195   8.334
   57XTA   HL18 6347  27.221   3.544   8.177
   57XTA   HL19 6348  27.336   3.499   8.052
   57XTA   HL20 6349  27.412   3.537   8.358
   57XTA   HL21 6350  27.462   3.629   8.217
   57XTA   HL22 6351  27.521   3.468   8.239
   57XTA   HL23 6352  26.824   4.594   7.892
   57XTA   HL24 6353  26.771   4.563   7.723
   57XTA   HL25 6354  27.024   4.701   7.802
   57XTA   HL26 6355  26.945   4.705   7.644
   57XTA   HL27 6356  26.852   4.829   7.905
   57XTA   HL28 6357  26.888   4.913   7.756
   57XTA   HL29 6358  26.725   4.810   7.625
   57XTA   HL30 6359  26.654   4.726   7.757
   57XTA   HL31 6360  26.648   5.018   7.739
   57XTA   HL32 6361  26.523   4.905   7.701
   57XTA   HL33 6362  26.547   4.814   7.941
   57XTA   HL34 6363  26.635   4.949   7.977
   57XTA   HL35 6364  26.426   5.017   8.106
   57XTA   HL36 6365  26.369   4.874   8.051
   57XTA   HL37 6366  26.240   5.154   7.850
   57XTA   HL38 6367  26.281   5.214   8.010
   57XTA   HL39 6368  25.996   5.172   7.932
   57XTA   HL40 6369  26.084   5.326   7.913
   57XTA   HL41 6370  26.070   5.251   8.068
   57XTA    CO8 6371  27.175   3.309   8.072
   57XTA    CO9 6372  27.403   3.245   8.146
   57XTA    OA6 6373  27.233   3.326   7.946
   57XTA   HL42 6374  27.096   3.385   8.093
   57XTA   HL43 6375  27.125   3.208   8.085
   57XTA   HL44 6376  26.044   5.022   8.136
   57XTA   HL45 6377  26.161   4.911   8.184
   57XTA   CO10 6378  26.151   5.011   8.146
   57XTA   CO11 6379  26.140   4.917   7.915
   57XTA    OA7 6380  26.202   5.109   8.238
   57XTA   HL46 6381  26.030   4.943   7.908
   57XTA   HL47 6382  26.186   4.925   7.823
   57XTA   HL48 6383  27.454   3.268   8.058
   57XTA   HL49 6384  27.486   3.257   8.215
   58XTA     NT 6385  25.856   6.585   3.432
   58XTA    CN1 6386  25.967   6.514   3.453
   58XTA     C1 6387  25.969   6.372   3.446
   58XTA     C2 6388  26.089   6.311   3.474
   58XTA     C3 6389  26.204   6.377   3.508
   58XTA     C4 6390  26.199   6.520   3.501
   58XTA     C5 6391  26.080   6.587   3.487
   58XTA    CN2 6392  25.775   6.584   3.537
   58XTA     C6 6393  25.658   6.499   3.543
   58XTA     C7 6394  25.570   6.503   3.656
   58XTA     C8 6395  25.606   6.576   3.771
   58XTA     C9 6396  25.717   6.660   3.766
   58XTA    C10 6397  25.805   6.660   3.653
   58XTA    CN3 6398  25.827   6.645   3.316
   58XTA    C11 6399  25.770   6.575   3.215
   58XTA    C12 6400  25.742   6.640   3.094
   58XTA    C13 6401  25.776   6.777   3.073
   58XTA    C14 6402  25.853   6.843   3.174
   58XTA    C15 6403  25.868   6.779   3.295
   58XTA     H1 6404  25.887   6.316   3.419
   58XTA     H2 6405  26.088   6.203   3.472
   58XTA     H3 6406  26.285   6.580   3.500
   58XTA     H4 6407  26.073   6.694   3.488
   58XTA     H5 6408  25.640   6.432   3.461
   58XTA     H6 6409  25.478   6.454   3.653
   58XTA     H7 6410  25.755   6.714   3.848
   58XTA     H8 6411  25.896   6.717   3.658
   58XTA     H9 6412  25.750   6.467   3.239
   58XTA    H10 6413  25.699   6.590   3.011
   58XTA    H11 6414  25.896   6.937   3.148
   58XTA    H12 6415  25.925   6.828   3.372
   58XTA    OA1 6416  26.322   6.312   3.527
   58XTA    CO1 6417  26.443   6.386   3.540
   58XTA    OA2 6418  25.519   6.575   3.874
   58XTA    CO2 6419  25.499   6.701   3.930
   58XTA    CL1 6420  25.378   6.690   4.026
   58XTA    CL2 6421  25.264   6.610   3.973
   58XTA    CL3 6422  25.230   6.642   3.830
   58XTA    CL4 6423  25.107   6.560   3.794
   58XTA    CO3 6424  25.069   6.572   3.650
   58XTA    OA3 6425  25.163   6.528   3.553
   58XTA    CO4 6426  25.122   6.556   3.420
   58XTA    CT1 6427  25.235   6.513   3.315
   58XTA    CL5 6428  25.195   6.565   3.179
   58XTA    CL6 6429  25.051   6.526   3.135
   58XTA    OA4 6430  25.766   6.834   2.950
   58XTA    CO5 6431  25.669   6.791   2.859
   58XTA    CL7 6432  25.645   6.904   2.756
   58XTA    CL8 6433  25.762   6.956   2.670
   58XTA    CL9 6434  25.726   7.082   2.592
   58XTA   CL10 6435  25.826   7.130   2.485
   58XTA    CO6 6436  25.794   7.258   2.413
   58XTA    OA5 6437  25.800   7.368   2.504
   58XTA    CO7 6438  25.779   7.486   2.425
   58XTA    CT2 6439  25.800   7.617   2.501
   58XTA   CL11 6440  25.682   7.632   2.609
   58XTA   CL12 6441  25.540   7.661   2.562
   58XTA    HL1 6442  26.534   6.339   3.569
   58XTA    HL2 6443  26.468   6.433   3.440
   58XTA    HL3 6444  26.434   6.467   3.612
   58XTA    HL4 6445  25.584   6.740   3.997
   58XTA    HL5 6446  25.477   6.778   3.855
   58XTA    HL6 6447  25.360   6.792   4.065
   58XTA    HL7 6448  25.400   6.627   4.115
   58XTA    HL8 6449  25.177   6.629   4.028
   58XTA    HL9 6450  25.287   6.500   3.978
   58XTA   HL10 6451  25.219   6.751   3.818
   58XTA   HL11 6452  25.312   6.614   3.761
   58XTA   HL12 6453  25.021   6.597   3.849
   58XTA   HL13 6454  25.114   6.452   3.819
   58XTA   HL14 6455  24.976   6.512   3.646
   58XTA   HL15 6456  25.051   6.678   3.619
   58XTA   HL16 6457  25.026   6.521   3.392
   58XTA   HL17 6458  25.105   6.660   3.411
   58XTA   HL18 6459  25.263   6.523   3.104
   58XTA   HL19 6460  25.216   6.672   3.172
   58XTA   HL20 6461  24.973   6.560   3.202
   58XTA   HL21 6462  25.050   6.419   3.135
   58XTA   HL22 6463  25.048   6.556   3.035
   58XTA   HL23 6464  25.574   6.777   2.915
   58XTA   HL24 6465  25.688   6.701   2.799
   58XTA   HL25 6466  25.565   6.871   2.686
   58XTA   HL26 6467  25.587   6.986   2.791
   58XTA   HL27 6468  25.847   6.989   2.737
   58XTA   HL28 6469  25.806   6.878   2.606
   58XTA   HL29 6470  25.618   7.072   2.550
   58XTA   HL30 6471  25.728   7.172   2.660
   58XTA   HL31 6472  25.927   7.142   2.529
   58XTA   HL32 6473  25.842   7.055   2.409
   58XTA   HL33 6474  25.877   7.262   2.345
   58XTA   HL34 6475  25.703   7.237   2.364
   58XTA   HL35 6476  25.691   7.478   2.363
   58XTA   HL36 6477  25.856   7.474   2.357
   58XTA   HL37 6478  25.705   7.709   2.685
   58XTA   HL38 6479  25.681   7.536   2.657
   58XTA   HL39 6480  25.511   7.596   2.480
   58XTA   HL40 6481  25.545   7.759   2.518
   58XTA   HL41 6482  25.462   7.667   2.639
   58XTA    CO8 6483  25.251   6.356   3.299
   58XTA    CO9 6484  25.373   6.576   3.356
   58XTA    OA6 6485  25.331   6.315   3.189
   58XTA   HL42 6486  25.150   6.310   3.295
   58XTA   HL43 6487  25.284   6.309   3.399
   58XTA   HL44 6488  25.892   7.692   2.333
   58XTA   HL45 6489  25.854   7.819   2.455
   58XTA   CO10 6490  25.818   7.733   2.402
   58XTA   CO11 6491  25.927   7.620   2.574
   58XTA    OA7 6492  26.032   7.553   2.503
   58XTA   HL46 6493  25.953   7.714   2.606
   58XTA   HL47 6494  25.908   7.557   2.668
   58XTA   HL48 6495  25.449   6.533   3.290
   58XTA   HL49 6496  25.395   6.549   3.451
   59XTA     NT 6497  25.195  -0.995   3.836
   59XTA    CN1 6498  25.167  -1.127   3.867
   59XTA     C1 6499  25.064  -1.198   3.798
   59XTA     C2 6500  25.019  -1.326   3.835
   59XTA     C3 6501  25.078  -1.384   3.944
   59XTA     C4 6502  25.190  -1.329   4.014
   59XTA     C5 6503  25.238  -1.199   3.974
   59XTA    CN2 6504  25.157  -0.953   3.716
   59XTA     C6 6505  25.051  -0.862   3.711
   59XTA     C7 6506  25.006  -0.825   3.588
   59XTA     C8 6507  25.065  -0.859   3.465
   59XTA     C9 6508  25.178  -0.944   3.476
   59XTA    C10 6509  25.222  -0.994   3.603
   59XTA    CN3 6510  25.266  -0.917   3.915
   59XTA    C11 6511  25.406  -0.905   3.904
   59XTA    C12 6512  25.480  -0.817   3.991
   59XTA    C13 6513  25.406  -0.747   4.092
   59XTA    C14 6514  25.264  -0.766   4.110
   59XTA    C15 6515  25.192  -0.841   4.008
   59XTA     H1 6516  25.011  -1.144   3.716
   59XTA     H2 6517  24.934  -1.375   3.781
   59XTA     H3 6518  25.238  -1.378   4.096
   59XTA     H4 6519  25.310  -1.142   4.032
   59XTA     H5 6520  24.999  -0.831   3.800
   59XTA     H6 6521  24.921  -0.761   3.589
   59XTA     H7 6522  25.229  -0.980   3.380
   59XTA     H8 6523  25.323  -1.045   3.611
   59XTA     H9 6524  25.457  -0.957   3.825
   59XTA    H10 6525  25.590  -0.807   3.971
   59XTA    H11 6526  25.201  -0.697   4.168
   59XTA    H12 6527  25.082  -0.843   4.013
   59XTA    OA1 6528  25.017  -1.503   3.981
   59XTA    CO1 6529  25.002  -1.507   4.117
   59XTA    OA2 6530  25.011  -0.823   3.346
   59XTA    CO2 6531  24.967  -0.936   3.275
   59XTA    CL1 6532  24.849  -0.898   3.178
   59XTA    CL2 6533  24.789  -1.017   3.104
   59XTA    CL3 6534  24.641  -0.995   3.079
   59XTA    CL4 6535  24.576  -1.107   2.999
   59XTA    CO3 6536  24.436  -1.074   2.945
   59XTA    OA3 6537  24.438  -0.981   2.842
   59XTA    CO4 6538  24.305  -0.965   2.786
   59XTA    CT1 6539  24.315  -0.864   2.671
   59XTA    CL5 6540  24.185  -0.860   2.594
   59XTA    CL6 6541  24.049  -0.847   2.661
   59XTA    OA4 6542  25.472  -0.643   4.158
   59XTA    CO5 6543  25.436  -0.633   4.296
   59XTA    CL7 6544  25.522  -0.737   4.378
   59XTA    CL8 6545  25.462  -0.879   4.374
   59XTA    CL9 6546  25.484  -0.965   4.497
   59XTA   CL10 6547  25.636  -1.010   4.497
   59XTA    CO6 6548  25.733  -0.913   4.574
   59XTA    OA5 6549  25.847  -0.975   4.626
   59XTA    CO7 6550  25.934  -1.015   4.531
   59XTA    CT2 6551  26.055  -1.078   4.605
   59XTA   CL11 6552  26.150  -1.151   4.503
   59XTA   CL12 6553  26.216  -1.066   4.396
   59XTA    HL1 6554  25.096  -1.508   4.171
   59XTA    HL2 6555  24.941  -1.432   4.166
   59XTA    HL3 6556  24.960  -1.604   4.129
   59XTA    HL4 6557  25.056  -0.970   3.213
   59XTA    HL5 6558  24.947  -1.011   3.345
   59XTA    HL6 6559  24.886  -0.812   3.120
   59XTA    HL7 6560  24.771  -0.852   3.235
   59XTA    HL8 6561  24.805  -1.113   3.160
   59XTA    HL9 6562  24.837  -1.017   3.004
   59XTA   HL10 6563  24.581  -0.990   3.176
   59XTA   HL11 6564  24.614  -0.905   3.031
   59XTA   HL12 6565  24.573  -1.199   3.058
   59XTA   HL13 6566  24.639  -1.131   2.912
   59XTA   HL14 6567  24.385  -1.177   2.914
   59XTA   HL15 6568  24.374  -1.028   3.020
   59XTA   HL16 6569  24.272  -1.062   2.764
   59XTA   HL17 6570  24.236  -0.935   2.866
   59XTA   HL18 6571  24.185  -0.929   2.517
   59XTA   HL19 6572  24.180  -0.772   2.533
   59XTA   HL20 6573  23.975  -0.824   2.586
   59XTA   HL21 6574  24.049  -0.776   2.743
   59XTA   HL22 6575  24.018  -0.940   2.700
   59XTA   HL23 6576  25.333  -0.623   4.319
   59XTA   HL24 6577  25.485  -0.544   4.319
   59XTA   HL25 6578  25.632  -0.731   4.352
   59XTA   HL26 6579  25.526  -0.713   4.485
   59XTA   HL27 6580  25.352  -0.873   4.375
   59XTA   HL28 6581  25.476  -0.923   4.279
   59XTA   HL29 6582  25.460  -0.901   4.584
   59XTA   HL30 6583  25.423  -1.058   4.499
   59XTA   HL31 6584  25.652  -1.104   4.554
   59XTA   HL32 6585  25.680  -1.029   4.398
   59XTA   HL33 6586  25.754  -0.829   4.510
   59XTA   HL34 6587  25.683  -0.876   4.664
   59XTA   HL35 6588  25.966  -0.931   4.468
   59XTA   HL36 6589  25.895  -1.099   4.468
   59XTA   HL37 6590  26.089  -1.222   4.440
   59XTA   HL38 6591  26.230  -1.209   4.547
   59XTA   HL39 6592  26.280  -0.984   4.439
   59XTA   HL40 6593  26.138  -1.025   4.327
   59XTA   HL41 6594  26.291  -1.121   4.336
   59XTA    CO8 6595  24.431  -0.905   2.590
   59XTA    CO9 6596  24.341  -0.723   2.723
   59XTA    OA6 6597  24.230  -0.678   2.806
   59XTA   HL42 6598  24.528  -0.892   2.646
   59XTA   HL43 6599  24.421  -1.013   2.578
   59XTA   HL44 6600  25.979  -1.277   4.633
   59XTA   HL45 6601  26.110  -1.230   4.743
   59XTA   CO10 6602  26.020  -1.193   4.697
   59XTA   CO11 6603  26.128  -0.969   4.692
   59XTA    OA7 6604  25.951  -1.159   4.778
   59XTA   HL46 6605  26.033  -0.900   4.772
   59XTA   HL47 6606  26.185  -0.914   4.619
   59XTA   HL48 6607  24.362  -0.644   2.653
   59XTA   HL49 6608  24.430  -0.719   2.795
   60XTA     NT 6609  30.062   6.357   6.056
   60XTA    CN1 6610  30.039   6.439   5.954
   60XTA     C1 6611  30.139   6.537   5.930
   60XTA     C2 6612  30.133   6.610   5.811
   60XTA     C3 6613  30.025   6.600   5.717
   60XTA     C4 6614  29.930   6.502   5.742
   60XTA     C5 6615  29.939   6.421   5.857
   60XTA    CN2 6616  29.975   6.360   6.158
   60XTA     C6 6617  29.878   6.259   6.163
   60XTA     C7 6618  29.784   6.264   6.259
   60XTA     C8 6619  29.773   6.369   6.349
   60XTA     C9 6620  29.879   6.465   6.347
   60XTA    C10 6621  29.975   6.467   6.251
   60XTA    CN3 6622  30.176   6.290   6.061
   60XTA    C11 6623  30.274   6.297   6.163
   60XTA    C12 6624  30.399   6.239   6.146
   60XTA    C13 6625  30.439   6.183   6.026
   60XTA    C14 6626  30.342   6.168   5.928
   60XTA    C15 6627  30.211   6.218   5.945
   60XTA     H1 6628  30.232   6.541   5.986
   60XTA     H2 6629  30.209   6.682   5.787
   60XTA     H3 6630  29.854   6.486   5.665
   60XTA     H4 6631  29.870   6.349   5.884
   60XTA     H5 6632  29.887   6.178   6.097
   60XTA     H6 6633  29.720   6.184   6.271
   60XTA     H7 6634  29.876   6.547   6.419
   60XTA     H8 6635  30.047   6.544   6.261
   60XTA     H9 6636  30.252   6.338   6.258
   60XTA    H10 6637  30.461   6.242   6.233
   60XTA    H11 6638  30.367   6.118   5.837
   60XTA    H12 6639  30.133   6.206   5.884
   60XTA    OA1 6640  30.006   6.671   5.604
   60XTA    CO1 6641  30.106   6.768   5.567
   60XTA    OA2 6642  29.675   6.366   6.447
   60XTA    CO2 6643  29.652   6.247   6.522
   60XTA    CL1 6644  29.551   6.286   6.642
   60XTA    CL2 6645  29.496   6.167   6.729
   60XTA    CL3 6646  29.607   6.087   6.808
   60XTA    CL4 6647  29.671   5.986   6.710
   60XTA    CO3 6648  29.726   5.857   6.779
   60XTA    OA3 6649  29.617   5.780   6.825
   60XTA    CO4 6650  29.540   5.719   6.722
   60XTA    CT1 6651  29.489   5.582   6.764
   60XTA    CL5 6652  29.427   5.572   6.899
   60XTA    CL6 6653  29.316   5.683   6.923
   60XTA    OA4 6654  30.570   6.153   5.998
   60XTA    CO5 6655  30.661   6.144   6.101
   60XTA    CL7 6656  30.791   6.103   6.041
   60XTA    CL8 6657  30.861   6.219   5.964
   60XTA    CL9 6658  30.982   6.181   5.878
   60XTA   CL10 6659  31.029   6.291   5.780
   60XTA    CO6 6660  31.108   6.232   5.663
   60XTA    OA5 6661  31.165   6.339   5.582
   60XTA    CO7 6662  31.233   6.296   5.463
   60XTA    CT2 6663  31.271   6.407   5.368
   60XTA   CL11 6664  31.333   6.344   5.233
   60XTA   CL12 6665  31.416   6.205   5.239
   60XTA    HL1 6666  30.078   6.819   5.479
   60XTA    HL2 6667  30.120   6.841   5.644
   60XTA    HL3 6668  30.200   6.736   5.544
   60XTA    HL4 6669  29.617   6.165   6.459
   60XTA    HL5 6670  29.738   6.214   6.567
   60XTA    HL6 6671  29.457   6.319   6.593
   60XTA    HL7 6672  29.580   6.376   6.695
   60XTA    HL8 6673  29.441   6.107   6.657
   60XTA    HL9 6674  29.416   6.193   6.799
   60XTA   HL10 6675  29.682   6.160   6.841
   60XTA   HL11 6676  29.568   6.043   6.893
   60XTA   HL12 6677  29.752   6.031   6.649
   60XTA   HL13 6678  29.592   5.975   6.638
   60XTA   HL14 6679  29.781   5.799   6.706
   60XTA   HL15 6680  29.790   5.887   6.863
   60XTA   HL16 6681  29.451   5.782   6.685
   60XTA   HL17 6682  29.595   5.696   6.628
   60XTA   HL18 6683  29.499   5.578   6.982
   60XTA   HL19 6684  29.383   5.472   6.912
   60XTA   HL20 6685  29.239   5.667   6.848
   60XTA   HL21 6686  29.341   5.784   6.905
   60XTA   HL22 6687  29.273   5.674   7.020
   60XTA   HL23 6688  30.632   6.062   6.171
   60XTA   HL24 6689  30.665   6.240   6.138
   60XTA   HL25 6690  30.867   6.059   6.117
   60XTA   HL26 6691  30.773   6.017   5.971
   60XTA   HL27 6692  30.777   6.246   5.893
   60XTA   HL28 6693  30.887   6.303   6.029
   60XTA   HL29 6694  31.057   6.135   5.947
   60XTA   HL30 6695  30.940   6.103   5.817
   60XTA   HL31 6696  30.952   6.361   5.737
   60XTA   HL32 6697  31.105   6.351   5.833
   60XTA   HL33 6698  31.187   6.175   5.704
   60XTA   HL34 6699  31.051   6.159   5.603
   60XTA   HL35 6700  31.170   6.226   5.413
   60XTA   HL36 6701  31.321   6.239   5.481
   60XTA   HL37 6702  31.380   6.421   5.171
   60XTA   HL38 6703  31.239   6.299   5.183
   60XTA   HL39 6704  31.392   6.135   5.322
   60XTA   HL40 6705  31.521   6.222   5.256
   60XTA   HL41 6706  31.420   6.153   5.144
   60XTA    CO8 6707  29.607   5.482   6.758
   60XTA    CO9 6708  29.390   5.539   6.658
   60XTA    OA6 6709  29.424   5.531   6.548
   60XTA   HL42 6710  29.640   5.488   6.661
   60XTA   HL43 6711  29.716   5.532   6.839
   60XTA   HL44 6712  31.442   6.549   5.356
   60XTA   HL45 6713  31.349   6.575   5.500
   60XTA   CO10 6714  31.385   6.493   5.431
   60XTA   CO11 6715  31.155   6.507   5.327
   60XTA    OA7 6716  31.490   6.417   5.486
   60XTA   HL46 6717  31.200   6.581   5.262
   60XTA   HL47 6718  31.075   6.449   5.279
   60XTA   HL48 6719  29.307   5.600   6.659
   60XTA   HL49 6720  29.351   5.437   6.677
   61XTA     NT 6721  26.779   6.163   6.497
   61XTA    CN1 6722  26.851   6.045   6.496
   61XTA     C1 6723  26.810   5.926   6.565
   61XTA     C2 6724  26.883   5.807   6.550
   61XTA     C3 6725  27.003   5.810   6.472
   61XTA     C4 6726  27.049   5.925   6.413
   61XTA     C5 6727  26.972   6.039   6.418
   61XTA    CN2 6728  26.791   6.241   6.609
   61XTA     C6 6729  26.717   6.214   6.718
   61XTA     C7 6730  26.732   6.282   6.842
   61XTA     C8 6731  26.826   6.386   6.844
   61XTA     C9 6732  26.900   6.418   6.729
   61XTA    C10 6733  26.886   6.345   6.611
   61XTA    CN3 6734  26.725   6.210   6.384
   61XTA    C11 6735  26.606   6.148   6.345
   61XTA    C12 6736  26.547   6.183   6.220
   61XTA    C13 6737  26.605   6.278   6.137
   61XTA    C14 6738  26.726   6.333   6.176
   61XTA    C15 6739  26.788   6.299   6.296
   61XTA     H1 6740  26.716   5.930   6.620
   61XTA     H2 6741  26.857   5.719   6.611
   61XTA     H3 6742  27.144   5.922   6.353
   61XTA     H4 6743  26.997   6.130   6.363
   61XTA     H5 6744  26.645   6.134   6.705
   61XTA     H6 6745  26.672   6.253   6.921
   61XTA     H7 6746  26.976   6.498   6.724
   61XTA     H8 6747  26.948   6.359   6.528
   61XTA     H9 6748  26.556   6.069   6.397
   61XTA    H10 6749  26.456   6.132   6.183
   61XTA    H11 6750  26.782   6.397   6.113
   61XTA    H12 6751  26.881   6.344   6.325
   61XTA    OA1 6752  27.078   5.698   6.455
   61XTA    CO1 6753  27.019   5.576   6.464
   61XTA    OA2 6754  26.838   6.454   6.964
   61XTA    CO2 6755  26.869   6.591   6.957
   61XTA    CL1 6756  27.023   6.609   6.967
   61XTA    CL2 6757  27.064   6.719   6.861
   61XTA    CL3 6758  27.187   6.792   6.891
   61XTA    CL4 6759  27.308   6.699   6.876
   61XTA    CO3 6760  27.351   6.691   6.725
   61XTA    OA3 6761  27.267   6.611   6.643
   61XTA    CO4 6762  27.332   6.580   6.521
   61XTA    CT1 6763  27.242   6.495   6.428
   61XTA    CL5 6764  27.314   6.480   6.294
   61XTA    CL6 6765  27.232   6.400   6.187
   61XTA    OA4 6766  26.555   6.319   6.017
   61XTA    CO5 6767  26.571   6.229   5.911
   61XTA    CL7 6768  26.442   6.249   5.821
   61XTA    CL8 6769  26.316   6.239   5.908
   61XTA    CL9 6770  26.185   6.236   5.827
   61XTA   CL10 6771  26.174   6.362   5.732
   61XTA    CO6 6772  26.149   6.502   5.797
   61XTA    OA5 6773  26.012   6.514   5.841
   61XTA    CO7 6774  25.986   6.640   5.906
   61XTA    CT2 6775  25.838   6.664   5.930
   61XTA   CL11 6776  25.783   6.550   6.012
   61XTA   CL12 6777  25.638   6.559   6.057
   61XTA    HL1 6778  27.082   5.501   6.424
   61XTA    HL2 6779  27.004   5.560   6.570
   61XTA    HL3 6780  26.929   5.563   6.405
   61XTA    HL4 6781  26.831   6.609   6.855
   61XTA    HL5 6782  26.810   6.644   7.034
   61XTA    HL6 6783  27.077   6.510   6.950
   61XTA    HL7 6784  27.052   6.637   7.067
   61XTA    HL8 6785  26.973   6.783   6.859
   61XTA    HL9 6786  27.074   6.673   6.764
   61XTA   HL10 6787  27.198   6.870   6.823
   61XTA   HL11 6788  27.186   6.825   6.999
   61XTA   HL12 6789  27.303   6.603   6.923
   61XTA   HL13 6790  27.398   6.746   6.923
   61XTA   HL14 6791  27.358   6.789   6.680
   61XTA   HL15 6792  27.449   6.650   6.731
   61XTA   HL16 6793  27.364   6.669   6.474
   61XTA   HL17 6794  27.424   6.523   6.548
   61XTA   HL18 6795  27.390   6.404   6.297
   61XTA   HL19 6796  27.361   6.573   6.262
   61XTA   HL20 6797  27.153   6.471   6.154
   61XTA   HL21 6798  27.183   6.305   6.224
   61XTA   HL22 6799  27.282   6.371   6.098
   61XTA   HL23 6800  26.571   6.138   5.947
   61XTA   HL24 6801  26.663   6.238   5.861
   61XTA   HL25 6802  26.448   6.353   5.778
   61XTA   HL26 6803  26.436   6.183   5.739
   61XTA   HL27 6804  26.334   6.148   5.973
   61XTA   HL28 6805  26.305   6.332   5.965
   61XTA   HL29 6806  26.164   6.147   5.770
   61XTA   HL30 6807  26.091   6.236   5.885
   61XTA   HL31 6808  26.266   6.374   5.676
   61XTA   HL32 6809  26.102   6.351   5.655
   61XTA   HL33 6810  26.212   6.504   5.882
   61XTA   HL34 6811  26.172   6.572   5.719
   61XTA   HL35 6812  26.023   6.724   5.851
   61XTA   HL36 6813  26.036   6.642   6.000
   61XTA   HL37 6814  25.842   6.530   6.099
   61XTA   HL38 6815  25.784   6.459   5.951
   61XTA   HL39 6816  25.563   6.587   5.985
   61XTA   HL40 6817  25.625   6.632   6.132
   61XTA   HL41 6818  25.600   6.465   6.102
   61XTA    CO8 6819  27.107   6.563   6.405
   61XTA    CO9 6820  27.222   6.358   6.491
   61XTA    OA6 6821  27.133   6.691   6.362
   61XTA   HL42 6822  27.059   6.574   6.504
   61XTA   HL43 6823  27.038   6.507   6.347
   61XTA   HL44 6824  25.660   6.727   5.811
   61XTA   HL45 6825  25.801   6.812   5.745
   61XTA   CO10 6826  25.769   6.714   5.794
   61XTA   CO11 6827  25.825   6.791   6.025
   61XTA    OA7 6828  25.784   6.608   5.697
   61XTA   HL46 6829  25.852   6.879   5.970
   61XTA   HL47 6830  25.721   6.800   6.056
   61XTA   HL48 6831  27.174   6.371   6.595
   61XTA   HL49 6832  27.142   6.312   6.422
   62XTH     NT 6833  31.223  -0.114   2.639
   62XTH    CN1 6834  31.122  -0.029   2.613
   62XTH     C1 6835  30.988  -0.061   2.640
   62XTH     C2 6836  30.891   0.037   2.628
   62XTH     C3 6837  30.908   0.155   2.560
   62XTH     C4 6838  31.040   0.186   2.515
   62XTH     C5 6839  31.147   0.095   2.547
   62XTH    CN2 6840  31.254  -0.140   2.769
   62XTH     C6 6841  31.347  -0.058   2.833
   62XTH     C7 6842  31.385  -0.079   2.970
   62XTH     C8 6843  31.317  -0.179   3.043
   62XTH     C9 6844  31.219  -0.254   2.980
   62XTH    C10 6845  31.185  -0.242   2.841
   62XTH    CN3 6846  31.288  -0.176   2.539
   62XTH    C11 6847  31.234  -0.295   2.481
   62XTH    C12 6848  31.294  -0.358   2.366
   62XTH    C13 6849  31.411  -0.292   2.313
   62XTH    C14 6850  31.470  -0.183   2.375
   62XTH    C15 6851  31.408  -0.124   2.482
   62XTH     H1 6852  30.959  -0.153   2.673
   62XTH     H2 6853  30.792   0.020   2.659
   62XTH     H3 6854  31.058   0.280   2.461
   62XTH     H4 6855  31.246   0.114   2.518
   62XTH     H5 6856  31.386   0.012   2.764
   62XTH     H6 6857  31.468  -0.020   2.999
   62XTH     H7 6858  31.169  -0.335   3.038
   62XTH     H8 6859  31.117  -0.314   2.805
   62XTH     H9 6860  31.139  -0.339   2.513
   62XTH    H10 6861  31.254  -0.451   2.328
   62XTH    H11 6862  31.564  -0.139   2.327
   62XTH    H12 6863  31.458  -0.037   2.523
   62XTH    OA1 6864  30.798   0.238   2.545
   62XTH    CO1 6865  30.817   0.374   2.495
   62XTH    OA2 6866  31.336  -0.196   3.177
   62XTH    CO2 6867  31.412  -0.103   3.251
   62XTH    CL1 6868  31.447  -0.171   3.378
   62XTH    CL2 6869  31.476  -0.066   3.489
   62XTH    CL3 6870  31.362   0.031   3.518
   62XTH    CL4 6871  31.235  -0.024   3.583
   62XTH    CO3 6872  31.140  -0.079   3.479
   62XTH    OA3 6873  31.116   0.015   3.377
   62XTH    CO4 6874  31.027  -0.033   3.271
   62XTH    CT1 6875  30.972   0.078   3.171
   62XTH    CL5 6876  30.952   0.214   3.241
   62XTH    CL6 6877  30.837   0.209   3.348
   62XTH    OA4 6878  31.480  -0.342   2.205
   62XTH    CO5 6879  31.431  -0.451   2.127
   62XTH    CL7 6880  31.538  -0.464   2.017
   62XTH    CL8 6881  31.536  -0.357   1.908
   62XTH    CL9 6882  31.653  -0.365   1.813
   62XTH   CL10 6883  31.624  -0.299   1.678
   62XTH    CO6 6884  31.602  -0.145   1.674
   62XTH    OA5 6885  31.714  -0.068   1.722
   62XTH    CO7 6886  31.693   0.074   1.702
   62XTH    CT2 6887  31.677   0.129   1.848
   62XTH   CL11 6888  31.613   0.264   1.855
   62XTH   CL12 6889  31.671   0.384   1.781
   62XTH    HL1 6890  30.714   0.423   2.485
   62XTH    HL2 6891  30.879   0.432   2.562
   62XTH    HL3 6892  30.873   0.369   2.406
   62XTH    HL4 6893  31.503  -0.076   3.196
   62XTH    HL5 6894  31.354  -0.015   3.283
   62XTH    HL6 6895  31.531  -0.236   3.356
   62XTH    HL7 6896  31.363  -0.239   3.406
   62XTH    HL8 6897  31.564  -0.007   3.455
   62XTH    HL9 6898  31.506  -0.125   3.575
   62XTH   HL10 6899  31.404   0.097   3.600
   62XTH   HL11 6900  31.353   0.102   3.428
   62XTH   HL12 6901  31.191   0.062   3.620
   62XTH   HL13 6902  31.260  -0.091   3.664
   62XTH   HL14 6903  31.165  -0.171   3.434
   62XTH   HL15 6904  31.048  -0.100   3.530
   62XTH   HL16 6905  31.071  -0.112   3.213
   62XTH   HL17 6906  30.936  -0.076   3.311
   62XTH   HL18 6907  30.938   0.290   3.174
   62XTH   HL19 6908  31.045   0.240   3.290
   62XTH   HL20 6909  30.829   0.111   3.399
   62XTH   HL21 6910  30.747   0.244   3.294
   62XTH   HL22 6911  30.858   0.284   3.420
   62XTH   HL23 6912  31.334  -0.435   2.086
   62XTH   HL24 6913  31.421  -0.542   2.187
   62XTH   HL25 6914  31.635  -0.461   2.068
   62XTH   HL26 6915  31.529  -0.556   1.972
   62XTH   HL27 6916  31.438  -0.356   1.855
   62XTH   HL28 6917  31.546  -0.261   1.959
   62XTH   HL29 6918  31.741  -0.326   1.865
   62XTH   HL30 6919  31.695  -0.464   1.795
   62XTH   HL31 6920  31.713  -0.321   1.620
   62XTH   HL32 6921  31.541  -0.354   1.633
   62XTH   HL33 6922  31.570  -0.111   1.578
   62XTH   HL34 6923  31.522  -0.130   1.761
   62XTH   HL35 6924  31.600   0.089   1.656
   62XTH   HL36 6925  31.764   0.125   1.645
   62XTH   HL37 6926  31.624   0.287   1.964
   62XTH   HL38 6927  31.505   0.247   1.841
   62XTH   HL39 6928  31.623   0.476   1.821
   62XTH   HL40 6929  31.644   0.391   1.680
   62XTH   HL41 6930  31.779   0.388   1.795
   62XTH    CO8 6931  30.827   0.034   3.126
   62XTH    CO9 6932  31.053   0.086   3.042
   62XTH    OA6 6933  31.034   0.204   2.976
   62XTH   HL42 6934  30.774   0.123   3.089
   62XTH   HL43 6935  30.842  -0.037   3.042
   62XTH   HL44 6936  31.881   0.169   1.825
   62XTH   HL45 6937  31.863   0.004   1.908
   62XTH   CO10 6938  31.819   0.132   1.907
   62XTH   CO11 6939  31.597   0.041   1.946
   62XTH    OA7 6940  31.486   0.032   1.926
   62XTH   HL46 6941  31.639  -0.056   1.937
   62XTH   HL47 6942  31.609   0.075   2.047
   62XTH   HL48 6943  31.025   0.000   2.964
   62XTH   HL49 6944  31.163   0.082   3.074
   63XTA     NT 6945  28.537   6.835  -0.664
   63XTA    CN1 6946  28.495   6.930  -0.755
   63XTA     C1 6947  28.373   6.993  -0.723
   63XTA     C2 6948  28.299   7.061  -0.821
   63XTA     C3 6949  28.370   7.089  -0.946
   63XTA     C4 6950  28.497   7.031  -0.971
   63XTA     C5 6951  28.555   6.943  -0.883
   63XTA    CN2 6952  28.503   6.704  -0.665
   63XTA     C6 6953  28.368   6.677  -0.681
   63XTA     C7 6954  28.329   6.543  -0.693
   63XTA     C8 6955  28.419   6.433  -0.682
   63XTA     C9 6956  28.558   6.466  -0.655
   63XTA    C10 6957  28.596   6.603  -0.648
   63XTA    CN3 6958  28.618   6.880  -0.569
   63XTA    C11 6959  28.750   6.931  -0.600
   63XTA    C12 6960  28.830   6.988  -0.501
   63XTA    C13 6961  28.798   6.976  -0.366
   63XTA    C14 6962  28.674   6.912  -0.337
   63XTA    C15 6963  28.588   6.867  -0.434
   63XTA     H1 6964  28.324   6.961  -0.632
   63XTA     H2 6965  28.197   7.076  -0.793
   63XTA     H3 6966  28.549   7.047  -1.069
   63XTA     H4 6967  28.652   6.903  -0.902
   63XTA     H5 6968  28.297   6.762  -0.677
   63XTA     H6 6969  28.229   6.513  -0.713
   63XTA     H7 6970  28.633   6.385  -0.639
   63XTA     H8 6971  28.699   6.629  -0.640
   63XTA     H9 6972  28.781   6.926  -0.704
   63XTA    H10 6973  28.920   7.039  -0.534
   63XTA    H11 6974  28.645   6.898  -0.232
   63XTA    H12 6975  28.494   6.826  -0.405
   63XTA    OA1 6976  28.312   7.164  -1.051
   63XTA    CO1 6977  28.178   7.201  -1.025
   63XTA    OA2 6978  28.375   6.308  -0.698
   63XTA    CO2 6979  28.447   6.206  -0.633
   63XTA    CL1 6980  28.389   6.075  -0.674
   63XTA    CL2 6981  28.436   6.020  -0.811
   63XTA    CL3 6982  28.374   5.888  -0.848
   63XTA    CL4 6983  28.370   5.876  -1.000
   63XTA    CO3 6984  28.334   5.731  -1.046
   63XTA    OA3 6985  28.192   5.724  -1.056
   63XTA    CO4 6986  28.157   5.585  -1.077
   63XTA    CT1 6987  28.018   5.545  -1.123
   63XTA    CL5 6988  27.982   5.401  -1.080
   63XTA    CL6 6989  28.092   5.292  -1.113
   63XTA    OA4 6990  28.879   7.018  -0.268
   63XTA    CO5 6991  28.883   7.161  -0.271
   63XTA    CL7 6992  29.005   7.197  -0.190
   63XTA    CL8 6993  29.032   7.353  -0.201
   63XTA    CL9 6994  28.930   7.447  -0.134
   63XTA   CL10 6995  28.938   7.449   0.026
   63XTA    CO6 6996  28.882   7.583   0.076
   63XTA    OA5 6997  28.740   7.591   0.054
   63XTA    CO7 6998  28.660   7.533   0.160
   63XTA    CT2 6999  28.532   7.465   0.103
   63XTA   CL11 7000  28.571   7.345   0.014
   63XTA   CL12 7001  28.607   7.212   0.084
   63XTA    HL1 7002  28.111   7.116  -1.003
   63XTA    HL2 7003  28.170   7.266  -0.940
   63XTA    HL3 7004  28.143   7.258  -1.109
   63XTA    HL4 7005  28.550   6.203  -0.659
   63XTA    HL5 7006  28.446   6.220  -0.524
   63XTA    HL6 7007  28.280   6.082  -0.674
   63XTA    HL7 7008  28.424   6.008  -0.597
   63XTA    HL8 7009  28.544   6.018  -0.809
   63XTA    HL9 7010  28.406   6.098  -0.877
   63XTA   HL10 7011  28.420   5.793  -0.810
   63XTA   HL11 7012  28.269   5.892  -0.809
   63XTA   HL12 7013  28.465   5.910  -1.030
   63XTA   HL13 7014  28.300   5.952  -1.033
   63XTA   HL14 7015  28.383   5.722  -1.147
   63XTA   HL15 7016  28.378   5.653  -0.973
   63XTA   HL16 7017  28.231   5.537  -1.139
   63XTA   HL17 7018  28.172   5.533  -0.979
   63XTA   HL18 7019  27.883   5.373  -1.122
   63XTA   HL19 7020  27.958   5.398  -0.974
   63XTA   HL20 7021  28.107   5.312  -1.217
   63XTA   HL21 7022  28.054   5.190  -1.086
   63XTA   HL22 7023  28.185   5.311  -1.059
   63XTA   HL23 7024  28.795   7.212  -0.242
   63XTA   HL24 7025  28.905   7.190  -0.373
   63XTA   HL25 7026  28.995   7.171  -0.086
   63XTA   HL26 7027  29.090   7.146  -0.225
   63XTA   HL27 7028  29.133   7.380  -0.166
   63XTA   HL28 7029  29.037   7.376  -0.306
   63XTA   HL29 7030  28.944   7.550  -0.169
   63XTA   HL30 7031  28.830   7.423  -0.160
   63XTA   HL31 7032  28.895   7.362   0.081
   63XTA   HL32 7033  29.044   7.456   0.055
   63XTA   HL33 7034  28.903   7.593   0.181
   63XTA   HL34 7035  28.930   7.662   0.019
   63XTA   HL35 7036  28.637   7.603   0.243
   63XTA   HL36 7037  28.714   7.462   0.219
   63XTA   HL37 7038  28.650   7.372  -0.055
   63XTA   HL38 7039  28.481   7.319  -0.044
   63XTA   HL39 7040  28.533   7.186   0.158
   63XTA   HL40 7041  28.701   7.237   0.143
   63XTA   HL41 7042  28.632   7.140   0.012
   63XTA    CO8 7043  28.001   5.560  -1.276
   63XTA    CO9 7044  27.924   5.648  -1.063
   63XTA    OA6 7045  27.891   5.564  -1.295
   63XTA   HL42 7046  28.047   5.479  -1.320
   63XTA   HL43 7047  28.051   5.644  -1.316
   63XTA   HL44 7048  28.419   7.683   0.100
   63XTA   HL45 7049  28.325   7.516   0.034
   63XTA   CO10 7050  28.427   7.564   0.031
   63XTA   CO11 7051  28.456   7.414   0.225
   63XTA    OA7 7052  28.411   7.498   0.287
   63XTA   HL46 7053  28.365   7.356   0.194
   63XTA   HL47 7054  28.519   7.362   0.285
   63XTA   HL48 7055  27.987   5.715  -0.953
   63XTA   HL49 7056  27.924   5.728  -1.133
   64XTA     NT 7057  30.136   6.092   0.481
   64XTA    CN1 7058  30.266   6.090   0.440
   64XTA     C1 7059  30.348   5.983   0.473
   64XTA     C2 7060  30.482   5.987   0.427
   64XTA     C3 7061  30.523   6.089   0.333
   64XTA     C4 7062  30.433   6.195   0.301
   64XTA     C5 7063  30.312   6.199   0.360
   64XTA    CN2 7064  30.112   6.073   0.611
   64XTA     C6 7065  30.059   5.954   0.667
   64XTA     C7 7066  30.048   5.939   0.802
   64XTA     C8 7067  30.082   6.046   0.885
   64XTA     C9 7068  30.128   6.167   0.832
   64XTA    C10 7069  30.141   6.179   0.692
   64XTA    CN3 7070  30.032   6.078   0.399
   64XTA    C11 7071  29.927   6.175   0.402
   64XTA    C12 7072  29.815   6.141   0.317
   64XTA    C13 7073  29.812   6.032   0.230
   64XTA    C14 7074  29.923   5.941   0.225
   64XTA    C15 7075  30.032   5.969   0.311
   64XTA     H1 7076  30.318   5.907   0.543
   64XTA     H2 7077  30.555   5.910   0.460
   64XTA     H3 7078  30.469   6.268   0.236
   64XTA     H4 7079  30.231   6.268   0.333
   64XTA     H5 7080  30.031   5.883   0.589
   64XTA     H6 7081  30.007   5.845   0.841
   64XTA     H7 7082  30.148   6.251   0.894
   64XTA     H8 7083  30.183   6.269   0.643
   64XTA     H9 7084  29.925   6.265   0.464
   64XTA    H10 7085  29.724   6.196   0.312
   64XTA    H11 7086  29.920   5.863   0.151
   64XTA    H12 7087  30.119   5.905   0.305
   64XTA    OA1 7088  30.650   6.086   0.280
   64XTA    CO1 7089  30.757   6.071   0.373
   64XTA    OA2 7090  30.049   6.023   1.018
   64XTA    CO2 7091  30.094   6.115   1.116
   64XTA    CL1 7092  30.249   6.106   1.137
   64XTA    CL2 7093  30.301   5.956   1.141
   64XTA    CL3 7094  30.416   5.934   1.234
   64XTA    CL4 7095  30.458   5.781   1.250
   64XTA    CO3 7096  30.528   5.745   1.381
   64XTA    OA3 7097  30.556   5.604   1.383
   64XTA    CO4 7098  30.599   5.566   1.506
   64XTA    CT1 7099  30.628   5.414   1.513
   64XTA    CL5 7100  30.503   5.320   1.484
   64XTA    CL6 7101  30.477   5.295   1.333
   64XTA    OA4 7102  29.702   6.025   0.154
   64XTA    CO5 7103  29.670   5.901   0.096
   64XTA    CL7 7104  29.691   5.893  -0.054
   64XTA    CL8 7105  29.838   5.901  -0.095
   64XTA    CL9 7106  29.911   5.764  -0.105
   64XTA   CL10 7107  30.052   5.778  -0.151
   64XTA    CO6 7108  30.132   5.648  -0.133
   64XTA    OA5 7109  30.274   5.675  -0.139
   64XTA    CO7 7110  30.341   5.558  -0.109
   64XTA    CT2 7111  30.479   5.553  -0.177
   64XTA   CL11 7112  30.553   5.421  -0.140
   64XTA   CL12 7113  30.597   5.428   0.005
   64XTA    HL1 7114  30.753   6.143   0.460
   64XTA    HL2 7115  30.756   5.968   0.416
   64XTA    HL3 7116  30.853   6.096   0.322
   64XTA    HL4 7117  30.079   6.222   1.091
   64XTA    HL5 7118  30.045   6.103   1.209
   64XTA    HL6 7119  30.283   6.164   1.213
   64XTA    HL7 7120  30.290   6.147   1.045
   64XTA    HL8 7121  30.332   5.938   1.040
   64XTA    HL9 7122  30.221   5.889   1.160
   64XTA   HL10 7123  30.495   6.001   1.215
   64XTA   HL11 7124  30.381   5.964   1.330
   64XTA   HL12 7125  30.521   5.759   1.167
   64XTA   HL13 7126  30.364   5.728   1.238
   64XTA   HL14 7127  30.616   5.799   1.379
   64XTA   HL15 7128  30.477   5.764   1.472
   64XTA   HL16 7129  30.687   5.631   1.536
   64XTA   HL17 7130  30.511   5.587   1.572
   64XTA   HL18 7131  30.408   5.361   1.515
   64XTA   HL19 7132  30.527   5.232   1.546
   64XTA   HL20 7133  30.520   5.200   1.292
   64XTA   HL21 7134  30.520   5.379   1.279
   64XTA   HL22 7135  30.373   5.289   1.309
   64XTA   HL23 7136  29.567   5.888   0.117
   64XTA   HL24 7137  29.720   5.822   0.161
   64XTA   HL25 7138  29.647   5.790  -0.084
   64XTA   HL26 7139  29.637   5.976  -0.097
   64XTA   HL27 7140  29.847   5.941  -0.193
   64XTA   HL28 7141  29.892   5.975  -0.042
   64XTA   HL29 7142  29.893   5.717  -0.004
   64XTA   HL30 7143  29.844   5.706  -0.167
   64XTA   HL31 7144  30.052   5.822  -0.246
   64XTA   HL32 7145  30.106   5.851  -0.081
   64XTA   HL33 7146  30.119   5.595  -0.037
   64XTA   HL34 7147  30.112   5.569  -0.215
   64XTA   HL35 7148  30.291   5.476  -0.163
   64XTA   HL36 7149  30.352   5.545  -0.003
   64XTA   HL37 7150  30.646   5.423  -0.203
   64XTA   HL38 7151  30.498   5.332  -0.178
   64XTA   HL39 7152  30.502   5.427   0.067
   64XTA   HL40 7153  30.654   5.517   0.024
   64XTA   HL41 7154  30.651   5.336   0.021
   64XTA    CO8 7155  30.673   5.382   1.654
   64XTA    CO9 7156  30.746   5.386   1.421
   64XTA    OA6 7157  30.875   5.419   1.466
   64XTA   HL42 7158  30.753   5.457   1.677
   64XTA   HL43 7159  30.738   5.296   1.633
   64XTA   HL44 7160  30.518   5.751  -0.150
   64XTA   HL45 7161  30.659   5.654  -0.143
   64XTA   CO10 7162  30.560   5.667  -0.189
   64XTA   CO11 7163  30.466   5.555  -0.330
   64XTA    OA7 7164  30.567   5.670  -0.303
   64XTA   HL46 7165  30.513   5.439  -0.392
   64XTA   HL47 7166  30.376   5.586  -0.378
   64XTA   HL48 7167  30.728   5.439   1.321
   64XTA   HL49 7168  30.750   5.283   1.390
   65XTH     NT 7169  28.830   1.001   5.952
   65XTH    CN1 7170  28.735   1.079   6.001
   65XTH     C1 7171  28.752   1.164   6.116
   65XTH     C2 7172  28.648   1.249   6.166
   65XTH     C3 7173  28.526   1.255   6.094
   65XTH     C4 7174  28.510   1.182   5.978
   65XTH     C5 7175  28.614   1.094   5.934
   65XTH    CN2 7176  28.844   0.875   5.985
   65XTH     C6 7177  28.749   0.782   5.940
   65XTH     C7 7178  28.757   0.646   5.988
   65XTH     C8 7179  28.842   0.607   6.091
   65XTH     C9 7180  28.933   0.705   6.140
   65XTH    C10 7181  28.933   0.833   6.087
   65XTH    CN3 7182  28.892   1.033   5.835
   65XTH    C11 7183  28.840   1.007   5.708
   65XTH    C12 7184  28.893   1.059   5.588
   65XTH    C13 7185  29.014   1.135   5.593
   65XTH    C14 7186  29.070   1.162   5.723
   65XTH    C15 7187  29.011   1.115   5.841
   65XTH     H1 7188  28.851   1.152   6.162
   65XTH     H2 7189  28.668   1.305   6.259
   65XTH     H3 7190  28.419   1.163   5.919
   65XTH     H4 7191  28.596   1.047   5.836
   65XTH     H5 7192  28.661   0.816   5.881
   65XTH     H6 7193  28.691   0.568   5.948
   65XTH     H7 7194  29.005   0.669   6.211
   65XTH     H8 7195  29.008   0.904   6.127
   65XTH     H9 7196  28.744   0.956   5.703
   65XTH    H10 7197  28.842   1.026   5.500
   65XTH    H11 7198  29.157   1.224   5.721
   65XTH    H12 7199  29.061   1.143   5.938
   65XTH    OA1 7200  28.413   1.306   6.146
   65XTH    CO1 7201  28.418   1.401   6.249
   65XTH    OA2 7202  28.829   0.483   6.148
   65XTH    CO2 7203  28.693   0.446   6.181
   65XTH    CL1 7204  28.698   0.316   6.265
   65XTH    CL2 7205  28.556   0.271   6.308
   65XTH    CL3 7206  28.565   0.139   6.387
   65XTH    CL4 7207  28.654   0.025   6.325
   65XTH    CO3 7208  28.604  -0.111   6.373
   65XTH    OA3 7209  28.709  -0.212   6.357
   65XTH    CO4 7210  28.686  -0.334   6.427
   65XTH    CT1 7211  28.767  -0.455   6.376
   65XTH    CL5 7212  28.720  -0.582   6.445
   65XTH    CL6 7213  28.572  -0.617   6.419
   65XTH    OA4 7214  29.085   1.169   5.477
   65XTH    CO5 7215  29.012   1.224   5.377
   65XTH    CL7 7216  29.068   1.173   5.239
   65XTH    CL8 7217  29.069   1.029   5.213
   65XTH    CL9 7218  29.123   1.002   5.075
   65XTH   CL10 7219  29.282   1.000   5.070
   65XTH    CO6 7220  29.342   0.921   4.956
   65XTH    OA5 7221  29.485   0.899   4.953
   65XTH    CO7 7222  29.525   0.819   5.055
   65XTH    CT2 7223  29.664   0.762   5.020
   65XTH   CL11 7224  29.676   0.716   4.872
   65XTH   CL12 7225  29.586   0.604   4.821
   65XTH    HL1 7226  28.463   1.359   6.336
   65XTH    HL2 7227  28.477   1.484   6.219
   65XTH    HL3 7228  28.316   1.434   6.275
   65XTH    HL4 7229  28.649   0.530   6.239
   65XTH    HL5 7230  28.625   0.429   6.095
   65XTH    HL6 7231  28.754   0.331   6.355
   65XTH    HL7 7232  28.762   0.248   6.217
   65XTH    HL8 7233  28.487   0.264   6.222
   65XTH    HL9 7234  28.514   0.340   6.377
   65XTH   HL10 7235  28.586   0.155   6.492
   65XTH   HL11 7236  28.470   0.088   6.408
   65XTH   HL12 7237  28.758   0.037   6.350
   65XTH   HL13 7238  28.651   0.022   6.212
   65XTH   HL14 7239  28.593  -0.104   6.483
   65XTH   HL15 7240  28.505  -0.139   6.326
   65XTH   HL16 7241  28.706  -0.309   6.529
   65XTH   HL17 7242  28.579  -0.364   6.411
   65XTH   HL18 7243  28.731  -0.584   6.552
   65XTH   HL19 7244  28.783  -0.662   6.405
   65XTH   HL20 7245  28.551  -0.715   6.462
   65XTH   HL21 7246  28.551  -0.617   6.305
   65XTH   HL22 7247  28.508  -0.546   6.469
   65XTH   HL23 7248  29.022   1.331   5.372
   65XTH   HL24 7249  28.906   1.196   5.376
   65XTH   HL25 7250  29.019   1.223   5.151
   65XTH   HL26 7251  29.170   1.216   5.215
   65XTH   HL27 7252  29.115   0.975   5.292
   65XTH   HL28 7253  28.967   0.987   5.216
   65XTH   HL29 7254  29.082   0.909   5.033
   65XTH   HL30 7255  29.079   1.080   5.020
   65XTH   HL31 7256  29.325   1.093   5.062
   65XTH   HL32 7257  29.307   0.955   5.166
   65XTH   HL33 7258  29.284   0.824   4.954
   65XTH   HL34 7259  29.321   0.985   4.864
   65XTH   HL35 7260  29.459   0.733   5.067
   65XTH   HL36 7261  29.531   0.875   5.156
   65XTH   HL37 7262  29.777   0.694   4.849
   65XTH   HL38 7263  29.643   0.806   4.823
   65XTH   HL39 7264  29.571   0.611   4.716
   65XTH   HL40 7265  29.485   0.622   4.862
   65XTH   HL41 7266  29.620   0.505   4.858
   65XTH    CO8 7267  28.922  -0.436   6.411
   65XTH    CO9 7268  28.755  -0.460   6.219
   65XTH    OA6 7269  28.955  -0.350   6.358
   65XTH   HL42 7270  28.969  -0.525   6.376
   65XTH   HL43 7271  28.948  -0.441   6.521
   65XTH   HL44 7272  29.638   0.563   5.106
   65XTH   HL45 7273  29.796   0.609   5.085
   65XTH   CO10 7274  29.702   0.647   5.117
   65XTH   CO11 7275  29.771   0.874   5.047
   65XTH    OA7 7276  29.710   0.690   5.220
   65XTH   HL46 7277  29.735   0.989   4.976
   65XTH   HL47 7278  29.872   0.845   5.005
   65XTH   HL48 7279  28.855  -0.545   6.170
   65XTH   HL49 7280  28.801  -0.365   6.198
   66XTA     NT 7281  30.231  -0.837   0.067
   66XTA    CN1 7282  30.363  -0.834   0.084
   66XTA     C1 7283  30.434  -0.710   0.108
   66XTA     C2 7284  30.567  -0.719   0.138
   66XTA     C3 7285  30.636  -0.841   0.144
   66XTA     C4 7286  30.573  -0.960   0.110
   66XTA     C5 7287  30.433  -0.957   0.094
   66XTA    CN2 7288  30.171  -0.813  -0.056
   66XTA     C6 7289  30.195  -0.907  -0.162
   66XTA     C7 7290  30.122  -0.904  -0.282
   66XTA     C8 7291  30.029  -0.802  -0.300
   66XTA     C9 7292  30.009  -0.703  -0.196
   66XTA    C10 7293  30.086  -0.704  -0.078
   66XTA    CN3 7294  30.149  -0.849   0.166
   66XTA    C11 7295  30.114  -0.730   0.238
   66XTA    C12 7296  30.020  -0.742   0.336
   66XTA    C13 7297  29.964  -0.866   0.367
   66XTA    C14 7298  30.001  -0.985   0.300
   66XTA    C15 7299  30.088  -0.977   0.186
   66XTA     H1 7300  30.380  -0.615   0.112
   66XTA     H2 7301  30.607  -0.621   0.160
   66XTA     H3 7302  30.624  -1.056   0.098
   66XTA     H4 7303  30.379  -1.047   0.059
   66XTA     H5 7304  30.256  -0.991  -0.131
   66XTA     H6 7305  30.137  -0.972  -0.354
   66XTA     H7 7306  29.932  -0.621  -0.209
   66XTA     H8 7307  30.051  -0.628  -0.016
   66XTA     H9 7308  30.169  -0.639   0.223
   66XTA    H10 7309  29.994  -0.653   0.388
   66XTA    H11 7310  29.937  -1.078   0.308
   66XTA    H12 7311  30.102  -1.060   0.121
   66XTA    OA1 7312  30.771  -0.832   0.174
   66XTA    CO1 7313  30.840  -0.952   0.189
   66XTA    OA2 7314  29.960  -0.789  -0.418
   66XTA    CO2 7315  29.824  -0.754  -0.412
   66XTA    CL1 7316  29.779  -0.819  -0.540
   66XTA    CL2 7317  29.794  -0.972  -0.549
   66XTA    CL3 7318  29.749  -1.027  -0.678
   66XTA    CL4 7319  29.772  -1.181  -0.670
   66XTA    CO3 7320  29.715  -1.248  -0.791
   66XTA    OA3 7321  29.771  -1.204  -0.909
   66XTA    CO4 7322  29.907  -1.248  -0.926
   66XTA    CT1 7323  29.972  -1.190  -1.055
   66XTA    CL5 7324  30.123  -1.241  -1.066
   66XTA    CL6 7325  30.217  -1.212  -0.958
   66XTA    OA4 7326  29.875  -0.863   0.474
   66XTA    CO5 7327  29.865  -0.985   0.547
   66XTA    CL7 7328  29.764  -0.968   0.663
   66XTA    CL8 7329  29.738  -1.105   0.734
   66XTA    CL9 7330  29.713  -1.094   0.888
   66XTA   CL10 7331  29.574  -1.027   0.916
   66XTA    CO6 7332  29.549  -0.994   1.056
   66XTA    OA5 7333  29.667  -0.933   1.104
   66XTA    CO7 7334  29.707  -0.944   1.237
   66XTA    CT2 7335  29.833  -0.857   1.261
   66XTA   CL11 7336  29.835  -0.729   1.170
   66XTA   CL12 7337  29.958  -0.636   1.187
   66XTA    HL1 7338  30.944  -0.930   0.175
   66XTA    HL2 7339  30.815  -0.985   0.287
   66XTA    HL3 7340  30.822  -1.021   0.113
   66XTA    HL4 7341  29.778  -0.784  -0.323
   66XTA    HL5 7342  29.804  -0.644  -0.409
   66XTA    HL6 7343  29.822  -0.764  -0.626
   66XTA    HL7 7344  29.671  -0.794  -0.545
   66XTA    HL8 7345  29.744  -1.023  -0.472
   66XTA    HL9 7346  29.899  -0.997  -0.537
   66XTA   HL10 7347  29.639  -1.006  -0.705
   66XTA   HL11 7348  29.802  -0.996  -0.767
   66XTA   HL12 7349  29.723  -1.227  -0.583
   66XTA   HL13 7350  29.876  -1.204  -0.648
   66XTA   HL14 7351  29.729  -1.359  -0.785
   66XTA   HL15 7352  29.610  -1.224  -0.797
   66XTA   HL16 7353  29.966  -1.232  -0.834
   66XTA   HL17 7354  29.903  -1.352  -0.943
   66XTA   HL18 7355  30.169  -1.198  -1.154
   66XTA   HL19 7356  30.135  -1.344  -1.080
   66XTA   HL20 7357  30.185  -1.263  -0.870
   66XTA   HL21 7358  30.226  -1.100  -0.939
   66XTA   HL22 7359  30.316  -1.236  -0.992
   66XTA   HL23 7360  29.956  -1.037   0.577
   66XTA   HL24 7361  29.823  -1.069   0.486
   66XTA   HL25 7362  29.790  -0.905   0.745
   66XTA   HL26 7363  29.686  -0.921   0.609
   66XTA   HL27 7364  29.650  -1.136   0.676
   66XTA   HL28 7365  29.824  -1.168   0.699
   66XTA   HL29 7366  29.706  -1.200   0.919
   66XTA   HL30 7367  29.791  -1.050   0.948
   66XTA   HL31 7368  29.566  -0.942   0.850
   66XTA   HL32 7369  29.497  -1.089   0.876
   66XTA   HL33 7370  29.462  -0.924   1.071
   66XTA   HL34 7371  29.531  -1.088   1.103
   66XTA   HL35 7372  29.711  -1.045   1.268
   66XTA   HL36 7373  29.630  -0.914   1.307
   66XTA   HL37 7374  29.744  -0.671   1.194
   66XTA   HL38 7375  29.832  -0.757   1.061
   66XTA   HL39 7376  30.048  -0.692   1.220
   66XTA   HL40 7377  29.950  -0.570   1.266
   66XTA   HL41 7378  29.994  -0.581   1.100
   66XTA    CO8 7379  29.983  -1.031  -1.046
   66XTA    CO9 7380  29.895  -1.230  -1.180
   66XTA    OA6 7381  30.052  -0.965  -1.156
   66XTA   HL42 7382  30.036  -1.004  -0.955
   66XTA   HL43 7383  29.881  -0.989  -1.045
   66XTA   HL44 7384  29.957  -0.938   1.106
   66XTA   HL45 7385  30.042  -0.891   1.247
   66XTA   CO10 7386  29.951  -0.935   1.216
   66XTA   CO11 7387  29.846  -0.820   1.416
   66XTA    OA7 7388  29.798  -0.927   1.493
   66XTA   HL46 7389  29.943  -0.805   1.457
   66XTA   HL47 7390  29.781  -0.728   1.429
   66XTA   HL48 7391  29.820  -1.156  -1.213
   66XTA   HL49 7392  29.826  -1.314  -1.152
   67XTA     NT 7393  27.080   5.562   2.134
   67XTA    CN1 7394  27.097   5.675   2.063
   67XTA     C1 7395  26.989   5.760   2.041
   67XTA     C2 7396  27.005   5.882   1.974
   67XTA     C3 7397  27.136   5.912   1.928
   67XTA     C4 7398  27.245   5.821   1.942
   67XTA     C5 7399  27.222   5.701   2.009
   67XTA    CN2 7400  27.136   5.565   2.257
   67XTA     C6 7401  27.265   5.513   2.280
   67XTA     C7 7402  27.321   5.524   2.409
   67XTA     C8 7403  27.241   5.576   2.515
   67XTA     C9 7404  27.110   5.626   2.493
   67XTA    C10 7405  27.058   5.624   2.358
   67XTA    CN3 7406  27.032   5.449   2.076
   67XTA    C11 7407  27.093   5.384   1.961
   67XTA    C12 7408  27.052   5.268   1.911
   67XTA    C13 7409  26.946   5.200   1.974
   67XTA    C14 7410  26.885   5.257   2.083
   67XTA    C15 7411  26.925   5.378   2.129
   67XTA     H1 7412  26.890   5.733   2.077
   67XTA     H2 7413  26.923   5.947   1.950
   67XTA     H3 7414  27.339   5.843   1.894
   67XTA     H4 7415  27.303   5.623   2.014
   67XTA     H5 7416  27.313   5.458   2.198
   67XTA     H6 7417  27.423   5.493   2.430
   67XTA     H7 7418  27.060   5.681   2.569
   67XTA     H8 7419  26.956   5.657   2.343
   67XTA     H9 7420  27.188   5.421   1.924
   67XTA    H10 7421  27.109   5.221   1.832
   67XTA    H11 7422  26.807   5.201   2.134
   67XTA    H12 7423  26.878   5.416   2.228
   67XTA    OA1 7424  27.158   6.023   1.852
   67XTA    CO1 7425  27.060   6.123   1.852
   67XTA    OA2 7426  27.285   5.590   2.643
   67XTA    CO2 7427  27.392   5.505   2.683
   67XTA    CL1 7428  27.393   5.511   2.833
   67XTA    CL2 7429  27.254   5.484   2.896
   67XTA    CL3 7430  27.258   5.450   3.047
   67XTA    CL4 7431  27.139   5.362   3.082
   67XTA    CO3 7432  27.139   5.318   3.233
   67XTA    OA3 7433  27.036   5.221   3.254
   67XTA    CO4 7434  27.015   5.222   3.392
   67XTA    CT1 7435  26.882   5.148   3.424
   67XTA    CL5 7436  26.909   4.997   3.407
   67XTA    CL6 7437  26.996   4.936   3.514
   67XTA    OA4 7438  26.890   5.081   1.934
   67XTA    CO5 7439  26.885   5.055   1.793
   67XTA    CL7 7440  26.772   4.954   1.764
   67XTA    CL8 7441  26.742   4.932   1.612
   67XTA    CL9 7442  26.627   5.029   1.561
   67XTA   CL10 7443  26.553   4.989   1.435
   67XTA    CO6 7444  26.444   5.088   1.391
   67XTA    OA5 7445  26.492   5.217   1.358
   67XTA    CO7 7446  26.536   5.220   1.225
   67XTA    CT2 7447  26.610   5.353   1.200
   67XTA   CL11 7448  26.647   5.386   1.053
   67XTA   CL12 7449  26.522   5.385   0.963
   67XTA    HL1 7450  26.961   6.089   1.823
   67XTA    HL2 7451  27.043   6.156   1.956
   67XTA    HL3 7452  27.093   6.213   1.791
   67XTA    HL4 7453  27.367   5.402   2.638
   67XTA    HL5 7454  27.492   5.543   2.645
   67XTA    HL6 7455  27.437   5.606   2.863
   67XTA    HL7 7456  27.455   5.439   2.869
   67XTA    HL8 7457  27.208   5.396   2.835
   67XTA    HL9 7458  27.191   5.574   2.868
   67XTA   HL10 7459  27.348   5.398   3.084
   67XTA   HL11 7460  27.247   5.543   3.099
   67XTA   HL12 7461  27.144   5.271   3.021
   67XTA   HL13 7462  27.046   5.416   3.065
   67XTA   HL14 7463  27.238   5.282   3.249
   67XTA   HL15 7464  27.127   5.401   3.301
   67XTA   HL16 7465  27.096   5.165   3.436
   67XTA   HL17 7466  27.011   5.324   3.430
   67XTA   HL18 7467  26.955   4.979   3.303
   67XTA   HL19 7468  26.816   4.949   3.410
   67XTA   HL20 7469  26.964   4.951   3.613
   67XTA   HL21 7470  27.091   4.982   3.516
   67XTA   HL22 7471  27.022   4.828   3.504
   67XTA   HL23 7472  26.986   5.019   1.756
   67XTA   HL24 7473  26.879   5.150   1.743
   67XTA   HL25 7474  26.806   4.864   1.819
   67XTA   HL26 7475  26.678   4.994   1.811
   67XTA   HL27 7476  26.831   4.956   1.557
   67XTA   HL28 7477  26.716   4.827   1.599
   67XTA   HL29 7478  26.557   5.047   1.643
   67XTA   HL30 7479  26.664   5.125   1.533
   67XTA   HL31 7480  26.620   4.982   1.354
   67XTA   HL32 7481  26.501   4.891   1.445
   67XTA   HL33 7482  26.379   5.047   1.307
   67XTA   HL34 7483  26.380   5.090   1.476
   67XTA   HL35 7484  26.454   5.212   1.147
   67XTA   HL36 7485  26.599   5.138   1.194
   67XTA   HL37 7486  26.718   5.314   1.018
   67XTA   HL38 7487  26.701   5.481   1.044
   67XTA   HL39 7488  26.545   5.426   0.859
   67XTA   HL40 7489  26.446   5.437   1.011
   67XTA   HL41 7490  26.485   5.280   0.944
   67XTA    CO8 7491  26.775   5.184   3.319
   67XTA    CO9 7492  26.830   5.190   3.565
   67XTA    OA6 7493  26.762   5.287   3.298
   67XTA   HL42 7494  26.677   5.154   3.349
   67XTA   HL43 7495  26.792   5.128   3.231
   67XTA   HL44 7496  26.792   5.439   1.265
   67XTA   HL45 7497  26.716   5.347   1.384
   67XTA   CO10 7498  26.740   5.350   1.280
   67XTA   CO11 7499  26.520   5.471   1.257
   67XTA    OA7 7500  26.798   5.265   1.255
   67XTA   HL46 7501  26.516   5.462   1.400
   67XTA   HL47 7502  26.417   5.469   1.224
   67XTA   HL48 7503  26.921   5.159   3.669
   67XTA   HL49 7504  26.822   5.293   3.562
   68XTA     NT 7505  25.210  -2.541   2.078
   68XTA    CN1 7506  25.260  -2.671   2.056
   68XTA     C1 7507  25.216  -2.740   1.939
   68XTA     C2 7508  25.268  -2.864   1.907
   68XTA     C3 7509  25.358  -2.928   1.993
   68XTA     C4 7510  25.401  -2.863   2.108
   68XTA     C5 7511  25.349  -2.739   2.141
   68XTA    CN2 7512  25.292  -2.440   2.037
   68XTA     C6 7513  25.386  -2.388   2.135
   68XTA     C7 7514  25.466  -2.277   2.108
   68XTA     C8 7515  25.455  -2.216   1.980
   68XTA     C9 7516  25.359  -2.258   1.885
   68XTA    C10 7517  25.277  -2.375   1.912
   68XTA    CN3 7518  25.090  -2.519   2.139
   68XTA    C11 7519  24.998  -2.437   2.076
   68XTA    C12 7520  24.880  -2.402   2.149
   68XTA    C13 7521  24.854  -2.448   2.278
   68XTA    C14 7522  24.954  -2.535   2.335
   68XTA    C15 7523  25.071  -2.560   2.273
   68XTA     H1 7524  25.136  -2.699   1.883
   68XTA     H2 7525  25.237  -2.924   1.826
   68XTA     H3 7526  25.476  -2.908   2.177
   68XTA     H4 7527  25.375  -2.687   2.232
   68XTA     H5 7528  25.386  -2.430   2.231
   68XTA     H6 7529  25.527  -2.225   2.186
   68XTA     H7 7530  25.358  -2.203   1.794
   68XTA     H8 7531  25.208  -2.410   1.837
   68XTA     H9 7532  25.023  -2.389   1.982
   68XTA    H10 7533  24.796  -2.348   2.108
   68XTA    H11 7534  24.953  -2.557   2.441
   68XTA    H12 7535  25.139  -2.616   2.326
   68XTA    OA1 7536  25.409  -3.047   1.947
   68XTA    CO1 7537  25.550  -3.067   1.978
   68XTA    OA2 7538  25.513  -2.091   1.957
   68XTA    CO2 7539  25.620  -2.046   2.046
   68XTA    CL1 7540  25.678  -1.919   1.992
   68XTA    CL2 7541  25.772  -1.852   2.093
   68XTA    CL3 7542  25.919  -1.910   2.085
   68XTA    CL4 7543  26.000  -1.874   2.211
   68XTA    CO3 7544  26.030  -1.729   2.221
   68XTA    OA3 7545  26.044  -1.685   2.358
   68XTA    CO4 7546  26.174  -1.716   2.406
   68XTA    CT1 7547  26.170  -1.686   2.557
   68XTA    CL5 7548  26.144  -1.537   2.577
   68XTA    CL6 7549  26.241  -1.427   2.530
   68XTA    OA4 7550  24.740  -2.420   2.343
   68XTA    CO5 7551  24.747  -2.414   2.488
   68XTA    CL7 7552  24.646  -2.322   2.544
   68XTA    CL8 7553  24.651  -2.323   2.694
   68XTA    CL9 7554  24.586  -2.199   2.751
   68XTA   CL10 7555  24.594  -2.186   2.897
   68XTA    CO6 7556  24.726  -2.213   2.968
   68XTA    OA5 7557  24.834  -2.168   2.890
   68XTA    CO7 7558  24.962  -2.216   2.933
   68XTA    CT2 7559  25.072  -2.181   2.833
   68XTA   CL11 7560  25.110  -2.037   2.833
   68XTA   CL12 7561  24.996  -1.931   2.814
   68XTA    HL1 7562  25.592  -3.154   1.928
   68XTA    HL2 7563  25.611  -2.985   1.967
   68XTA    HL3 7564  25.559  -3.079   2.091
   68XTA    HL4 7565  25.587  -2.025   2.146
   68XTA    HL5 7566  25.701  -2.121   2.056
   68XTA    HL6 7567  25.599  -1.852   1.970
   68XTA    HL7 7568  25.738  -1.943   1.898
   68XTA    HL8 7569  25.738  -1.870   2.202
   68XTA    HL9 7570  25.769  -1.746   2.081
   68XTA   HL10 7571  25.907  -2.020   2.081
   68XTA   HL11 7572  25.974  -1.883   2.002
   68XTA   HL12 7573  26.091  -1.936   2.213
   68XTA   HL13 7574  25.943  -1.913   2.295
   68XTA   HL14 7575  26.119  -1.707   2.159
   68XTA   HL15 7576  25.946  -1.665   2.183
   68XTA   HL16 7577  26.195  -1.814   2.374
   68XTA   HL17 7578  26.247  -1.654   2.356
   68XTA   HL18 7579  26.155  -1.529   2.686
   68XTA   HL19 7580  26.040  -1.511   2.555
   68XTA   HL20 7581  26.234  -1.336   2.592
   68XTA   HL21 7582  26.227  -1.425   2.421
   68XTA   HL22 7583  26.346  -1.457   2.537
   68XTA   HL23 7584  24.846  -2.384   2.519
   68XTA   HL24 7585  24.732  -2.518   2.527
   68XTA   HL25 7586  24.674  -2.220   2.505
   68XTA   HL26 7587  24.541  -2.347   2.508
   68XTA   HL27 7588  24.599  -2.407   2.744
   68XTA   HL28 7589  24.755  -2.319   2.723
   68XTA   HL29 7590  24.639  -2.115   2.706
   68XTA   HL30 7591  24.485  -2.194   2.711
   68XTA   HL31 7592  24.576  -2.087   2.928
   68XTA   HL32 7593  24.512  -2.247   2.936
   68XTA   HL33 7594  24.724  -2.164   3.069
   68XTA   HL34 7595  24.727  -2.316   2.959
   68XTA   HL35 7596  24.962  -2.323   2.952
   68XTA   HL36 7597  24.981  -2.164   3.036
   68XTA   HL37 7598  25.193  -2.027   2.753
   68XTA   HL38 7599  25.160  -2.025   2.928
   68XTA   HL39 7600  24.911  -1.943   2.884
   68XTA   HL40 7601  24.942  -1.937   2.719
   68XTA   HL41 7602  25.033  -1.825   2.826
   68XTA    CO8 7603  26.298  -1.738   2.617
   68XTA    CO9 7604  26.049  -1.769   2.622
   68XTA    OA6 7605  26.301  -1.712   2.721
   68XTA   HL42 7606  26.379  -1.701   2.562
   68XTA   HL43 7607  26.299  -1.851   2.611
   68XTA   HL44 7608  25.035  -2.328   2.685
   68XTA   HL45 7609  24.937  -2.193   2.653
   68XTA   CO10 7610  25.034  -2.221   2.687
   68XTA   CO11 7611  25.194  -2.275   2.856
   68XTA    OA7 7612  25.126  -2.172   2.594
   68XTA   HL46 7613  25.170  -2.379   2.871
   68XTA   HL47 7614  25.256  -2.275   2.773
   68XTA   HL48 7615  25.923  -1.732   2.557
   68XTA   HL49 7616  26.038  -1.719   2.719
   69XTA     NT 7617  27.858  -2.923   2.954
   69XTA    CN1 7618  28.001  -2.928   2.950
   69XTA     C1 7619  28.067  -2.895   2.832
   69XTA     C2 7620  28.207  -2.901   2.833
   69XTA     C3 7621  28.281  -2.937   2.942
   69XTA     C4 7622  28.214  -2.971   3.061
   69XTA     C5 7623  28.076  -2.964   3.066
   69XTA    CN2 7624  27.791  -2.819   3.010
   69XTA     C6 7625  27.716  -2.849   3.124
   69XTA     C7 7626  27.639  -2.746   3.178
   69XTA     C8 7627  27.631  -2.615   3.121
   69XTA     C9 7628  27.698  -2.590   2.998
   69XTA    C10 7629  27.782  -2.692   2.941
   69XTA    CN3 7630  27.797  -3.020   2.884
   69XTA    C11 7631  27.729  -3.004   2.760
   69XTA    C12 7632  27.667  -3.112   2.692
   69XTA    C13 7633  27.688  -3.242   2.744
   69XTA    C14 7634  27.740  -3.261   2.867
   69XTA    C15 7635  27.795  -3.151   2.933
   69XTA     H1 7636  28.029  -2.858   2.740
   69XTA     H2 7637  28.259  -2.872   2.742
   69XTA     H3 7638  28.272  -2.996   3.155
   69XTA     H4 7639  28.028  -2.981   3.167
   69XTA     H5 7640  27.713  -2.934   3.170
   69XTA     H6 7641  27.574  -2.766   3.264
   69XTA     H7 7642  27.681  -2.511   2.935
   69XTA     H8 7643  27.833  -2.679   2.846
   69XTA     H9 7644  27.712  -2.904   2.726
   69XTA    H10 7645  27.611  -3.089   2.600
   69XTA    H11 7646  27.745  -3.356   2.910
   69XTA    H12 7647  27.841  -3.174   3.030
   69XTA    OA1 7648  28.419  -2.948   2.947
   69XTA    CO1 7649  28.483  -2.918   2.829
   69XTA    OA2 7650  27.547  -2.517   3.176
   69XTA    CO2 7651  27.515  -2.401   3.100
   69XTA    CL1 7652  27.420  -2.415   2.977
   69XTA    CL2 7653  27.385  -2.284   2.910
   69XTA    CL3 7654  27.269  -2.306   2.811
   69XTA    CL4 7655  27.312  -2.395   2.691
   69XTA    CO3 7656  27.407  -2.307   2.603
   69XTA    OA3 7657  27.344  -2.191   2.561
   69XTA    CO4 7658  27.391  -2.134   2.441
   69XTA    CT1 7659  27.312  -2.003   2.422
   69XTA    CL5 7660  27.381  -1.934   2.302
   69XTA    CL6 7661  27.521  -1.874   2.310
   69XTA    OA4 7662  27.631  -3.353   2.686
   69XTA    CO5 7663  27.562  -3.339   2.560
   69XTA    CL7 7664  27.658  -3.334   2.442
   69XTA    CL8 7665  27.597  -3.313   2.312
   69XTA    CL9 7666  27.696  -3.307   2.193
   69XTA   CL10 7667  27.788  -3.185   2.184
   69XTA    CO6 7668  27.883  -3.177   2.071
   69XTA    OA5 7669  27.952  -3.054   2.066
   69XTA    CO7 7670  28.031  -3.057   1.948
   69XTA    CT2 7671  28.144  -2.956   1.963
   69XTA   CL11 7672  28.240  -3.013   2.062
   69XTA   CL12 7673  28.353  -2.921   2.110
   69XTA    HL1 7674  28.464  -2.807   2.799
   69XTA    HL2 7675  28.588  -2.921   2.850
   69XTA    HL3 7676  28.458  -2.981   2.743
   69XTA    HL4 7677  27.481  -2.320   3.162
   69XTA    HL5 7678  27.608  -2.364   3.057
   69XTA    HL6 7679  27.335  -2.468   3.012
   69XTA    HL7 7680  27.474  -2.479   2.909
   69XTA    HL8 7681  27.472  -2.237   2.860
   69XTA    HL9 7682  27.353  -2.214   2.984
   69XTA   HL10 7683  27.192  -2.354   2.871
   69XTA   HL11 7684  27.222  -2.217   2.779
   69XTA   HL12 7685  27.240  -2.428   2.618
   69XTA   HL13 7686  27.359  -2.482   2.731
   69XTA   HL14 7687  27.498  -2.281   2.650
   69XTA   HL15 7688  27.443  -2.384   2.525
   69XTA   HL16 7689  27.497  -2.111   2.458
   69XTA   HL17 7690  27.366  -2.197   2.358
   69XTA   HL18 7691  27.315  -1.863   2.264
   69XTA   HL19 7692  27.371  -2.000   2.218
   69XTA   HL20 7693  27.587  -1.960   2.302
   69XTA   HL21 7694  27.533  -1.836   2.414
   69XTA   HL22 7695  27.550  -1.800   2.229
   69XTA   HL23 7696  27.488  -3.259   2.565
   69XTA   HL24 7697  27.511  -3.432   2.543
   69XTA   HL25 7698  27.726  -3.249   2.460
   69XTA   HL26 7699  27.732  -3.412   2.446
   69XTA   HL27 7700  27.526  -3.394   2.302
   69XTA   HL28 7701  27.533  -3.230   2.322
   69XTA   HL29 7702  27.751  -3.400   2.189
   69XTA   HL30 7703  27.636  -3.308   2.108
   69XTA   HL31 7704  27.733  -3.089   2.162
   69XTA   HL32 7705  27.845  -3.173   2.274
   69XTA   HL33 7706  27.945  -3.262   2.082
   69XTA   HL34 7707  27.816  -3.192   1.984
   69XTA   HL35 7708  27.974  -3.030   1.860
   69XTA   HL36 7709  28.065  -3.153   1.921
   69XTA   HL37 7710  28.277  -3.110   2.038
   69XTA   HL38 7711  28.170  -3.026   2.146
   69XTA   HL39 7712  28.438  -2.925   2.039
   69XTA   HL40 7713  28.384  -2.951   2.208
   69XTA   HL41 7714  28.317  -2.824   2.115
   69XTA    CO8 7715  27.322  -1.922   2.555
   69XTA    CO9 7716  27.159  -2.006   2.390
   69XTA    OA6 7717  27.288  -1.785   2.544
   69XTA   HL42 7718  27.427  -1.923   2.582
   69XTA   HL43 7719  27.261  -1.967   2.629
   69XTA   HL44 7720  28.008  -2.822   2.091
   69XTA   HL45 7721  28.135  -2.735   2.026
   69XTA   CO10 7722  28.069  -2.820   2.000
   69XTA   CO11 7723  28.203  -2.946   1.821
   69XTA    OA7 7724  27.981  -2.766   1.900
   69XTA   HL46 7725  28.127  -2.909   1.752
   69XTA   HL47 7726  28.284  -2.876   1.829
   69XTA   HL48 7727  27.127  -1.909   2.358
   69XTA   HL49 7728  27.150  -2.055   2.305
   70XTA     NT 7729  27.262   2.744   3.925
   70XTA    CN1 7730  27.153   2.772   3.854
   70XTA     C1 7731  27.042   2.825   3.918
   70XTA     C2 7732  26.928   2.849   3.844
   70XTA     C3 7733  26.920   2.804   3.708
   70XTA     C4 7734  27.034   2.757   3.646
   70XTA     C5 7735  27.148   2.743   3.721
   70XTA    CN2 7736  27.341   2.849   3.955
   70XTA     C6 7737  27.339   2.903   4.082
   70XTA     C7 7738  27.429   3.006   4.120
   70XTA     C8 7739  27.496   3.073   4.015
   70XTA     C9 7740  27.504   3.022   3.887
   70XTA    C10 7741  27.431   2.908   3.856
   70XTA    CN3 7742  27.313   2.618   3.943
   70XTA    C11 7743  27.229   2.516   3.989
   70XTA    C12 7744  27.282   2.386   4.001
   70XTA    C13 7745  27.418   2.364   3.991
   70XTA    C14 7746  27.500   2.474   3.958
   70XTA    C15 7747  27.449   2.598   3.928
   70XTA     H1 7748  27.038   2.844   4.022
   70XTA     H2 7749  26.845   2.889   3.900
   70XTA     H3 7750  27.033   2.718   3.545
   70XTA     H4 7751  27.230   2.694   3.675
   70XTA     H5 7752  27.278   2.860   4.150
   70XTA     H6 7753  27.432   3.047   4.225
   70XTA     H7 7754  27.557   3.073   3.807
   70XTA     H8 7755  27.439   2.861   3.763
   70XTA     H9 7756  27.126   2.524   3.996
   70XTA    H10 7757  27.222   2.297   4.030
   70XTA    H11 7758  27.605   2.476   3.940
   70XTA    H12 7759  27.529   2.666   3.897
   70XTA    OA1 7760  26.808   2.807   3.630
   70XTA    CO1 7761  26.701   2.873   3.689
   70XTA    OA2 7762  27.563   3.186   4.050
   70XTA    CO2 7763  27.602   3.282   3.950
   70XTA    CL1 7764  27.484   3.343   3.878
   70XTA    CL2 7765  27.523   3.424   3.756
   70XTA    CL3 7766  27.606   3.555   3.782
   70XTA    CL4 7767  27.608   3.656   3.669
   70XTA    CO3 7768  27.681   3.600   3.551
   70XTA    OA3 7769  27.688   3.711   3.457
   70XTA    CO4 7770  27.803   3.718   3.378
   70XTA    CT1 7771  27.800   3.862   3.317
   70XTA    CL5 7772  27.666   3.878   3.242
   70XTA    CL6 7773  27.643   3.775   3.132
   70XTA    OA4 7774  27.459   2.234   4.000
   70XTA    CO5 7775  27.588   2.216   3.942
   70XTA    CL7 7776  27.571   2.186   3.793
   70XTA    CL8 7777  27.549   2.312   3.696
   70XTA    CL9 7778  27.508   2.271   3.551
   70XTA   CL10 7779  27.486   2.397   3.461
   70XTA    CO6 7780  27.611   2.483   3.421
   70XTA    OA5 7781  27.563   2.586   3.333
   70XTA    CO7 7782  27.503   2.687   3.413
   70XTA    CT2 7783  27.476   2.817   3.330
   70XTA   CL11 7784  27.382   2.787   3.207
   70XTA   CL12 7785  27.244   2.733   3.253
   70XTA    HL1 7786  26.631   2.876   3.610
   70XTA    HL2 7787  26.655   2.831   3.778
   70XTA    HL3 7788  26.726   2.978   3.716
   70XTA    HL4 7789  27.655   3.362   4.008
   70XTA    HL5 7790  27.675   3.245   3.878
   70XTA    HL6 7791  27.424   3.399   3.944
   70XTA    HL7 7792  27.432   3.255   3.852
   70XTA    HL8 7793  27.438   3.452   3.705
   70XTA    HL9 7794  27.577   3.359   3.683
   70XTA   HL10 7795  27.565   3.604   3.864
   70XTA   HL11 7796  27.710   3.532   3.810
   70XTA   HL12 7797  27.653   3.745   3.700
   70XTA   HL13 7798  27.508   3.676   3.636
   70XTA   HL14 7799  27.780   3.568   3.561
   70XTA   HL15 7800  27.628   3.523   3.497
   70XTA   HL16 7801  27.892   3.701   3.439
   70XTA   HL17 7802  27.796   3.636   3.306
   70XTA   HL18 7803  27.652   3.977   3.212
   70XTA   HL19 7804  27.586   3.866   3.315
   70XTA   HL20 7805  27.538   3.770   3.107
   70XTA   HL21 7806  27.662   3.671   3.156
   70XTA   HL22 7807  27.695   3.801   3.039
   70XTA   HL23 7808  27.628   2.125   3.992
   70XTA   HL24 7809  27.667   2.296   3.952
   70XTA   HL25 7810  27.658   2.137   3.736
   70XTA   HL26 7811  27.491   2.117   3.774
   70XTA   HL27 7812  27.474   2.391   3.724
   70XTA   HL28 7813  27.643   2.360   3.675
   70XTA   HL29 7814  27.585   2.206   3.511
   70XTA   HL30 7815  27.415   2.214   3.551
   70XTA   HL31 7816  27.438   2.374   3.368
   70XTA   HL32 7817  27.409   2.447   3.515
   70XTA   HL33 7818  27.652   2.530   3.512
   70XTA   HL34 7819  27.679   2.413   3.377
   70XTA   HL35 7820  27.580   2.720   3.485
   70XTA   HL36 7821  27.416   2.657   3.472
   70XTA   HL37 7822  27.428   2.716   3.132
   70XTA   HL38 7823  27.361   2.876   3.142
   70XTA   HL39 7824  27.204   2.785   3.340
   70XTA   HL40 7825  27.256   2.628   3.280
   70XTA   HL41 7826  27.183   2.734   3.160
   70XTA    CO8 7827  27.923   3.893   3.229
   70XTA    CO9 7828  27.795   3.965   3.434
   70XTA    OA6 7829  27.940   3.811   3.160
   70XTA   HL42 7830  28.012   3.924   3.287
   70XTA   HL43 7831  27.896   3.978   3.168
   70XTA   HL44 7832  27.649   2.782   3.220
   70XTA   HL45 7833  27.598   2.944   3.213
   70XTA   CO10 7834  27.614   2.862   3.284
   70XTA   CO11 7835  27.414   2.940   3.396
   70XTA    OA7 7836  27.690   2.874   3.364
   70XTA   HL46 7837  27.337   2.904   3.507
   70XTA   HL47 7838  27.493   2.989   3.458
   70XTA   HL48 7839  27.677   3.947   3.509
   70XTA   HL49 7840  27.867   3.941   3.506
   71XTA     NT 7841  27.003  -3.273   4.382
   71XTA    CN1 7842  27.008  -3.401   4.348
   71XTA     C1 7843  26.887  -3.483   4.350
   71XTA     C2 7844  26.895  -3.617   4.314
   71XTA     C3 7845  27.006  -3.664   4.243
   71XTA     C4 7846  27.123  -3.584   4.245
   71XTA     C5 7847  27.128  -3.456   4.297
   71XTA    CN2 7848  27.058  -3.226   4.496
   71XTA     C6 7849  27.192  -3.185   4.496
   71XTA     C7 7850  27.248  -3.129   4.610
   71XTA     C8 7851  27.164  -3.102   4.722
   71XTA     C9 7852  27.028  -3.139   4.725
   71XTA    C10 7853  26.973  -3.203   4.608
   71XTA    CN3 7854  26.938  -3.196   4.297
   71XTA    C11 7855  26.999  -3.155   4.175
   71XTA    C12 7856  26.936  -3.068   4.085
   71XTA    C13 7857  26.807  -3.027   4.109
   71XTA    C14 7858  26.747  -3.066   4.231
   71XTA    C15 7859  26.816  -3.131   4.332
   71XTA     H1 7860  26.794  -3.434   4.378
   71XTA     H2 7861  26.803  -3.674   4.316
   71XTA     H3 7862  27.221  -3.616   4.199
   71XTA     H4 7863  27.219  -3.402   4.280
   71XTA     H5 7864  27.252  -3.211   4.409
   71XTA     H6 7865  27.351  -3.115   4.620
   71XTA     H7 7866  26.970  -3.128   4.814
   71XTA     H8 7867  26.869  -3.240   4.613
   71XTA     H9 7868  27.096  -3.187   4.148
   71XTA    H10 7869  26.986  -3.028   4.000
   71XTA    H11 7870  26.644  -3.028   4.247
   71XTA    H12 7871  26.770  -3.162   4.427
   71XTA    OA1 7872  27.002  -3.787   4.186
   71XTA    CO1 7873  27.119  -3.836   4.126
   71XTA    OA2 7874  27.211  -3.047   4.837
   71XTA    CO2 7875  27.294  -2.934   4.831
   71XTA    CL1 7876  27.199  -2.816   4.786
   71XTA    CL2 7877  27.271  -2.681   4.794
   71XTA    CL3 7878  27.319  -2.630   4.931
   71XTA    CL4 7879  27.424  -2.520   4.916
   71XTA    CO3 7880  27.495  -2.467   5.034
   71XTA    OA3 7881  27.524  -2.576   5.116
   71XTA    CO4 7882  27.639  -2.568   5.198
   71XTA    CT1 7883  27.679  -2.708   5.256
   71XTA    CL5 7884  27.743  -2.797   5.146
   71XTA    CL6 7885  27.841  -2.721   5.063
   71XTA    OA4 7886  26.740  -2.953   4.018
   71XTA    CO5 7887  26.715  -2.817   4.047
   71XTA    CL7 7888  26.636  -2.746   3.937
   71XTA    CL8 7889  26.724  -2.668   3.843
   71XTA    CL9 7890  26.823  -2.750   3.764
   71XTA   CL10 7891  26.898  -2.665   3.660
   71XTA    CO6 7892  27.025  -2.578   3.705
   71XTA    OA5 7893  27.008  -2.443   3.665
   71XTA    CO7 7894  26.916  -2.379   3.748
   71XTA    CT2 7895  26.874  -2.243   3.696
   71XTA   CL11 7896  26.990  -2.142   3.696
   71XTA   CL12 7897  26.972  -2.013   3.614
   71XTA    HL1 7898  27.136  -3.780   4.034
   71XTA    HL2 7899  27.206  -3.838   4.191
   71XTA    HL3 7900  27.105  -3.941   4.101
   71XTA    HL4 7901  27.335  -2.918   4.932
   71XTA    HL5 7902  27.369  -2.961   4.755
   71XTA    HL6 7903  27.120  -2.807   4.855
   71XTA    HL7 7904  27.164  -2.830   4.687
   71XTA    HL8 7905  27.202  -2.606   4.749
   71XTA    HL9 7906  27.352  -2.676   4.720
   71XTA   HL10 7907  27.246  -2.609   5.015
   71XTA   HL11 7908  27.382  -2.702   4.974
   71XTA   HL12 7909  27.385  -2.435   4.862
   71XTA   HL13 7910  27.509  -2.548   4.861
   71XTA   HL14 7911  27.576  -2.399   4.996
   71XTA   HL15 7912  27.432  -2.394   5.089
   71XTA   HL16 7913  27.721  -2.526   5.140
   71XTA   HL17 7914  27.604  -2.503   5.277
   71XTA   HL18 7915  27.656  -2.829   5.082
   71XTA   HL19 7916  27.792  -2.882   5.185
   71XTA   HL20 7917  27.793  -2.642   5.006
   71XTA   HL21 7918  27.879  -2.775   4.977
   71XTA   HL22 7919  27.921  -2.672   5.116
   71XTA   HL23 7920  26.818  -2.775   4.053
   71XTA   HL24 7921  26.673  -2.814   4.147
   71XTA   HL25 7922  26.576  -2.818   3.885
   71XTA   HL26 7923  26.583  -2.662   3.986
   71XTA   HL27 7924  26.654  -2.621   3.777
   71XTA   HL28 7925  26.771  -2.589   3.890
   71XTA   HL29 7926  26.898  -2.786   3.835
   71XTA   HL30 7927  26.784  -2.841   3.721
   71XTA   HL31 7928  26.927  -2.724   3.572
   71XTA   HL32 7929  26.822  -2.594   3.622
   71XTA   HL33 7930  27.028  -2.574   3.815
   71XTA   HL34 7931  27.123  -2.616   3.676
   71XTA   HL35 7932  26.945  -2.372   3.854
   71XTA   HL36 7933  26.826  -2.440   3.753
   71XTA   HL37 7934  27.085  -2.187   3.654
   71XTA   HL38 7935  27.012  -2.110   3.804
   71XTA   HL39 7936  26.916  -1.940   3.674
   71XTA   HL40 7937  26.923  -2.034   3.523
   71XTA   HL41 7938  27.072  -1.973   3.592
   71XTA    CO8 7939  27.554  -2.773   5.316
   71XTA    CO9 7940  27.766  -2.688   5.378
   71XTA    OA6 7941  27.526  -2.879   5.297
   71XTA   HL42 7942  27.466  -2.715   5.278
   71XTA   HL43 7943  27.550  -2.746   5.425
   71XTA   HL44 7944  26.726  -2.090   3.714
   71XTA   HL45 7945  26.657  -2.240   3.753
   71XTA   CO10 7946  26.752  -2.187   3.768
   71XTA   CO11 7947  26.819  -2.269   3.556
   71XTA    OA7 7948  26.762  -2.163   3.878
   71XTA   HL46 7949  26.758  -2.140   3.517
   71XTA   HL47 7950  26.900  -2.295   3.484
   71XTA   HL48 7951  27.707  -2.602   5.472
   71XTA   HL49 7952  27.779  -2.779   5.443
   72XTA     NT 7953  25.958  -0.750   4.081
   72XTA    CN1 7954  25.887  -0.668   3.999
   72XTA     C1 7955  25.763  -0.626   4.043
   72XTA     C2 7956  25.690  -0.530   3.959
   72XTA     C3 7957  25.733  -0.493   3.832
   72XTA     C4 7958  25.852  -0.549   3.792
   72XTA     C5 7959  25.938  -0.626   3.874
   72XTA    CN2 7960  26.050  -0.700   4.176
   72XTA     C6 7961  26.179  -0.751   4.194
   72XTA     C7 7962  26.264  -0.702   4.290
   72XTA     C8 7963  26.216  -0.607   4.381
   72XTA     C9 7964  26.091  -0.545   4.362
   72XTA    C10 7965  26.015  -0.588   4.255
   72XTA    CN3 7966  25.938  -0.879   4.085
   72XTA    C11 7967  25.829  -0.927   4.152
   72XTA    C12 7968  25.809  -1.064   4.159
   72XTA    C13 7969  25.892  -1.160   4.093
   72XTA    C14 7970  26.002  -1.108   4.012
   72XTA    C15 7971  26.022  -0.967   4.016
   72XTA     H1 7972  25.712  -0.669   4.133
   72XTA     H2 7973  25.593  -0.512   3.994
   72XTA     H3 7974  25.895  -0.524   3.689
   72XTA     H4 7975  26.036  -0.657   3.843
   72XTA     H5 7976  26.213  -0.832   4.132
   72XTA     H6 7977  26.354  -0.754   4.312
   72XTA     H7 7978  26.054  -0.472   4.427
   72XTA     H8 7979  25.914  -0.552   4.241
   72XTA     H9 7980  25.762  -0.852   4.189
   72XTA    H10 7981  25.714  -1.096   4.195
   72XTA    H11 7982  26.059  -1.180   3.950
   72XTA    H12 7983  26.097  -0.929   3.946
   72XTA    OA1 7984  25.656  -0.421   3.744
   72XTA    CO1 7985  25.542  -0.350   3.796
   72XTA    OA2 7986  26.289  -0.575   4.494
   72XTA    CO2 7987  26.411  -0.513   4.460
   72XTA    CL1 7988  26.521  -0.556   4.550
   72XTA    CL2 7989  26.539  -0.698   4.542
   72XTA    CL3 7990  26.633  -0.755   4.653
   72XTA    CL4 7991  26.668  -0.895   4.619
   72XTA    CO3 7992  26.784  -0.940   4.703
   72XTA    OA3 7993  26.821  -1.074   4.666
   72XTA    CO4 7994  26.929  -1.124   4.745
   72XTA    CT1 7995  26.989  -1.240   4.672
   72XTA    CL5 7996  27.141  -1.246   4.719
   72XTA    CL6 7997  27.235  -1.144   4.659
   72XTA    OA4 7998  25.869  -1.297   4.099
   72XTA    CO5 7999  25.979  -1.385   4.081
   72XTA    CL7 8000  25.978  -1.513   4.165
   72XTA    CL8 8001  25.846  -1.592   4.140
   72XTA    CL9 8002  25.809  -1.697   4.246
   72XTA   CL10 8003  25.766  -1.831   4.171
   72XTA    CO6 8004  25.693  -1.918   4.273
   72XTA    OA5 8005  25.565  -1.856   4.292
   72XTA    CO7 8006  25.495  -1.892   4.410
   72XTA    CT2 8007  25.359  -1.817   4.427
   72XTA   CL11 8008  25.306  -1.868   4.561
   72XTA   CL12 8009  25.183  -1.800   4.616
   72XTA    HL1 8010  25.494  -0.302   3.707
   72XTA    HL2 8011  25.473  -0.404   3.858
   72XTA    HL3 8012  25.593  -0.282   3.865
   72XTA    HL4 8013  26.439  -0.550   4.358
   72XTA    HL5 8014  26.416  -0.404   4.449
   72XTA    HL6 8015  26.495  -0.526   4.658
   72XTA    HL7 8016  26.611  -0.498   4.511
   72XTA    HL8 8017  26.568  -0.714   4.436
   72XTA    HL9 8018  26.439  -0.744   4.556
   72XTA   HL10 8019  26.720  -0.691   4.628
   72XTA   HL11 8020  26.592  -0.738   4.749
   72XTA   HL12 8021  26.685  -0.899   4.508
   72XTA   HL13 8022  26.575  -0.952   4.645
   72XTA   HL14 8023  26.872  -0.875   4.695
   72XTA   HL15 8024  26.759  -0.941   4.812
   72XTA   HL16 8025  27.011  -1.056   4.772
   72XTA   HL17 8026  26.882  -1.158   4.837
   72XTA   HL18 8027  27.183  -1.344   4.698
   72XTA   HL19 8028  27.139  -1.234   4.826
   72XTA   HL20 8029  27.195  -1.043   4.678
   72XTA   HL21 8030  27.257  -1.151   4.548
   72XTA   HL22 8031  27.333  -1.154   4.703
   72XTA   HL23 8032  26.070  -1.330   4.100
   72XTA   HL24 8033  25.988  -1.420   3.978
   72XTA   HL25 8034  26.071  -1.567   4.160
   72XTA   HL26 8035  25.979  -1.483   4.273
   72XTA   HL27 8036  25.761  -1.521   4.120
   72XTA   HL28 8037  25.850  -1.650   4.052
   72XTA   HL29 8038  25.892  -1.734   4.298
   72XTA   HL30 8039  25.742  -1.648   4.319
   72XTA   HL31 8040  25.715  -1.816   4.072
   72XTA   HL32 8041  25.868  -1.874   4.140
   72XTA   HL33 8042  25.661  -2.008   4.222
   72XTA   HL34 8043  25.756  -1.944   4.358
   72XTA   HL35 8044  25.561  -1.859   4.491
   72XTA   HL36 8045  25.478  -1.997   4.412
   72XTA   HL37 8046  25.391  -1.856   4.632
   72XTA   HL38 8047  25.288  -1.974   4.547
   72XTA   HL39 8048  25.128  -1.873   4.674
   72XTA   HL40 8049  25.110  -1.755   4.545
   72XTA   HL41 8050  25.222  -1.724   4.688
   72XTA    CO8 8051  26.983  -1.222   4.515
   72XTA    CO9 8052  26.907  -1.367   4.709
   72XTA    OA6 8053  27.036  -1.335   4.449
   72XTA   HL42 8054  27.023  -1.125   4.489
   72XTA   HL43 8055  26.876  -1.219   4.481
   72XTA   HL44 8056  25.185  -1.768   4.302
   72XTA   HL45 8057  25.324  -1.847   4.220
   72XTA   CO10 8058  25.263  -1.845   4.313
   72XTA   CO11 8059  25.388  -1.669   4.419
   72XTA    OA7 8060  25.191  -1.960   4.329
   72XTA   HL46 8061  25.448  -1.640   4.328
   72XTA   HL47 8062  25.295  -1.603   4.414
   72XTA   HL48 8063  26.808  -1.357   4.660
   72XTA   HL49 8064  26.951  -1.446   4.649
   73XTA     NT 8065  26.093  -1.164   5.815
   73XTA    CN1 8066  26.160  -1.276   5.851
   73XTA     C1 8067  26.158  -1.323   5.980
   73XTA     C2 8068  26.223  -1.439   6.025
   73XTA     C3 8069  26.291  -1.519   5.932
   73XTA     C4 8070  26.284  -1.484   5.797
   73XTA     C5 8071  26.214  -1.364   5.757
   73XTA    CN2 8072  26.142  -1.045   5.857
   73XTA     C6 8073  26.090  -0.977   5.962
   73XTA     C7 8074  26.141  -0.852   5.997
   73XTA     C8 8075  26.253  -0.794   5.927
   73XTA     C9 8076  26.314  -0.871   5.829
   73XTA    C10 8077  26.263  -0.995   5.794
   73XTA    CN3 8078  25.965  -1.191   5.784
   73XTA    C11 8079  25.938  -1.198   5.650
   73XTA    C12 8080  25.801  -1.213   5.614
   73XTA    C13 8081  25.692  -1.220   5.708
   73XTA    C14 8082  25.725  -1.214   5.842
   73XTA    C15 8083  25.861  -1.201   5.880
   73XTA     H1 8084  26.100  -1.260   6.062
   73XTA     H2 8085  26.224  -1.461   6.128
   73XTA     H3 8086  26.345  -1.543   5.731
   73XTA     H4 8087  26.219  -1.333   5.649
   73XTA     H5 8088  26.007  -1.016   6.013
   73XTA     H6 8089  26.095  -0.791   6.079
   73XTA     H7 8090  26.401  -0.843   5.773
   73XTA     H8 8091  26.307  -1.046   5.708
   73XTA     H9 8092  26.000  -1.200   5.568
   73XTA    H10 8093  25.787  -1.207   5.505
   73XTA    H11 8094  25.644  -1.219   5.907
   73XTA    H12 8095  25.893  -1.199   5.989
   73XTA    OA1 8096  26.356  -1.635   5.974
   73XTA    CO1 8097  26.452  -1.702   5.892
   73XTA    OA2 8098  26.304  -0.674   5.974
   73XTA    CO2 8099  26.215  -0.580   6.031
   73XTA    CL1 8100  26.262  -0.437   6.048
   73XTA    CL2 8101  26.152  -0.343   6.110
   73XTA    CL3 8102  26.077  -0.396   6.226
   73XTA    CL4 8103  25.979  -0.291   6.292
   73XTA    CO3 8104  25.922  -0.345   6.428
   73XTA    OA3 8105  25.824  -0.253   6.472
   73XTA    CO4 8106  25.725  -0.313   6.555
   73XTA    CT1 8107  25.692  -0.214   6.667
   73XTA    CL5 8108  25.592  -0.267   6.766
   73XTA    CL6 8109  25.550  -0.159   6.871
   73XTA    OA4 8110  25.562  -1.232   5.664
   73XTA    CO5 8111  25.524  -1.162   5.545
   73XTA    CL7 8112  25.533  -1.010   5.561
   73XTA    CL8 8113  25.510  -0.936   5.433
   73XTA    CL9 8114  25.639  -0.929   5.345
   73XTA   CL10 8115  25.630  -0.833   5.226
   73XTA    CO6 8116  25.736  -0.858   5.121
   73XTA    OA5 8117  25.709  -0.986   5.074
   73XTA    CO7 8118  25.817  -1.031   4.991
   73XTA    CT2 8119  25.789  -1.175   4.950
   73XTA   CL11 8120  25.749  -1.258   5.071
   73XTA   CL12 8121  25.852  -1.260   5.184
   73XTA    HL1 8122  26.399  -1.746   5.809
   73XTA    HL2 8123  26.533  -1.643   5.852
   73XTA    HL3 8124  26.493  -1.782   5.953
   73XTA    HL4 8125  26.114  -0.578   5.978
   73XTA    HL5 8126  26.187  -0.612   6.126
   73XTA    HL6 8127  26.286  -0.397   5.950
   73XTA    HL7 8128  26.347  -0.432   6.115
   73XTA    HL8 8129  26.080  -0.307   6.033
   73XTA    HL9 8130  26.200  -0.250   6.137
   73XTA   HL10 8131  26.024  -0.491   6.218
   73XTA   HL11 8132  26.156  -0.421   6.299
   73XTA   HL12 8133  25.909  -0.265   6.212
   73XTA   HL13 8134  26.038  -0.204   6.322
   73XTA   HL14 8135  25.885  -0.448   6.420
   73XTA   HL15 8136  26.000  -0.337   6.506
   73XTA   HL16 8137  25.633  -0.338   6.499
   73XTA   HL17 8138  25.760  -0.407   6.599
   73XTA   HL18 8139  25.622  -0.360   6.816
   73XTA   HL19 8140  25.508  -0.309   6.706
   73XTA   HL20 8141  25.647  -0.137   6.928
   73XTA   HL21 8142  25.474  -0.206   6.938
   73XTA   HL22 8143  25.510  -0.062   6.838
   73XTA   HL23 8144  25.423  -1.188   5.506
   73XTA   HL24 8145  25.598  -1.188   5.470
   73XTA   HL25 8146  25.448  -0.982   5.627
   73XTA   HL26 8147  25.627  -0.985   5.606
   73XTA   HL27 8148  25.427  -0.968   5.380
   73XTA   HL28 8149  25.490  -0.833   5.470
   73XTA   HL29 8150  25.726  -0.907   5.406
   73XTA   HL30 8151  25.667  -1.027   5.304
   73XTA   HL31 8152  25.525  -0.852   5.196
   73XTA   HL32 8153  25.626  -0.730   5.259
   73XTA   HL33 8154  25.724  -0.784   5.044
   73XTA   HL34 8155  25.832  -0.848   5.157
   73XTA   HL35 8156  25.917  -1.021   5.036
   73XTA   HL36 8157  25.820  -0.974   4.895
   73XTA   HL37 8158  25.734  -1.358   5.038
   73XTA   HL38 8159  25.661  -1.226   5.123
   73XTA   HL39 8160  25.867  -1.159   5.219
   73XTA   HL40 8161  25.947  -1.300   5.153
   73XTA   HL41 8162  25.813  -1.320   5.264
   73XTA    CO8 8163  25.647  -0.081   6.603
   73XTA    CO9 8164  25.832  -0.197   6.743
   73XTA    OA6 8165  25.849  -0.324   6.818
   73XTA   HL42 8166  25.711  -0.060   6.514
   73XTA   HL43 8167  25.673  -0.006   6.681
   73XTA   HL44 8168  25.901  -1.340   4.867
   73XTA   HL45 8169  26.006  -1.235   4.965
   73XTA   CO10 8170  25.925  -1.235   4.891
   73XTA   CO11 8171  25.678  -1.182   4.841
   73XTA    OA7 8172  25.653  -1.320   4.818
   73XTA   HL46 8173  25.587  -1.125   4.870
   73XTA   HL47 8174  25.710  -1.131   4.748
   73XTA   HL48 8175  25.829  -0.115   6.812
   73XTA   HL49 8176  25.915  -0.189   6.680
   74XTA     NT 8177  31.075  -0.899   2.229
   74XTA    CN1 8178  31.041  -0.861   2.109
   74XTA     C1 8179  30.932  -0.782   2.077
   74XTA     C2 8180  30.898  -0.743   1.948
   74XTA     C3 8181  30.978  -0.776   1.841
   74XTA     C4 8182  31.092  -0.862   1.868
   74XTA     C5 8183  31.123  -0.899   2.001
   74XTA    CN2 8184  31.014  -1.006   2.292
   74XTA     C6 8185  31.038  -1.028   2.428
   74XTA     C7 8186  30.983  -1.142   2.490
   74XTA     C8 8187  30.898  -1.234   2.422
   74XTA     C9 8188  30.880  -1.216   2.288
   74XTA    C10 8189  30.938  -1.103   2.220
   74XTA    CN3 8190  31.180  -0.833   2.293
   74XTA    C11 8191  31.315  -0.853   2.253
   74XTA    C12 8192  31.413  -0.773   2.316
   74XTA    C13 8193  31.386  -0.688   2.423
   74XTA    C14 8194  31.255  -0.665   2.465
   74XTA    C15 8195  31.154  -0.736   2.400
   74XTA     H1 8196  30.871  -0.739   2.154
   74XTA     H2 8197  30.812  -0.672   1.937
   74XTA     H3 8198  31.167  -0.893   1.793
   74XTA     H4 8199  31.216  -0.957   2.025
   74XTA     H5 8200  31.105  -0.963   2.483
   74XTA     H6 8201  31.008  -1.158   2.593
   74XTA     H7 8202  30.823  -1.294   2.240
   74XTA     H8 8203  30.933  -1.091   2.106
   74XTA     H9 8204  31.352  -0.915   2.170
   74XTA    H10 8205  31.513  -0.787   2.278
   74XTA    H11 8206  31.236  -0.602   2.549
   74XTA    H12 8207  31.050  -0.720   2.438
   74XTA    OA1 8208  30.955  -0.739   1.713
   74XTA    CO1 8209  30.825  -0.718   1.664
   74XTA    OA2 8210  30.852  -1.352   2.477
   74XTA    CO2 8211  30.867  -1.377   2.619
   74XTA    CL1 8212  30.747  -1.297   2.684
   74XTA    CL2 8213  30.754  -1.286   2.843
   74XTA    CL3 8214  30.636  -1.210   2.904
   74XTA    CL4 8215  30.652  -1.060   2.892
   74XTA    CO3 8216  30.529  -0.990   2.949
   74XTA    OA3 8217  30.427  -1.012   2.850
   74XTA    CO4 8218  30.294  -0.968   2.883
   74XTA    CT1 8219  30.196  -0.997   2.769
   74XTA    CL5 8220  30.057  -0.955   2.807
   74XTA    CL6 8221  29.997  -1.042   2.920
   74XTA    OA4 8222  31.475  -0.606   2.490
   74XTA    CO5 8223  31.617  -0.599   2.438
   74XTA    CL7 8224  31.682  -0.465   2.489
   74XTA    CL8 8225  31.821  -0.434   2.428
   74XTA    CL9 8226  31.809  -0.332   2.319
   74XTA   CL10 8227  31.926  -0.307   2.229
   74XTA    CO6 8228  31.938  -0.418   2.125
   74XTA    OA5 8229  32.049  -0.411   2.046
   74XTA    CO7 8230  32.020  -0.348   1.924
   74XTA    CT2 8231  32.152  -0.338   1.843
   74XTA   CL11 8232  32.255  -0.251   1.915
   74XTA   CL12 8233  32.189  -0.137   1.992
   74XTA    HL1 8234  30.771  -0.645   1.720
   74XTA    HL2 8235  30.827  -0.709   1.558
   74XTA    HL3 8236  30.759  -0.811   1.677
   74XTA    HL4 8237  30.862  -1.486   2.649
   74XTA    HL5 8238  30.957  -1.344   2.658
   74XTA    HL6 8239  30.651  -1.334   2.650
   74XTA    HL7 8240  30.745  -1.197   2.649
   74XTA    HL8 8241  30.843  -1.236   2.874
   74XTA    HL9 8242  30.751  -1.387   2.884
   74XTA   HL10 8243  30.544  -1.234   2.853
   74XTA   HL11 8244  30.633  -1.236   3.013
   74XTA   HL12 8245  30.657  -1.041   2.786
   74XTA   HL13 8246  30.749  -1.021   2.924
   74XTA   HL14 8247  30.506  -1.024   3.048
   74XTA   HL15 8248  30.547  -0.880   2.965
   74XTA   HL16 8249  30.262  -1.022   2.976
   74XTA   HL17 8250  30.299  -0.858   2.907
   74XTA   HL18 8251  29.997  -0.964   2.714
   74XTA   HL19 8252  30.067  -0.853   2.835
   74XTA   HL20 8253  29.990  -1.149   2.890
   74XTA   HL21 8254  29.897  -1.011   2.930
   74XTA   HL22 8255  30.047  -1.028   3.022
   74XTA   HL23 8256  31.612  -0.591   2.334
   74XTA   HL24 8257  31.686  -0.680   2.472
   74XTA   HL25 8258  31.621  -0.382   2.468
   74XTA   HL26 8259  31.693  -0.476   2.592
   74XTA   HL27 8260  31.889  -0.396   2.498
   74XTA   HL28 8261  31.877  -0.517   2.388
   74XTA   HL29 8262  31.727  -0.359   2.253
   74XTA   HL30 8263  31.783  -0.242   2.373
   74XTA   HL31 8264  31.897  -0.211   2.185
   74XTA   HL32 8265  32.014  -0.294   2.290
   74XTA   HL33 8266  31.961  -0.510   2.166
   74XTA   HL34 8267  31.839  -0.432   2.076
   74XTA   HL35 8268  31.966  -0.251   1.943
   74XTA   HL36 8269  31.949  -0.406   1.866
   74XTA   HL37 8270  32.326  -0.212   1.847
   74XTA   HL38 8271  32.299  -0.302   2.004
   74XTA   HL39 8272  32.138  -0.080   1.928
   74XTA   HL40 8273  32.262  -0.070   2.042
   74XTA   HL41 8274  32.115  -0.170   2.068
   74XTA    CO8 8275  30.208  -1.147   2.733
   74XTA    CO9 8276  30.230  -0.923   2.638
   74XTA    OA6 8277  30.170  -1.189   2.632
   74XTA   HL42 8278  30.196  -1.200   2.826
   74XTA   HL43 8279  30.324  -1.165   2.724
   74XTA   HL44 8280  32.009  -0.333   1.637
   74XTA   HL45 8281  32.100  -0.173   1.719
   74XTA   CO10 8282  32.123  -0.278   1.707
   74XTA   CO11 8283  32.203  -0.484   1.822
   74XTA    OA7 8284  32.142  -0.549   1.758
   74XTA   HL46 8285  32.296  -0.490   1.771
   74XTA   HL47 8286  32.216  -0.519   1.924
   74XTA   HL48 8287  30.133  -0.944   2.535
   74XTA   HL49 8288  30.225  -0.820   2.662
   75XTA     NT 8289  25.187  -0.822   5.896
   75XTA    CN1 8290  25.130  -0.796   6.017
   75XTA     C1 8291  25.180  -0.857   6.136
   75XTA     C2 8292  25.135  -0.827   6.263
   75XTA     C3 8293  25.041  -0.723   6.270
   75XTA     C4 8294  24.990  -0.657   6.157
   75XTA     C5 8295  25.043  -0.685   6.033
   75XTA    CN2 8296  25.122  -0.890   5.799
   75XTA     C6 8297  25.178  -1.010   5.763
   75XTA     C7 8298  25.135  -1.078   5.643
   75XTA     C8 8299  25.032  -1.023   5.569
   75XTA     C9 8300  24.978  -0.899   5.609
   75XTA    C10 8301  25.017  -0.834   5.728
   75XTA    CN3 8302  25.314  -0.789   5.863
   75XTA    C11 8303  25.338  -0.693   5.763
   75XTA    C12 8304  25.470  -0.662   5.733
   75XTA    C13 8305  25.578  -0.733   5.792
   75XTA    C14 8306  25.554  -0.831   5.891
   75XTA    C15 8307  25.421  -0.855   5.929
   75XTA     H1 8308  25.249  -0.937   6.124
   75XTA     H2 8309  25.166  -0.878   6.353
   75XTA     H3 8310  24.911  -0.580   6.175
   75XTA     H4 8311  25.016  -0.630   5.946
   75XTA     H5 8312  25.263  -1.048   5.814
   75XTA     H6 8313  25.181  -1.173   5.620
   75XTA     H7 8314  24.901  -0.846   5.545
   75XTA     H8 8315  24.979  -0.738   5.764
   75XTA     H9 8316  25.253  -0.652   5.709
   75XTA    H10 8317  25.492  -0.583   5.666
   75XTA    H11 8318  25.637  -0.890   5.934
   75XTA    H12 8319  25.396  -0.943   5.986
   75XTA    OA1 8320  25.004  -0.676   6.394
   75XTA    CO1 8321  25.066  -0.728   6.512
   75XTA    OA2 8322  25.008  -1.068   5.441
   75XTA    CO2 8323  25.065  -0.982   5.350
   75XTA    CL1 8324  25.171  -1.061   5.270
   75XTA    CL2 8325  25.234  -0.976   5.155
   75XTA    CL3 8326  25.302  -1.069   5.054
   75XTA    CL4 8327  25.322  -0.998   4.919
   75XTA    CO3 8328  25.419  -0.871   4.920
   75XTA    OA3 8329  25.376  -0.754   5.000
   75XTA    CO4 8330  25.459  -0.644   4.991
   75XTA    CT1 8331  25.395  -0.527   5.059
   75XTA    CL5 8332  25.245  -0.520   5.023
   75XTA    CL6 8333  25.220  -0.529   4.865
   75XTA    OA4 8334  25.704  -0.704   5.740
   75XTA    CO5 8335  25.814  -0.778   5.779
   75XTA    CL7 8336  25.942  -0.751   5.693
   75XTA    CL8 8337  25.960  -0.841   5.569
   75XTA    CL9 8338  26.102  -0.837   5.512
   75XTA   CL10 8339  26.122  -0.931   5.391
   75XTA    CO6 8340  26.259  -0.921   5.320
   75XTA    OA5 8341  26.244  -0.968   5.190
   75XTA    CO7 8342  26.358  -0.952   5.115
   75XTA    CT2 8343  26.350  -1.038   4.986
   75XTA   CL11 8344  26.478  -1.063   4.911
   75XTA   CL12 8345  26.603  -1.108   4.985
   75XTA    HL1 8346  25.037  -0.836   6.517
   75XTA    HL2 8347  25.179  -0.730   6.494
   75XTA    HL3 8348  25.042  -0.669   6.604
   75XTA    HL4 8349  24.986  -0.952   5.283
   75XTA    HL5 8350  25.108  -0.889   5.392
   75XTA    HL6 8351  25.115  -1.140   5.220
   75XTA    HL7 8352  25.235  -1.094   5.347
   75XTA    HL8 8353  25.308  -0.913   5.209
   75XTA    HL9 8354  25.158  -0.908   5.106
   75XTA   HL10 8355  25.398  -1.107   5.088
   75XTA   HL11 8356  25.241  -1.157   5.025
   75XTA   HL12 8357  25.224  -0.974   4.874
   75XTA   HL13 8358  25.365  -1.082   4.858
   75XTA   HL14 8359  25.519  -0.912   4.958
   75XTA   HL15 8360  25.437  -0.833   4.814
   75XTA   HL16 8361  25.555  -0.666   5.041
   75XTA   HL17 8362  25.472  -0.626   4.891
   75XTA   HL18 8363  25.204  -0.431   5.060
   75XTA   HL19 8364  25.199  -0.610   5.076
   75XTA   HL20 8365  25.118  -0.502   4.843
   75XTA   HL21 8366  25.247  -0.632   4.847
   75XTA   HL22 8367  25.282  -0.468   4.799
   75XTA   HL23 8368  25.784  -0.881   5.779
   75XTA   HL24 8369  25.839  -0.753   5.884
   75XTA   HL25 8370  25.925  -0.647   5.674
   75XTA   HL26 8371  26.028  -0.764   5.759
   75XTA   HL27 8372  25.931  -0.945   5.602
   75XTA   HL28 8373  25.895  -0.802   5.488
   75XTA   HL29 8374  26.118  -0.742   5.475
   75XTA   HL30 8375  26.177  -0.846   5.592
   75XTA   HL31 8376  26.093  -1.030   5.410
   75XTA   HL32 8377  26.052  -0.890   5.314
   75XTA   HL33 8378  26.298  -0.820   5.304
   75XTA   HL34 8379  26.336  -0.984   5.371
   75XTA   HL35 8380  26.447  -0.987   5.166
   75XTA   HL36 8381  26.383  -0.854   5.083
   75XTA   HL37 8382  26.508  -0.973   4.862
   75XTA   HL38 8383  26.446  -1.133   4.838
   75XTA   HL39 8384  26.593  -1.199   5.039
   75XTA   HL40 8385  26.625  -1.031   5.056
   75XTA   HL41 8386  26.690  -1.127   4.917
   75XTA    CO8 8387  25.474  -0.408   5.013
   75XTA    CO9 8388  25.415  -0.544   5.211
   75XTA    OA6 8389  25.385  -0.450   5.261
   75XTA   HL42 8390  25.491  -0.419   4.908
   75XTA   HL43 8391  25.387  -0.297   5.005
   75XTA   HL44 8392  26.151  -0.956   4.935
   75XTA   HL45 8393  26.278  -0.857   4.866
   75XTA   CO10 8394  26.250  -0.963   4.888
   75XTA   CO11 8395  26.290  -1.170   5.031
   75XTA    OA7 8396  26.225  -1.034   4.770
   75XTA   HL46 8397  26.177  -1.154   5.048
   75XTA   HL47 8398  26.331  -1.182   5.132
   75XTA   HL48 8399  25.516  -0.569   5.244
   75XTA   HL49 8400  25.345  -0.619   5.243
   76XTH     NT 8401  25.864   0.348   5.616
   76XTH    CN1 8402  25.898   0.427   5.718
   76XTH     C1 8403  25.951   0.556   5.698
   76XTH     C2 8404  26.001   0.635   5.803
   76XTH     C3 8405  26.006   0.577   5.930
   76XTH     C4 8406  25.950   0.450   5.953
   76XTH     C5 8407  25.893   0.377   5.845
   76XTH    CN2 8408  25.740   0.330   5.571
   76XTH     C6 8409  25.689   0.208   5.539
   76XTH     C7 8410  25.565   0.190   5.485
   76XTH     C8 8411  25.478   0.302   5.473
   76XTH     C9 8412  25.520   0.428   5.524
   76XTH    C10 8413  25.655   0.443   5.563
   76XTH    CN3 8414  25.960   0.297   5.539
   76XTH    C11 8415  25.993   0.354   5.416
   76XTH    C12 8416  26.105   0.312   5.345
   76XTH    C13 8417  26.185   0.216   5.402
   76XTH    C14 8418  26.160   0.156   5.524
   76XTH    C15 8419  26.046   0.201   5.593
   76XTH     H1 8420  25.962   0.589   5.595
   76XTH     H2 8421  26.048   0.730   5.785
   76XTH     H3 8422  25.973   0.408   6.048
   76XTH     H4 8423  25.841   0.285   5.859
   76XTH     H5 8424  25.758   0.133   5.558
   76XTH     H6 8425  25.520   0.092   5.467
   76XTH     H7 8426  25.462   0.518   5.520
   76XTH     H8 8427  25.696   0.535   5.578
   76XTH     H9 8428  25.928   0.437   5.380
   76XTH    H10 8429  26.136   0.367   5.255
   76XTH    H11 8430  26.223   0.091   5.572
   76XTH    H12 8431  26.025   0.160   5.691
   76XTH    OA1 8432  26.073   0.652   6.021
   76XTH    CO1 8433  26.071   0.603   6.151
   76XTH    OA2 8434  25.355   0.272   5.414
   76XTH    CO2 8435  25.274   0.380   5.365
   76XTH    CL1 8436  25.336   0.455   5.241
   76XTH    CL2 8437  25.369   0.359   5.136
   76XTH    CL3 8438  25.424   0.434   5.016
   76XTH    CL4 8439  25.378   0.371   4.878
   76XTH    CO3 8440  25.424   0.443   4.754
   76XTH    OA3 8441  25.356   0.378   4.647
   76XTH    CO4 8442  25.393   0.437   4.524
   76XTH    CT1 8443  25.485   0.324   4.453
   76XTH    CL5 8444  25.504   0.384   4.311
   76XTH    CL6 8445  25.376   0.411   4.222
   76XTH    OA4 8446  26.315   0.193   5.365
   76XTH    CO5 8447  26.371   0.273   5.265
   76XTH    CL7 8448  26.329   0.224   5.126
   76XTH    CL8 8449  26.386   0.309   5.009
   76XTH    CL9 8450  26.362   0.234   4.872
   76XTH   CL10 8451  26.216   0.235   4.831
   76XTH    CO6 8452  26.204   0.188   4.683
   76XTH    OA5 8453  26.070   0.181   4.643
   76XTH    CO7 8454  26.062   0.144   4.502
   76XTH    CT2 8455  25.914   0.108   4.463
   76XTH   CL11 8456  25.841   0.020   4.569
   76XTH   CL12 8457  25.914  -0.104   4.593
   76XTH    HL1 8458  26.136   0.681   6.190
   76XTH    HL2 8459  25.971   0.616   6.184
   76XTH    HL3 8460  26.121   0.506   6.176
   76XTH    HL4 8461  25.176   0.336   5.347
   76XTH    HL5 8462  25.259   0.449   5.447
   76XTH    HL6 8463  25.424   0.504   5.270
   76XTH    HL7 8464  25.266   0.529   5.200
   76XTH    HL8 8465  25.273   0.304   5.110
   76XTH    HL9 8466  25.438   0.285   5.178
   76XTH   HL10 8467  25.419   0.542   5.024
   76XTH   HL11 8468  25.530   0.415   5.017
   76XTH   HL12 8469  25.268   0.374   4.880
   76XTH   HL13 8470  25.397   0.266   4.878
   76XTH   HL14 8471  25.396   0.550   4.755
   76XTH   HL15 8472  25.523   0.425   4.755
   76XTH   HL16 8473  25.307   0.457   4.466
   76XTH   HL17 8474  25.434   0.541   4.543
   76XTH   HL18 8475  25.568   0.308   4.259
   76XTH   HL19 8476  25.559   0.469   4.329
   76XTH   HL20 8477  25.335   0.508   4.247
   76XTH   HL21 8478  25.307   0.329   4.225
   76XTH   HL22 8479  25.400   0.429   4.123
   76XTH   HL23 8480  26.476   0.294   5.282
   76XTH   HL24 8481  26.329   0.369   5.277
   76XTH   HL25 8482  26.348   0.115   5.109
   76XTH   HL26 8483  26.223   0.230   5.114
   76XTH   HL27 8484  26.344   0.406   4.999
   76XTH   HL28 8485  26.496   0.319   5.028
   76XTH   HL29 8486  26.433   0.278   4.806
   76XTH   HL30 8487  26.404   0.135   4.887
   76XTH   HL31 8488  26.145   0.188   4.907
   76XTH   HL32 8489  26.187   0.341   4.821
   76XTH   HL33 8490  26.252   0.262   4.615
   76XTH   HL34 8491  26.252   0.093   4.671
   76XTH   HL35 8492  26.116   0.064   4.467
   76XTH   HL36 8493  26.086   0.224   4.441
   76XTH   HL37 8494  25.751  -0.007   4.518
   76XTH   HL38 8495  25.836   0.079   4.664
   76XTH   HL39 8496  25.850  -0.173   4.646
   76XTH   HL40 8497  26.001  -0.087   4.661
   76XTH   HL41 8498  25.945  -0.155   4.499
   76XTH    CO8 8499  25.418   0.184   4.435
   76XTH    CO9 8500  25.627   0.294   4.504
   76XTH    OA6 8501  25.439   0.115   4.559
   76XTH   HL42 8502  25.459   0.119   4.356
   76XTH   HL43 8503  25.310   0.185   4.409
   76XTH   HL44 8504  25.777   0.075   4.272
   76XTH   HL45 8505  25.929  -0.039   4.323
   76XTH   CO10 8506  25.908   0.070   4.314
   76XTH   CO11 8507  25.841   0.245   4.472
   76XTH    OA7 8508  25.736   0.217   4.453
   76XTH   HL46 8509  25.862   0.277   4.578
   76XTH   HL47 8510  25.869   0.320   4.400
   76XTH   HL48 8511  25.674   0.391   4.511
   76XTH   HL49 8512  25.622   0.263   4.610
   77XTA     NT 8513  24.430   5.756   6.342
   77XTA    CN1 8514  24.416   5.717   6.465
   77XTA     C1 8515  24.404   5.809   6.573
   77XTA     C2 8516  24.400   5.765   6.709
   77XTA     C3 8517  24.411   5.630   6.737
   77XTA     C4 8518  24.439   5.536   6.630
   77XTA     C5 8519  24.436   5.581   6.497
   77XTA    CN2 8520  24.550   5.783   6.298
   77XTA     C6 8521  24.666   5.714   6.340
   77XTA     C7 8522  24.789   5.758   6.278
   77XTA     C8 8523  24.805   5.860   6.183
   77XTA     C9 8524  24.684   5.926   6.136
   77XTA    C10 8525  24.566   5.890   6.204
   77XTA    CN3 8526  24.336   5.720   6.251
   77XTA    C11 8527  24.206   5.776   6.255
   77XTA    C12 8528  24.115   5.759   6.150
   77XTA    C13 8529  24.142   5.663   6.046
   77XTA    C14 8530  24.265   5.600   6.050
   77XTA    C15 8531  24.356   5.620   6.154
   77XTA     H1 8532  24.399   5.917   6.545
   77XTA     H2 8533  24.374   5.828   6.787
   77XTA     H3 8534  24.445   5.432   6.648
   77XTA     H4 8535  24.458   5.508   6.424
   77XTA     H5 8536  24.666   5.639   6.414
   77XTA     H6 8537  24.877   5.705   6.305
   77XTA     H7 8538  24.687   6.011   6.064
   77XTA     H8 8539  24.476   5.946   6.165
   77XTA     H9 8540  24.179   5.857   6.330
   77XTA    H10 8541  24.024   5.815   6.153
   77XTA    H11 8542  24.297   5.555   5.959
   77XTA    H12 8543  24.448   5.564   6.142
   77XTA    OA1 8544  24.398   5.601   6.870
   77XTA    CO1 8545  24.372   5.470   6.909
   77XTA    OA2 8546  24.936   5.882   6.142
   77XTA    CO2 8547  24.955   5.976   6.039
   77XTA    CL1 8548  25.083   5.926   5.963
   77XTA    CL2 8549  25.214   5.944   6.046
   77XTA    CL3 8550  25.224   5.830   6.147
   77XTA    CL4 8551  25.365   5.828   6.210
   77XTA    CO3 8552  25.476   5.787   6.118
   77XTA    OA3 8553  25.494   5.649   6.132
   77XTA    CO4 8554  25.412   5.574   6.042
   77XTA    CT1 8555  25.503   5.499   5.934
   77XTA    CL5 8556  25.577   5.608   5.845
   77XTA    CL6 8557  25.627   5.553   5.704
   77XTA    OA4 8558  24.061   5.671   5.937
   77XTA    CO5 8559  24.052   5.553   5.856
   77XTA    CL7 8560  23.983   5.580   5.718
   77XTA    CL8 8561  24.006   5.467   5.621
   77XTA    CL9 8562  23.988   5.506   5.472
   77XTA   CL10 8563  24.116   5.534   5.401
   77XTA    CO6 8564  24.185   5.675   5.427
   77XTA    OA5 8565  24.315   5.690   5.379
   77XTA    CO7 8566  24.361   5.828   5.373
   77XTA    CT2 8567  24.472   5.845   5.270
   77XTA   CL11 8568  24.504   5.993   5.266
   77XTA   CL12 8569  24.629   6.036   5.190
   77XTA    HL1 8570  24.283   5.429   6.854
   77XTA    HL2 8571  24.448   5.401   6.874
   77XTA    HL3 8572  24.365   5.463   7.020
   77XTA    HL4 8573  24.871   5.966   5.968
   77XTA    HL5 8574  24.961   6.079   6.068
   77XTA    HL6 8575  25.102   5.976   5.869
   77XTA    HL7 8576  25.078   5.822   5.927
   77XTA    HL8 8577  25.228   6.036   6.098
   77XTA    HL9 8578  25.285   5.950   5.969
   77XTA   HL10 8579  25.153   5.838   6.230
   77XTA   HL11 8580  25.196   5.737   6.103
   77XTA   HL12 8581  25.363   5.758   6.294
   77XTA   HL13 8582  25.380   5.926   6.248
   77XTA   HL14 8583  25.456   5.818   6.021
   77XTA   HL15 8584  25.564   5.839   6.148
   77XTA   HL16 8585  25.351   5.508   6.105
   77XTA   HL17 8586  25.357   5.648   5.986
   77XTA   HL18 8587  25.665   5.654   5.896
   77XTA   HL19 8588  25.514   5.700   5.818
   77XTA   HL20 8589  25.675   5.631   5.652
   77XTA   HL21 8590  25.549   5.520   5.636
   77XTA   HL22 8591  25.705   5.480   5.723
   77XTA   HL23 8592  23.993   5.471   5.911
   77XTA   HL24 8593  24.152   5.521   5.839
   77XTA   HL25 8594  23.868   5.590   5.726
   77XTA   HL26 8595  24.015   5.679   5.682
   77XTA   HL27 8596  24.106   5.429   5.622
   77XTA   HL28 8597  23.939   5.386   5.637
   77XTA   HL29 8598  23.930   5.426   5.428
   77XTA   HL30 8599  23.929   5.592   5.461
   77XTA   HL31 8600  24.178   5.453   5.435
   77XTA   HL32 8601  24.095   5.527   5.294
   77XTA   HL33 8602  24.125   5.755   5.383
   77XTA   HL34 8603  24.177   5.700   5.535
   77XTA   HL35 8604  24.385   5.875   5.471
   77XTA   HL36 8605  24.288   5.894   5.340
   77XTA   HL37 8606  24.510   6.018   5.367
   77XTA   HL38 8607  24.422   6.051   5.218
   77XTA   HL39 8608  24.654   6.143   5.208
   77XTA   HL40 8609  24.605   6.017   5.083
   77XTA   HL41 8610  24.717   5.982   5.190
   77XTA    CO8 8611  25.410   5.406   5.846
   77XTA    CO9 8612  25.606   5.409   6.000
   77XTA    OA6 8613  25.566   5.350   6.088
   77XTA   HL42 8614  25.469   5.356   5.767
   77XTA   HL43 8615  25.363   5.299   5.915
   77XTA   HL44 8616  24.510   5.790   5.076
   77XTA   HL45 8617  24.362   5.680   5.136
   77XTA   CO10 8618  24.423   5.806   5.133
   77XTA   CO11 8619  24.591   5.763   5.313
   77XTA    OA7 8620  24.617   5.804   5.416
   77XTA   HL46 8621  24.543   5.666   5.327
   77XTA   HL47 8622  24.663   5.760   5.241
   77XTA   HL48 8623  25.685   5.478   6.040
   77XTA   HL49 8624  25.656   5.346   5.921
   78XTA     NT 8625  26.632  -2.114   1.832
   78XTA    CN1 8626  26.513  -2.054   1.802
   78XTA     C1 8627  26.395  -2.119   1.842
   78XTA     C2 8628  26.274  -2.060   1.806
   78XTA     C3 8629  26.263  -1.946   1.718
   78XTA     C4 8630  26.383  -1.879   1.684
   78XTA     C5 8631  26.504  -1.930   1.726
   78XTA    CN2 8632  26.679  -2.227   1.775
   78XTA     C6 8633  26.638  -2.348   1.833
   78XTA     C7 8634  26.691  -2.464   1.779
   78XTA     C8 8635  26.778  -2.460   1.665
   78XTA     C9 8636  26.811  -2.340   1.603
   78XTA    C10 8637  26.760  -2.227   1.661
   78XTA    CN3 8638  26.717  -2.041   1.910
   78XTA    C11 8639  26.822  -1.964   1.854
   78XTA    C12 8640  26.905  -1.898   1.941
   78XTA    C13 8641  26.870  -1.884   2.080
   78XTA    C14 8642  26.764  -1.951   2.132
   78XTA    C15 8643  26.686  -2.027   2.046
   78XTA     H1 8644  26.397  -2.216   1.897
   78XTA     H2 8645  26.184  -2.089   1.861
   78XTA     H3 8646  26.375  -1.789   1.631
   78XTA     H4 8647  26.593  -1.879   1.692
   78XTA     H5 8648  26.580  -2.342   1.923
   78XTA     H6 8649  26.669  -2.564   1.817
   78XTA     H7 8650  26.876  -2.339   1.521
   78XTA     H8 8651  26.776  -2.133   1.617
   78XTA     H9 8652  26.836  -1.971   1.750
   78XTA    H10 8653  26.991  -1.847   1.892
   78XTA    H11 8654  26.754  -1.957   2.232
   78XTA    H12 8655  26.614  -2.091   2.090
   78XTA    OA1 8656  26.148  -1.893   1.674
   78XTA    CO1 8657  26.042  -1.988   1.656
   78XTA    OA2 8658  26.823  -2.581   1.612
   78XTA    CO2 8659  26.916  -2.582   1.507
   78XTA    CL1 8660  26.976  -2.719   1.485
   78XTA    CL2 8661  27.047  -2.785   1.609
   78XTA    CL3 8662  27.160  -2.705   1.674
   78XTA    CL4 8663  27.264  -2.647   1.568
   78XTA    CO3 8664  27.401  -2.626   1.629
   78XTA    OA3 8665  27.445  -2.736   1.709
   78XTA    CO4 8666  27.482  -2.858   1.639
   78XTA    CT1 8667  27.541  -2.960   1.746
   78XTA    CL5 8668  27.461  -2.950   1.888
   78XTA    CL6 8669  27.527  -3.007   2.015
   78XTA    OA4 8670  26.946  -1.820   2.170
   78XTA    CO5 8671  26.955  -1.684   2.127
   78XTA    CL7 8672  26.977  -1.598   2.251
   78XTA    CL8 8673  26.943  -1.455   2.237
   78XTA    CL9 8674  27.033  -1.366   2.326
   78XTA   CL10 8675  27.173  -1.365   2.298
   78XTA    CO6 8676  27.254  -1.299   2.404
   78XTA    OA5 8677  27.230  -1.366   2.525
   78XTA    CO7 8678  27.280  -1.503   2.526
   78XTA    CT2 8679  27.277  -1.569   2.670
   78XTA   CL11 8680  27.129  -1.560   2.719
   78XTA   CL12 8681  27.033  -1.649   2.642
   78XTA    HL1 8682  26.038  -2.064   1.734
   78XTA    HL2 8683  25.946  -1.948   1.673
   78XTA    HL3 8684  26.058  -2.020   1.552
   78XTA    HL4 8685  26.863  -2.554   1.421
   78XTA    HL5 8686  26.994  -2.510   1.538
   78XTA    HL6 8687  27.054  -2.737   1.404
   78XTA    HL7 8688  26.902  -2.795   1.451
   78XTA    HL8 8689  27.079  -2.875   1.564
   78XTA    HL9 8690  26.980  -2.811   1.688
   78XTA   HL10 8691  27.108  -2.621   1.720
   78XTA   HL11 8692  27.216  -2.772   1.744
   78XTA   HL12 8693  27.224  -2.562   1.507
   78XTA   HL13 8694  27.290  -2.722   1.497
   78XTA   HL14 8695  27.470  -2.610   1.546
   78XTA   HL15 8696  27.401  -2.538   1.696
   78XTA   HL16 8697  27.375  -2.891   1.603
   78XTA   HL17 8698  27.538  -2.848   1.542
   78XTA   HL18 8699  27.360  -2.998   1.876
   78XTA   HL19 8700  27.444  -2.854   1.908
   78XTA   HL20 8701  27.464  -2.968   2.096
   78XTA   HL21 8702  27.629  -2.971   2.031
   78XTA   HL22 8703  27.526  -3.116   2.019
   78XTA   HL23 8704  26.867  -1.648   2.074
   78XTA   HL24 8705  27.034  -1.682   2.051
   78XTA   HL25 8706  26.932  -1.637   2.346
   78XTA   HL26 8707  27.083  -1.605   2.278
   78XTA   HL27 8708  26.956  -1.425   2.137
   78XTA   HL28 8709  26.839  -1.451   2.272
   78XTA   HL29 8710  26.987  -1.269   2.319
   78XTA   HL30 8711  27.016  -1.388   2.429
   78XTA   HL31 8712  27.217  -1.466   2.278
   78XTA   HL32 8713  27.194  -1.315   2.205
   78XTA   HL33 8714  27.358  -1.304   2.381
   78XTA   HL34 8715  27.227  -1.191   2.407
   78XTA   HL35 8716  27.377  -1.515   2.476
   78XTA   HL36 8717  27.222  -1.562   2.459
   78XTA   HL37 8718  27.091  -1.460   2.740
   78XTA   HL38 8719  27.140  -1.600   2.816
   78XTA   HL39 8720  26.934  -1.651   2.688
   78XTA   HL40 8721  27.058  -1.762   2.637
   78XTA   HL41 8722  27.018  -1.618   2.542
   78XTA    CO8 8723  27.691  -2.926   1.762
   78XTA    CO9 8724  27.524  -3.096   1.685
   78XTA    OA6 8725  27.385  -3.132   1.664
   78XTA   HL42 8726  27.740  -3.020   1.772
   78XTA   HL43 8727  27.728  -2.889   1.670
   78XTA   HL44 8728  27.473  -1.534   2.736
   78XTA   HL45 8729  27.367  -1.388   2.757
   78XTA   CO10 8730  27.374  -1.499   2.765
   78XTA   CO11 8731  27.326  -1.712   2.656
   78XTA    OA7 8732  27.363  -1.523   2.904
   78XTA   HL46 8733  27.437  -1.716   2.640
   78XTA   HL47 8734  27.298  -1.772   2.744
   78XTA   HL48 8735  27.560  -3.175   1.750
   78XTA   HL49 8736  27.582  -3.104   1.590
   79XTA     NT 8737  26.932  -0.846   3.797
   79XTA    CN1 8738  26.886  -0.756   3.709
   79XTA     C1 8739  26.975  -0.711   3.611
   79XTA     C2 8740  26.931  -0.607   3.521
   79XTA     C3 8741  26.812  -0.536   3.548
   79XTA     C4 8742  26.731  -0.585   3.655
   79XTA     C5 8743  26.768  -0.688   3.736
   79XTA    CN2 8744  27.013  -0.790   3.891
   79XTA     C6 8745  26.965  -0.698   3.984
   79XTA     C7 8746  27.051  -0.633   4.075
   79XTA     C8 8747  27.190  -0.657   4.072
   79XTA     C9 8748  27.234  -0.758   3.984
   79XTA    C10 8749  27.147  -0.822   3.895
   79XTA    CN3 8750  26.905  -0.981   3.782
   79XTA    C11 8751  26.783  -1.031   3.827
   79XTA    C12 8752  26.749  -1.165   3.794
   79XTA    C13 8753  26.843  -1.245   3.727
   79XTA    C14 8754  26.971  -1.202   3.708
   79XTA    C15 8755  27.002  -1.066   3.740
   79XTA     H1 8756  27.063  -0.762   3.592
   79XTA     H2 8757  27.004  -0.579   3.437
   79XTA     H3 8758  26.631  -0.549   3.674
   79XTA     H4 8759  26.712  -0.717   3.818
   79XTA     H5 8760  26.856  -0.679   4.001
   79XTA     H6 8761  27.005  -0.565   4.149
   79XTA     H7 8762  27.350  -0.773   3.987
   79XTA     H8 8763  27.187  -0.903   3.834
   79XTA     H9 8764  26.710  -0.972   3.883
   79XTA    H10 8765  26.651  -1.201   3.814
   79XTA    H11 8766  27.049  -1.267   3.676
   79XTA    H12 8767  27.099  -1.032   3.707
   79XTA    OA1 8768  26.781  -0.432   3.463
   79XTA    CO1 8769  26.684  -0.338   3.518
   79XTA    OA2 8770  27.291  -0.596   4.140
   79XTA    CO2 8771  27.264  -0.505   4.247
   79XTA    CL1 8772  27.367  -0.396   4.267
   79XTA    CL2 8773  27.489  -0.443   4.343
   79XTA    CL3 8774  27.589  -0.330   4.339
   79XTA    CL4 8775  27.556  -0.195   4.413
   79XTA    CO3 8776  27.668  -0.095   4.391
   79XTA    OA3 8777  27.785  -0.139   4.448
   79XTA    CO4 8778  27.808  -0.112   4.584
   79XTA    CT1 8779  27.917  -0.205   4.641
   79XTA    CL5 8780  27.910  -0.345   4.583
   79XTA    CL6 8781  27.785  -0.426   4.629
   79XTA    OA4 8782  26.813  -1.371   3.686
   79XTA    CO5 8783  26.681  -1.423   3.705
   79XTA    CL7 8784  26.702  -1.565   3.655
   79XTA    CL8 8785  26.789  -1.654   3.740
   79XTA    CL9 8786  26.734  -1.701   3.875
   79XTA   CL10 8787  26.839  -1.759   3.966
   79XTA    CO6 8788  26.774  -1.832   4.084
   79XTA    OA5 8789  26.724  -1.959   4.042
   79XTA    CO7 8790  26.692  -2.052   4.150
   79XTA    CT2 8791  26.612  -2.173   4.089
   79XTA   CL11 8792  26.474  -2.132   4.023
   79XTA   CL12 8793  26.391  -2.245   3.960
   79XTA    HL1 8794  26.720  -0.297   3.610
   79XTA    HL2 8795  26.665  -0.266   3.441
   79XTA    HL3 8796  26.592  -0.394   3.540
   79XTA    HL4 8797  27.172  -0.455   4.214
   79XTA    HL5 8798  27.231  -0.553   4.338
   79XTA    HL6 8799  27.320  -0.322   4.321
   79XTA    HL7 8800  27.389  -0.354   4.172
   79XTA    HL8 8801  27.533  -0.534   4.292
   79XTA    HL9 8802  27.471  -0.475   4.451
   79XTA   HL10 8803  27.678  -0.378   4.384
   79XTA   HL11 8804  27.619  -0.296   4.240
   79XTA   HL12 8805  27.534  -0.212   4.521
   79XTA   HL13 8806  27.464  -0.147   4.373
   79XTA   HL14 8807  27.687  -0.073   4.284
   79XTA   HL15 8808  27.634   0.006   4.430
   79XTA   HL16 8809  27.815  -0.008   4.607
   79XTA   HL17 8810  27.717  -0.143   4.636
   79XTA   HL18 8811  28.000  -0.400   4.614
   79XTA   HL19 8812  27.905  -0.357   4.478
   79XTA   HL20 8813  27.787  -0.445   4.740
   79XTA   HL21 8814  27.810  -0.522   4.586
   79XTA   HL22 8815  27.696  -0.379   4.592
   79XTA   HL23 8816  26.616  -1.367   3.639
   79XTA   HL24 8817  26.649  -1.420   3.809
   79XTA   HL25 8818  26.605  -1.612   3.639
   79XTA   HL26 8819  26.743  -1.558   3.558
   79XTA   HL27 8820  26.828  -1.743   3.682
   79XTA   HL28 8821  26.867  -1.580   3.761
   79XTA   HL29 8822  26.680  -1.620   3.926
   79XTA   HL30 8823  26.667  -1.781   3.843
   79XTA   HL31 8824  26.906  -1.823   3.916
   79XTA   HL32 8825  26.912  -1.687   3.992
   79XTA   HL33 8826  26.832  -1.836   4.174
   79XTA   HL34 8827  26.682  -1.782   4.118
   79XTA   HL35 8828  26.632  -2.010   4.224
   79XTA   HL36 8829  26.792  -2.074   4.190
   79XTA   HL37 8830  26.492  -2.055   3.943
   79XTA   HL38 8831  26.407  -2.091   4.095
   79XTA   HL39 8832  26.327  -2.202   3.890
   79XTA   HL40 8833  26.335  -2.302   4.041
   79XTA   HL41 8834  26.454  -2.318   3.903
   79XTA    CO8 8835  27.910  -0.203   4.795
   79XTA    CO9 8836  28.057  -0.139   4.599
   79XTA    OA6 8837  28.084  -0.143   4.494
   79XTA   HL42 8838  27.979  -0.282   4.834
   79XTA   HL43 8839  27.776  -0.234   4.834
   79XTA   HL44 8840  26.690  -2.283   4.252
   79XTA   HL45 8841  26.517  -2.227   4.275
   79XTA   CO10 8842  26.591  -2.268   4.204
   79XTA   CO11 8843  26.705  -2.242   3.984
   79XTA    OA7 8844  26.551  -2.363   4.169
   79XTA   HL46 8845  26.654  -2.359   3.918
   79XTA   HL47 8846  26.786  -2.279   4.046
   79XTA   HL48 8847  28.127  -0.195   4.662
   79XTA   HL49 8848  28.052  -0.034   4.639
   80XTA     NT 8849  23.007   1.030   4.919
   80XTA    CN1 8850  22.912   0.950   4.859
   80XTA     C1 8851  22.865   0.990   4.729
   80XTA     C2 8852  22.770   0.910   4.658
   80XTA     C3 8853  22.721   0.790   4.716
   80XTA     C4 8854  22.768   0.750   4.845
   80XTA     C5 8855  22.856   0.833   4.916
   80XTA    CN2 8856  23.136   1.013   4.919
   80XTA     C6 8857  23.216   1.061   4.811
   80XTA     C7 8858  23.357   1.044   4.814
   80XTA     C8 8859  23.409   0.971   4.920
   80XTA     C9 8860  23.334   0.935   5.032
   80XTA    C10 8861  23.195   0.961   5.037
   80XTA    CN3 8862  22.944   1.138   4.969
   80XTA    C11 8863  22.991   1.260   4.916
   80XTA    C12 8864  22.936   1.383   4.960
   80XTA    C13 8865  22.819   1.385   5.030
   80XTA    C14 8866  22.765   1.263   5.080
   80XTA    C15 8867  22.828   1.142   5.052
   80XTA     H1 8868  22.886   1.079   4.673
   80XTA     H2 8869  22.741   0.962   4.563
   80XTA     H3 8870  22.742   0.654   4.898
   80XTA     H4 8871  22.885   0.793   5.012
   80XTA     H5 8872  23.153   1.094   4.733
   80XTA     H6 8873  23.415   1.078   4.729
   80XTA     H7 8874  23.389   0.882   5.105
   80XTA     H8 8875  23.132   0.924   5.107
   80XTA     H9 8876  23.081   1.263   4.852
   80XTA    H10 8877  22.976   1.470   4.909
   80XTA    H11 8878  22.675   1.273   5.143
   80XTA    H12 8879  22.780   1.050   5.094
   80XTA    OA1 8880  22.636   0.713   4.644
   80XTA    CO1 8881  22.633   0.577   4.664
   80XTA    OA2 8882  23.543   0.925   4.924
   80XTA    CO2 8883  23.637   0.985   4.840
   80XTA    CL1 8884  23.778   0.921   4.874
   80XTA    CL2 8885  23.828   0.952   5.016
   80XTA    CL3 8886  23.819   1.094   5.061
   80XTA    CL4 8887  23.693   1.140   5.141
   80XTA    CO3 8888  23.711   1.282   5.202
   80XTA    OA3 8889  23.762   1.381   5.116
   80XTA    CO4 8890  23.801   1.498   5.180
   80XTA    CT1 8891  23.857   1.593   5.071
   80XTA    CL5 8892  23.915   1.718   5.140
   80XTA    CL6 8893  23.961   1.836   5.053
   80XTA    OA4 8894  22.734   1.498   5.046
   80XTA    CO5 8895  22.786   1.625   5.003
   80XTA    CL7 8896  22.668   1.724   5.001
   80XTA    CL8 8897  22.546   1.671   4.917
   80XTA    CL9 8898  22.577   1.640   4.770
   80XTA   CL10 8899  22.670   1.739   4.694
   80XTA    CO6 8900  22.675   1.702   4.552
   80XTA    OA5 8901  22.758   1.799   4.482
   80XTA    CO7 8902  22.811   1.757   4.362
   80XTA    CT2 8903  22.885   1.884   4.310
   80XTA   CL11 8904  22.954   1.850   4.172
   80XTA   CL12 8905  23.060   1.743   4.172
   80XTA    HL1 8906  22.582   0.537   4.758
   80XTA    HL2 8907  22.586   0.542   4.573
   80XTA    HL3 8908  22.733   0.537   4.656
   80XTA    HL4 8909  23.613   0.970   4.735
   80XTA    HL5 8910  23.636   1.094   4.856
   80XTA    HL6 8911  23.840   0.945   4.792
   80XTA    HL7 8912  23.758   0.815   4.861
   80XTA    HL8 8913  23.927   0.896   5.017
   80XTA    HL9 8914  23.761   0.900   5.082
   80XTA   HL10 8915  23.902   1.116   5.127
   80XTA   HL11 8916  23.831   1.157   4.968
   80XTA   HL12 8917  23.662   1.077   5.219
   80XTA   HL13 8918  23.606   1.148   5.080
   80XTA   HL14 8919  23.620   1.326   5.247
   80XTA   HL15 8920  23.784   1.273   5.286
   80XTA   HL16 8921  23.719   1.553   5.229
   80XTA   HL17 8922  23.873   1.480   5.252
   80XTA   HL18 8923  24.002   1.707   5.208
   80XTA   HL19 8924  23.845   1.750   5.214
   80XTA   HL20 8925  23.879   1.869   4.985
   80XTA   HL21 8926  24.044   1.812   4.982
   80XTA   HL22 8927  23.992   1.926   5.111
   80XTA   HL23 8928  22.822   1.614   4.905
   80XTA   HL24 8929  22.875   1.649   5.056
   80XTA   HL25 8930  22.645   1.749   5.108
   80XTA   HL26 8931  22.706   1.820   4.955
   80XTA   HL27 8932  22.492   1.590   4.962
   80XTA   HL28 8933  22.473   1.750   4.926
   80XTA   HL29 8934  22.618   1.541   4.765
   80XTA   HL30 8935  22.487   1.624   4.716
   80XTA   HL31 8936  22.628   1.842   4.704
   80XTA   HL32 8937  22.769   1.738   4.740
   80XTA   HL33 8938  22.713   1.600   4.542
   80XTA   HL34 8939  22.575   1.704   4.506
   80XTA   HL35 8940  22.748   1.725   4.283
   80XTA   HL36 8941  22.887   1.681   4.381
   80XTA   HL37 8942  22.998   1.932   4.126
   80XTA   HL38 8943  22.882   1.840   4.091
   80XTA   HL39 8944  23.026   1.650   4.212
   80XTA   HL40 8945  23.149   1.775   4.226
   80XTA   HL41 8946  23.088   1.722   4.069
   80XTA    CO8 8947  23.744   1.630   4.987
   80XTA    CO9 8948  23.961   1.512   4.992
   80XTA    OA6 8949  23.795   1.693   4.867
   80XTA   HL42 8950  23.688   1.700   5.049
   80XTA   HL43 8951  23.705   1.543   4.955
   80XTA   HL44 8952  22.934   2.012   4.476
   80XTA   HL45 8953  23.043   2.027   4.341
   80XTA   CO10 8954  22.991   1.949   4.403
   80XTA   CO11 8955  22.769   1.986   4.302
   80XTA    OA7 8956  22.821   2.115   4.254
   80XTA   HL46 8957  22.682   1.948   4.246
   80XTA   HL47 8958  22.736   2.009   4.406
   80XTA   HL48 8959  24.011   1.436   5.053
   80XTA   HL49 8960  24.036   1.585   4.965
   81XTA     NT 8961  25.608   1.420  -0.746
   81XTA    CN1 8962  25.541   1.447  -0.861
   81XTA     C1 8963  25.418   1.518  -0.863
   81XTA     C2 8964  25.346   1.534  -0.983
   81XTA     C3 8965  25.398   1.488  -1.105
   81XTA     C4 8966  25.523   1.416  -1.106
   81XTA     C5 8967  25.585   1.398  -0.984
   81XTA    CN2 8968  25.663   1.298  -0.713
   81XTA     C6 8969  25.804   1.276  -0.707
   81XTA     C7 8970  25.856   1.151  -0.673
   81XTA     C8 8971  25.768   1.046  -0.632
   81XTA     C9 8972  25.628   1.061  -0.658
   81XTA    C10 8973  25.581   1.189  -0.702
   81XTA    CN3 8974  25.643   1.522  -0.660
   81XTA    C11 8975  25.766   1.581  -0.676
   81XTA    C12 8976  25.797   1.691  -0.589
   81XTA    C13 8977  25.710   1.733  -0.490
   81XTA    C14 8978  25.585   1.667  -0.473
   81XTA    C15 8979  25.560   1.556  -0.554
   81XTA     H1 8980  25.385   1.554  -0.766
   81XTA     H2 8981  25.255   1.587  -0.992
   81XTA     H3 8982  25.574   1.381  -1.197
   81XTA     H4 8983  25.674   1.343  -0.983
   81XTA     H5 8984  25.867   1.357  -0.725
   81XTA     H6 8985  25.965   1.146  -0.660
   81XTA     H7 8986  25.560   0.982  -0.645
   81XTA     H8 8987  25.477   1.199  -0.734
   81XTA     H9 8988  25.836   1.544  -0.748
   81XTA    H10 8989  25.884   1.748  -0.594
   81XTA    H11 8990  25.516   1.698  -0.397
   81XTA    H12 8991  25.469   1.504  -0.546
   81XTA    OA1 8992  25.326   1.515  -1.215
   81XTA    CO1 8993  25.408   1.544  -1.331
   81XTA    OA2 8994  25.835   0.936  -0.587
   81XTA    CO2 8995  25.756   0.826  -0.535
   81XTA    CL1 8996  25.840   0.728  -0.466
   81XTA    CL2 8997  25.836   0.731  -0.317
   81XTA    CL3 8998  25.930   0.826  -0.254
   81XTA    CL4 8999  25.941   0.809  -0.103
   81XTA    CO3 9000  25.812   0.854  -0.044
   81XTA    OA3 9001  25.841   0.833   0.090
   81XTA    CO4 9002  25.746   0.859   0.188
   81XTA    CT1 9003  25.785   0.789   0.319
   81XTA    CL5 9004  25.923   0.835   0.365
   81XTA    CL6 9005  26.046   0.782   0.285
   81XTA    OA4 9006  25.741   1.843  -0.409
   81XTA    CO5 9007  25.789   1.960  -0.472
   81XTA    CL7 9008  25.763   2.085  -0.385
   81XTA    CL8 9009  25.623   2.077  -0.314
   81XTA    CL9 9010  25.526   2.169  -0.389
   81XTA   CL10 9011  25.492   2.121  -0.527
   81XTA    CO6 9012  25.373   2.190  -0.580
   81XTA    OA5 9013  25.326   2.103  -0.681
   81XTA    CO7 9014  25.250   1.994  -0.638
   81XTA    CT2 9015  25.141   1.958  -0.745
   81XTA   CL11 9016  25.068   2.090  -0.787
   81XTA   CL12 9017  24.980   2.159  -0.678
   81XTA    HL1 9018  25.473   1.459  -1.354
   81XTA    HL2 9019  25.354   1.569  -1.426
   81XTA    HL3 9020  25.465   1.630  -1.308
   81XTA    HL4 9021  25.683   0.882  -0.471
   81XTA    HL5 9022  25.688   0.776  -0.607
   81XTA    HL6 9023  25.937   0.709  -0.489
   81XTA    HL7 9024  25.795   0.634  -0.494
   81XTA    HL8 9025  25.859   0.629  -0.280
   81XTA    HL9 9026  25.730   0.741  -0.295
   81XTA   HL10 9027  26.030   0.812  -0.294
   81XTA   HL11 9028  25.906   0.922  -0.293
   81XTA   HL12 9029  26.009   0.885  -0.062
   81XTA   HL13 9030  25.971   0.709  -0.075
   81XTA   HL14 9031  25.791   0.958  -0.067
   81XTA   HL15 9032  25.728   0.791  -0.075
   81XTA   HL16 9033  25.735   0.965   0.197
   81XTA   HL17 9034  25.644   0.833   0.159
   81XTA   HL18 9035  25.932   0.821   0.471
   81XTA   HL19 9036  25.921   0.945   0.354
   81XTA   HL20 9037  26.128   0.837   0.326
   81XTA   HL21 9038  26.049   0.806   0.179
   81XTA   HL22 9039  26.058   0.674   0.291
   81XTA   HL23 9040  25.738   1.975  -0.568
   81XTA   HL24 9041  25.891   1.964  -0.502
   81XTA   HL25 9042  25.824   2.073  -0.301
   81XTA   HL26 9043  25.785   2.183  -0.438
   81XTA   HL27 9044  25.581   1.974  -0.294
   81XTA   HL28 9045  25.642   2.135  -0.221
   81XTA   HL29 9046  25.443   2.173  -0.318
   81XTA   HL30 9047  25.572   2.279  -0.380
   81XTA   HL31 9048  25.577   2.117  -0.592
   81XTA   HL32 9049  25.469   2.018  -0.509
   81XTA   HL33 9050  25.299   2.225  -0.502
   81XTA   HL34 9051  25.412   2.276  -0.634
   81XTA   HL35 9052  25.197   2.036  -0.551
   81XTA   HL36 9053  25.309   1.908  -0.601
   81XTA   HL37 9054  25.002   2.067  -0.868
   81XTA   HL38 9055  25.145   2.163  -0.823
   81XTA   HL39 9056  25.039   2.181  -0.586
   81XTA   HL40 9057  24.886   2.104  -0.657
   81XTA   HL41 9058  24.936   2.255  -0.718
   81XTA    CO8 9059  25.775   0.643   0.299
   81XTA    CO9 9060  25.676   0.824   0.428
   81XTA    OA6 9061  25.642   0.615   0.290
   81XTA   HL42 9062  25.819   0.579   0.379
   81XTA   HL43 9063  25.827   0.627   0.206
   81XTA   HL44 9064  25.017   1.896  -0.583
   81XTA   HL45 9065  24.945   1.845  -0.736
   81XTA   CO10 9066  25.044   1.857  -0.681
   81XTA   CO11 9067  25.201   1.895  -0.876
   81XTA    OA7 9068  25.102   1.725  -0.674
   81XTA   HL46 9069  25.112   1.852  -0.932
   81XTA   HL47 9070  25.261   1.808  -0.854
   81XTA   HL48 9071  25.677   0.752   0.507
   81XTA   HL49 9072  25.707   0.916   0.480
   82XTA     NT 9073  23.964  -1.382  -0.825
   82XTA    CN1 9074  23.845  -1.329  -0.859
   82XTA     C1 9075  23.827  -1.242  -0.966
   82XTA     C2 9076  23.699  -1.179  -0.981
   82XTA     C3 9077  23.595  -1.196  -0.889
   82XTA     C4 9078  23.619  -1.275  -0.775
   82XTA     C5 9079  23.741  -1.342  -0.771
   82XTA    CN2 9080  24.025  -1.465  -0.913
   82XTA     C6 9081  24.000  -1.597  -0.917
   82XTA     C7 9082  24.061  -1.681  -1.004
   82XTA     C8 9083  24.173  -1.640  -1.080
   82XTA     C9 9084  24.205  -1.502  -1.077
   82XTA    C10 9085  24.127  -1.416  -1.001
   82XTA    CN3 9086  24.049  -1.324  -0.742
   82XTA    C11 9087  24.085  -1.189  -0.768
   82XTA    C12 9088  24.166  -1.122  -0.668
   82XTA    C13 9089  24.214  -1.190  -0.551
   82XTA    C14 9090  24.172  -1.325  -0.532
   82XTA    C15 9091  24.093  -1.390  -0.625
   82XTA     H1 9092  23.900  -1.221  -1.042
   82XTA     H2 9093  23.691  -1.111  -1.064
   82XTA     H3 9094  23.541  -1.288  -0.699
   82XTA     H4 9095  23.763  -1.390  -0.678
   82XTA     H5 9096  23.914  -1.635  -0.862
   82XTA     H6 9097  24.041  -1.786  -1.006
   82XTA     H7 9098  24.281  -1.469  -1.143
   82XTA     H8 9099  24.151  -1.307  -1.022
   82XTA     H9 9100  24.053  -1.141  -0.863
   82XTA    H10 9101  24.190  -1.017  -0.673
   82XTA    H11 9102  24.206  -1.369  -0.442
   82XTA    H12 9103  24.068  -1.489  -0.596
   82XTA    OA1 9104  23.474  -1.135  -0.919
   82XTA    CO1 9105  23.397  -1.096  -0.805
   82XTA    OA2 9106  24.257  -1.731  -1.142
   82XTA    CO2 9107  24.325  -1.821  -1.052
   82XTA    CL1 9108  24.419  -1.907  -1.134
   82XTA    CL2 9109  24.532  -1.826  -1.195
   82XTA    CL3 9110  24.655  -1.922  -1.239
   82XTA    CL4 9111  24.754  -1.852  -1.338
   82XTA    CO3 9112  24.810  -1.723  -1.274
   82XTA    OA3 9113  24.766  -1.603  -1.330
   82XTA    CO4 9114  24.829  -1.492  -1.278
   82XTA    CT1 9115  24.775  -1.358  -1.330
   82XTA    CL5 9116  24.834  -1.322  -1.471
   82XTA    CL6 9117  24.818  -1.429  -1.577
   82XTA    OA4 9118  24.297  -1.128  -0.462
   82XTA    CO5 9119  24.400  -1.217  -0.414
   82XTA    CL7 9120  24.517  -1.131  -0.372
   82XTA    CL8 9121  24.555  -1.043  -0.492
   82XTA    CL9 9122  24.599  -1.129  -0.612
   82XTA   CL10 9123  24.695  -1.064  -0.708
   82XTA    CO6 9124  24.729  -1.150  -0.831
   82XTA    OA5 9125  24.793  -1.263  -0.795
   82XTA    CO7 9126  24.930  -1.255  -0.748
   82XTA    CT2 9127  24.998  -1.391  -0.771
   82XTA   CL11 9128  24.919  -1.505  -0.707
   82XTA   CL12 9129  24.896  -1.491  -0.553
   82XTA    HL1 9130  23.459  -1.048  -0.725
   82XTA    HL2 9131  23.308  -1.043  -0.828
   82XTA    HL3 9132  23.343  -1.187  -0.770
   82XTA    HL4 9133  24.377  -1.766  -0.973
   82XTA    HL5 9134  24.254  -1.885  -1.012
   82XTA    HL6 9135  24.356  -1.969  -1.194
   82XTA    HL7 9136  24.474  -1.975  -1.069
   82XTA    HL8 9137  24.562  -1.761  -1.116
   82XTA    HL9 9138  24.511  -1.772  -1.285
   82XTA   HL10 9139  24.712  -1.964  -1.149
   82XTA   HL11 9140  24.618  -2.007  -1.297
   82XTA   HL12 9141  24.712  -1.836  -1.443
   82XTA   HL13 9142  24.837  -1.920  -1.357
   82XTA   HL14 9143  24.790  -1.715  -1.166
   82XTA   HL15 9144  24.924  -1.730  -1.275
   82XTA   HL16 9145  24.825  -1.490  -1.169
   82XTA   HL17 9146  24.935  -1.488  -1.307
   82XTA   HL18 9147  24.936  -1.308  -1.454
   82XTA   HL19 9148  24.793  -1.225  -1.495
   82XTA   HL20 9149  24.810  -1.534  -1.537
   82XTA   HL21 9150  24.910  -1.442  -1.647
   82XTA   HL22 9151  24.737  -1.423  -1.641
   82XTA   HL23 9152  24.438  -1.291  -0.488
   82XTA   HL24 9153  24.357  -1.269  -0.325
   82XTA   HL25 9154  24.496  -1.080  -0.279
   82XTA   HL26 9155  24.602  -1.194  -0.351
   82XTA   HL27 9156  24.480  -0.969  -0.514
   82XTA   HL28 9157  24.643  -0.980  -0.469
   82XTA   HL29 9158  24.652  -1.210  -0.558
   82XTA   HL30 9159  24.505  -1.159  -0.654
   82XTA   HL31 9160  24.660  -0.970  -0.744
   82XTA   HL32 9161  24.785  -1.034  -0.655
   82XTA   HL33 9162  24.629  -1.180  -0.873
   82XTA   HL34 9163  24.792  -1.096  -0.899
   82XTA   HL35 9164  24.947  -1.227  -0.639
   82XTA   HL36 9165  24.984  -1.180  -0.807
   82XTA   HL37 9166  24.978  -1.593  -0.720
   82XTA   HL38 9167  24.823  -1.511  -0.753
   82XTA   HL39 9168  24.846  -1.579  -0.501
   82XTA   HL40 9169  24.838  -1.400  -0.536
   82XTA   HL41 9170  24.985  -1.465  -0.498
   82XTA    CO8 9171  24.818  -1.252  -1.227
   82XTA    CO9 9172  24.619  -1.360  -1.327
   82XTA    OA6 9173  24.933  -1.251  -1.222
   82XTA   HL42 9174  24.780  -1.282  -1.131
   82XTA   HL43 9175  24.774  -1.153  -1.258
   82XTA   HL44 9176  25.189  -1.489  -0.754
   82XTA   HL45 9177  25.194  -1.322  -0.753
   82XTA   CO10 9178  25.143  -1.400  -0.710
   82XTA   CO11 9179  25.019  -1.414  -0.919
   82XTA    OA7 9180  25.165  -1.392  -0.599
   82XTA   HL46 9181  24.893  -1.379  -0.978
   82XTA   HL47 9182  25.047  -1.515  -0.949
   82XTA   HL48 9183  24.562  -1.454  -1.233
   82XTA   HL49 9184  24.588  -1.400  -1.424
   83XTA     NT 9185  23.833  -1.184   3.883
   83XTA    CN1 9186  23.839  -1.308   3.835
   83XTA     C1 9187  23.752  -1.414   3.877
   83XTA     C2 9188  23.784  -1.548   3.843
   83XTA     C3 9189  23.895  -1.570   3.756
   83XTA     C4 9190  23.977  -1.468   3.705
   83XTA     C5 9191  23.944  -1.341   3.749
   83XTA    CN2 9192  23.788  -1.164   4.008
   83XTA     C6 9193  23.862  -1.221   4.118
   83XTA     C7 9194  23.821  -1.197   4.243
   83XTA     C8 9195  23.712  -1.109   4.271
   83XTA     C9 9196  23.648  -1.053   4.164
   83XTA    C10 9197  23.683  -1.079   4.029
   83XTA    CN3 9198  23.886  -1.078   3.816
   83XTA    C11 9199  24.015  -1.039   3.844
   83XTA    C12 9200  24.091  -0.949   3.766
   83XTA    C13 9201  24.029  -0.879   3.660
   83XTA    C14 9202  23.896  -0.925   3.624
   83XTA    C15 9203  23.820  -1.015   3.704
   83XTA     H1 9204  23.665  -1.388   3.937
   83XTA     H2 9205  23.719  -1.629   3.877
   83XTA     H3 9206  24.055  -1.491   3.628
   83XTA     H4 9207  24.009  -1.264   3.708
   83XTA     H5 9208  23.946  -1.274   4.094
   83XTA     H6 9209  23.874  -1.243   4.319
   83XTA     H7 9210  23.570  -0.989   4.201
   83XTA     H8 9211  23.641  -1.024   3.944
   83XTA     H9 9212  24.062  -1.082   3.924
   83XTA    H10 9213  24.192  -0.925   3.800
   83XTA    H11 9214  23.844  -0.890   3.541
   83XTA    H12 9215  23.727  -1.061   3.677
   83XTA    OA1 9216  23.927  -1.698   3.714
   83XTA    CO1 9217  23.883  -1.802   3.794
   83XTA    OA2 9218  23.668  -1.082   4.397
   83XTA    CO2 9219  23.682  -1.179   4.494
   83XTA    CL1 9220  23.612  -1.141   4.623
   83XTA    CL2 9221  23.620  -1.234   4.742
   83XTA    CL3 9222  23.742  -1.193   4.827
   83XTA    CL4 9223  23.775  -1.286   4.945
   83XTA    CO3 9224  23.879  -1.224   5.045
   83XTA    OA3 9225  24.001  -1.211   4.977
   83XTA    CO4 9226  24.100  -1.141   5.059
   83XTA    CT1 9227  24.244  -1.165   5.005
   83XTA    CL5 9228  24.298  -1.303   5.027
   83XTA    CL6 9229  24.214  -1.421   4.978
   83XTA    OA4 9230  24.097  -0.799   3.570
   83XTA    CO5 9231  24.220  -0.738   3.626
   83XTA    CL7 9232  24.278  -0.640   3.529
   83XTA    CL8 9233  24.191  -0.521   3.499
   83XTA    CL9 9234  24.274  -0.393   3.470
   83XTA   CL10 9235  24.335  -0.338   3.596
   83XTA    CO6 9236  24.415  -0.211   3.567
   83XTA    OA5 9237  24.533  -0.220   3.494
   83XTA    CO7 9238  24.622  -0.330   3.510
   83XTA    CT2 9239  24.738  -0.322   3.407
   83XTA   CL11 9240  24.829  -0.441   3.438
   83XTA   CL12 9241  24.768  -0.576   3.388
   83XTA    HL1 9242  23.910  -1.892   3.748
   83XTA    HL2 9243  23.928  -1.805   3.895
   83XTA    HL3 9244  23.771  -1.804   3.793
   83XTA    HL4 9245  23.648  -1.281   4.466
   83XTA    HL5 9246  23.794  -1.188   4.514
   83XTA    HL6 9247  23.513  -1.113   4.605
   83XTA    HL7 9248  23.642  -1.043   4.652
   83XTA    HL8 9249  23.630  -1.336   4.705
   83XTA    HL9 9250  23.534  -1.224   4.808
   83XTA   HL10 9251  23.827  -1.177   4.764
   83XTA   HL11 9252  23.729  -1.095   4.878
   83XTA   HL12 9253  23.808  -1.378   4.890
   83XTA   HL13 9254  23.685  -1.325   4.991
   83XTA   HL14 9255  23.840  -1.127   5.088
   83XTA   HL15 9256  23.893  -1.291   5.130
   83XTA   HL16 9257  24.066  -1.036   5.052
   83XTA   HL17 9258  24.090  -1.175   5.153
   83XTA   HL18 9259  24.306  -1.320   5.135
   83XTA   HL19 9260  24.396  -1.319   4.987
   83XTA   HL20 9261  24.129  -1.430   5.052
   83XTA   HL21 9262  24.278  -1.507   4.991
   83XTA   HL22 9263  24.174  -1.413   4.878
   83XTA   HL23 9264  24.298  -0.810   3.649
   83XTA   HL24 9265  24.185  -0.694   3.715
   83XTA   HL25 9266  24.384  -0.615   3.543
   83XTA   HL26 9267  24.278  -0.690   3.437
   83XTA   HL27 9268  24.109  -0.541   3.424
   83XTA   HL28 9269  24.133  -0.491   3.585
   83XTA   HL29 9270  24.340  -0.418   3.388
   83XTA   HL30 9271  24.202  -0.321   3.426
   83XTA   HL31 9272  24.264  -0.314   3.675
   83XTA   HL32 9273  24.403  -0.408   3.636
   83XTA   HL33 9274  24.364  -0.128   3.520
   83XTA   HL34 9275  24.451  -0.163   3.665
   83XTA   HL35 9276  24.568  -0.428   3.494
   83XTA   HL36 9277  24.659  -0.345   3.612
   83XTA   HL37 9278  24.856  -0.456   3.547
   83XTA   HL38 9279  24.918  -0.428   3.389
   83XTA   HL39 9280  24.799  -0.660   3.452
   83XTA   HL40 9281  24.796  -0.599   3.285
   83XTA   HL41 9282  24.665  -0.583   3.400
   83XTA    CO8 9283  24.340  -1.058   5.061
   83XTA    CO9 9284  24.233  -1.134   4.856
   83XTA    OA6 9285  24.349  -1.040   5.177
   83XTA   HL42 9286  24.315  -0.966   5.009
   83XTA   HL43 9287  24.441  -1.079   5.021
   83XTA   HL44 9288  24.746  -0.100   3.406
   83XTA   HL45 9289  24.835  -0.179   3.531
   83XTA   CO10 9290  24.806  -0.187   3.429
   83XTA   CO11 9291  24.681  -0.323   3.266
   83XTA    OA7 9292  24.917  -0.182   3.342
   83XTA   HL46 9293  24.652  -0.422   3.233
   83XTA   HL47 9294  24.762  -0.313   3.196
   83XTA   HL48 9295  24.356  -1.151   4.791
   83XTA   HL49 9296  24.160  -1.204   4.806
   84XTA     NT 9297  25.308  -1.199   1.637
   84XTA    CN1 9298  25.210  -1.178   1.546
   84XTA     C1 9299  25.099  -1.259   1.548
   84XTA     C2 9300  25.016  -1.255   1.437
   84XTA     C3 9301  25.027  -1.169   1.330
   84XTA     C4 9302  25.130  -1.071   1.339
   84XTA     C5 9303  25.227  -1.083   1.445
   84XTA    CN2 9304  25.395  -1.307   1.629
   84XTA     C6 9305  25.361  -1.435   1.676
   84XTA     C7 9306  25.445  -1.544   1.656
   84XTA     C8 9307  25.577  -1.529   1.602
   84XTA     C9 9308  25.610  -1.408   1.539
   84XTA    C10 9309  25.517  -1.301   1.548
   84XTA    CN3 9310  25.334  -1.109   1.738
   84XTA    C11 9311  25.330  -1.144   1.875
   84XTA    C12 9312  25.359  -1.048   1.974
   84XTA    C13 9313  25.374  -0.911   1.941
   84XTA    C14 9314  25.392  -0.878   1.800
   84XTA    C15 9315  25.373  -0.980   1.706
   84XTA     H1 9316  25.102  -1.336   1.625
   84XTA     H2 9317  24.945  -1.333   1.423
   84XTA     H3 9318  25.145  -0.999   1.261
   84XTA     H4 9319  25.312  -1.014   1.444
   84XTA     H5 9320  25.258  -1.453   1.722
   84XTA     H6 9321  25.418  -1.640   1.708
   84XTA     H7 9322  25.695  -1.391   1.471
   84XTA     H8 9323  25.547  -1.209   1.498
   84XTA     H9 9324  25.301  -1.249   1.891
   84XTA    H10 9325  25.367  -1.075   2.078
   84XTA    H11 9326  25.419  -0.774   1.769
   84XTA    H12 9327  25.404  -0.961   1.608
   84XTA    OA1 9328  24.931  -1.182   1.231
   84XTA    CO1 9329  24.910  -1.073   1.149
   84XTA    OA2 9330  25.666  -1.635   1.572
   84XTA    CO2 9331  25.686  -1.731   1.684
   84XTA    CL1 9332  25.614  -1.859   1.651
   84XTA    CL2 9333  25.655  -1.935   1.519
   84XTA    CL3 9334  25.568  -2.062   1.488
   84XTA    CL4 9335  25.421  -2.047   1.486
   84XTA    CO3 9336  25.362  -1.941   1.398
   84XTA    OA3 9337  25.429  -1.932   1.277
   84XTA    CO4 9338  25.373  -1.841   1.189
   84XTA    CT1 9339  25.439  -1.861   1.049
   84XTA    CL5 9340  25.583  -1.811   1.063
   84XTA    CL6 9341  25.685  -1.846   0.949
   84XTA    OA4 9342  25.428  -0.825   2.032
   84XTA    CO5 9343  25.561  -0.857   2.061
   84XTA    CL7 9344  25.655  -0.774   1.972
   84XTA    CL8 9345  25.795  -0.783   2.031
   84XTA    CL9 9346  25.894  -0.682   1.966
   84XTA   CL10 9347  26.018  -0.641   2.050
   84XTA    CO6 9348  26.147  -0.633   1.970
   84XTA    OA5 9349  26.179  -0.757   1.921
   84XTA    CO7 9350  26.271  -0.744   1.811
   84XTA    CT2 9351  26.307  -0.878   1.747
   84XTA   CL11 9352  26.189  -0.950   1.676
   84XTA   CL12 9353  26.048  -0.958   1.741
   84XTA    HL1 9354  25.002  -1.062   1.086
   84XTA    HL2 9355  24.827  -1.104   1.096
   84XTA    HL3 9356  24.883  -0.976   1.195
   84XTA    HL4 9357  25.788  -1.763   1.687
   84XTA    HL5 9358  25.641  -1.699   1.781
   84XTA    HL6 9359  25.506  -1.850   1.650
   84XTA    HL7 9360  25.615  -1.932   1.733
   84XTA    HL8 9361  25.764  -1.945   1.535
   84XTA    HL9 9362  25.654  -1.869   1.436
   84XTA   HL10 9363  25.594  -2.087   1.383
   84XTA   HL11 9364  25.599  -2.149   1.545
   84XTA   HL12 9365  25.378  -2.032   1.582
   84XTA   HL13 9366  25.385  -2.146   1.439
   84XTA   HL14 9367  25.252  -1.961   1.377
   84XTA   HL15 9368  25.364  -1.845   1.449
   84XTA   HL16 9369  25.268  -1.858   1.177
   84XTA   HL17 9370  25.394  -1.741   1.231
   84XTA   HL18 9371  25.623  -1.855   1.151
   84XTA   HL19 9372  25.580  -1.703   1.075
   84XTA   HL20 9373  25.689  -1.957   0.943
   84XTA   HL21 9374  25.793  -1.822   0.964
   84XTA   HL22 9375  25.660  -1.790   0.858
   84XTA   HL23 9376  25.583  -0.966   2.066
   84XTA   HL24 9377  25.587  -0.830   2.159
   84XTA   HL25 9378  25.663  -0.805   1.863
   84XTA   HL26 9379  25.619  -0.668   1.973
   84XTA   HL27 9380  25.787  -0.774   2.143
   84XTA   HL28 9381  25.813  -0.887   2.008
   84XTA   HL29 9382  25.933  -0.728   1.871
   84XTA   HL30 9383  25.844  -0.591   1.935
   84XTA   HL31 9384  25.995  -0.542   2.093
   84XTA   HL32 9385  26.031  -0.712   2.135
   84XTA   HL33 9386  26.140  -0.556   1.891
   84XTA   HL34 9387  26.224  -0.594   2.039
   84XTA   HL35 9388  26.346  -0.672   1.831
   84XTA   HL36 9389  26.223  -0.705   1.717
   84XTA   HL37 9390  26.227  -1.052   1.661
   84XTA   HL38 9391  26.186  -0.916   1.571
   84XTA   HL39 9392  25.991  -1.042   1.701
   84XTA   HL40 9393  25.997  -0.863   1.737
   84XTA   HL41 9394  26.052  -0.981   1.848
   84XTA    CO8 9395  25.354  -1.796   0.936
   84XTA    CO9 9396  25.447  -2.011   1.008
   84XTA    OA6 9397  25.320  -2.059   1.029
   84XTA   HL42 9398  25.414  -1.800   0.849
   84XTA   HL43 9399  25.265  -1.860   0.913
   84XTA   HL44 9400  26.384  -1.076   1.822
   84XTA   HL45 9401  26.276  -0.995   1.934
   84XTA   CO10 9402  26.360  -0.973   1.862
   84XTA   CO11 9403  26.420  -0.853   1.646
   84XTA    OA7 9404  26.442  -0.971   1.576
   84XTA   HL46 9405  26.387  -0.791   1.565
   84XTA   HL47 9406  26.508  -0.810   1.696
   84XTA   HL48 9407  25.527  -2.059   1.065
   84XTA   HL49 9408  25.485  -2.024   0.907
   85XTA     NT 9409  31.712   0.825   1.526
   85XTA    CN1 9410  31.720   0.697   1.492
   85XTA     C1 9411  31.843   0.632   1.485
   85XTA     C2 9412  31.855   0.497   1.444
   85XTA     C3 9413  31.740   0.427   1.409
   85XTA     C4 9414  31.617   0.493   1.394
   85XTA     C5 9415  31.607   0.622   1.439
   85XTA    CN2 9416  31.616   0.875   1.602
   85XTA     C6 9417  31.515   0.949   1.544
   85XTA     C7 9418  31.413   1.009   1.618
   85XTA     C8 9419  31.412   1.006   1.761
   85XTA     C9 9420  31.512   0.929   1.824
   85XTA    C10 9421  31.615   0.865   1.743
   85XTA    CN3 9422  31.779   0.916   1.455
   85XTA    C11 9423  31.862   0.999   1.532
   85XTA    C12 9424  31.946   1.094   1.475
   85XTA    C13 9425  31.940   1.117   1.337
   85XTA    C14 9426  31.843   1.045   1.261
   85XTA    C15 9427  31.760   0.949   1.319
   85XTA     H1 9428  31.930   0.691   1.512
   85XTA     H2 9429  31.949   0.447   1.441
   85XTA     H3 9430  31.534   0.442   1.357
   85XTA     H4 9431  31.511   0.673   1.427
   85XTA     H5 9432  31.498   0.958   1.441
   85XTA     H6 9433  31.326   1.063   1.575
   85XTA     H7 9434  31.513   0.934   1.932
   85XTA     H8 9435  31.693   0.816   1.797
   85XTA     H9 9436  31.884   0.990   1.632
   85XTA    H10 9437  32.028   1.136   1.522
   85XTA    H11 9438  31.829   1.070   1.156
   85XTA    H12 9439  31.693   0.890   1.258
   85XTA    OA1 9440  31.744   0.287   1.404
   85XTA    CO1 9441  31.867   0.222   1.418
   85XTA    OA2 9442  31.314   1.077   1.819
   85XTA    CO2 9443  31.310   1.093   1.958
   85XTA    CL1 9444  31.355   1.239   2.002
   85XTA    CL2 9445  31.505   1.260   2.002
   85XTA    CL3 9446  31.532   1.400   2.057
   85XTA    CL4 9447  31.683   1.441   2.057
   85XTA    CO3 9448  31.695   1.591   2.044
   85XTA    OA3 9449  31.833   1.624   2.017
   85XTA    CO4 9450  31.850   1.765   1.988
   85XTA    CT1 9451  31.994   1.792   1.944
   85XTA    CL5 9452  32.087   1.779   2.067
   85XTA    CL6 9453  32.240   1.784   2.045
   85XTA    OA4 9454  32.009   1.219   1.268
   85XTA    CO5 9455  31.985   1.345   1.337
   85XTA    CL7 9456  31.837   1.389   1.342
   85XTA    CL8 9457  31.822   1.479   1.466
   85XTA    CL9 9458  31.673   1.524   1.489
   85XTA   CL10 9459  31.611   1.594   1.364
   85XTA    CO6 9460  31.455   1.579   1.360
   85XTA    OA5 9461  31.412   1.666   1.460
   85XTA    CO7 9462  31.391   1.802   1.431
   85XTA    CT2 9463  31.326   1.891   1.533
   85XTA   CL11 9464  31.431   1.941   1.638
   85XTA   CL12 9465  31.508   1.834   1.725
   85XTA    HL1 9466  31.856   0.120   1.389
   85XTA    HL2 9467  31.942   0.275   1.357
   85XTA    HL3 9468  31.905   0.231   1.524
   85XTA    HL4 9469  31.209   1.077   1.991
   85XTA    HL5 9470  31.370   1.020   2.020
   85XTA    HL6 9471  31.310   1.276   2.099
   85XTA    HL7 9472  31.313   1.311   1.934
   85XTA    HL8 9473  31.545   1.238   1.906
   85XTA    HL9 9474  31.549   1.189   2.071
   85XTA   HL10 9475  31.481   1.478   1.992
   85XTA   HL11 9476  31.507   1.406   2.164
   85XTA   HL12 9477  31.724   1.396   1.970
   85XTA   HL13 9478  31.739   1.406   2.142
   85XTA   HL14 9479  31.632   1.614   1.957
   85XTA   HL15 9480  31.671   1.649   2.135
   85XTA   HL16 9481  31.779   1.783   1.907
   85XTA   HL17 9482  31.822   1.831   2.074
   85XTA   HL18 9483  32.063   1.684   2.117
   85XTA   HL19 9484  32.073   1.860   2.140
   85XTA   HL20 9485  32.278   1.684   2.023
   85XTA   HL21 9486  32.294   1.823   2.135
   85XTA   HL22 9487  32.269   1.849   1.962
   85XTA   HL23 9488  32.035   1.430   1.294
   85XTA   HL24 9489  32.031   1.342   1.434
   85XTA   HL25 9490  31.824   1.434   1.246
   85XTA   HL26 9491  31.780   1.292   1.352
   85XTA   HL27 9492  31.868   1.435   1.557
   85XTA   HL28 9493  31.878   1.575   1.445
   85XTA   HL29 9494  31.622   1.427   1.503
   85XTA   HL30 9495  31.674   1.588   1.576
   85XTA   HL31 9496  31.638   1.696   1.352
   85XTA   HL32 9497  31.654   1.539   1.278
   85XTA   HL33 9498  31.429   1.600   1.255
   85XTA   HL34 9499  31.431   1.474   1.391
   85XTA   HL35 9500  31.336   1.812   1.340
   85XTA   HL36 9501  31.492   1.833   1.412
   85XTA   HL37 9502  31.359   1.988   1.712
   85XTA   HL38 9503  31.497   2.016   1.594
   85XTA   HL39 9504  31.424   1.803   1.787
   85XTA   HL40 9505  31.587   1.856   1.796
   85XTA   HL41 9506  31.533   1.743   1.670
   85XTA    CO8 9507  32.016   1.940   1.904
   85XTA    CO9 9508  32.030   1.701   1.827
   85XTA    OA6 9509  31.946   1.985   1.826
   85XTA   HL42 9510  32.116   1.940   1.859
   85XTA   HL43 9511  32.016   2.005   1.988
   85XTA   HL44 9512  31.176   1.864   1.684
   85XTA   HL45 9513  31.251   1.680   1.638
   85XTA   CO10 9514  31.207   1.809   1.594
   85XTA   CO11 9515  31.248   2.012   1.464
   85XTA    OA7 9516  31.190   2.063   1.529
   85XTA   HL46 9517  31.304   2.074   1.402
   85XTA   HL47 9518  31.186   1.974   1.382
   85XTA   HL48 9519  32.024   1.568   1.865
   85XTA   HL49 9520  31.951   1.719   1.763
   86XTA     NT 9521  27.090   1.288   4.076
   86XTA    CN1 9522  26.979   1.327   4.003
   86XTA     C1 9523  26.846   1.303   4.037
   86XTA     C2 9524  26.743   1.337   3.947
   86XTA     C3 9525  26.766   1.412   3.833
   86XTA     C4 9526  26.901   1.432   3.798
   86XTA     C5 9527  27.001   1.382   3.879
   86XTA    CN2 9528  27.128   1.163   4.069
   86XTA     C6 9529  27.088   1.072   4.177
   86XTA     C7 9530  27.117   0.935   4.166
   86XTA     C8 9531  27.206   0.886   4.063
   86XTA     C9 9532  27.246   0.975   3.964
   86XTA    C10 9533  27.207   1.109   3.964
   86XTA    CN3 9534  27.133   1.366   4.177
   86XTA    C11 9535  27.048   1.386   4.290
   86XTA    C12 9536  27.101   1.454   4.406
   86XTA    C13 9537  27.220   1.521   4.400
   86XTA    C14 9538  27.302   1.506   4.283
   86XTA    C15 9539  27.260   1.420   4.178
   86XTA     H1 9540  26.826   1.248   4.129
   86XTA     H2 9541  26.644   1.319   3.975
   86XTA     H3 9542  26.923   1.502   3.722
   86XTA     H4 9543  27.098   1.394   3.843
   86XTA     H5 9544  27.023   1.103   4.257
   86XTA     H6 9545  27.084   0.878   4.252
   86XTA     H7 9546  27.312   0.940   3.888
   86XTA     H8 9547  27.229   1.169   3.877
   86XTA     H9 9548  26.947   1.340   4.294
   86XTA    H10 9549  27.034   1.451   4.494
   86XTA    H11 9550  27.399   1.556   4.276
   86XTA    H12 9551  27.322   1.400   4.098
   86XTA    OA1 9552  26.658   1.440   3.751
   86XTA    CO1 9553  26.677   1.554   3.671
   86XTA    OA2 9554  27.242   0.754   4.057
   86XTA    CO2 9555  27.174   0.668   4.146
   86XTA    CL1 9556  27.233   0.520   4.137
   86XTA    CL2 9557  27.156   0.422   4.235
   86XTA    CL3 9558  27.009   0.391   4.198
   86XTA    CL4 9559  26.934   0.330   4.316
   86XTA    CO3 9560  26.786   0.365   4.314
   86XTA    OA3 9561  26.730   0.322   4.191
   86XTA    CO4 9562  26.598   0.364   4.150
   86XTA    CT1 9563  26.581   0.513   4.114
   86XTA    CL5 9564  26.704   0.576   4.036
   86XTA    CL6 9565  26.769   0.501   3.919
   86XTA    OA4 9566  27.276   1.595   4.500
   86XTA    CO5 9567  27.192   1.606   4.609
   86XTA    CL7 9568  27.248   1.719   4.686
   86XTA    CL8 9569  27.213   1.866   4.630
   86XTA    CL9 9570  27.284   1.894   4.491
   86XTA   CL10 9571  27.247   2.026   4.431
   86XTA    CO6 9572  27.351   2.068   4.316
   86XTA    OA5 9573  27.486   2.069   4.374
   86XTA    CO7 9574  27.593   2.132   4.302
   86XTA    CT2 9575  27.686   2.209   4.397
   86XTA   CL11 9576  27.776   2.112   4.478
   86XTA   CL12 9577  27.710   1.991   4.550
   86XTA    HL1 9578  26.758   1.541   3.597
   86XTA    HL2 9579  26.591   1.582   3.610
   86XTA    HL3 9580  26.717   1.644   3.719
   86XTA    HL4 9581  27.199   0.703   4.248
   86XTA    HL5 9582  27.068   0.668   4.143
   86XTA    HL6 9583  27.342   0.535   4.166
   86XTA    HL7 9584  27.216   0.483   4.033
   86XTA    HL8 9585  27.161   0.469   4.330
   86XTA    HL9 9586  27.205   0.322   4.252
   86XTA   HL10 9587  26.952   0.482   4.174
   86XTA   HL11 9588  27.016   0.330   4.113
   86XTA   HL12 9589  26.972   0.359   4.418
   86XTA   HL13 9590  26.930   0.223   4.314
   86XTA   HL14 9591  26.744   0.330   4.410
   86XTA   HL15 9592  26.782   0.480   4.327
   86XTA   HL16 9593  26.565   0.295   4.073
   86XTA   HL17 9594  26.537   0.335   4.231
   86XTA   HL18 9595  26.783   0.593   4.110
   86XTA   HL19 9596  26.674   0.675   4.002
   86XTA   HL20 9597  26.713   0.487   3.830
   86XTA   HL21 9598  26.806   0.407   3.956
   86XTA   HL22 9599  26.856   0.558   3.886
   86XTA   HL23 9600  27.180   1.514   4.667
   86XTA   HL24 9601  27.090   1.633   4.576
   86XTA   HL25 9602  27.197   1.721   4.782
   86XTA   HL26 9603  27.350   1.714   4.720
   86XTA   HL27 9604  27.111   1.880   4.630
   86XTA   HL28 9605  27.259   1.927   4.708
   86XTA   HL29 9606  27.393   1.905   4.506
   86XTA   HL30 9607  27.260   1.816   4.416
   86XTA   HL31 9608  27.143   2.032   4.394
   86XTA   HL32 9609  27.256   2.098   4.511
   86XTA   HL33 9610  27.357   1.986   4.239
   86XTA   HL34 9611  27.321   2.161   4.267
   86XTA   HL35 9612  27.539   2.197   4.235
   86XTA   HL36 9613  27.640   2.059   4.238
   86XTA   HL37 9614  27.811   2.183   4.550
   86XTA   HL38 9615  27.861   2.083   4.423
   86XTA   HL39 9616  27.752   1.968   4.645
   86XTA   HL40 9617  27.719   1.905   4.488
   86XTA   HL41 9618  27.603   2.024   4.587
   86XTA    CO8 9619  26.557   0.596   4.242
   86XTA    CO9 9620  26.449   0.519   4.025
   86XTA    OA6 9621  26.430   0.651   3.979
   86XTA   HL42 9622  26.453   0.595   4.264
   86XTA   HL43 9623  26.603   0.543   4.316
   86XTA   HL44 9624  27.538   2.220   4.560
   86XTA   HL45 9625  27.661   2.340   4.576
   86XTA   CO10 9626  27.601   2.290   4.501
   86XTA   CO11 9627  27.770   2.313   4.322
   86XTA    OA7 9628  27.527   2.357   4.449
   86XTA   HL46 9629  27.826   2.255   4.211
   86XTA   HL47 9630  27.713   2.403   4.298
   86XTA   HL48 9631  26.359   0.475   4.074
   86XTA   HL49 9632  26.475   0.469   3.936
   87XTH     NT 9633  24.914  -0.349   4.152
   87XTH    CN1 9634  24.949  -0.450   4.230
   87XTH     C1 9635  24.951  -0.579   4.174
   87XTH     C2 9636  24.972  -0.695   4.252
   87XTH     C3 9637  25.014  -0.674   4.382
   87XTH     C4 9638  25.029  -0.542   4.436
   87XTH     C5 9639  24.990  -0.432   4.358
   87XTH    CN2 9640  24.789  -0.295   4.174
   87XTH     C6 9641  24.783  -0.153   4.180
   87XTH     C7 9642  24.657  -0.094   4.186
   87XTH     C8 9643  24.537  -0.169   4.206
   87XTH     C9 9644  24.546  -0.312   4.211
   87XTH    C10 9645  24.674  -0.370   4.181
   87XTH    CN3 9646  25.009  -0.294   4.073
   87XTH    C11 9647  24.987  -0.262   3.941
   87XTH    C12 9648  25.075  -0.176   3.870
   87XTH    C13 9649  25.187  -0.130   3.936
   87XTH    C14 9650  25.212  -0.159   4.073
   87XTH    C15 9651  25.116  -0.240   4.142
   87XTH     H1 9652  24.933  -0.587   4.072
   87XTH     H2 9653  24.983  -0.795   4.204
   87XTH     H3 9654  25.085  -0.530   4.523
   87XTH     H4 9655  24.990  -0.333   4.385
   87XTH     H5 9656  24.877  -0.098   4.161
   87XTH     H6 9657  24.662   0.013   4.197
   87XTH     H7 9658  24.460  -0.372   4.220
   87XTH     H8 9659  24.683  -0.478   4.178
   87XTH     H9 9660  24.893  -0.290   3.906
   87XTH    H10 9661  25.056  -0.154   3.769
   87XTH    H11 9662  25.290  -0.117   4.128
   87XTH    H12 9663  25.127  -0.257   4.250
   87XTH    OA1 9664  25.052  -0.784   4.454
   87XTH    CO1 9665  25.154  -0.781   4.554
   87XTH    OA2 9666  24.415  -0.115   4.227
   87XTH    CO2 9667  24.405   0.015   4.179
   87XTH    CL1 9668  24.404   0.120   4.296
   87XTH    CL2 9669  24.492   0.236   4.252
   87XTH    CL3 9670  24.502   0.334   4.368
   87XTH    CL4 9671  24.599   0.449   4.327
   87XTH    CO3 9672  24.616   0.531   4.451
   87XTH    OA3 9673  24.684   0.651   4.422
   87XTH    CO4 9674  24.660   0.764   4.508
   87XTH    CT1 9675  24.720   0.888   4.444
   87XTH    CL5 9676  24.667   0.999   4.533
   87XTH    CL6 9677  24.659   1.142   4.468
   87XTH    OA4 9678  25.279  -0.060   3.854
   87XTH    CO5 9679  25.382   0.010   3.926
   87XTH    CL7 9680  25.456   0.106   3.838
   87XTH    CL8 9681  25.479   0.228   3.931
   87XTH    CL9 9682  25.602   0.309   3.892
   87XTH   CL10 9683  25.569   0.389   3.763
   87XTH    CO6 9684  25.666   0.501   3.738
   87XTH    OA5 9685  25.792   0.462   3.689
   87XTH    CO7 9686  25.889   0.566   3.669
   87XTH    CT2 9687  26.033   0.512   3.639
   87XTH   CL11 9688  26.036   0.451   3.507
   87XTH   CL12 9689  26.174   0.388   3.479
   87XTH    HL1 9690  25.112  -0.715   4.637
   87XTH    HL2 9691  25.162  -0.887   4.586
   87XTH    HL3 9692  25.245  -0.739   4.511
   87XTH    HL4 9693  24.481   0.055   4.109
   87XTH    HL5 9694  24.313   0.043   4.134
   87XTH    HL6 9695  24.437   0.069   4.390
   87XTH    HL7 9696  24.303   0.155   4.308
   87XTH    HL8 9697  24.461   0.274   4.147
   87XTH    HL9 9698  24.598   0.202   4.246
   87XTH   HL10 9699  24.402   0.378   4.397
   87XTH   HL11 9700  24.531   0.294   4.467
   87XTH   HL12 9701  24.564   0.509   4.245
   87XTH   HL13 9702  24.700   0.410   4.299
   87XTH   HL14 9703  24.512   0.548   4.488
   87XTH   HL15 9704  24.672   0.478   4.529
   87XTH   HL16 9705  24.560   0.779   4.535
   87XTH   HL17 9706  24.701   0.734   4.609
   87XTH   HL18 9707  24.709   1.000   4.628
   87XTH   HL19 9708  24.562   0.981   4.554
   87XTH   HL20 9709  24.584   1.139   4.392
   87XTH   HL21 9710  24.749   1.171   4.425
   87XTH   HL22 9711  24.637   1.223   4.535
   87XTH   HL23 9712  25.453  -0.059   3.966
   87XTH   HL24 9713  25.347   0.066   4.015
   87XTH   HL25 9714  25.551   0.070   3.811
   87XTH   HL26 9715  25.408   0.135   3.745
   87XTH   HL27 9716  25.399   0.300   3.923
   87XTH   HL28 9717  25.485   0.190   4.030
   87XTH   HL29 9718  25.634   0.367   3.973
   87XTH   HL30 9719  25.681   0.238   3.874
   87XTH   HL31 9720  25.559   0.319   3.685
   87XTH   HL32 9721  25.479   0.443   3.774
   87XTH   HL33 9722  25.632   0.567   3.661
   87XTH   HL34 9723  25.683   0.563   3.825
   87XTH   HL35 9724  25.883   0.609   3.774
   87XTH   HL36 9725  25.860   0.654   3.603
   87XTH   HL37 9726  26.020   0.521   3.429
   87XTH   HL38 9727  25.964   0.371   3.501
   87XTH   HL39 9728  26.186   0.352   3.377
   87XTH   HL40 9729  26.184   0.294   3.535
   87XTH   HL41 9730  26.259   0.436   3.518
   87XTH    CO8 9731  24.680   0.891   4.299
   87XTH    CO9 9732  24.872   0.874   4.455
   87XTH    OA6 9733  24.575   0.891   4.286
   87XTH   HL42 9734  24.734   0.813   4.251
   87XTH   HL43 9735  24.729   0.969   4.240
   87XTH   HL44 9736  26.186   0.387   3.761
   87XTH   HL45 9737  26.075   0.484   3.847
   87XTH   CO10 9738  26.081   0.420   3.759
   87XTH   CO11 9739  26.126   0.635   3.652
   87XTH    OA7 9740  26.005   0.300   3.770
   87XTH   HL46 9741  26.097   0.704   3.579
   87XTH   HL47 9742  26.223   0.607   3.610
   87XTH   HL48 9743  24.930   0.775   4.372
   87XTH   HL49 9744  24.918   0.970   4.419
   88XTA     NT 9745  28.038   2.257   6.544
   88XTA    CN1 9746  28.015   2.249   6.678
   88XTA     C1 9747  27.950   2.356   6.739
   88XTA     C2 9748  27.912   2.344   6.875
   88XTA     C3 9749  27.956   2.239   6.958
   88XTA     C4 9750  28.034   2.141   6.895
   88XTA     C5 9751  28.058   2.142   6.757
   88XTA    CN2 9752  27.947   2.312   6.460
   88XTA     C6 9753  27.971   2.448   6.419
   88XTA     C7 9754  27.874   2.512   6.342
   88XTA     C8 9755  27.757   2.454   6.310
   88XTA     C9 9756  27.735   2.313   6.347
   88XTA    C10 9757  27.824   2.248   6.429
   88XTA    CN3 9758  28.166   2.251   6.500
   88XTA    C11 9759  28.208   2.149   6.408
   88XTA    C12 9760  28.343   2.145   6.364
   88XTA    C13 9761  28.431   2.243   6.414
   88XTA    C14 9762  28.386   2.358   6.490
   88XTA    C15 9763  28.259   2.350   6.548
   88XTA     H1 9764  27.915   2.440   6.684
   88XTA     H2 9765  27.859   2.433   6.923
   88XTA     H3 9766  28.073   2.071   6.969
   88XTA     H4 9767  28.101   2.052   6.713
   88XTA     H5 9768  28.061   2.494   6.429
   88XTA     H6 9769  27.901   2.609   6.302
   88XTA     H7 9770  27.641   2.269   6.326
   88XTA     H8 9771  27.793   2.151   6.467
   88XTA     H9 9772  28.142   2.078   6.361
   88XTA    H10 9773  28.375   2.073   6.290
   88XTA    H11 9774  28.459   2.437   6.517
   88XTA    H12 9775  28.223   2.434   6.610
   88XTA    OA1 9776  27.941   2.226   7.096
   88XTA    CO1 9777  27.876   2.337   7.163
   88XTA    OA2 9778  27.668   2.529   6.240
   88XTA    CO2 9779  27.528   2.529   6.291
   88XTA    CL1 9780  27.435   2.638   6.233
   88XTA    CL2 9781  27.473   2.771   6.285
   88XTA    CL3 9782  27.379   2.888   6.257
   88XTA    CL4 9783  27.234   2.879   6.298
   88XTA    CO3 9784  27.220   2.936   6.442
   88XTA    OA3 9785  27.086   2.958   6.465
   88XTA    CO4 9786  27.049   3.034   6.579
   88XTA    CT1 9787  26.898   3.032   6.598
   88XTA    CL5 9788  26.836   3.116   6.474
   88XTA    CL6 9789  26.839   3.275   6.494
   88XTA    OA4 9790  28.559   2.234   6.357
   88XTA    CO5 9791  28.658   2.329   6.364
   88XTA    CL7 9792  28.620   2.438   6.260
   88XTA    CL8 9793  28.715   2.556   6.269
   88XTA    CL9 9794  28.644   2.692   6.252
   88XTA   CL10 9795  28.555   2.712   6.365
   88XTA    CO6 9796  28.490   2.849   6.356
   88XTA    OA5 9797  28.408   2.859   6.247
   88XTA    CO7 9798  28.302   2.951   6.262
   88XTA    CT2 9799  28.220   2.953   6.129
   88XTA   CL11 9800  28.104   2.849   6.135
   88XTA   CL12 9801  28.148   2.699   6.152
   88XTA    HL1 9802  27.775   2.358   7.127
   88XTA    HL2 9803  27.867   2.328   7.271
   88XTA    HL3 9804  27.925   2.423   7.144
   88XTA    HL4 9805  27.475   2.437   6.275
   88XTA    HL5 9806  27.533   2.537   6.399
   88XTA    HL6 9807  27.326   2.617   6.257
   88XTA    HL7 9808  27.455   2.630   6.125
   88XTA    HL8 9809  27.574   2.784   6.245
   88XTA    HL9 9810  27.482   2.762   6.393
   88XTA   HL10 9811  27.426   2.976   6.300
   88XTA   HL11 9812  27.374   2.911   6.148
   88XTA   HL12 9813  27.198   2.781   6.302
   88XTA   HL13 9814  27.175   2.943   6.229
   88XTA   HL14 9815  27.253   2.866   6.518
   88XTA   HL15 9816  27.287   3.016   6.447
   88XTA   HL16 9817  27.102   2.989   6.664
   88XTA   HL17 9818  27.073   3.139   6.575
   88XTA   HL18 9819  26.735   3.081   6.449
   88XTA   HL19 9820  26.898   3.097   6.388
   88XTA   HL20 9821  26.791   3.320   6.405
   88XTA   HL21 9822  26.944   3.291   6.513
   88XTA   HL22 9823  26.782   3.296   6.580
   88XTA   HL23 9824  28.748   2.272   6.340
   88XTA   HL24 9825  28.669   2.364   6.462
   88XTA   HL25 9826  28.626   2.397   6.155
   88XTA   HL26 9827  28.515   2.464   6.270
   88XTA   HL27 9828  28.757   2.550   6.369
   88XTA   HL28 9829  28.793   2.546   6.193
   88XTA   HL29 9830  28.713   2.777   6.256
   88XTA   HL30 9831  28.573   2.699   6.165
   88XTA   HL31 9832  28.472   2.642   6.368
   88XTA   HL32 9833  28.610   2.702   6.467
   88XTA   HL33 9834  28.439   2.867   6.447
   88XTA   HL34 9835  28.564   2.923   6.347
   88XTA   HL35 9836  28.347   3.047   6.286
   88XTA   HL36 9837  28.235   2.927   6.335
   88XTA   HL37 9838  28.043   2.864   6.045
   88XTA   HL38 9839  28.036   2.879   6.214
   88XTA   HL39 9840  28.195   2.667   6.059
   88XTA   HL40 9841  28.065   2.632   6.173
   88XTA   HL41 9842  28.209   2.692   6.242
   88XTA    CO8 9843  26.861   3.096   6.740
   88XTA    CO9 9844  26.849   2.891   6.602
   88XTA    OA6 9845  26.941   2.814   6.687
   88XTA   HL42 9846  26.929   3.058   6.824
   88XTA   HL43 9847  26.900   3.199   6.740
   88XTA   HL44 9848  28.412   2.961   6.023
   88XTA   HL45 9849  28.337   2.809   6.009
   88XTA   CO10 9850  28.318   2.912   6.009
   88XTA   CO11 9851  28.156   3.084   6.095
   88XTA    OA7 9852  28.265   2.943   5.883
   88XTA   HL46 9853  28.242   3.153   6.072
   88XTA   HL47 9854  28.100   3.085   6.005
   88XTA   HL48 9855  26.847   2.847   6.503
   88XTA   HL49 9856  26.741   2.888   6.628
   89XTH     NT 9857  25.935   3.772  -0.462
   89XTH    CN1 9858  25.889   3.871  -0.543
   89XTH     C1 9859  25.758   3.862  -0.601
   89XTH     C2 9860  25.697   3.957  -0.680
   89XTH     C3 9861  25.763   4.078  -0.704
   89XTH     C4 9862  25.887   4.098  -0.637
   89XTH     C5 9863  25.950   3.990  -0.573
   89XTH    CN2 9864  25.911   3.779  -0.328
   89XTH     C6 9865  25.815   3.690  -0.277
   89XTH     C7 9866  25.775   3.689  -0.147
   89XTH     C8 9867  25.851   3.769  -0.058
   89XTH     C9 9868  25.947   3.859  -0.102
   89XTH    C10 9869  25.975   3.869  -0.239
   89XTH    CN3 9870  26.041   3.705  -0.506
   89XTH    C11 9871  26.025   3.573  -0.551
   89XTH    C12 9872  26.135   3.498  -0.594
   89XTH    C13 9873  26.263   3.557  -0.582
   89XTH    C14 9874  26.273   3.689  -0.533
   89XTH    C15 9875  26.167   3.761  -0.496
   89XTH     H1 9876  25.697   3.778  -0.582
   89XTH     H2 9877  25.605   3.932  -0.732
   89XTH     H3 9878  25.942   4.187  -0.656
   89XTH     H4 9879  26.053   3.998  -0.552
   89XTH     H5 9880  25.756   3.625  -0.349
   89XTH     H6 9881  25.706   3.618  -0.101
   89XTH     H7 9882  25.996   3.926  -0.038
   89XTH     H8 9883  26.052   3.934  -0.280
   89XTH     H9 9884  25.925   3.537  -0.556
   89XTH    H10 9885  26.128   3.393  -0.629
   89XTH    H11 9886  26.367   3.741  -0.527
   89XTH    H12 9887  26.181   3.866  -0.461
   89XTH    OA1 9888  25.711   4.180  -0.780
   89XTH    CO1 9889  25.574   4.172  -0.824
   89XTH    OA2 9890  25.845   3.755   0.080
   89XTH    CO2 9891  25.758   3.651   0.130
   89XTH    CL1 9892  25.785   3.637   0.275
   89XTH    CL2 9893  25.712   3.506   0.329
   89XTH    CL3 9894  25.746   3.484   0.484
   89XTH    CL4 9895  25.738   3.332   0.513
   89XTH    CO3 9896  25.815   3.290   0.636
   89XTH    OA3 9897  25.837   3.148   0.638
   89XTH    CO4 9898  25.725   3.067   0.678
   89XTH    CT1 9899  25.772   2.923   0.707
   89XTH    CL5 9900  25.654   2.836   0.749
   89XTH    CL6 9901  25.672   2.701   0.817
   89XTH    OA4 9902  26.361   3.471  -0.621
   89XTH    CO5 9903  26.464   3.538  -0.693
   89XTH    CL7 9904  26.554   3.437  -0.779
   89XTH    CL8 9905  26.642   3.511  -0.883
   89XTH    CL9 9906  26.730   3.418  -0.964
   89XTH   CL10 9907  26.837   3.333  -0.888
   89XTH    CO6 9908  26.951   3.426  -0.844
   89XTH    OA5 9909  27.041   3.361  -0.754
   89XTH    CO7 9910  27.147   3.444  -0.718
   89XTH    CT2 9911  27.230   3.379  -0.608
   89XTH   CL11 9912  27.284   3.240  -0.650
   89XTH   CL12 9913  27.352   3.249  -0.799
   89XTH    HL1 9914  25.512   4.155  -0.737
   89XTH    HL2 9915  25.542   4.269  -0.863
   89XTH    HL3 9916  25.554   4.085  -0.891
   89XTH    HL4 9917  25.656   3.683   0.112
   89XTH    HL5 9918  25.782   3.551   0.090
   89XTH    HL6 9919  25.745   3.723   0.323
   89XTH    HL7 9920  25.894   3.627   0.292
   89XTH    HL8 9921  25.736   3.417   0.268
   89XTH    HL9 9922  25.603   3.519   0.316
   89XTH   HL10 9923  25.847   3.505   0.511
   89XTH   HL11 9924  25.679   3.540   0.554
   89XTH   HL12 9925  25.778   3.282   0.426
   89XTH   HL13 9926  25.637   3.303   0.525
   89XTH   HL14 9927  25.909   3.333   0.627
   89XTH   HL15 9928  25.785   3.318   0.733
   89XTH   HL16 9929  25.700   3.114   0.777
   89XTH   HL17 9930  25.637   3.079   0.617
   89XTH   HL18 9931  25.598   2.817   0.659
   89XTH   HL19 9932  25.576   2.897   0.799
   89XTH   HL20 9933  25.578   2.642   0.834
   89XTH   HL21 9934  25.730   2.705   0.914
   89XTH   HL22 9935  25.722   2.632   0.757
   89XTH   HL23 9936  26.522   3.597  -0.621
   89XTH   HL24 9937  26.414   3.604  -0.764
   89XTH   HL25 9938  26.619   3.379  -0.707
   89XTH   HL26 9939  26.496   3.363  -0.823
   89XTH   HL27 9940  26.583   3.560  -0.961
   89XTH   HL28 9941  26.715   3.590  -0.846
   89XTH   HL29 9942  26.666   3.347  -1.014
   89XTH   HL30 9943  26.774   3.472  -1.043
   89XTH   HL31 9944  26.804   3.293  -0.797
   89XTH   HL32 9945  26.881   3.258  -0.954
   89XTH   HL33 9946  27.002   3.451  -0.937
   89XTH   HL34 9947  26.911   3.519  -0.811
   89XTH   HL35 9948  27.094   3.531  -0.683
   89XTH   HL36 9949  27.213   3.473  -0.799
   89XTH   HL37 9950  27.207   3.166  -0.642
   89XTH   HL38 9951  27.368   3.220  -0.585
   89XTH   HL39 9952  27.283   3.232  -0.883
   89XTH   HL40 9953  27.436   3.181  -0.810
   89XTH   HL41 9954  27.403   3.345  -0.813
   89XTH    CO8 9955  25.876   2.932   0.825
   89XTH    CO9 9956  25.845   2.874   0.584
   89XTH    OA6 9957  25.923   2.830   0.849
   89XTH   HL42 9958  25.832   2.968   0.921
   89XTH   HL43 9959  25.953   3.009   0.793
   89XTH   HL44 9960  27.028   3.278  -0.490
   89XTH   HL45 9961  27.106   3.456  -0.452
   89XTH   CO10 9962  27.149   3.361  -0.479
   89XTH   CO11 9963  27.345   3.471  -0.575
   89XTH    OA7 9964  27.305   3.573  -0.554
   89XTH   HL46 9965  27.392   3.424  -0.488
   89XTH   HL47 9966  27.419   3.462  -0.651
   89XTH   HL48 9967  25.948   2.951   0.531
   89XTH   HL49 9968  25.897   2.785   0.619
   90XTA     NT 9969  28.642   0.220   4.732
   90XTA    CN1 9970  28.603   0.103   4.688
   90XTA     C1 9971  28.513   0.026   4.765
   90XTA     C2 9972  28.476  -0.103   4.716
   90XTA     C3 9973  28.535  -0.162   4.603
   90XTA     C4 9974  28.624  -0.083   4.526
   90XTA     C5 9975  28.645   0.050   4.569
   90XTA    CN2 9976  28.771   0.227   4.759
   90XTA     C6 9977  28.860   0.284   4.668
   90XTA     C7 9978  28.995   0.280   4.702
   90XTA     C8 9979  29.048   0.227   4.822
   90XTA     C9 9980  28.954   0.169   4.909
   90XTA    C10 9981  28.821   0.171   4.880
   90XTA    CN3 9982  28.564   0.316   4.799
   90XTA    C11 9983  28.537   0.313   4.935
   90XTA    C12 9984  28.490   0.428   4.998
   90XTA    C13 9985  28.427   0.536   4.925
   90XTA    C14 9986  28.434   0.534   4.783
   90XTA    C15 9987  28.505   0.426   4.722
   90XTA     H1 9988  28.468   0.067   4.853
   90XTA     H2 9989  28.414  -0.155   4.787
   90XTA     H3 9990  28.679  -0.105   4.440
   90XTA     H4 9991  28.721   0.104   4.520
   90XTA     H5 9992  28.836   0.329   4.577
   90XTA     H6 9993  29.056   0.342   4.629
   90XTA     H7 9994  28.986   0.121   4.998
   90XTA     H8 9995  28.748   0.115   4.944
   90XTA     H9 9996  28.568   0.229   4.989
   90XTA    H10 9997  28.477   0.430   5.106
   90XTA    H11 9998  28.388   0.615   4.724
   90XTA    H12 9999  28.523   0.424   4.615
   90XTA    OA110000  28.494  -0.298   4.564
   90XTA    CO110001  28.599  -0.368   4.502
   90XTA    OA210002  29.184   0.233   4.856
   90XTA    CO210003  29.278   0.276   4.753
   90XTA    CL110004  29.405   0.309   4.829
   90XTA    CL210005  29.473   0.211   4.916
   90XTA    CL310006  29.583   0.275   5.007
   90XTA    CL410007  29.620   0.184   5.127
   90XTA    CO310008  29.718   0.250   5.230
   90XTA    OA310009  29.655   0.361   5.274
   90XTA    CO410010  29.736   0.440   5.353
   90XTA    CT110011  29.664   0.565   5.413
   90XTA    CL510012  29.761   0.647   5.499
   90XTA    CL610013  29.823   0.571   5.615
   90XTA    OA410014  28.368   0.635   4.998
   90XTA    CO510015  28.243   0.675   4.942
   90XTA    CL710016  28.178   0.762   5.052
   90XTA    CL810017  28.054   0.829   4.998
   90XTA    CL910018  27.994   0.923   5.094
   90XTA   CL1010019  27.939   0.864   5.224
   90XTA    CO610020  27.919   0.968   5.332
   90XTA    OA510021  27.871   0.898   5.453
   90XTA    CO710022  27.912   0.977   5.565
   90XTA    CT210023  27.892   0.896   5.697
   90XTA   CL1110024  27.939   0.968   5.824
   90XTA   CL1210025  28.080   1.017   5.815
   90XTA    HL110026  28.618  -0.337   4.400
   90XTA    HL210027  28.696  -0.359   4.558
   90XTA    HL310028  28.566  -0.469   4.498
   90XTA    HL410029  29.293   0.211   4.667
   90XTA    HL510030  29.246   0.364   4.712
   90XTA    HL610031  29.383   0.394   4.885
   90XTA    HL710032  29.481   0.341   4.757
   90XTA    HL810033  29.523   0.132   4.853
   90XTA    HL910034  29.394   0.158   4.974
   90XTA   HL1010035  29.664   0.299   4.954
   90XTA   HL1110036  29.545   0.365   5.055
   90XTA   HL1210037  29.656   0.094   5.093
   90XTA   HL1310038  29.520   0.158   5.181
   90XTA   HL1410039  29.746   0.184   5.310
   90XTA   HL1510040  29.814   0.278   5.174
   90XTA   HL1610041  29.782   0.377   5.428
   90XTA   HL1710042  29.830   0.462   5.293
   90XTA   HL1810043  29.703   0.727   5.540
   90XTA   HL1910044  29.842   0.691   5.442
   90XTA   HL2010045  29.881   0.481   5.590
   90XTA   HL2110046  29.746   0.546   5.689
   90XTA   HL2210047  29.889   0.634   5.664
   90XTA   HL2310048  28.179   0.582   4.916
   90XTA   HL2410049  28.253   0.735   4.850
   90XTA   HL2510050  28.163   0.700   5.140
   90XTA   HL2610051  28.245   0.842   5.081
   90XTA   HL2710052  28.084   0.883   4.906
   90XTA   HL2810053  27.980   0.765   4.953
   90XTA   HL2910054  28.060   1.006   5.122
   90XTA   HL3010055  27.911   0.969   5.042
   90XTA   HL3110056  27.847   0.809   5.209
   90XTA   HL3210057  28.013   0.794   5.265
   90XTA   HL3310058  28.013   1.019   5.361
   90XTA   HL3410059  27.846   1.045   5.300
   90XTA   HL3510060  27.848   1.068   5.568
   90XTA   HL3610061  28.019   1.008   5.558
   90XTA   HL3710062  27.938   0.895   5.915
   90XTA   HL3810063  27.873   1.055   5.850
   90XTA   HL3910064  28.113   1.068   5.909
   90XTA   HL4010065  28.102   1.084   5.732
   90XTA   HL4110066  28.153   0.937   5.813
   90XTA    CO810067  29.552   0.521   5.506
   90XTA    CO910068  29.603   0.658   5.310
   90XTA    OA610069  29.518   0.604   5.608
   90XTA   HL4210070  29.592   0.431   5.543
   90XTA   HL4310071  29.465   0.502   5.453
   90XTA   HL4410072  28.067   0.779   5.640
   90XTA   HL4510073  27.981   0.723   5.792
   90XTA   CO1010074  27.970   0.762   5.687
   90XTA   CO1110075  27.743   0.863   5.730
   90XTA    OA710076  27.911   0.687   5.630
   90XTA   HL4610077  27.721   0.726   5.759
   90XTA   HL4710078  27.685   0.881   5.636
   90XTA   HL4810079  29.520   0.606   5.273
   90XTA   HL4910080  29.560   0.754   5.357
   91XTA     NT10081  28.001   1.527   2.117
   91XTA    CN110082  27.974   1.396   2.091
   91XTA     C110083  28.028   1.294   2.175
   91XTA     C210084  28.001   1.157   2.144
   91XTA     C310085  27.929   1.119   2.024
   91XTA     C410086  27.878   1.220   1.941
   91XTA     C510087  27.905   1.357   1.975
   91XTA    CN210088  27.900   1.613   2.104
   91XTA     C610089  27.808   1.617   2.212
   91XTA     C710090  27.702   1.709   2.227
   91XTA     C810091  27.684   1.807   2.127
   91XTA     C910092  27.783   1.815   2.022
   91XTA    C1010093  27.887   1.714   2.005
   91XTA    CN310094  28.115   1.565   2.174
   91XTA    C1110095  28.113   1.623   2.300
   91XTA    C1210096  28.230   1.663   2.366
   91XTA    C1310097  28.357   1.648   2.307
   91XTA    C1410098  28.357   1.605   2.169
   91XTA    C1510099  28.239   1.559   2.109
   91XTA     H110100  28.094   1.316   2.259
   91XTA     H210101  28.032   1.078   2.215
   91XTA     H310102  27.840   1.191   1.847
   91XTA     H410103  27.867   1.437   1.911
   91XTA     H510104  27.831   1.550   2.291
   91XTA     H610105  27.646   1.696   2.319
   91XTA     H710106  27.783   1.904   1.958
   91XTA     H810107  27.960   1.721   1.924
   91XTA     H910108  28.018   1.627   2.355
   91XTA    H1010109  28.223   1.703   2.466
   91XTA    H1110110  28.454   1.600   2.113
   91XTA    H1210111  28.242   1.528   2.010
   91XTA    OA110112  27.916   0.995   1.976
   91XTA    CO110113  27.929   0.893   2.077
   91XTA    OA210114  27.600   1.912   2.145
   91XTA    CO210115  27.495   1.892   2.242
   91XTA    CL110116  27.367   1.976   2.213
   91XTA    CL210117  27.241   1.955   2.304
   91XTA    CL310118  27.180   1.812   2.287
   91XTA    CL410119  27.067   1.783   2.384
   91XTA    CO310120  27.035   1.636   2.410
   91XTA    OA310121  27.151   1.588   2.474
   91XTA    CO410122  27.150   1.446   2.496
   91XTA    CT110123  27.253   1.400   2.600
   91XTA    CL510124  27.393   1.449   2.563
   91XTA    CL610125  27.447   1.381   2.446
   91XTA    OA410126  28.468   1.704   2.361
   91XTA    CO510127  28.580   1.708   2.286
   91XTA    CL710128  28.675   1.818   2.348
   91XTA    CL810129  28.623   1.965   2.351
   91XTA    CL910130  28.495   1.984   2.422
   91XTA   CL1010131  28.472   2.136   2.448
   91XTA    CO610132  28.335   2.163   2.498
   91XTA    OA510133  28.242   2.124   2.398
   91XTA    CO710134  28.109   2.179   2.423
   91XTA    CT210135  28.006   2.176   2.313
   91XTA   CL1110136  27.990   2.028   2.256
   91XTA   CL1210137  27.920   1.943   2.358
   91XTA    HL110138  28.026   0.887   2.126
   91XTA    HL210139  27.843   0.900   2.145
   91XTA    HL310140  27.917   0.793   2.040
   91XTA    HL410141  27.479   1.789   2.251
   91XTA    HL510142  27.537   1.921   2.341
   91XTA    HL610143  27.345   1.969   2.104
   91XTA    HL710144  27.388   2.081   2.233
   91XTA    HL810145  27.162   2.013   2.255
   91XTA    HL910146  27.250   1.989   2.412
   91XTA   HL1010147  27.154   1.796   2.177
   91XTA   HL1110148  27.260   1.740   2.303
   91XTA   HL1210149  26.977   1.841   2.351
   91XTA   HL1310150  27.088   1.836   2.477
   91XTA   HL1410151  26.954   1.628   2.488
   91XTA   HL1510152  27.022   1.582   2.313
   91XTA   HL1610153  27.049   1.415   2.531
   91XTA   HL1710154  27.166   1.401   2.399
   91XTA   HL1810155  27.462   1.443   2.649
   91XTA   HL1910156  27.390   1.557   2.541
   91XTA   HL2010157  27.542   1.426   2.414
   91XTA   HL2110158  27.382   1.372   2.358
   91XTA   HL2210159  27.464   1.281   2.479
   91XTA   HL2310160  28.552   1.749   2.189
   91XTA   HL2410161  28.633   1.609   2.278
   91XTA   HL2510162  28.684   1.798   2.455
   91XTA   HL2610163  28.774   1.817   2.308
   91XTA   HL2710164  28.706   2.027   2.396
   91XTA   HL2810165  28.610   1.994   2.247
   91XTA   HL2910166  28.414   1.944   2.366
   91XTA   HL3010167  28.496   1.927   2.506
   91XTA   HL3110168  28.552   2.175   2.512
   91XTA   HL3210169  28.489   2.190   2.361
   91XTA   HL3310170  28.305   2.127   2.600
   91XTA   HL3410171  28.333   2.271   2.515
   91XTA   HL3510172  28.122   2.287   2.458
   91XTA   HL3610173  28.061   2.135   2.505
   91XTA   HL3710174  28.088   1.993   2.229
   91XTA   HL3810175  27.928   2.028   2.165
   91XTA   HL3910176  27.943   1.848   2.326
   91XTA   HL4010177  27.809   1.954   2.366
   91XTA   HL4110178  27.955   1.948   2.460
   91XTA    CO810179  27.238   1.248   2.614
   91XTA    CO910180  27.202   1.459   2.727
   91XTA    OA610181  27.320   1.195   2.713
   91XTA   HL4210182  27.267   1.195   2.521
   91XTA   HL4310183  27.133   1.213   2.631
   91XTA   HL4410184  28.048   2.387   2.242
   91XTA   HL4510185  28.146   2.245   2.169
   91XTA   CO1010186  28.050   2.280   2.213
   91XTA   CO1110187  27.881   2.234   2.381
   91XTA    OA710188  27.925   2.350   2.444
   91XTA   HL4610189  27.804   2.248   2.308
   91XTA   HL4710190  27.835   2.154   2.448
   91XTA   HL4810191  27.283   1.431   2.790
   91XTA   HL4910192  27.213   1.573   2.706
   92XTA     NT10193  26.218   1.477   0.722
   92XTA    CN110194  26.247   1.359   0.674
   92XTA     C110195  26.211   1.321   0.546
   92XTA     C210196  26.236   1.192   0.502
   92XTA     C310197  26.295   1.096   0.586
   92XTA     C410198  26.331   1.136   0.714
   92XTA     C510199  26.304   1.266   0.766
   92XTA    CN210200  26.092   1.504   0.771
   92XTA     C610201  26.049   1.458   0.900
   92XTA     C710202  25.918   1.505   0.946
   92XTA     C810203  25.842   1.596   0.868
   92XTA     C910204  25.892   1.648   0.742
   92XTA    C1010205  26.021   1.605   0.699
   92XTA    CN310206  26.309   1.575   0.743
   92XTA    C1110207  26.406   1.614   0.647
   92XTA    C1210208  26.484   1.725   0.668
   92XTA    C1310209  26.468   1.814   0.776
   92XTA    C1410210  26.366   1.788   0.869
   92XTA    C1510211  26.291   1.665   0.856
   92XTA     H110212  26.158   1.389   0.482
   92XTA     H210213  26.203   1.156   0.402
   92XTA     H310214  26.361   1.061   0.781
   92XTA     H410215  26.331   1.290   0.869
   92XTA     H510216  26.111   1.383   0.944
   92XTA     H610217  25.881   1.482   1.048
   92XTA     H710218  25.841   1.727   0.689
   92XTA     H810219  26.070   1.646   0.615
   92XTA     H910220  26.426   1.554   0.558
   92XTA    H1010221  26.560   1.747   0.589
   92XTA    H1110222  26.354   1.846   0.959
   92XTA    H1210223  26.225   1.641   0.933
   92XTA    OA110224  26.302   0.964   0.548
   92XTA    CO110225  26.230   0.883   0.644
   92XTA    OA210226  25.739   1.660   0.927
   92XTA    CO210227  25.748   1.797   0.943
   92XTA    CL110228  25.630   1.845   1.025
   92XTA    CL210229  25.494   1.845   0.954
   92XTA    CL310230  25.414   1.720   0.983
   92XTA    CL410231  25.265   1.725   0.945
   92XTA    CO310232  25.198   1.588   0.944
   92XTA    OA310233  25.192   1.545   1.075
   92XTA    CO410234  25.067   1.551   1.132
   92XTA    CT110235  25.071   1.512   1.282
   92XTA    CL510236  24.930   1.530   1.337
   92XTA    CL610237  24.813   1.467   1.258
   92XTA    OA410238  26.546   1.920   0.799
   92XTA    CO510239  26.650   1.942   0.706
   92XTA    CL710240  26.723   2.069   0.737
   92XTA    CL810241  26.781   2.082   0.879
   92XTA    CL910242  26.863   1.968   0.937
   92XTA   CL1010243  26.994   1.932   0.864
   92XTA    CO610244  27.032   1.790   0.883
   92XTA    OA510245  27.122   1.753   0.787
   92XTA    CO710246  27.174   1.620   0.797
   92XTA    CT210247  27.269   1.575   0.681
   92XTA   CL1110248  27.327   1.432   0.709
   92XTA   CL1210249  27.225   1.322   0.745
   92XTA    HL110250  26.127   0.912   0.678
   92XTA    HL210251  26.218   0.783   0.598
   92XTA    HL310252  26.289   0.872   0.736
   92XTA    HL410253  25.837   1.805   1.011
   92XTA    HL510254  25.768   1.861   0.856
   92XTA    HL610255  25.639   1.956   1.052
   92XTA    HL710256  25.620   1.792   1.119
   92XTA    HL810257  25.489   1.892   0.851
   92XTA    HL910258  25.435   1.911   1.004
   92XTA   HL1010259  25.464   1.633   0.943
   92XTA   HL1110260  25.414   1.700   1.088
   92XTA   HL1210261  25.264   1.764   0.840
   92XTA   HL1310262  25.212   1.788   1.016
   92XTA   HL1410263  25.094   1.585   0.904
   92XTA   HL1510264  25.257   1.526   0.874
   92XTA   HL1610265  25.027   1.648   1.110
   92XTA   HL1710266  24.998   1.485   1.070
   92XTA   HL1810267  24.907   1.643   1.345
   92XTA   HL1910268  24.941   1.487   1.437
   92XTA   HL2010269  24.836   1.410   1.170
   92XTA   HL2110270  24.747   1.541   1.215
   92XTA   HL2210271  24.750   1.411   1.324
   92XTA   HL2310272  26.615   1.951   0.602
   92XTA   HL2410273  26.715   1.862   0.712
   92XTA   HL2510274  26.794   2.082   0.660
   92XTA   HL2610275  26.641   2.139   0.728
   92XTA   HL2710276  26.852   2.161   0.874
   92XTA   HL2810277  26.694   2.095   0.941
   92XTA   HL2910278  26.894   2.002   1.038
   92XTA   HL3010279  26.800   1.882   0.943
   92XTA   HL3110280  26.989   1.952   0.755
   92XTA   HL3210281  27.070   1.997   0.902
   92XTA   HL3310282  27.066   1.777   0.984
   92XTA   HL3410283  26.950   1.726   0.860
   92XTA   HL3510284  27.100   1.550   0.818
   92XTA   HL3610285  27.233   1.609   0.889
   92XTA   HL3710286  27.399   1.429   0.791
   92XTA   HL3810287  27.390   1.415   0.619
   92XTA   HL3910288  27.196   1.341   0.847
   92XTA   HL4010289  27.258   1.229   0.728
   92XTA   HL4110290  27.139   1.340   0.682
   92XTA    CO810291  25.172   1.606   1.355
   92XTA    CO910292  25.119   1.369   1.309
   92XTA    OA610293  25.132   1.705   1.369
   92XTA   HL4210294  25.266   1.610   1.296
   92XTA   HL4310295  25.203   1.563   1.448
   92XTA   HL4410296  27.470   1.644   0.597
   92XTA   HL4510297  27.361   1.778   0.627
   92XTA   CO1010298  27.389   1.674   0.663
   92XTA   CO1110299  27.199   1.580   0.542
   92XTA    OA710300  27.450   1.687   0.785
   92XTA   HL4610301  27.188   1.681   0.511
   92XTA   HL4710302  27.273   1.544   0.478
   92XTA   HL4810303  25.245   1.336   1.246
   92XTA   HL4910304  25.050   1.307   1.240
   93XTA     NT10305  30.363   2.544   3.692
   93XTA    CN110306  30.419   2.667   3.697
   93XTA     C110307  30.343   2.772   3.644
   93XTA     C210308  30.388   2.906   3.656
   93XTA     C310309  30.517   2.934   3.705
   93XTA     C410310  30.589   2.829   3.768
   93XTA     C510311  30.539   2.696   3.761
   93XTA    CN210312  30.438   2.437   3.656
   93XTA     C610313  30.505   2.435   3.528
   93XTA     C710314  30.584   2.325   3.498
   93XTA     C810315  30.609   2.226   3.592
   93XTA     C910316  30.548   2.237   3.718
   93XTA    C1010317  30.457   2.336   3.745
   93XTA    CN310318  30.228   2.525   3.708
   93XTA    C1110319  30.171   2.549   3.833
   93XTA    C1210320  30.029   2.542   3.848
   93XTA    C1310321  29.945   2.523   3.741
   93XTA    C1410322  30.008   2.507   3.613
   93XTA    C1510323  30.145   2.516   3.597
   93XTA     H110324  30.244   2.753   3.613
   93XTA     H210325  30.321   2.983   3.618
   93XTA     H310326  30.688   2.859   3.812
   93XTA     H410327  30.602   2.618   3.790
   93XTA     H510328  30.491   2.520   3.462
   93XTA     H610329  30.640   2.316   3.406
   93XTA     H710330  30.559   2.171   3.799
   93XTA     H810331  30.418   2.354   3.843
   93XTA     H910332  30.225   2.566   3.925
   93XTA    H1010333  29.980   2.552   3.946
   93XTA    H1110334  29.938   2.497   3.526
   93XTA    H1210335  30.195   2.507   3.501
   93XTA    OA110336  30.568   3.061   3.706
   93XTA    CO110337  30.515   3.161   3.612
   93XTA    OA210338  30.707   2.134   3.572
   93XTA    CO210339  30.777   2.083   3.681
   93XTA    CL110340  30.909   2.014   3.636
   93XTA    CL210341  31.000   2.104   3.557
   93XTA    CL310342  31.119   2.150   3.631
   93XTA    CL410343  31.188   2.250   3.550
   93XTA    CO310344  31.312   2.308   3.629
   93XTA    OA310345  31.401   2.200   3.670
   93XTA    CO410346  31.463   2.138   3.550
   93XTA    CT110347  31.589   2.058   3.594
   93XTA    CL510348  31.700   2.140   3.666
   93XTA    CL610349  31.739   2.275   3.596
   93XTA    OA410350  29.814   2.508   3.779
   93XTA    CO510351  29.719   2.511   3.670
   93XTA    CL710352  29.693   2.370   3.610
   93XTA    CL810353  29.598   2.366   3.489
   93XTA    CL910354  29.592   2.233   3.415
   93XTA   CL1010355  29.488   2.219   3.308
   93XTA    CO610356  29.454   2.065   3.293
   93XTA    OA510357  29.558   2.006   3.218
   93XTA    CO710358  29.544   1.865   3.191
   93XTA    CT210359  29.676   1.804   3.144
   93XTA   CL1110360  29.656   1.652   3.109
   93XTA   CL1210361  29.789   1.575   3.088
   93XTA    HL110362  30.568   3.257   3.636
   93XTA    HL210363  30.532   3.129   3.515
   93XTA    HL310364  30.408   3.169   3.612
   93XTA    HL410365  30.811   2.173   3.735
   93XTA    HL510366  30.711   2.015   3.742
   93XTA    HL610367  30.887   1.926   3.572
   93XTA    HL710368  30.967   1.991   3.724
   93XTA    HL810369  30.938   2.189   3.521
   93XTA    HL910370  31.029   2.061   3.464
   93XTA   HL1010371  31.075   2.210   3.710
   93XTA   HL1110372  31.187   2.079   3.676
   93XTA   HL1210373  31.132   2.342   3.528
   93XTA   HL1310374  31.234   2.196   3.470
   93XTA   HL1410375  31.372   2.378   3.572
   93XTA   HL1510376  31.283   2.365   3.718
   93XTA   HL1610377  31.399   2.063   3.505
   93XTA   HL1710378  31.469   2.209   3.469
   93XTA   HL1810379  31.782   2.066   3.663
   93XTA   HL1910380  31.684   2.158   3.768
   93XTA   HL2010381  31.749   2.264   3.489
   93XTA   HL2110382  31.824   2.324   3.641
   93XTA   HL2210383  31.658   2.342   3.599
   93XTA   HL2310384  29.752   2.592   3.592
   93XTA   HL2410385  29.625   2.557   3.709
   93XTA   HL2510386  29.792   2.322   3.573
   93XTA   HL2610387  29.661   2.303   3.688
   93XTA   HL2710388  29.485   2.387   3.517
   93XTA   HL2810389  29.615   2.448   3.416
   93XTA   HL2910390  29.694   2.215   3.374
   93XTA   HL3010391  29.573   2.153   3.486
   93XTA   HL3110392  29.395   2.275   3.334
   93XTA   HL3210393  29.523   2.256   3.217
   93XTA   HL3310394  29.433   2.019   3.389
   93XTA   HL3410395  29.363   2.054   3.231
   93XTA   HL3510396  29.479   1.870   3.108
   93XTA   HL3610397  29.494   1.812   3.274
   93XTA   HL3710398  29.582   1.635   3.034
   93XTA   HL3810399  29.601   1.619   3.199
   93XTA   HL3910400  29.764   1.469   3.073
   93XTA   HL4010401  29.851   1.578   3.181
   93XTA   HL4110402  29.840   1.607   2.999
   93XTA    CO810403  31.645   1.985   3.471
   93XTA    CO910404  31.545   1.943   3.682
   93XTA    OA610405  31.625   2.051   3.344
   93XTA   HL4210406  31.583   1.896   3.467
   93XTA   HL4310407  31.748   1.948   3.480
   93XTA   HL4410408  29.879   1.792   3.230
   93XTA   HL4510409  29.770   1.932   3.275
   93XTA   CO1010410  29.776   1.823   3.257
   93XTA   CO1110411  29.720   1.881   3.012
   93XTA    OA710412  29.754   1.741   3.378
   93XTA   HL4610413  29.696   1.987   3.037
   93XTA   HL4710414  29.655   1.843   2.937
   93XTA   HL4810415  31.641   1.891   3.711
   93XTA   HL4910416  31.507   1.978   3.782
   94XTA     NT10417  32.713   0.604   7.648
   94XTA    CN110418  32.738   0.480   7.611
   94XTA     C110419  32.642   0.377   7.597
   94XTA     C210420  32.688   0.244   7.564
   94XTA     C310421  32.826   0.218   7.549
   94XTA     C410422  32.919   0.321   7.560
   94XTA     C510423  32.870   0.450   7.585
   94XTA    CN210424  32.679   0.700   7.559
   94XTA     C610425  32.764   0.806   7.517
   94XTA     C710426  32.723   0.903   7.421
   94XTA     C810427  32.597   0.889   7.358
   94XTA     C910428  32.517   0.775   7.393
   94XTA    C1010429  32.556   0.683   7.494
   94XTA    CN310430  32.690   0.626   7.778
   94XTA    C1110431  32.790   0.680   7.860
   94XTA    C1210432  32.763   0.717   7.993
   94XTA    C1310433  32.639   0.680   8.049
   94XTA    C1410434  32.539   0.626   7.967
   94XTA    C1510435  32.565   0.596   7.829
   94XTA     H110436  32.536   0.396   7.596
   94XTA     H210437  32.617   0.162   7.546
   94XTA     H310438  33.023   0.302   7.569
   94XTA     H410439  32.954   0.526   7.595
   94XTA     H510440  32.858   0.813   7.565
   94XTA     H610441  32.784   0.985   7.392
   94XTA     H710442  32.422   0.760   7.338
   94XTA     H810443  32.487   0.601   7.506
   94XTA     H910444  32.891   0.693   7.816
   94XTA    H1010445  32.843   0.756   8.050
   94XTA    H1110446  32.439   0.604   8.016
   94XTA    H1210447  32.485   0.557   7.763
   94XTA    OA110448  32.880   0.092   7.551
   94XTA    CO110449  32.783  -0.015   7.562
   94XTA    OA210450  32.552   0.975   7.260
   94XTA    CO210451  32.587   1.109   7.270
   94XTA    CL110452  32.532   1.185   7.394
   94XTA    CL210453  32.381   1.178   7.406
   94XTA    CL310454  32.314   1.292   7.499
   94XTA    CL410455  32.356   1.289   7.647
   94XTA    CO310456  32.353   1.151   7.713
   94XTA    OA310457  32.390   1.178   7.846
   94XTA    CO410458  32.474   1.074   7.902
   94XTA    CT110459  32.537   1.130   8.031
   94XTA    CL510460  32.422   1.153   8.139
   94XTA    CL610461  32.328   1.032   8.147
   94XTA    OA410462  32.616   0.713   8.180
   94XTA    CO510463  32.550   0.619   8.261
   94XTA    CL710464  32.537   0.676   8.402
   94XTA    CL810465  32.679   0.674   8.472
   94XTA    CL910466  32.679   0.751   8.605
   94XTA   CL1010467  32.816   0.774   8.663
   94XTA    CO610468  32.927   0.825   8.569
   94XTA    OA510469  32.903   0.963   8.544
   94XTA    CO710470  32.978   1.016   8.439
   94XTA    CT210471  32.877   1.104   8.351
   94XTA   CL1110472  32.778   1.188   8.445
   94XTA   CL1210473  32.858   1.284   8.526
   94XTA    HL110474  32.733  -0.017   7.463
   94XTA    HL210475  32.821  -0.114   7.564
   94XTA    HL310476  32.711   0.001   7.642
   94XTA    HL410477  32.693   1.132   7.268
   94XTA    HL510478  32.547   1.162   7.185
   94XTA    HL610479  32.577   1.286   7.395
   94XTA    HL710480  32.577   1.155   7.487
   94XTA    HL810481  32.344   1.076   7.429
   94XTA    HL910482  32.334   1.194   7.310
   94XTA   HL1010483  32.334   1.393   7.455
   94XTA   HL1110484  32.205   1.293   7.490
   94XTA   HL1210485  32.296   1.355   7.704
   94XTA   HL1310486  32.460   1.331   7.653
   94XTA   HL1410487  32.256   1.109   7.705
   94XTA   HL1510488  32.429   1.088   7.673
   94XTA   HL1610489  32.411   0.979   7.912
   94XTA   HL1710490  32.555   1.045   7.837
   94XTA   HL1810491  32.366   1.233   8.091
   94XTA   HL1910492  32.459   1.181   8.241
   94XTA   HL2010493  32.252   1.051   8.228
   94XTA   HL2110494  32.386   0.950   8.179
   94XTA   HL2210495  32.270   1.017   8.052
   94XTA   HL2310496  32.614   0.531   8.266
   94XTA   HL2410497  32.456   0.594   8.207
   94XTA   HL2510498  32.497   0.780   8.398
   94XTA   HL2610499  32.469   0.621   8.472
   94XTA   HL2710500  32.716   0.571   8.480
   94XTA   HL2810501  32.745   0.723   8.400
   94XTA   HL2910502  32.634   0.848   8.588
   94XTA   HL3010503  32.607   0.696   8.675
   94XTA   HL3110504  32.812   0.840   8.748
   94XTA   HL3210505  32.854   0.677   8.706
   94XTA   HL3310506  33.018   0.793   8.614
   94XTA   HL3410507  32.931   0.762   8.483
   94XTA   HL3510508  33.035   0.948   8.378
   94XTA   HL3610509  33.057   1.083   8.480
   94XTA   HL3710510  32.709   1.120   8.506
   94XTA   HL3810511  32.707   1.241   8.384
   94XTA   HL3910512  32.786   1.349   8.575
   94XTA   HL4010513  32.920   1.355   8.471
   94XTA   HL4110514  32.920   1.225   8.599
   94XTA    CO810515  32.613   1.265   8.010
   94XTA    CO910516  32.634   1.030   8.092
   94XTA    OA610517  32.687   1.087   8.217
   94XTA   HL4210518  32.541   1.338   7.971
   94XTA   HL4310519  32.655   1.304   8.099
   94XTA   HL4410520  32.755   0.930   8.337
   94XTA   HL4510521  32.857   0.942   8.161
   94XTA   CO1010522  32.794   1.004   8.270
   94XTA   CO1110523  32.944   1.189   8.246
   94XTA    OA710524  33.034   1.241   8.282
   94XTA   HL4610525  32.964   1.128   8.160
   94XTA   HL4710526  32.880   1.271   8.208
   94XTA   HL4810527  32.721   1.013   8.027
   94XTA   HL4910528  32.591   0.931   8.115
   95XTA     NT10529  28.812   2.308   3.674
   95XTA    CN110530  28.897   2.206   3.641
   95XTA     C110531  28.967   2.136   3.744
   95XTA     C210532  29.066   2.047   3.711
   95XTA     C310533  29.096   2.026   3.577
   95XTA     C410534  29.020   2.090   3.480
   95XTA     C510535  28.924   2.185   3.507
   95XTA    CN210536  28.860   2.427   3.717
   95XTA     C610537  28.870   2.541   3.640
   95XTA     C710538  28.904   2.663   3.697
   95XTA     C810539  28.919   2.682   3.835
   95XTA     C910540  28.904   2.569   3.919
   95XTA    C1010541  28.877   2.448   3.856
   95XTA    CN310542  28.681   2.276   3.699
   95XTA    C1110543  28.644   2.165   3.776
   95XTA    C1210544  28.510   2.125   3.786
   95XTA    C1310545  28.407   2.201   3.730
   95XTA    C1410546  28.442   2.313   3.659
   95XTA    C1510547  28.576   2.352   3.638
   95XTA     H110548  28.941   2.152   3.844
   95XTA     H210549  29.111   1.985   3.794
   95XTA     H310550  29.031   2.050   3.375
   95XTA     H410551  28.867   2.235   3.425
   95XTA     H510552  28.864   2.545   3.530
   95XTA     H610553  28.924   2.734   3.618
   95XTA     H710554  28.910   2.575   4.025
   95XTA     H810555  28.858   2.358   3.911
   95XTA     H910556  28.720   2.105   3.823
   95XTA    H1010557  28.484   2.041   3.839
   95XTA    H1110558  28.370   2.380   3.629
   95XTA    H1210559  28.603   2.438   3.588
   95XTA    OA110560  29.184   1.929   3.537
   95XTA    CO110561  29.166   1.817   3.623
   95XTA    OA210562  28.960   2.803   3.891
   95XTA    CO210563  28.969   2.914   3.802
   95XTA    CL110564  29.061   3.027   3.865
   95XTA    CL210565  29.206   2.985   3.896
   95XTA    CL310566  29.283   2.978   3.772
   95XTA    CL410567  29.332   3.122   3.726
   95XTA    CO310568  29.333   3.126   3.573
   95XTA    OA310569  29.202   3.112   3.539
   95XTA    CO410570  29.168   3.097   3.401
   95XTA    CT110571  29.021   3.059   3.388
   95XTA    CL510572  29.003   2.913   3.426
   95XTA    CL610573  29.049   2.812   3.317
   95XTA    OA410574  28.276   2.164   3.758
   95XTA    CO510575  28.240   2.146   3.900
   95XTA    CL710576  28.092   2.113   3.925
   95XTA    CL810577  28.080   1.952   3.910
   95XTA    CL910578  27.940   1.900   3.886
   95XTA   CL1010579  27.892   1.932   3.743
   95XTA    CO610580  27.952   1.844   3.639
   95XTA    OA510581  27.957   1.903   3.505
   95XTA    CO710582  28.054   2.003   3.487
   95XTA    CT210583  28.012   2.097   3.383
   95XTA   CL1110584  27.888   2.178   3.420
   95XTA   CL1210585  27.889   2.281   3.531
   95XTA    HL110586  29.060   1.794   3.652
   95XTA    HL210587  29.203   1.720   3.586
   95XTA    HL310588  29.218   1.839   3.714
   95XTA    HL410589  29.015   2.880   3.709
   95XTA    HL510590  28.862   2.944   3.781
   95XTA    HL610591  29.005   3.069   3.949
   95XTA    HL710592  29.066   3.117   3.801
   95XTA    HL810593  29.217   2.884   3.943
   95XTA    HL910594  29.247   3.065   3.960
   95XTA   HL1010595  29.367   2.915   3.789
   95XTA   HL1110596  29.225   2.918   3.703
   95XTA   HL1210597  29.437   3.140   3.762
   95XTA   HL1310598  29.264   3.201   3.751
   95XTA   HL1410599  29.385   3.213   3.529
   95XTA   HL1510600  29.375   3.034   3.540
   95XTA   HL1610601  29.177   3.194   3.356
   95XTA   HL1710602  29.223   3.021   3.349
   95XTA   HL1810603  28.896   2.894   3.458
   95XTA   HL1910604  29.069   2.897   3.512
   95XTA   HL2010605  29.157   2.812   3.290
   95XTA   HL2110606  28.993   2.837   3.227
   95XTA   HL2210607  29.021   2.707   3.341
   95XTA   HL2310608  28.265   2.246   3.949
   95XTA   HL2410609  28.299   2.074   3.947
   95XTA   HL2510610  28.061   2.137   4.022
   95XTA   HL2610611  28.025   2.163   3.856
   95XTA   HL2710612  28.138   1.907   3.829
   95XTA   HL2810613  28.128   1.914   4.001
   95XTA   HL2910614  27.942   1.790   3.909
   95XTA   HL3010615  27.874   1.953   3.953
   95XTA   HL3110616  27.784   1.914   3.726
   95XTA   HL3210617  27.906   2.035   3.715
   95XTA   HL3310618  28.053   1.819   3.672
   95XTA   HL3410619  27.885   1.754   3.630
   95XTA   HL3510620  28.158   1.967   3.478
   95XTA   HL3610621  28.065   2.054   3.574
   95XTA   HL3710622  27.800   2.110   3.445
   95XTA   HL3810623  27.849   2.235   3.338
   95XTA   HL3910624  27.992   2.337   3.529
   95XTA   HL4010625  27.873   2.249   3.631
   95XTA   HL4110626  27.816   2.351   3.516
   95XTA    CO810627  28.972   3.087   3.247
   95XTA    CO910628  28.935   3.151   3.474
   95XTA    OA610629  29.041   3.056   3.163
   95XTA   HL4210630  28.955   3.195   3.233
   95XTA   HL4310631  28.883   3.031   3.229
   95XTA   HL4410632  28.090   1.958   3.243
   95XTA   HL4510633  27.911   1.940   3.272
   95XTA   CO1010634  27.994   2.011   3.256
   95XTA   CO1110635  28.131   2.187   3.348
   95XTA    OA710636  27.952   2.089   3.140
   95XTA   HL4610637  28.213   2.132   3.294
   95XTA   HL4710638  28.179   2.222   3.438
   95XTA   HL4810639  28.802   3.135   3.439
   95XTA   HL4910640  28.944   3.112   3.579
   96XTA     NT10641  27.742   3.244   7.157
   96XTA    CN110642  27.674   3.358   7.184
   96XTA     C110643  27.686   3.421   7.311
   96XTA     C210644  27.618   3.538   7.346
   96XTA     C310645  27.529   3.594   7.251
   96XTA     C410646  27.520   3.534   7.124
   96XTA     C510647  27.583   3.415   7.090
   96XTA    CN210648  27.678   3.126   7.185
   96XTA     C610649  27.715   3.062   7.308
   96XTA     C710650  27.661   2.937   7.348
   96XTA     C810651  27.549   2.893   7.273
   96XTA     C910652  27.506   2.957   7.156
   96XTA    C1010653  27.564   3.080   7.117
   96XTA    CN310654  27.851   3.256   7.080
   96XTA    C1110655  27.852   3.205   6.950
   96XTA    C1210656  27.958   3.214   6.865
   96XTA    C1310657  28.079   3.275   6.914
   96XTA    C1410658  28.080   3.325   7.045
   96XTA    C1510659  27.962   3.323   7.131
   96XTA     H110660  27.760   3.393   7.385
   96XTA     H210661  27.630   3.580   7.438
   96XTA     H310662  27.449   3.576   7.045
   96XTA     H410663  27.557   3.377   6.993
   96XTA     H510664  27.801   3.108   7.357
   96XTA     H610665  27.678   2.883   7.436
   96XTA     H710666  27.414   2.928   7.112
   96XTA     H810667  27.524   3.125   7.035
   96XTA     H910668  27.759   3.162   6.911
   96XTA    H1010669  27.965   3.173   6.765
   96XTA    H1110670  28.167   3.360   7.092
   96XTA    H1210671  27.959   3.364   7.239
   96XTA    OA110672  27.481   3.724   7.258
   96XTA    CO110673  27.444   3.772   7.389
   96XTA    OA210674  27.477   2.786   7.320
   96XTA    CO210675  27.377   2.725   7.232
   96XTA    CL110676  27.316   2.594   7.293
   96XTA    CL210677  27.202   2.537   7.210
   96XTA    CL310678  27.141   2.410   7.265
   96XTA    CL410679  27.018   2.362   7.182
   96XTA    CO310680  26.965   2.221   7.228
   96XTA    OA310681  26.875   2.176   7.125
   96XTA    CO410682  26.753   2.244   7.106
   96XTA    CT110683  26.701   2.192   6.973
   96XTA    CL510684  26.726   2.036   6.960
   96XTA    CL610685  26.660   1.952   7.077
   96XTA    OA410686  28.195   3.290   6.840
   96XTA    CO510687  28.236   3.178   6.763
   96XTA    CL710688  28.354   3.111   6.820
   96XTA    CL810689  28.402   2.984   6.747
   96XTA    CL910690  28.319   2.862   6.800
   96XTA   CL1010691  28.231   2.795   6.692
   96XTA    CO610692  28.158   2.669   6.729
   96XTA    OA510693  28.237   2.575   6.790
   96XTA    CO710694  28.241   2.577   6.932
   96XTA    CT210695  28.335   2.470   6.985
   96XTA   CL1110696  28.475   2.526   6.959
   96XTA   CL1210697  28.528   2.554   6.814
   96XTA    HL110698  27.408   3.877   7.385
   96XTA    HL210699  27.370   3.718   7.437
   96XTA    HL310700  27.535   3.771   7.456
   96XTA    HL410701  27.299   2.798   7.204
   96XTA    HL510702  27.412   2.702   7.122
   96XTA    HL610703  27.283   2.608   7.399
   96XTA    HL710704  27.399   2.516   7.285
   96XTA    HL810705  27.232   2.517   7.105
   96XTA    HL910706  27.129   2.610   7.217
   96XTA   HL1010707  27.225   2.335   7.262
   96XTA   HL1110708  27.111   2.423   7.368
   96XTA   HL1210709  27.054   2.359   7.078
   96XTA   HL1310710  26.946   2.441   7.190
   96XTA   HL1410711  27.043   2.145   7.242
   96XTA   HL1510712  26.903   2.217   7.314
   96XTA   HL1610713  26.686   2.219   7.190
   96XTA   HL1710714  26.751   2.356   7.105
   96XTA   HL1810715  26.837   2.010   6.968
   96XTA   HL1910716  26.705   2.004   6.861
   96XTA   HL2010717  26.709   1.857   7.078
   96XTA   HL2110718  26.555   1.938   7.075
   96XTA   HL2210719  26.683   1.990   7.181
   96XTA   HL2310720  28.255   3.221   6.666
   96XTA   HL2410721  28.170   3.093   6.753
   96XTA   HL2510722  28.433   3.185   6.804
   96XTA   HL2610723  28.342   3.095   6.929
   96XTA   HL2710724  28.381   2.990   6.642
   96XTA   HL2810725  28.513   2.968   6.751
   96XTA   HL2910726  28.391   2.802   6.852
   96XTA   HL3010727  28.264   2.886   6.888
   96XTA   HL3110728  28.147   2.864   6.677
   96XTA   HL3210729  28.275   2.785   6.594
   96XTA   HL3310730  28.069   2.680   6.787
   96XTA   HL3410731  28.132   2.618   6.641
   96XTA   HL3510732  28.141   2.562   6.948
   96XTA   HL3610733  28.251   2.678   6.976
   96XTA   HL3710734  28.539   2.457   7.005
   96XTA   HL3810735  28.500   2.611   7.020
   96XTA   HL3910736  28.619   2.508   6.785
   96XTA   HL4010737  28.540   2.661   6.815
   96XTA   HL4110738  28.464   2.525   6.737
   96XTA    CO810739  26.796   2.249   6.861
   96XTA    CO910740  26.560   2.230   6.944
   96XTA    OA610741  26.536   2.234   6.799
   96XTA   HL4210742  26.897   2.234   6.890
   96XTA   HL4310743  26.789   2.195   6.768
   96XTA   HL4410744  28.223   2.289   6.954
   96XTA   HL4510745  28.296   2.353   6.816
   96XTA   CO1010746  28.317   2.331   6.923
   96XTA   CO1110747  28.293   2.451   7.136
   96XTA    OA710748  28.407   2.273   6.938
   96XTA   HL4610749  28.177   2.374   7.147
   96XTA   HL4710750  28.248   2.547   7.182
   96XTA   HL4810751  26.533   2.326   6.982
   96XTA   HL4910752  26.488   2.165   6.987
   97XTA     NT10753  26.474  -0.421   0.513
   97XTA    CN110754  26.537  -0.299   0.509
   97XTA     C110755  26.635  -0.264   0.605
   97XTA     C210756  26.701  -0.141   0.598
   97XTA     C310757  26.658  -0.047   0.500
   97XTA     C410758  26.553  -0.086   0.410
   97XTA     C510759  26.496  -0.212   0.408
   97XTA    CN210760  26.338  -0.429   0.514
   97XTA     C610761  26.255  -0.455   0.404
   97XTA     C710762  26.120  -0.447   0.410
   97XTA     C810763  26.057  -0.414   0.529
   97XTA     C910764  26.134  -0.391   0.648
   97XTA    C1010765  26.274  -0.401   0.637
   97XTA    CN310766  26.542  -0.535   0.486
   97XTA    C1110767  26.636  -0.541   0.378
   97XTA    C1210768  26.689  -0.661   0.333
   97XTA    C1310769  26.659  -0.778   0.399
   97XTA    C1410770  26.580  -0.772   0.514
   97XTA    C1510771  26.513  -0.651   0.559
   97XTA     H110772  26.666  -0.337   0.678
   97XTA     H210773  26.773  -0.110   0.673
   97XTA     H310774  26.520  -0.020   0.334
   97XTA     H410775  26.413  -0.236   0.336
   97XTA     H510776  26.292  -0.475   0.302
   97XTA     H610777  26.057  -0.462   0.325
   97XTA     H710778  26.084  -0.370   0.741
   97XTA     H810779  26.332  -0.393   0.725
   97XTA     H910780  26.667  -0.445   0.333
   97XTA    H1010781  26.758  -0.663   0.247
   97XTA    H1110782  26.548  -0.862   0.571
   97XTA    H1210783  26.450  -0.638   0.642
   97XTA    OA110784  26.726   0.073   0.482
   97XTA    CO110785  26.843   0.094   0.556
   97XTA    OA210786  25.920  -0.416   0.541
   97XTA    CO210787  25.856  -0.326   0.453
   97XTA    CL110788  25.746  -0.255   0.528
   97XTA    CL210789  25.686  -0.153   0.428
   97XTA    CL310790  25.570  -0.070   0.491
   97XTA    CL410791  25.508   0.031   0.391
   97XTA    CO310792  25.608   0.117   0.303
   97XTA    OA310793  25.529   0.219   0.252
   97XTA    CO410794  25.588   0.272   0.128
   97XTA    CT110795  25.575   0.428   0.120
   97XTA    CL510796  25.435   0.479   0.079
   97XTA    CL610797  25.423   0.628   0.066
   97XTA    OA410798  26.717  -0.893   0.351
   97XTA    CO510799  26.688  -1.022   0.417
   97XTA    CL710800  26.770  -1.133   0.349
   97XTA    CL810801  26.919  -1.127   0.394
   97XTA    CL910802  27.014  -1.223   0.325
   97XTA   CL1010803  27.159  -1.194   0.360
   97XTA    CO610804  27.251  -1.308   0.333
   97XTA    OA510805  27.383  -1.262   0.316
   97XTA    CO710806  27.464  -1.363   0.256
   97XTA    CT210807  27.518  -1.321   0.116
   97XTA   CL1110808  27.573  -1.178   0.128
   97XTA   CL1210809  27.683  -1.160   0.225
   97XTA    HL110810  26.881   0.196   0.536
   97XTA    HL210811  26.821   0.095   0.664
   97XTA    HL310812  26.923   0.017   0.530
   97XTA    HL410813  25.929  -0.269   0.403
   97XTA    HL510814  25.811  -0.381   0.369
   97XTA    HL610815  25.786  -0.200   0.612
   97XTA    HL710816  25.680  -0.316   0.581
   97XTA    HL810817  25.652  -0.191   0.333
   97XTA    HL910818  25.767  -0.077   0.406
   97XTA   HL1010819  25.499  -0.148   0.510
   97XTA   HL1110820  25.605  -0.032   0.591
   97XTA   HL1210821  25.439   0.099   0.433
   97XTA   HL1310822  25.452  -0.033   0.332
   97XTA   HL1410823  25.695   0.164   0.359
   97XTA   HL1510824  25.644   0.046   0.228
   97XTA   HL1610825  25.692   0.235   0.115
   97XTA   HL1710826  25.533   0.231   0.040
   97XTA   HL1810827  25.357   0.439   0.142
   97XTA   HL1910828  25.412   0.438  -0.023
   97XTA   HL2010829  25.470   0.690   0.151
   97XTA   HL2110830  25.326   0.652   0.055
   97XTA   HL2210831  25.472   0.652  -0.029
   97XTA   HL2310832  26.585  -1.043   0.410
   97XTA   HL2410833  26.706  -0.998   0.524
   97XTA   HL2510834  26.726  -1.225   0.389
   97XTA   HL2610835  26.766  -1.127   0.239
   97XTA   HL2710836  26.965  -1.028   0.380
   97XTA   HL2810837  26.920  -1.138   0.505
   97XTA   HL2910838  26.985  -1.320   0.364
   97XTA   HL3010839  27.010  -1.225   0.217
   97XTA   HL3110840  27.191  -1.108   0.301
   97XTA   HL3210841  27.186  -1.162   0.454
   97XTA   HL3310842  27.240  -1.390   0.399
   97XTA   HL3410843  27.219  -1.345   0.235
   97XTA   HL3510844  27.414  -1.457   0.242
   97XTA   HL3610845  27.547  -1.377   0.318
   97XTA   HL3710846  27.491  -1.115   0.155
   97XTA   HL3810847  27.603  -1.134   0.032
   97XTA   HL3910848  27.765  -1.234   0.216
   97XTA   HL4010849  27.654  -1.159   0.326
   97XTA   HL4110850  27.723  -1.064   0.198
   97XTA    CO810851  25.684   0.469   0.015
   97XTA    CO910852  25.609   0.479   0.264
   97XTA    OA610853  25.679   0.391  -0.101
   97XTA   HL4210854  25.787   0.450   0.055
   97XTA   HL4310855  25.685   0.578  -0.004
   97XTA   HL4410856  27.368  -1.432   0.009
   97XTA   HL4510857  27.443  -1.323  -0.092
   97XTA   CO1010858  27.399  -1.325   0.010
   97XTA   CO1110859  27.623  -1.421   0.068
   97XTA    OA710860  27.570  -1.548   0.045
   97XTA   HL4610861  27.662  -1.385  -0.023
   97XTA   HL4710862  27.698  -1.411   0.152
   97XTA   HL4810863  25.523   0.454   0.336
   97XTA   HL4910864  25.683   0.414   0.315
   98XTH     NT10865  28.297   0.984   2.550
   98XTH    CN110866  28.369   1.042   2.649
   98XTH     C110867  28.509   1.023   2.655
   98XTH     C210868  28.590   1.086   2.755
   98XTH     C310869  28.528   1.130   2.875
   98XTH     C410870  28.384   1.137   2.869
   98XTH     C510871  28.306   1.092   2.761
   98XTH    CN210872  28.198   0.896   2.567
   98XTH     C610873  28.069   0.934   2.524
   98XTH     C710874  27.958   0.854   2.552
   98XTH     C810875  27.973   0.726   2.607
   98XTH     C910876  28.102   0.686   2.653
   98XTH    C1010877  28.214   0.776   2.638
   98XTH    CN310878  28.314   1.036   2.427
   98XTH    C1110879  28.368   0.956   2.323
   98XTH    C1210880  28.399   1.020   2.203
   98XTH    C1310881  28.389   1.155   2.180
   98XTH    C1410882  28.336   1.240   2.285
   98XTH    C1510883  28.289   1.175   2.403
   98XTH     H110884  28.552   0.966   2.576
   98XTH     H210885  28.700   1.081   2.741
   98XTH     H310886  28.333   1.188   2.952
   98XTH     H410887  28.193   1.096   2.764
   98XTH     H510888  28.061   1.037   2.483
   98XTH     H610889  27.858   0.884   2.524
   98XTH     H710890  28.115   0.593   2.706
   98XTH     H810891  28.310   0.743   2.675
   98XTH     H910892  28.392   0.849   2.332
   98XTH    H1010893  28.437   0.959   2.121
   98XTH    H1110894  28.320   1.347   2.273
   98XTH    H1210895  28.246   1.228   2.484
   98XTH    OA110896  28.588   1.213   2.966
   98XTH    CO110897  28.724   1.245   2.942
   98XTH    OA210898  27.866   0.638   2.618
   98XTH    CO210899  27.749   0.659   2.544
   98XTH    CL110900  27.671   0.533   2.554
   98XTH    CL210901  27.582   0.524   2.431
   98XTH    CL310902  27.521   0.381   2.413
   98XTH    CL410903  27.626   0.279   2.350
   98XTH    CO310904  27.571   0.147   2.314
   98XTH    OA310905  27.467   0.157   2.219
   98XTH    CO410906  27.508   0.201   2.090
   98XTH    CT110907  27.389   0.199   1.995
   98XTH    CL510908  27.437   0.245   1.848
   98XTH    CL610909  27.566   0.154   1.800
   98XTH    OA410910  28.420   1.217   2.064
   98XTH    CO510911  28.409   1.143   1.939
   98XTH    CL710912  28.409   1.254   1.828
   98XTH    CL810913  28.502   1.372   1.833
   98XTH    CL910914  28.459   1.483   1.735
   98XTH   CL1010915  28.339   1.571   1.777
   98XTH    CO610916  28.277   1.663   1.668
   98XTH    OA510917  28.369   1.759   1.618
   98XTH    CO710918  28.339   1.781   1.486
   98XTH    CT210919  28.430   1.887   1.426
   98XTH   CL1110920  28.582   1.880   1.459
   98XTH   CL1210921  28.652   1.759   1.404
   98XTH    HL110922  28.747   1.307   3.024
   98XTH    HL210923  28.780   1.150   2.945
   98XTH    HL310924  28.731   1.296   2.849
   98XTH    HL410925  27.693   0.740   2.587
   98XTH    HL510926  27.786   0.686   2.448
   98XTH    HL610927  27.621   0.530   2.648
   98XTH    HL710928  27.738   0.445   2.552
   98XTH    HL810929  27.637   0.553   2.342
   98XTH    HL910930  27.499   0.594   2.437
   98XTH   HL1010931  27.474   0.343   2.506
   98XTH   HL1110932  27.440   0.380   2.332
   98XTH   HL1210933  27.708   0.262   2.416
   98XTH   HL1310934  27.665   0.313   2.252
   98XTH   HL1410935  27.650   0.081   2.269
   98XTH   HL1510936  27.512   0.099   2.390
   98XTH   HL1610937  27.538   0.308   2.098
   98XTH   HL1710938  27.593   0.136   2.058
   98XTH   HL1810939  27.463   0.349   1.863
   98XTH   HL1910940  27.348   0.246   1.782
   98XTH   HL2010941  27.545   0.044   1.792
   98XTH   HL2110942  27.654   0.176   1.865
   98XTH   HL2210943  27.596   0.183   1.696
   98XTH   HL2310944  28.314   1.082   1.927
   98XTH   HL2410945  28.490   1.075   1.920
   98XTH   HL2510946  28.422   1.200   1.729
   98XTH   HL2610947  28.306   1.289   1.819
   98XTH   HL2710948  28.505   1.413   1.931
   98XTH   HL2810949  28.606   1.347   1.802
   98XTH   HL2910950  28.545   1.551   1.724
   98XTH   HL3010951  28.436   1.448   1.635
   98XTH   HL3110952  28.254   1.510   1.811
   98XTH   HL3210953  28.371   1.632   1.867
   98XTH   HL3310954  28.240   1.604   1.582
   98XTH   HL3410955  28.187   1.707   1.712
   98XTH   HL3510956  28.237   1.818   1.472
   98XTH   HL3610957  28.345   1.683   1.434
   98XTH   HL3710958  28.586   1.870   1.562
   98XTH   HL3810959  28.632   1.976   1.437
   98XTH   HL3910960  28.608   1.669   1.442
   98XTH   HL4010961  28.760   1.762   1.420
   98XTH   HL4110962  28.637   1.757   1.299
   98XTH    CO810963  27.291   0.307   2.046
   98XTH    CO910964  27.312   0.066   1.998
   98XTH    OA610965  27.160   0.294   2.006
   98XTH   HL4210966  27.327   0.406   2.022
   98XTH   HL4310967  27.292   0.318   2.156
   98XTH   HL4410968  28.281   2.049   1.488
   98XTH   HL4510969  28.414   2.032   1.588
   98XTH   CO1010970  28.390   2.029   1.482
   98XTH   CO1110971  28.423   1.902   1.275
   98XTH    OA710972  28.435   2.118   1.425
   98XTH   HL4610973  28.306   1.967   1.239
   98XTH   HL4710974  28.504   1.966   1.242
   98XTH   HL4810975  27.257   0.049   2.096
   98XTH   HL4910976  27.237   0.067   1.927
   99XTA     NT10977  24.341   1.554   2.421
   99XTA    CN110978  24.290   1.664   2.372
   99XTA     C110979  24.182   1.733   2.430
   99XTA     C210980  24.130   1.857   2.390
   99XTA     C310981  24.188   1.925   2.274
   99XTA     C410982  24.281   1.842   2.203
   99XTA     C510983  24.329   1.714   2.242
   99XTA    CN210984  24.313   1.434   2.361
   99XTA     C610985  24.207   1.358   2.415
   99XTA     C710986  24.167   1.244   2.347
   99XTA     C810987  24.246   1.192   2.242
   99XTA     C910988  24.362   1.264   2.197
   99XTA    C1010989  24.391   1.386   2.256
   99XTA    CN310990  24.437   1.566   2.519
   99XTA    C1110991  24.562   1.608   2.478
   99XTA    C1210992  24.663   1.649   2.573
   99XTA    C1310993  24.634   1.646   2.708
   99XTA    C1410994  24.509   1.604   2.749
   99XTA    C1510995  24.412   1.565   2.660
   99XTA     H110996  24.143   1.689   2.522
   99XTA     H210997  24.064   1.909   2.458
   99XTA     H310998  24.320   1.883   2.106
   99XTA     H410999  24.399   1.651   2.189
   99XTA     H511000  24.142   1.392   2.500
   99XTA     H611001  24.066   1.203   2.372
   99XTA     H711002  24.409   1.225   2.110
   99XTA     H811003  24.469   1.443   2.219
   99XTA     H911004  24.577   1.621   2.370
   99XTA    H1011005  24.755   1.690   2.539
   99XTA    H1111006  24.487   1.605   2.852
   99XTA    H1211007  24.310   1.534   2.683
   99XTA    OA111008  24.141   2.050   2.235
   99XTA    CO111009  24.209   2.099   2.121
   99XTA    OA211010  24.220   1.076   2.171
   99XTA    CO211011  24.106   1.007   2.201
   99XTA    CL111012  24.103   0.883   2.111
   99XTA    CL211013  24.238   0.801   2.097
   99XTA    CL311014  24.213   0.668   2.021
   99XTA    CL411015  24.353   0.599   1.974
   99XTA    CO311016  24.422   0.680   1.865
   99XTA    OA311017  24.513   0.592   1.801
   99XTA    CO411018  24.559   0.650   1.686
   99XTA    CT111019  24.645   0.545   1.612
   99XTA    CL511020  24.563   0.411   1.605
   99XTA    CL611021  24.609   0.310   1.493
   99XTA    OA411022  24.726   1.706   2.793
   99XTA    CO511023  24.721   1.681   2.939
   99XTA    CL711024  24.736   1.539   2.996
   99XTA    CL811025  24.827   1.458   2.905
   99XTA    CL911026  24.877   1.328   2.966
   99XTA   CL1011027  24.890   1.221   2.853
   99XTA    CO611028  24.947   1.084   2.887
   99XTA    OA511029  25.012   1.038   2.776
   99XTA    CO711030  25.142   1.095   2.752
   99XTA    CT211031  25.206   1.050   2.618
   99XTA   CL1111032  25.196   0.903   2.597
   99XTA   CL1211033  25.274   0.816   2.699
   99XTA    HL111034  24.314   2.116   2.131
   99XTA    HL211035  24.186   2.033   2.037
   99XTA    HL311036  24.170   2.200   2.092
   99XTA    HL411037  24.116   0.973   2.307
   99XTA    HL511038  24.022   1.078   2.183
   99XTA    HL611039  24.093   0.922   2.010
   99XTA    HL711040  24.018   0.819   2.135
   99XTA    HL811041  24.280   0.789   2.195
   99XTA    HL911042  24.311   0.862   2.046
   99XTA   HL1011043  24.153   0.607   2.083
   99XTA   HL1111044  24.153   0.691   1.929
   99XTA   HL1211045  24.333   0.494   1.937
   99XTA   HL1311046  24.426   0.578   2.055
   99XTA   HL1411047  24.347   0.699   1.782
   99XTA   HL1511048  24.476   0.773   1.903
   99XTA   HL1611049  24.482   0.697   1.623
   99XTA   HL1711050  24.612   0.735   1.708
   99XTA   HL1811051  24.456   0.432   1.589
   99XTA   HL1911052  24.567   0.368   1.704
   99XTA   HL2011053  24.720   0.294   1.507
   99XTA   HL2111054  24.577   0.348   1.394
   99XTA   HL2211055  24.564   0.215   1.510
   99XTA   HL2311056  24.624   1.730   2.968
   99XTA   HL2411057  24.809   1.737   2.982
   99XTA   HL2511058  24.797   1.552   3.092
   99XTA   HL2611059  24.640   1.502   3.028
   99XTA   HL2711060  24.778   1.436   2.813
   99XTA   HL2811061  24.913   1.522   2.878
   99XTA   HL2911062  24.955   1.334   3.038
   99XTA   HL3011063  24.800   1.285   3.023
   99XTA   HL3111064  24.782   1.203   2.826
   99XTA   HL3211065  24.944   1.263   2.765
   99XTA   HL3311066  25.004   1.094   2.980
   99XTA   HL3411067  24.854   1.024   2.908
   99XTA   HL3511068  25.206   1.077   2.839
   99XTA   HL3611069  25.141   1.207   2.760
   99XTA   HL3711070  25.224   0.881   2.499
   99XTA   HL3811071  25.093   0.873   2.602
   99XTA   HL3911072  25.270   0.709   2.675
   99XTA   HL4011073  25.224   0.825   2.804
   99XTA   HL4111074  25.373   0.857   2.714
   99XTA    CO811075  24.770   0.523   1.703
   99XTA    CO911076  24.677   0.604   1.474
   99XTA    OA611077  24.742   0.696   1.487
   99XTA   HL4211078  24.733   0.487   1.797
   99XTA   HL4311079  24.833   0.645   1.728
   99XTA   HL4411080  25.397   1.046   2.526
   99XTA   HL4511081  25.343   1.205   2.582
   99XTA   CO1011082  25.351   1.104   2.601
   99XTA   CO1111083  25.129   1.122   2.501
   99XTA    OA711084  25.407   1.091   2.702
   99XTA   HL4611085  25.180   1.086   2.369
   99XTA   HL4711086  25.160   1.223   2.500
   99XTA   HL4811087  24.587   0.627   1.413
   99XTA   HL4911088  24.753   0.545   1.424
  100XTA     NT11089  25.759   0.990   0.915
  100XTA    CN111090  25.764   1.077   0.812
  100XTA     C111091  25.883   1.146   0.778
  100XTA     C211092  25.889   1.229   0.667
  100XTA     C311093  25.781   1.233   0.584
  100XTA     C411094  25.663   1.168   0.614
  100XTA     C511095  25.649   1.092   0.732
  100XTA    CN211096  25.841   0.882   0.901
  100XTA     C611097  25.800   0.769   0.834
  100XTA     C711098  25.879   0.656   0.808
  100XTA     C811099  26.005   0.649   0.864
  100XTA     C911100  26.044   0.753   0.945
  100XTA    C1011101  25.967   0.873   0.959
  100XTA    CN311102  25.727   1.027   1.042
  100XTA    C1111103  25.626   0.963   1.116
  100XTA    C1211104  25.591   1.009   1.250
  100XTA    C1311105  25.656   1.122   1.304
  100XTA    C1411106  25.757   1.186   1.226
  100XTA    C1511107  25.791   1.144   1.096
  100XTA     H111108  25.978   1.126   0.836
  100XTA     H211109  25.975   1.274   0.652
  100XTA     H311110  25.583   1.177   0.540
  100XTA     H411111  25.554   1.045   0.753
  100XTA     H511112  25.706   0.767   0.789
  100XTA     H611113  25.841   0.576   0.753
  100XTA     H711114  26.140   0.741   0.989
  100XTA     H811115  26.000   0.958   1.013
  100XTA     H911116  25.565   0.895   1.067
  100XTA    H1011117  25.527   0.944   1.303
  100XTA    H1111118  25.813   1.269   1.264
  100XTA    H1211119  25.868   1.190   1.031
  100XTA    OA111120  25.778   1.299   0.467
  100XTA    CO111121  25.904   1.339   0.423
  100XTA    OA211122  26.099   0.551   0.835
  100XTA    CO211123  26.056   0.441   0.761
  100XTA    CL111124  26.056   0.474   0.606
  100XTA    CL211125  25.979   0.370   0.529
  100XTA    CL311126  26.027   0.369   0.384
  100XTA    CL411127  25.941   0.299   0.279
  100XTA    CO311128  26.010   0.276   0.144
  100XTA    OA311129  25.921   0.238   0.034
  100XTA    CO411130  25.991   0.236  -0.088
  100XTA    CT111131  25.887   0.266  -0.199
  100XTA    CL511132  25.781   0.151  -0.198
  100XTA    CL611133  25.683   0.157  -0.309
  100XTA    OA411134  25.635   1.141   1.437
  100XTA    CO511135  25.735   1.211   1.512
  100XTA    CL711136  25.672   1.261   1.638
  100XTA    CL811137  25.558   1.365   1.610
  100XTA    CL911138  25.613   1.493   1.550
  100XTA   CL1011139  25.516   1.568   1.458
  100XTA    CO611140  25.582   1.694   1.392
  100XTA    OA511141  25.548   1.803   1.474
  100XTA    CO711142  25.628   1.916   1.431
  100XTA    CT211143  25.593   2.038   1.509
  100XTA   CL1111144  25.650   2.153   1.427
  100XTA   CL1211145  25.650   2.289   1.496
  100XTA    HL111146  25.978   1.262   0.403
  100XTA    HL211147  25.890   1.411   0.340
  100XTA    HL311148  25.938   1.400   0.504
  100XTA    HL411149  26.115   0.348   0.780
  100XTA    HL511150  25.953   0.424   0.798
  100XTA    HL611151  26.160   0.479   0.572
  100XTA    HL711152  26.036   0.582   0.598
  100XTA    HL811153  25.873   0.378   0.549
  100XTA    HL911154  26.006   0.268   0.550
  100XTA   HL1011155  26.028   0.471   0.360
  100XTA   HL1111156  26.130   0.331   0.375
  100XTA   HL1211157  25.845   0.345   0.283
  100XTA   HL1311158  25.908   0.204   0.317
  100XTA   HL1411159  26.039   0.382   0.107
  100XTA   HL1511160  26.097   0.210   0.150
  100XTA   HL1611161  26.070   0.312  -0.095
  100XTA   HL1711162  26.042   0.135  -0.100
  100XTA   HL1811163  25.728   0.136  -0.105
  100XTA   HL1911164  25.830   0.057  -0.215
  100XTA   HL2011165  25.720   0.129  -0.410
  100XTA   HL2111166  25.626   0.248  -0.310
  100XTA   HL2211167  25.606   0.083  -0.291
  100XTA   HL2311168  25.786   1.291   1.459
  100XTA   HL2411169  25.813   1.136   1.533
  100XTA   HL2511170  25.634   1.174   1.700
  100XTA   HL2611171  25.758   1.306   1.703
  100XTA   HL2711172  25.477   1.326   1.545
  100XTA   HL2811173  25.513   1.393   1.706
  100XTA   HL2911174  25.643   1.559   1.631
  100XTA   HL3011175  25.703   1.479   1.494
  100XTA   HL3111176  25.472   1.504   1.384
  100XTA   HL3211177  25.441   1.605   1.526
  100XTA   HL3311178  25.688   1.672   1.374
  100XTA   HL3411179  25.538   1.721   1.298
  100XTA   HL3511180  25.615   1.923   1.322
  100XTA   HL3611181  25.732   1.888   1.442
  100XTA   HL3711182  25.591   2.163   1.329
  100XTA   HL3811183  25.756   2.135   1.413
  100XTA   HL3911184  25.694   2.291   1.594
  100XTA   HL4011185  25.550   2.321   1.510
  100XTA   HL4111186  25.704   2.349   1.425
  100XTA    CO811187  25.952   0.285  -0.342
  100XTA    CO911188  25.802   0.398  -0.179
  100XTA    OA611189  26.024   0.366  -0.345
  100XTA   HL4211190  25.879   0.309  -0.411
  100XTA   HL4311191  26.004   0.191  -0.378
  100XTA   HL4411192  25.636   2.127   1.709
  100XTA   HL4511193  25.618   1.943   1.695
  100XTA   CO1011194  25.664   2.041   1.649
  100XTA   CO1111195  25.446   2.043   1.537
  100XTA    OA711196  25.803   2.017   1.634
  100XTA   HL4611197  25.434   2.144   1.580
  100XTA   HL4711198  25.416   1.986   1.625
  100XTA   HL4811199  25.866   0.513  -0.128
  100XTA   HL4911200  25.771   0.430  -0.279
  101XTA     NT11201  28.320   4.178   4.587
  101XTA    CN111202  28.234   4.282   4.576
  101XTA     C111203  28.118   4.271   4.503
  101XTA     C211204  28.026   4.376   4.495
  101XTA     C311205  28.062   4.503   4.544
  101XTA     C411206  28.185   4.517   4.612
  101XTA     C511207  28.267   4.414   4.627
  101XTA    CN211208  28.303   4.069   4.659
  101XTA     C611209  28.390   4.045   4.772
  101XTA     C711210  28.369   3.929   4.850
  101XTA     C811211  28.265   3.839   4.820
  101XTA     C911212  28.179   3.870   4.715
  101XTA    C1011213  28.196   3.983   4.636
  101XTA    CN311214  28.432   4.188   4.516
  101XTA    C1111215  28.428   4.120   4.392
  101XTA    C1211216  28.523   4.137   4.294
  101XTA    C1311217  28.639   4.197   4.335
  101XTA    C1411218  28.651   4.259   4.461
  101XTA    C1511219  28.548   4.265   4.552
  101XTA     H111220  28.097   4.182   4.447
  101XTA     H211221  27.931   4.358   4.445
  101XTA     H311222  28.207   4.618   4.650
  101XTA     H411223  28.365   4.432   4.676
  101XTA     H511224  28.460   4.118   4.811
  101XTA     H611225  28.425   3.901   4.945
  101XTA     H711226  28.089   3.805   4.705
  101XTA     H811227  28.120   4.000   4.556
  101XTA     H911228  28.335   4.071   4.359
  101XTA    H1011229  28.501   4.093   4.196
  101XTA    H1111230  28.740   4.308   4.484
  101XTA    H1211231  28.552   4.304   4.658
  101XTA    OA111232  27.983   4.615   4.535
  101XTA    CO111233  27.870   4.622   4.461
  101XTA    OA211234  28.241   3.729   4.895
  101XTA    CO211235  28.324   3.692   5.004
  101XTA    CL111236  28.277   3.558   5.053
  101XTA    CL211237  28.362   3.507   5.165
  101XTA    CL311238  28.318   3.371   5.225
  101XTA    CL411239  28.382   3.333   5.358
  101XTA    CO311240  28.307   3.236   5.446
  101XTA    OA311241  28.390   3.180   5.544
  101XTA    CO411242  28.317   3.082   5.612
  101XTA    CT111243  28.416   2.995   5.689
  101XTA    CL511244  28.496   3.089   5.787
  101XTA    CL611245  28.627   3.034   5.861
  101XTA    OA411246  28.739   4.230   4.244
  101XTA    CO511247  28.772   4.138   4.142
  101XTA    CL711248  28.899   4.184   4.075
  101XTA    CL811249  29.013   4.182   4.176
  101XTA    CL911250  29.110   4.289   4.136
  101XTA   CL1011251  29.229   4.298   4.235
  101XTA    CO611252  29.183   4.345   4.372
  101XTA    OA511253  29.291   4.318   4.467
  101XTA    CO711254  29.273   4.382   4.590
  101XTA    CT211255  29.392   4.360   4.676
  101XTA   CL1111256  29.362   4.415   4.816
  101XTA   CL1211257  29.265   4.320   4.897
  101XTA    HL111258  27.798   4.544   4.492
  101XTA    HL211259  27.825   4.722   4.492
  101XTA    HL311260  27.874   4.605   4.356
  101XTA    HL411261  28.429   3.688   4.974
  101XTA    HL511262  28.317   3.754   5.086
  101XTA    HL611263  28.283   3.485   4.968
  101XTA    HL711264  28.174   3.557   5.085
  101XTA    HL811265  28.360   3.577   5.248
  101XTA    HL911266  28.462   3.497   5.126
  101XTA   HL1011267  28.216   3.398   5.252
  101XTA   HL1111268  28.331   3.293   5.148
  101XTA   HL1211269  28.415   3.422   5.408
  101XTA   HL1311270  28.474   3.289   5.327
  101XTA   HL1411271  28.223   3.278   5.491
  101XTA   HL1511272  28.265   3.170   5.373
  101XTA   HL1611273  28.245   3.133   5.680
  101XTA   HL1711274  28.247   3.025   5.553
  101XTA   HL1811275  28.430   3.131   5.862
  101XTA   HL1911276  28.529   3.178   5.731
  101XTA   HL2011277  28.714   3.035   5.799
  101XTA   HL2111278  28.611   2.928   5.903
  101XTA   HL2211279  28.658   3.104   5.944
  101XTA   HL2311280  28.689   4.138   4.069
  101XTA   HL2411281  28.787   4.045   4.197
  101XTA   HL2511282  28.931   4.117   3.991
  101XTA   HL2611283  28.880   4.277   4.022
  101XTA   HL2711284  28.983   4.198   4.274
  101XTA   HL2811285  29.063   4.087   4.182
  101XTA   HL2911286  29.165   4.269   4.037
  101XTA   HL3011287  29.050   4.378   4.120
  101XTA   HL3111288  29.281   4.199   4.235
  101XTA   HL3211289  29.305   4.371   4.187
  101XTA   HL3311290  29.154   4.453   4.360
  101XTA   HL3411291  29.098   4.284   4.401
  101XTA   HL3511292  29.182   4.338   4.635
  101XTA   HL3611293  29.242   4.487   4.574
  101XTA   HL3711294  29.328   4.514   4.812
  101XTA   HL3811295  29.458   4.422   4.867
  101XTA   HL3911296  29.318   4.223   4.918
  101XTA   HL4011297  29.166   4.303   4.837
  101XTA   HL4111298  29.230   4.369   4.993
  101XTA    CO811299  28.509   2.914   5.592
  101XTA    CO911300  28.341   2.893   5.772
  101XTA    OA611301  28.447   2.865   5.513
  101XTA   HL4211302  28.557   2.829   5.654
  101XTA   HL4311303  28.588   2.982   5.541
  101XTA   HL4411304  29.604   4.393   4.660
  101XTA   HL4511305  29.528   4.384   4.513
  101XTA   CO1011306  29.511   4.425   4.612
  101XTA   CO1111307  29.409   4.205   4.681
  101XTA    OA711308  29.517   4.567   4.604
  101XTA   HL4611309  29.430   4.169   4.582
  101XTA   HL4711310  29.321   4.157   4.730
  101XTA   HL4811311  28.247   2.820   5.693
  101XTA   HL4911312  28.420   2.819   5.800
  102XTA     NT11313  27.398   1.011   2.195
  102XTA    CN111314  27.293   1.088   2.162
  102XTA     C111315  27.195   1.105   2.258
  102XTA     C211316  27.097   1.206   2.239
  102XTA     C311317  27.105   1.297   2.130
  102XTA     C411318  27.200   1.276   2.029
  102XTA     C511319  27.293   1.174   2.046
  102XTA    CN211320  27.493   1.067   2.276
  102XTA     C611321  27.598   1.145   2.228
  102XTA     C711322  27.711   1.174   2.309
  102XTA     C811323  27.716   1.127   2.445
  102XTA     C911324  27.613   1.045   2.491
  102XTA    C1011325  27.504   1.020   2.407
  102XTA    CN311326  27.435   0.903   2.121
  102XTA    C1111327  27.385   0.774   2.157
  102XTA    C1211328  27.439   0.659   2.111
  102XTA    C1311329  27.542   0.652   2.012
  102XTA    C1411330  27.591   0.777   1.967
  102XTA    C1511331  27.543   0.898   2.026
  102XTA     H111332  27.193   1.035   2.338
  102XTA     H211333  27.018   1.207   2.312
  102XTA     H311334  27.195   1.332   1.943
  102XTA     H411335  27.363   1.172   1.973
  102XTA     H511336  27.599   1.175   2.127
  102XTA     H611337  27.797   1.221   2.271
  102XTA     H711338  27.610   0.995   2.587
  102XTA     H811339  27.437   0.947   2.460
  102XTA     H911340  27.304   0.770   2.223
  102XTA    H1011341  27.415   0.560   2.151
  102XTA    H1111342  27.664   0.799   1.890
  102XTA    H1211343  27.582   0.995   1.996
  102XTA    OA111344  27.001   1.386   2.115
  102XTA    CO111345  27.034   1.499   2.039
  102XTA    OA211346  27.829   1.168   2.514
  102XTA    CO211347  27.817   1.175   2.658
  102XTA    CL111348  27.916   1.281   2.705
  102XTA    CL211349  27.888   1.420   2.653
  102XTA    CL311350  27.992   1.521   2.703
  102XTA    CL411351  27.967   1.670   2.672
  102XTA    CO311352  28.045   1.763   2.765
  102XTA    OA311353  28.012   1.903   2.745
  102XTA    CO411354  27.882   1.928   2.797
  102XTA    CT111355  27.878   2.047   2.897
  102XTA    CL511356  27.937   2.168   2.826
  102XTA    CL611357  27.947   2.287   2.914
  102XTA    OA411358  27.581   0.528   1.967
  102XTA    CO511359  27.693   0.526   1.876
  102XTA    CL711360  27.668   0.577   1.737
  102XTA    CL811361  27.803   0.614   1.661
  102XTA    CL911362  27.894   0.494   1.633
  102XTA   CL1011363  27.827   0.379   1.563
  102XTA    CO611364  27.930   0.290   1.488
  102XTA    OA511365  27.878   0.169   1.447
  102XTA    CO711366  27.971   0.088   1.379
  102XTA    CT211367  27.982  -0.038   1.465
  102XTA   CL1111368  27.848  -0.074   1.525
  102XTA   CL1211369  27.826  -0.209   1.599
  102XTA    HL111370  27.132   1.532   2.073
  102XTA    HL211371  27.027   1.479   1.934
  102XTA    HL311372  26.959   1.573   2.069
  102XTA    HL411373  27.715   1.204   2.691
  102XTA    HL511374  27.828   1.074   2.695
  102XTA    HL611375  28.012   1.251   2.663
  102XTA    HL711376  27.929   1.264   2.811
  102XTA    HL811377  27.798   1.454   2.698
  102XTA    HL911378  27.861   1.430   2.547
  102XTA   HL1011379  28.000   1.508   2.813
  102XTA   HL1111380  28.091   1.501   2.662
  102XTA   HL1211381  27.861   1.679   2.699
  102XTA   HL1311382  27.996   1.697   2.571
  102XTA   HL1411383  28.027   1.744   2.869
  102XTA   HL1511384  28.152   1.759   2.750
  102XTA   HL1611385  27.818   1.944   2.705
  102XTA   HL1711386  27.828   1.853   2.852
  102XTA   HL1811387  27.879   2.177   2.728
  102XTA   HL1911388  28.034   2.129   2.793
  102XTA   HL2011389  27.987   2.370   2.846
  102XTA   HL2111390  28.025   2.273   2.989
  102XTA   HL2211391  27.855   2.322   2.958
  102XTA   HL2311392  27.726   0.419   1.878
  102XTA   HL2411393  27.771   0.582   1.926
  102XTA   HL2511394  27.621   0.500   1.681
  102XTA   HL2611395  27.611   0.667   1.738
  102XTA   HL2711396  27.762   0.656   1.570
  102XTA   HL2811397  27.869   0.684   1.710
  102XTA   HL2911398  27.976   0.528   1.571
  102XTA   HL3011399  27.948   0.464   1.720
  102XTA   HL3111400  27.761   0.323   1.631
  102XTA   HL3211401  27.761   0.421   1.491
  102XTA   HL3311402  27.951   0.358   1.403
  102XTA   HL3411403  28.020   0.274   1.551
  102XTA   HL3511404  28.077   0.132   1.356
  102XTA   HL3611405  27.930   0.064   1.273
  102XTA   HL3711406  27.780  -0.073   1.439
  102XTA   HL3811407  27.810   0.004   1.593
  102XTA   HL3911408  27.720  -0.224   1.637
  102XTA   HL4011409  27.886  -0.216   1.686
  102XTA   HL4111410  27.852  -0.291   1.528
  102XTA    CO811411  27.971   2.014   3.022
  102XTA    CO911412  27.729   2.077   2.933
  102XTA    OA611413  27.682   2.129   2.854
  102XTA   HL4211414  28.073   2.040   2.991
  102XTA   HL4311415  27.986   1.872   3.042
  102XTA   HL4411416  28.052   0.062   1.641
  102XTA   HL4511417  28.113  -0.101   1.635
  102XTA   CO1011418  28.088  -0.015   1.570
  102XTA   CO1111419  28.043  -0.158   1.379
  102XTA    OA711420  28.213   0.021   1.519
  102XTA   HL4611421  28.059  -0.233   1.458
  102XTA   HL4711422  28.134  -0.135   1.331
  102XTA   HL4811423  27.724   2.132   3.028
  102XTA   HL4911424  27.684   1.984   2.952
  103XTA     NT11425  25.481   3.837   6.852
  103XTA    CN111426  25.460   3.925   6.748
  103XTA     C111427  25.428   3.877   6.617
  103XTA     C211428  25.388   3.967   6.517
  103XTA     C311429  25.374   4.105   6.537
  103XTA     C411430  25.407   4.150   6.667
  103XTA     C511431  25.446   4.063   6.772
  103XTA    CN211432  25.596   3.839   6.914
  103XTA     C611433  25.707   3.779   6.840
  103XTA     C711434  25.829   3.760   6.911
  103XTA     C811435  25.834   3.801   7.047
  103XTA     C911436  25.734   3.883   7.111
  103XTA    C1011437  25.608   3.890   7.047
  103XTA    CN311438  25.380   3.767   6.909
  103XTA    C1111439  25.255   3.837   6.935
  103XTA    C1211440  25.148   3.773   7.004
  103XTA    C1311441  25.169   3.641   7.057
  103XTA    C1411442  25.288   3.573   7.026
  103XTA    C1511443  25.392   3.639   6.964
  103XTA     H111444  25.429   3.769   6.593
  103XTA     H211445  25.360   3.926   6.419
  103XTA     H311446  25.404   4.254   6.692
  103XTA     H411447  25.466   4.110   6.864
  103XTA     H511448  25.704   3.749   6.737
  103XTA     H611449  25.910   3.701   6.869
  103XTA     H711450  25.748   3.913   7.212
  103XTA     H811451  25.524   3.938   7.103
  103XTA     H911452  25.245   3.944   6.897
  103XTA    H1011453  25.050   3.826   7.015
  103XTA    H1111454  25.304   3.469   7.057
  103XTA    H1211455  25.490   3.594   6.958
  103XTA    OA111456  25.342   4.199   6.438
  103XTA    CO111457  25.323   4.148   6.306
  103XTA    OA211458  25.950   3.767   7.102
  103XTA    CO211459  25.961   3.772   7.246
  103XTA    CL111460  26.090   3.682   7.278
  103XTA    CL211461  26.049   3.532   7.293
  103XTA    CL311462  26.162   3.435   7.336
  103XTA    CL411463  26.225   3.371   7.211
  103XTA    CO311464  26.358   3.298   7.238
  103XTA    OA311465  26.397   3.239   7.113
  103XTA    CO411466  26.539   3.217   7.095
  103XTA    CT111467  26.559   3.156   6.956
  103XTA    CL511468  26.539   3.002   6.965
  103XTA    CL611469  26.391   2.961   7.006
  103XTA    OA411470  25.067   3.577   7.120
  103XTA    CO511471  24.972   3.649   7.188
  103XTA    CL711472  24.875   3.560   7.249
  103XTA    CL811473  24.936   3.454   7.345
  103XTA    CL911474  24.825   3.389   7.429
  103XTA   CL1011475  24.752   3.474   7.546
  103XTA    CO611476  24.634   3.386   7.599
  103XTA    OA511477  24.561   3.338   7.486
  103XTA    CO711478  24.428   3.296   7.502
  103XTA    CT211479  24.377   3.243   7.364
  103XTA   CL1111480  24.454   3.111   7.344
  103XTA   CL1211481  24.423   3.056   7.205
  103XTA    HL111482  25.404   4.083   6.276
  103XTA    HL211483  25.236   4.087   6.282
  103XTA    HL311484  25.305   4.231   6.239
  103XTA    HL411485  25.973   3.877   7.276
  103XTA    HL511486  25.873   3.738   7.304
  103XTA    HL611487  26.141   3.716   7.370
  103XTA    HL711488  26.167   3.685   7.201
  103XTA    HL811489  26.008   3.494   7.202
  103XTA    HL911490  25.975   3.511   7.375
  103XTA   HL1011491  26.241   3.492   7.393
  103XTA   HL1111492  26.131   3.357   7.406
  103XTA   HL1211493  26.242   3.462   7.151
  103XTA   HL1311494  26.151   3.310   7.164
  103XTA   HL1411495  26.435   3.367   7.276
  103XTA   HL1511496  26.327   3.226   7.322
  103XTA   HL1611497  26.601   3.310   7.111
  103XTA   HL1711498  26.569   3.147   7.179
  103XTA   HL1811499  26.607   2.949   7.038
  103XTA   HL1911500  26.566   2.962   6.867
  103XTA   HL2011501  26.351   3.005   7.093
  103XTA   HL2111502  26.391   2.860   7.018
  103XTA   HL2211503  26.317   2.969   6.929
  103XTA   HL2311504  24.922   3.713   7.119
  103XTA   HL2411505  25.010   3.715   7.264
  103XTA   HL2511506  24.809   3.622   7.310
  103XTA   HL2611507  24.812   3.508   7.184
  103XTA   HL2711508  24.985   3.375   7.281
  103XTA   HL2811509  25.012   3.494   7.417
  103XTA   HL2911510  24.752   3.353   7.359
  103XTA   HL3011511  24.856   3.294   7.479
  103XTA   HL3111512  24.819   3.502   7.622
  103XTA   HL3211513  24.718   3.572   7.499
  103XTA   HL3311514  24.663   3.308   7.671
  103XTA   HL3411515  24.567   3.446   7.658
  103XTA   HL3511516  24.367   3.370   7.555
  103XTA   HL3611517  24.436   3.212   7.574
  103XTA   HL3711518  24.413   3.027   7.406
  103XTA   HL3811519  24.567   3.129   7.363
  103XTA   HL3911520  24.310   3.057   7.205
  103XTA   HL4011521  24.456   2.950   7.186
  103XTA   HL4111522  24.468   3.118   7.134
  103XTA    CO811523  26.709   3.168   6.905
  103XTA    CO911524  26.473   3.230   6.846
  103XTA    OA611525  26.730   3.102   6.786
  103XTA   HL4211526  26.769   3.129   6.998
  103XTA   HL4311527  26.743   3.272   6.906
  103XTA   HL4411528  24.366   3.312   7.170
  103XTA   HL4511529  24.544   3.355   7.253
  103XTA   CO1011530  24.408   3.350   7.266
  103XTA   CO1111531  24.225   3.218   7.364
  103XTA    OA711532  24.200   3.120   7.404
  103XTA   HL4611533  24.177   3.301   7.422
  103XTA   HL4711534  24.186   3.219   7.262
  103XTA   HL4811535  26.503   3.193   6.754
  103XTA   HL4911536  26.367   3.210   6.855
  104XTA     NT11537  25.980   2.452   3.970
  104XTA    CN111538  26.015   2.490   3.839
  104XTA     C111539  26.127   2.580   3.827
  104XTA     C211540  26.182   2.597   3.696
  104XTA     C311541  26.127   2.539   3.580
  104XTA     C411542  26.020   2.446   3.600
  104XTA     C511543  25.954   2.436   3.726
  104XTA    CN211544  26.053   2.360   4.034
  104XTA     C611545  26.029   2.229   4.009
  104XTA     C711546  26.108   2.128   4.073
  104XTA     C811547  26.191   2.163   4.177
  104XTA     C911548  26.210   2.294   4.215
  104XTA    C1011549  26.140   2.395   4.144
  104XTA    CN311550  25.878   2.516   4.034
  104XTA    C1111551  25.898   2.623   4.123
  104XTA    C1211552  25.798   2.706   4.174
  104XTA    C1311553  25.664   2.670   4.136
  104XTA    C1411554  25.644   2.566   4.041
  104XTA    C1511555  25.752   2.489   3.989
  104XTA     H111556  26.181   2.618   3.904
  104XTA     H211557  26.263   2.663   3.681
  104XTA     H311558  25.974   2.400   3.517
  104XTA     H411559  25.876   2.367   3.737
  104XTA     H511560  25.960   2.210   3.927
  104XTA     H611561  26.111   2.023   4.040
  104XTA     H711562  26.285   2.323   4.284
  104XTA     H811563  26.145   2.495   4.180
  104XTA     H911564  25.998   2.630   4.161
  104XTA    H1011565  25.825   2.799   4.233
  104XTA    H1111566  25.546   2.567   4.000
  104XTA    H1211567  25.727   2.410   3.913
  104XTA    OA111568  26.174   2.540   3.448
  104XTA    CO111569  26.306   2.607   3.432
  104XTA    OA211570  26.248   2.056   4.246
  104XTA    CO211571  26.355   2.095   4.333
  104XTA    CL111572  26.328   2.138   4.474
  104XTA    CL211573  26.378   2.040   4.576
  104XTA    CL311574  26.285   1.913   4.584
  104XTA    CL411575  26.169   1.930   4.680
  104XTA    CO311576  26.031   1.853   4.653
  104XTA    OA311577  26.067   1.720   4.624
  104XTA    CO411578  25.955   1.628   4.617
  104XTA    CT111579  25.957   1.508   4.513
  104XTA    CL511580  25.830   1.423   4.533
  104XTA    CL611581  25.823   1.334   4.661
  104XTA    OA411582  25.552   2.736   4.178
  104XTA    CO511583  25.570   2.843   4.273
  104XTA    CL711584  25.596   2.977   4.204
  104XTA    CL811585  25.611   3.096   4.295
  104XTA    CL911586  25.752   3.150   4.296
  104XTA   CL1011587  25.835   3.058   4.394
  104XTA    CO611588  25.978   3.110   4.390
  104XTA    OA511589  26.057   3.031   4.467
  104XTA    CO711590  26.093   2.905   4.399
  104XTA    CT211591  26.204   2.831   4.490
  104XTA   CL1111592  26.217   2.688   4.439
  104XTA   CL1211593  26.315   2.600   4.508
  104XTA    HL111594  26.379   2.563   3.499
  104XTA    HL211595  26.344   2.601   3.330
  104XTA    HL311596  26.285   2.712   3.455
  104XTA    HL411597  26.415   2.002   4.325
  104XTA    HL511598  26.417   2.170   4.287
  104XTA    HL611599  26.223   2.161   4.483
  104XTA    HL711600  26.375   2.235   4.487
  104XTA    HL811601  26.383   2.085   4.677
  104XTA    HL911602  26.483   2.004   4.557
  104XTA   HL1011603  26.242   1.879   4.489
  104XTA   HL1111604  26.342   1.834   4.622
  104XTA   HL1211605  26.139   2.035   4.689
  104XTA   HL1311606  26.217   1.889   4.773
  104XTA   HL1411607  25.978   1.847   4.743
  104XTA   HL1511608  25.981   1.915   4.578
  104XTA   HL1611609  25.949   1.594   4.719
  104XTA   HL1711610  25.867   1.684   4.610
  104XTA   HL1811611  25.798   1.362   4.450
  104XTA   HL1911612  25.733   1.484   4.531
  104XTA   HL2011613  25.834   1.387   4.753
  104XTA   HL2111614  25.906   1.269   4.665
  104XTA   HL2211615  25.738   1.269   4.651
  104XTA   HL2311616  25.643   2.832   4.345
  104XTA   HL2411617  25.479   2.845   4.325
  104XTA   HL2511618  25.676   2.969   4.128
  104XTA   HL2611619  25.513   3.002   4.141
  104XTA   HL2711620  25.548   3.181   4.268
  104XTA   HL2811621  25.590   3.055   4.391
  104XTA   HL2911622  25.786   3.162   4.195
  104XTA   HL3011623  25.754   3.249   4.329
  104XTA   HL3111624  25.785   3.063   4.490
  104XTA   HL3211625  25.832   2.962   4.354
  104XTA   HL3311626  26.015   3.109   4.288
  104XTA   HL3411627  25.986   3.214   4.420
  104XTA   HL3511628  26.140   2.927   4.303
  104XTA   HL3611629  26.001   2.843   4.374
  104XTA   HL3711630  26.256   2.690   4.336
  104XTA   HL3811631  26.113   2.649   4.448
  104XTA   HL3911632  26.410   2.643   4.498
  104XTA   HL4011633  26.319   2.502   4.470
  104XTA   HL4111634  26.277   2.578   4.612
  104XTA    CO811635  26.093   1.441   4.530
  104XTA    CO911636  25.948   1.551   4.369
  104XTA    OA611637  26.100   1.347   4.480
  104XTA   HL4211638  26.111   1.433   4.630
  104XTA   HL4311639  26.169   1.512   4.486
  104XTA   HL4411640  26.227   2.783   4.708
  104XTA   HL4511641  26.154   2.943   4.662
  104XTA   CO1011642  26.158   2.836   4.638
  104XTA   CO1111643  26.328   2.920   4.475
  104XTA    OA711644  26.061   2.777   4.646
  104XTA   HL4611645  26.371   2.916   4.342
  104XTA   HL4711646  26.414   2.872   4.527
  104XTA   HL4811647  26.076   1.566   4.309
  104XTA   HL4911648  25.932   1.462   4.312
  105XTA     NT11649  29.526   4.840   3.559
  105XTA    CN111650  29.530   4.887   3.688
  105XTA     C111651  29.417   4.942   3.749
  105XTA     C211652  29.433   5.001   3.873
  105XTA     C311653  29.554   5.001   3.946
  105XTA     C411654  29.656   4.927   3.882
  105XTA     C511655  29.648   4.869   3.756
  105XTA    CN211656  29.543   4.926   3.456
  105XTA     C611657  29.654   4.908   3.372
  105XTA     C711658  29.671   4.982   3.254
  105XTA     C811659  29.576   5.082   3.228
  105XTA     C911660  29.466   5.101   3.309
  105XTA    C1011661  29.449   5.028   3.427
  105XTA    CN311662  29.502   4.715   3.524
  105XTA    C1111663  29.368   4.674   3.505
  105XTA    C1211664  29.343   4.545   3.465
  105XTA    C1311665  29.451   4.456   3.441
  105XTA    C1411666  29.582   4.501   3.444
  105XTA    C1511667  29.605   4.628   3.495
  105XTA     H111668  29.323   4.959   3.689
  105XTA     H211669  29.342   5.061   3.899
  105XTA     H311670  29.748   4.927   3.933
  105XTA     H411671  29.732   4.808   3.718
  105XTA     H511672  29.731   4.838   3.393
  105XTA     H611673  29.754   4.968   3.188
  105XTA     H711674  29.387   5.175   3.297
  105XTA     H811675  29.364   5.042   3.487
  105XTA     H911676  29.289   4.744   3.541
  105XTA    H1011677  29.238   4.519   3.462
  105XTA    H1111678  29.660   4.428   3.424
  105XTA    H1211679  29.709   4.659   3.503
  105XTA    OA111680  29.565   5.069   4.060
  105XTA    CO111681  29.695   5.085   4.111
  105XTA    OA211682  29.603   5.159   3.115
  105XTA    CO211683  29.516   5.270   3.090
  105XTA    CL111684  29.556   5.321   2.954
  105XTA    CL211685  29.490   5.451   2.907
  105XTA    CL311686  29.533   5.519   2.771
  105XTA    CL411687  29.485   5.440   2.648
  105XTA    CO311688  29.337   5.452   2.625
  105XTA    OA311689  29.295   5.364   2.524
  105XTA    CO411690  29.261   5.230   2.578
  105XTA    CT111691  29.232   5.130   2.460
  105XTA    CL511692  29.343   5.142   2.348
  105XTA    CL611693  29.485   5.115   2.388
  105XTA    OA411694  29.411   4.335   3.390
  105XTA    CO511695  29.489   4.223   3.429
  105XTA    CL711696  29.410   4.089   3.423
  105XTA    CL811697  29.490   3.966   3.480
  105XTA    CL911698  29.401   3.841   3.475
  105XTA   CL1011699  29.432   3.727   3.576
  105XTA    CO611700  29.371   3.586   3.531
  105XTA    OA511701  29.232   3.607   3.519
  105XTA    CO711702  29.168   3.475   3.525
  105XTA    CT211703  29.020   3.489   3.488
  105XTA   CL1111704  28.965   3.607   3.567
  105XTA   CL1211705  28.955   3.582   3.713
  105XTA    HL111706  29.696   5.164   4.188
  105XTA    HL211707  29.725   4.992   4.159
  105XTA    HL311708  29.757   5.116   4.028
  105XTA    HL411709  29.410   5.243   3.091
  105XTA    HL511710  29.536   5.345   3.176
  105XTA    HL611711  29.540   5.243   2.882
  105XTA    HL711712  29.661   5.349   2.946
  105XTA    HL811713  29.511   5.524   2.990
  105XTA    HL911714  29.380   5.431   2.905
  105XTA   HL1011715  29.479   5.615   2.773
  105XTA   HL1111716  29.638   5.542   2.784
  105XTA   HL1211717  29.506   5.333   2.657
  105XTA   HL1311718  29.537   5.485   2.563
  105XTA   HL1411719  29.275   5.427   2.711
  105XTA   HL1511720  29.310   5.548   2.594
  105XTA   HL1611721  29.340   5.180   2.644
  105XTA   HL1711722  29.174   5.221   2.644
  105XTA   HL1811723  29.336   5.236   2.291
  105XTA   HL1911724  29.310   5.072   2.277
  105XTA   HL2011725  29.548   5.102   2.302
  105XTA   HL2111726  29.499   5.020   2.447
  105XTA   HL2211727  29.517   5.201   2.451
  105XTA   HL2311728  29.514   4.247   3.539
  105XTA   HL2411729  29.582   4.227   3.376
  105XTA   HL2511730  29.313   4.095   3.487
  105XTA   HL2611731  29.374   4.069   3.325
  105XTA   HL2711732  29.590   3.957   3.444
  105XTA   HL2811733  29.494   3.993   3.590
  105XTA   HL2911734  29.298   3.868   3.503
  105XTA   HL3011735  29.393   3.796   3.380
  105XTA   HL3111736  29.539   3.719   3.591
  105XTA   HL3211737  29.388   3.753   3.671
  105XTA   HL3311738  29.407   3.547   3.432
  105XTA   HL3411739  29.399   3.510   3.603
  105XTA   HL3511740  29.189   3.433   3.627
  105XTA   HL3611741  29.216   3.418   3.452
  105XTA   HL3711742  28.857   3.625   3.530
  105XTA   HL3811743  29.012   3.700   3.552
  105XTA   HL3911744  28.862   3.526   3.737
  105XTA   HL4011745  28.958   3.676   3.768
  105XTA   HL4111746  29.027   3.514   3.756
  105XTA    CO811747  29.099   5.167   2.391
  105XTA    CO911748  29.227   4.984   2.512
  105XTA    OA611749  29.157   4.980   2.597
  105XTA   HL4211750  29.102   5.281   2.366
  105XTA   HL4311751  28.998   5.161   2.484
  105XTA   HL4411752  28.950   3.336   3.633
  105XTA   HL4511753  28.833   3.369   3.499
  105XTA   CO1011754  28.944   3.357   3.527
  105XTA   CO1111755  28.986   3.513   3.333
  105XTA    OA711756  28.991   3.281   3.465
  105XTA   HL4611757  28.862   3.458   3.294
  105XTA   HL4711758  29.055   3.443   3.286
  105XTA   HL4811759  29.324   4.950   2.531
  105XTA   HL4911760  29.201   4.909   2.432
  106XTA     NT11761  25.928   1.593  -0.112
  106XTA    CN111762  25.881   1.685  -0.030
  106XTA     C111763  25.871   1.665   0.106
  106XTA     C211764  25.809   1.757   0.184
  106XTA     C311765  25.739   1.863   0.132
  106XTA     C411766  25.740   1.883  -0.006
  106XTA     C511767  25.817   1.797  -0.085
  106XTA    CN211768  26.051   1.607  -0.169
  106XTA     C611769  26.058   1.644  -0.305
  106XTA     C711770  26.186   1.632  -0.366
  106XTA     C811771  26.297   1.584  -0.295
  106XTA     C911772  26.288   1.546  -0.163
  106XTA    C1011773  26.163   1.557  -0.102
  106XTA    CN311774  25.859   1.480  -0.129
  106XTA    C1111775  25.868   1.372  -0.038
  106XTA    C1211776  25.783   1.256  -0.055
  106XTA    C1311777  25.694   1.249  -0.167
  106XTA    C1411778  25.682   1.360  -0.253
  106XTA    C1511779  25.765   1.472  -0.237
  106XTA     H111780  25.909   1.573   0.152
  106XTA     H211781  25.819   1.744   0.285
  106XTA     H311782  25.688   1.963  -0.048
  106XTA     H411783  25.811   1.809  -0.186
  106XTA     H511784  25.985   1.685  -0.364
  106XTA     H611785  26.183   1.653  -0.473
  106XTA     H711786  26.359   1.488  -0.114
  106XTA     H811787  26.140   1.509  -0.004
  106XTA     H911788  25.952   1.377   0.029
  106XTA    H1011789  25.797   1.172   0.005
  106XTA    H1111790  25.607   1.361  -0.326
  106XTA    H1211791  25.753   1.560  -0.298
  106XTA    OA111792  25.687   1.949   0.228
  106XTA    CO111793  25.661   2.087   0.193
  106XTA    OA211794  26.417   1.562  -0.353
  106XTA    CO211795  26.413   1.503  -0.482
  106XTA    CL111796  26.556   1.474  -0.530
  106XTA    CL211797  26.555   1.404  -0.665
  106XTA    CL311798  26.497   1.260  -0.662
  106XTA    CL411799  26.565   1.165  -0.556
  106XTA    CO311800  26.571   1.019  -0.589
  106XTA    OA311801  26.439   0.964  -0.574
  106XTA    CO411802  26.427   0.818  -0.581
  106XTA    CT111803  26.345   0.780  -0.696
  106XTA    CL511804  26.202   0.833  -0.682
  106XTA    CL611805  26.121   0.825  -0.813
  106XTA    OA411806  25.617   1.136  -0.181
  106XTA    CO511807  25.621   1.093  -0.322
  106XTA    CL711808  25.486   1.026  -0.344
  106XTA    CL811809  25.367   1.125  -0.313
  106XTA    CL911810  25.353   1.235  -0.417
  106XTA   CL1011811  25.263   1.177  -0.523
  106XTA    CO611812  25.237   1.269  -0.644
  106XTA    OA511813  25.125   1.355  -0.626
  106XTA    CO711814  25.076   1.423  -0.738
  106XTA    CT211815  24.959   1.515  -0.705
  106XTA   CL1111816  24.893   1.570  -0.832
  106XTA   CL1211817  24.868   1.468  -0.948
  106XTA    HL111818  25.738   2.126   0.129
  106XTA    HL211819  25.569   2.099   0.132
  106XTA    HL311820  25.639   2.147   0.284
  106XTA    HL411821  26.356   1.407  -0.473
  106XTA    HL511822  26.365   1.571  -0.560
  106XTA    HL611823  26.588   1.403  -0.456
  106XTA    HL711824  26.612   1.563  -0.512
  106XTA    HL811825  26.664   1.387  -0.684
  106XTA    HL911826  26.519   1.472  -0.746
  106XTA   HL1011827  26.386   1.252  -0.654
  106XTA   HL1111828  26.520   1.223  -0.762
  106XTA   HL1211829  26.509   1.173  -0.468
  106XTA   HL1311830  26.663   1.206  -0.529
  106XTA   HL1411831  26.604   1.006  -0.691
  106XTA   HL1511832  26.641   0.968  -0.533
  106XTA   HL1611833  26.525   0.761  -0.585
  106XTA   HL1711834  26.385   0.769  -0.490
  106XTA   HL1811835  26.208   0.936  -0.659
  106XTA   HL1911836  26.154   0.788  -0.590
  106XTA   HL2011837  26.145   0.904  -0.881
  106XTA   HL2111838  26.015   0.832  -0.783
  106XTA   HL2211839  26.134   0.735  -0.871
  106XTA   HL2311840  25.706   1.027  -0.339
  106XTA   HL2411841  25.630   1.172  -0.398
  106XTA   HL2511842  25.479   0.981  -0.445
  106XTA   HL2611843  25.492   0.948  -0.276
  106XTA   HL2711844  25.277   1.069  -0.289
  106XTA   HL2811845  25.393   1.168  -0.220
  106XTA   HL2911846  25.315   1.324  -0.367
  106XTA   HL3011847  25.454   1.263  -0.452
  106XTA   HL3111848  25.312   1.088  -0.564
  106XTA   HL3211849  25.171   1.152  -0.467
  106XTA   HL3311850  25.333   1.324  -0.674
  106XTA   HL3411851  25.202   1.208  -0.730
  106XTA   HL3511852  25.053   1.351  -0.811
  106XTA   HL3611853  25.151   1.490  -0.778
  106XTA   HL3711854  24.956   1.643  -0.880
  106XTA   HL3811855  24.798   1.627  -0.807
  106XTA   HL3911856  24.839   1.517  -1.042
  106XTA   HL4011857  24.793   1.394  -0.926
  106XTA   HL4111858  24.964   1.414  -0.977
  106XTA    CO811859  26.341   0.620  -0.699
  106XTA    CO911860  26.420   0.828  -0.821
  106XTA    OA611861  26.548   0.770  -0.832
  106XTA   HL4211862  26.280   0.591  -0.782
  106XTA   HL4311863  26.446   0.584  -0.714
  106XTA   HL4411864  25.080   1.595  -0.518
  106XTA   HL4511865  24.942   1.683  -0.566
  106XTA   CO1011866  25.023   1.626  -0.610
  106XTA   CO1111867  24.862   1.436  -0.624
  106XTA    OA711868  24.751   1.517  -0.587
  106XTA   HL4611869  24.828   1.343  -0.669
  106XTA   HL4711870  24.910   1.393  -0.538
  106XTA   HL4811871  26.426   0.933  -0.817
  106XTA   HL4911872  26.356   0.798  -0.907
  107XTA     NT11873  28.710   2.113   5.607
  107XTA    CN111874  28.598   2.060   5.548
  107XTA     C111875  28.580   1.917   5.543
  107XTA     C211876  28.475   1.863   5.467
  107XTA     C311877  28.389   1.945   5.392
  107XTA     C411878  28.408   2.085   5.407
  107XTA     C511879  28.498   2.141   5.496
  107XTA    CN211880  28.742   2.093   5.736
  107XTA     C611881  28.798   1.966   5.778
  107XTA     C711882  28.847   1.952   5.909
  107XTA     C811883  28.849   2.060   6.004
  107XTA     C911884  28.792   2.184   5.964
  107XTA    C1011885  28.743   2.194   5.831
  107XTA    CN311886  28.802   2.174   5.531
  107XTA    C1111887  28.893   2.099   5.457
  107XTA    C1211888  28.979   2.166   5.359
  107XTA    C1311889  28.979   2.308   5.346
  107XTA    C1411890  28.885   2.377   5.433
  107XTA    C1511891  28.795   2.312   5.521
  107XTA     H111892  28.653   1.858   5.591
  107XTA     H211893  28.466   1.764   5.454
  107XTA     H311894  28.338   2.144   5.355
  107XTA     H411895  28.500   2.245   5.516
  107XTA     H511896  28.802   1.877   5.719
  107XTA     H611897  28.909   1.860   5.929
  107XTA     H711898  28.784   2.265   6.037
  107XTA     H811899  28.708   2.292   5.803
  107XTA     H911900  28.899   1.991   5.475
  107XTA    H1011901  29.049   2.103   5.301
  107XTA    H1111902  28.872   2.486   5.424
  107XTA    H1211903  28.717   2.364   5.573
  107XTA    OA111904  28.301   1.905   5.294
  107XTA    CO111905  28.279   1.771   5.282
  107XTA    OA211906  28.918   2.058   6.117
  107XTA    CO211907  28.939   1.923   6.160
  107XTA    CL111908  28.982   1.929   6.302
  107XTA    CL211909  29.050   1.805   6.341
  107XTA    CL311910  29.133   1.833   6.471
  107XTA    CL411911  29.245   1.733   6.492
  107XTA    CO311912  29.352   1.767   6.602
  107XTA    OA311913  29.381   1.906   6.584
  107XTA    CO411914  29.481   1.939   6.674
  107XTA    CT111915  29.516   2.091   6.689
  107XTA    CL511916  29.582   2.101   6.830
  107XTA    CL611917  29.684   1.989   6.876
  107XTA    OA411918  29.063   2.388   5.277
  107XTA    CO511919  29.170   2.325   5.216
  107XTA    CL711920  29.261   2.444   5.176
  107XTA    CL811921  29.408   2.408   5.162
  107XTA    CL911922  29.516   2.514   5.152
  107XTA   CL1011923  29.468   2.626   5.059
  107XTA    CO611924  29.451   2.565   4.917
  107XTA    OA511925  29.316   2.596   4.875
  107XTA    CO711926  29.293   2.584   4.726
  107XTA    CT211927  29.162   2.656   4.688
  107XTA   CL1111928  29.124   2.643   4.534
  107XTA   CL1211929  29.070   2.513   4.478
  107XTA    HL111930  28.224   1.742   5.375
  107XTA    HL211931  28.216   1.752   5.193
  107XTA    HL311932  28.371   1.714   5.281
  107XTA    HL411933  28.841   1.869   6.146
  107XTA    HL511934  29.005   1.877   6.095
  107XTA    HL611935  28.894   1.949   6.358
  107XTA    HL711936  29.054   2.016   6.316
  107XTA    HL811937  29.114   1.781   6.264
  107XTA    HL911938  28.982   1.723   6.349
  107XTA   HL1011939  29.174   1.933   6.477
  107XTA   HL1111940  29.067   1.840   6.552
  107XTA   HL1211941  29.304   1.714   6.399
  107XTA   HL1311942  29.197   1.642   6.519
  107XTA   HL1411943  29.328   1.755   6.711
  107XTA   HL1511944  29.434   1.699   6.580
  107XTA   HL1611945  29.442   1.903   6.770
  107XTA   HL1711946  29.571   1.884   6.657
  107XTA   HL1811947  29.497   2.103   6.899
  107XTA   HL1911948  29.626   2.197   6.830
  107XTA   HL2011949  29.769   1.973   6.799
  107XTA   HL2111950  29.629   1.897   6.877
  107XTA   HL2211951  29.738   2.017   6.967
  107XTA   HL2311952  29.139   2.260   5.131
  107XTA   HL2411953  29.219   2.255   5.274
  107XTA   HL2511954  29.224   2.487   5.082
  107XTA   HL2611955  29.251   2.522   5.252
  107XTA   HL2711956  29.423   2.332   5.243
  107XTA   HL2811957  29.413   2.363   5.067
  107XTA   HL2911958  29.556   2.560   5.247
  107XTA   HL3011959  29.605   2.467   5.113
  107XTA   HL3111960  29.375   2.655   5.100
  107XTA   HL3211961  29.543   2.707   5.070
  107XTA   HL3311962  29.514   2.619   4.845
  107XTA   HL3411963  29.471   2.454   4.903
  107XTA   HL3511964  29.294   2.481   4.703
  107XTA   HL3611965  29.376   2.623   4.681
  107XTA   HL3711966  29.213   2.665   4.481
  107XTA   HL3811967  29.052   2.722   4.525
  107XTA   HL3911968  28.967   2.505   4.513
  107XTA   HL4011969  29.127   2.433   4.518
  107XTA   HL4111970  29.067   2.507   4.367
  107XTA    CO811971  29.397   2.191   6.684
  107XTA    CO911972  29.616   2.133   6.581
  107XTA    OA611973  29.550   2.125   6.457
  107XTA   HL4211974  29.342   2.181   6.591
  107XTA   HL4311975  29.328   2.156   6.758
  107XTA   HL4411976  29.244   2.800   4.813
  107XTA   HL4511977  29.148   2.881   4.689
  107XTA   CO1011978  29.154   2.793   4.748
  107XTA   CO1111979  29.040   2.623   4.769
  107XTA    OA711980  29.041   2.755   4.816
  107XTA   HL4611981  28.950   2.585   4.723
  107XTA   HL4711982  29.076   2.551   4.844
  107XTA   HL4811983  29.709   2.072   6.570
  107XTA   HL4911984  29.658   2.226   6.596
  108XTA     NT11985  28.989   3.369  -0.305
  108XTA    CN111986  28.898   3.417  -0.224
  108XTA     C111987  28.832   3.534  -0.262
  108XTA     C211988  28.741   3.598  -0.175
  108XTA     C311989  28.694   3.523  -0.064
  108XTA     C411990  28.757   3.398  -0.033
  108XTA     C511991  28.859   3.343  -0.112
  108XTA    CN211992  28.955   3.288  -0.406
  108XTA     C611993  28.949   3.343  -0.538
  108XTA     C711994  28.913   3.260  -0.647
  108XTA     C811995  28.895   3.122  -0.631
  108XTA     C911996  28.893   3.071  -0.501
  108XTA    C1011997  28.918   3.155  -0.387
  108XTA    CN311998  29.113   3.419  -0.307
  108XTA    C1111999  29.224   3.346  -0.272
  108XTA    C1212000  29.355   3.399  -0.280
  108XTA    C1312001  29.381   3.526  -0.327
  108XTA    C1412002  29.271   3.597  -0.380
  108XTA    C1512003  29.139   3.544  -0.365
  108XTA     H112004  28.860   3.597  -0.348
  108XTA     H212005  28.686   3.690  -0.195
  108XTA     H312006  28.716   3.348   0.052
  108XTA     H412007  28.898   3.249  -0.090
  108XTA     H512008  28.982   3.449  -0.559
  108XTA     H612009  28.910   3.305  -0.750
  108XTA     H712010  28.874   2.969  -0.494
  108XTA     H812011  28.907   3.116  -0.287
  108XTA     H912012  29.218   3.250  -0.243
  108XTA    H1012013  29.432   3.333  -0.246
  108XTA    H1112014  29.284   3.686  -0.428
  108XTA    H1212015  29.059   3.600  -0.403
  108XTA    OA112016  28.592   3.585   0.005
  108XTA    CO112017  28.506   3.506   0.083
  108XTA    OA212018  28.885   3.033  -0.733
  108XTA    CO212019  28.929   3.078  -0.858
  108XTA    CL112020  28.939   2.958  -0.953
  108XTA    CL212021  29.025   2.842  -0.911
  108XTA    CL312022  28.971   2.761  -0.788
  108XTA    CL412023  28.827   2.717  -0.800
  108XTA    CO312024  28.791   2.621  -0.915
  108XTA    OA312025  28.711   2.516  -0.864
  108XTA    CO412026  28.615   2.483  -0.963
  108XTA    CT112027  28.517   2.386  -0.895
  108XTA    CL512028  28.541   2.239  -0.907
  108XTA    CL612029  28.673   2.181  -0.860
  108XTA    OA412030  29.504   3.576  -0.316
  108XTA    CO512031  29.533   3.706  -0.368
  108XTA    CL712032  29.557   3.794  -0.248
  108XTA    CL812033  29.427   3.826  -0.172
  108XTA    CL912034  29.327   3.918  -0.243
  108XTA   CL1012035  29.191   3.918  -0.176
  108XTA    CO612036  29.104   4.038  -0.226
  108XTA    OA512037  28.966   4.039  -0.176
  108XTA    CO712038  28.877   4.131  -0.232
  108XTA    CT212039  28.743   4.062  -0.260
  108XTA   CL1112040  28.644   4.168  -0.302
  108XTA   CL1212041  28.679   4.227  -0.441
  108XTA    HL112042  28.425   3.576   0.117
  108XTA    HL212043  28.464   3.423   0.026
  108XTA    HL312044  28.561   3.466   0.163
  108XTA    HL412045  28.867   3.156  -0.908
  108XTA    HL512046  29.029   3.121  -0.839
  108XTA    HL612047  28.989   3.004  -1.042
  108XTA    HL712048  28.845   2.921  -0.989
  108XTA    HL812049  29.124   2.880  -0.894
  108XTA    HL912050  29.025   2.771  -0.996
  108XTA   HL1012051  29.034   2.668  -0.777
  108XTA   HL1112052  28.985   2.825  -0.703
  108XTA   HL1212053  28.769   2.807  -0.806
  108XTA   HL1312054  28.800   2.666  -0.707
  108XTA   HL1412055  28.751   2.673  -1.004
  108XTA   HL1512056  28.879   2.566  -0.952
  108XTA   HL1612057  28.564   2.574  -1.004
  108XTA   HL1712058  28.666   2.441  -1.048
  108XTA   HL1812059  28.540   2.219  -1.008
  108XTA   HL1912060  28.458   2.177  -0.873
  108XTA   HL2012061  28.758   2.247  -0.856
  108XTA   HL2112062  28.707   2.104  -0.928
  108XTA   HL2212063  28.668   2.141  -0.762
  108XTA   HL2312064  29.456   3.751  -0.428
  108XTA   HL2412065  29.629   3.706  -0.424
  108XTA   HL2512066  29.625   3.742  -0.186
  108XTA   HL2612067  29.620   3.878  -0.267
  108XTA   HL2712068  29.376   3.729  -0.156
  108XTA   HL2812069  29.439   3.871  -0.073
  108XTA   HL2912070  29.370   4.020  -0.239
  108XTA   HL3012071  29.317   3.892  -0.351
  108XTA   HL3112072  29.141   3.828  -0.197
  108XTA   HL3212073  29.197   3.926  -0.066
  108XTA   HL3312074  29.158   4.138  -0.199
  108XTA   HL3412075  29.107   4.028  -0.332
  108XTA   HL3512076  28.916   4.176  -0.323
  108XTA   HL3612077  28.862   4.206  -0.162
  108XTA   HL3712078  28.644   4.259  -0.232
  108XTA   HL3812079  28.543   4.131  -0.312
  108XTA   HL3912080  28.616   4.182  -0.519
  108XTA   HL4012081  28.778   4.211  -0.466
  108XTA   HL4112082  28.674   4.339  -0.452
  108XTA    CO812083  28.382   2.421  -0.971
  108XTA    CO912084  28.495   2.419  -0.749
  108XTA    OA612085  28.402   2.405  -1.106
  108XTA   HL4212086  28.357   2.527  -0.952
  108XTA   HL4312087  28.295   2.355  -0.956
  108XTA   HL4412088  28.770   3.997  -0.055
  108XTA   HL4512089  28.669   3.898  -0.134
  108XTA   CO1012090  28.691   4.004  -0.126
  108XTA   CO1112091  28.745   3.944  -0.361
  108XTA    OA712092  28.625   3.877  -0.380
  108XTA   HL4612093  28.792   3.972  -0.456
  108XTA   HL4712094  28.823   3.877  -0.319
  108XTA   HL4812095  28.442   2.335  -0.707
  108XTA   HL4912096  28.600   2.420  -0.705
  109XTA     NT12097  29.007   1.359   4.237
  109XTA    CN112098  29.025   1.292   4.123
  109XTA     C112099  28.917   1.259   4.038
  109XTA     C212100  28.933   1.213   3.904
  109XTA     C312101  29.063   1.204   3.851
  109XTA     C412102  29.173   1.233   3.934
  109XTA     C512103  29.153   1.279   4.065
  109XTA    CN212104  29.079   1.320   4.344
  109XTA     C612105  29.202   1.382   4.378
  109XTA     C712106  29.261   1.348   4.503
  109XTA     C812107  29.198   1.256   4.596
  109XTA     C912108  29.072   1.204   4.562
  109XTA    C1012109  29.016   1.232   4.438
  109XTA    CN312110  28.958   1.487   4.240
  109XTA    C1112111  28.955   1.570   4.123
  109XTA    C1212112  28.898   1.699   4.125
  109XTA    C1312113  28.830   1.745   4.243
  109XTA    C1412114  28.834   1.661   4.358
  109XTA    C1512115  28.905   1.537   4.362
  109XTA     H112116  28.817   1.268   4.074
  109XTA     H212117  28.844   1.200   3.845
  109XTA     H312118  29.269   1.201   3.890
  109XTA     H412119  29.244   1.290   4.129
  109XTA     H512120  29.240   1.463   4.313
  109XTA     H612121  29.359   1.380   4.523
  109XTA     H712122  29.028   1.136   4.632
  109XTA     H812123  28.922   1.193   4.401
  109XTA     H912124  29.002   1.539   4.036
  109XTA    H1012125  28.893   1.760   4.033
  109XTA    H1112126  28.790   1.705   4.450
  109XTA    H1212127  28.913   1.482   4.453
  109XTA    OA112128  29.096   1.152   3.732
  109XTA    CO112129  28.994   1.149   3.633
  109XTA    OA212130  29.253   1.224   4.713
  109XTA    CO212131  29.345   1.310   4.779
  109XTA    CL112132  29.274   1.440   4.824
  109XTA    CL212133  29.153   1.412   4.915
  109XTA    CL312134  29.015   1.457   4.856
  109XTA    CL412135  28.995   1.607   4.866
  109XTA    CO312136  29.025   1.675   4.727
  109XTA    OA312137  28.984   1.811   4.725
  109XTA    CO412138  29.011   1.875   4.600
  109XTA    CT112139  28.923   2.003   4.579
  109XTA    CL512140  28.964   2.072   4.442
  109XTA    CL612141  28.902   2.200   4.400
  109XTA    OA412142  28.770   1.871   4.251
  109XTA    CO512143  28.722   1.924   4.125
  109XTA    CL712144  28.629   2.041   4.163
  109XTA    CL812145  28.508   1.993   4.235
  109XTA    CL912146  28.437   2.111   4.314
  109XTA   CL1012147  28.327   2.058   4.409
  109XTA    CO612148  28.302   2.146   4.532
  109XTA    OA512149  28.263   2.282   4.499
  109XTA    CO712150  28.132   2.282   4.451
  109XTA    CT212151  28.073   2.422   4.463
  109XTA   CL1112152  28.176   2.522   4.405
  109XTA   CL1212153  28.128   2.674   4.401
  109XTA    HL112154  28.947   1.243   3.613
  109XTA    HL212155  29.038   1.121   3.537
  109XTA    HL312156  28.913   1.092   3.662
  109XTA    HL412157  29.382   1.255   4.864
  109XTA    HL512158  29.438   1.327   4.725
  109XTA    HL612159  29.260   1.498   4.739
  109XTA    HL712160  29.344   1.509   4.879
  109XTA    HL812161  29.169   1.456   5.015
  109XTA    HL912162  29.156   1.302   4.936
  109XTA   HL1012163  29.012   1.434   4.747
  109XTA   HL1112164  28.932   1.405   4.905
  109XTA   HL1212165  29.054   1.648   4.945
  109XTA   HL1312166  28.894   1.624   4.876
  109XTA   HL1412167  29.135   1.649   4.694
  109XTA   HL1512168  28.958   1.617   4.649
  109XTA   HL1612169  29.118   1.896   4.596
  109XTA   HL1712170  28.995   1.796   4.526
  109XTA   HL1812171  28.925   2.015   4.359
  109XTA   HL1912172  29.072   2.064   4.445
  109XTA   HL2012173  28.932   2.238   4.304
  109XTA   HL2112174  28.936   2.278   4.470
  109XTA   HL2212175  28.794   2.200   4.405
  109XTA   HL2312176  28.666   1.857   4.063
  109XTA   HL2412177  28.811   1.961   4.065
  109XTA   HL2512178  28.685   2.103   4.234
  109XTA   HL2612179  28.602   2.105   4.084
  109XTA   HL2712180  28.440   1.949   4.163
  109XTA   HL2812181  28.526   1.916   4.303
  109XTA   HL2912182  28.501   2.167   4.372
  109XTA   HL3012183  28.392   2.182   4.245
  109XTA   HL3112184  28.231   2.027   4.370
  109XTA   HL3212185  28.366   1.961   4.456
  109XTA   HL3312186  28.227   2.092   4.584
  109XTA   HL3412187  28.391   2.132   4.593
  109XTA   HL3512188  28.059   2.213   4.487
  109XTA   HL3612189  28.139   2.248   4.346
  109XTA   HL3712190  28.205   2.485   4.307
  109XTA   HL3812191  28.272   2.529   4.454
  109XTA   HL3912192  28.051   2.674   4.334
  109XTA   HL4012193  28.204   2.733   4.359
  109XTA   HL4112194  28.094   2.705   4.493
  109XTA    CO812195  28.959   2.095   4.697
  109XTA    CO912196  28.770   1.977   4.578
  109XTA    OA612197  28.732   1.914   4.701
  109XTA   HL4212198  28.952   2.034   4.792
  109XTA   HL4312199  29.064   2.135   4.705
  109XTA   HL4412200  28.001   2.329   4.676
  109XTA   HL4512201  28.147   2.459   4.668
  109XTA   CO1012202  28.053   2.446   4.615
  109XTA   CO1112203  27.945   2.426   4.377
  109XTA    OA712204  27.879   2.346   4.415
  109XTA   HL4612205  27.907   2.526   4.381
  109XTA   HL4712206  27.985   2.419   4.270
  109XTA   HL4812207  28.735   1.913   4.495
  109XTA   HL4912208  28.714   2.066   4.575
  110XTA     NT12209  28.236   4.711   5.660
  110XTA    CN112210  28.131   4.783   5.705
  110XTA     C112211  28.079   4.758   5.837
  110XTA     C212212  27.975   4.838   5.889
  110XTA     C312213  27.925   4.944   5.827
  110XTA     C412214  27.963   4.964   5.690
  110XTA     C512215  28.064   4.883   5.637
  110XTA    CN212216  28.354   4.726   5.716
  110XTA     C612217  28.442   4.820   5.659
  110XTA     C712218  28.574   4.839   5.712
  110XTA     C812219  28.620   4.750   5.810
  110XTA     C912220  28.532   4.652   5.862
  110XTA    C1012221  28.398   4.642   5.820
  110XTA    CN312222  28.210   4.611   5.564
  110XTA    C1112223  28.164   4.486   5.612
  110XTA    C1212224  28.147   4.385   5.520
  110XTA    C1312225  28.166   4.404   5.381
  110XTA    C1412226  28.190   4.535   5.337
  110XTA    C1512227  28.215   4.643   5.426
  110XTA     H112228  28.125   4.688   5.895
  110XTA     H212229  27.964   4.841   5.995
  110XTA     H312230  27.923   5.048   5.635
  110XTA     H412231  28.103   4.912   5.542
  110XTA     H512232  28.408   4.884   5.574
  110XTA     H612233  28.627   4.924   5.666
  110XTA     H712234  28.563   4.578   5.941
  110XTA     H812235  28.335   4.577   5.871
  110XTA     H912236  28.153   4.477   5.713
  110XTA    H1012237  28.126   4.285   5.552
  110XTA    H1112238  28.197   4.551   5.229
  110XTA    H1212239  28.232   4.743   5.389
  110XTA    OA112240  27.851   5.035   5.902
  110XTA    CO112241  27.864   5.178   5.884
  110XTA    OA212242  28.747   4.769   5.857
  110XTA    CO212243  28.790   4.696   5.970
  110XTA    CL112244  28.741   4.773   6.099
  110XTA    CL212245  28.779   4.697   6.227
  110XTA    CL312246  28.672   4.693   6.330
  110XTA    CL412247  28.547   4.613   6.296
  110XTA    CO312248  28.443   4.622   6.407
  110XTA    OA312249  28.487   4.576   6.532
  110XTA    CO412250  28.510   4.433   6.539
  110XTA    CT112251  28.562   4.382   6.674
  110XTA    CL512252  28.706   4.427   6.714
  110XTA    CL612253  28.775   4.546   6.639
  110XTA    OA412254  28.155   4.292   5.300
  110XTA    CO512255  28.240   4.289   5.185
  110XTA    CL712256  28.202   4.155   5.114
  110XTA    CL812257  28.197   4.027   5.205
  110XTA    CL912258  28.324   3.980   5.283
  110XTA   CL1012259  28.302   3.864   5.376
  110XTA    CO612260  28.250   3.899   5.514
  110XTA    OA512261  28.120   3.954   5.511
  110XTA    CO712262  28.013   3.869   5.475
  110XTA    CT212263  27.880   3.951   5.489
  110XTA   CL1112264  27.757   3.864   5.469
  110XTA   CL1212265  27.739   3.798   5.329
  110XTA    HL112266  27.845   5.216   5.781
  110XTA    HL212267  27.790   5.220   5.950
  110XTA    HL312268  27.960   5.205   5.911
  110XTA    HL412269  28.763   4.595   5.964
  110XTA    HL512270  28.897   4.714   5.964
  110XTA    HL612271  28.629   4.776   6.093
  110XTA    HL712272  28.775   4.873   6.090
  110XTA    HL812273  28.876   4.740   6.268
  110XTA    HL912274  28.802   4.589   6.199
  110XTA   HL1012275  28.719   4.646   6.422
  110XTA   HL1112276  28.649   4.796   6.360
  110XTA   HL1212277  28.564   4.512   6.263
  110XTA   HL1312278  28.499   4.650   6.207
  110XTA   HL1412279  28.430   4.728   6.406
  110XTA   HL1512280  28.355   4.559   6.381
  110XTA   HL1612281  28.420   4.388   6.508
  110XTA   HL1712282  28.589   4.405   6.459
  110XTA   HL1812283  28.776   4.347   6.695
  110XTA   HL1912284  28.713   4.447   6.826
  110XTA   HL2012285  28.868   4.581   6.684
  110XTA   HL2112286  28.712   4.637   6.634
  110XTA   HL2212287  28.801   4.519   6.537
  110XTA   HL2312288  28.336   4.284   5.223
  110XTA   HL2412289  28.223   4.368   5.113
  110XTA   HL2512290  28.104   4.162   5.067
  110XTA   HL2612291  28.269   4.136   5.035
  110XTA   HL2712292  28.122   4.045   5.280
  110XTA   HL2812293  28.145   3.947   5.144
  110XTA   HL2912294  28.400   3.949   5.208
  110XTA   HL3012295  28.356   4.073   5.341
  110XTA   HL3112296  28.235   3.792   5.337
  110XTA   HL3212297  28.399   3.822   5.393
  110XTA   HL3312298  28.251   3.808   5.581
  110XTA   HL3412299  28.317   3.979   5.556
  110XTA   HL3512300  28.015   3.777   5.525
  110XTA   HL3612301  28.029   3.835   5.369
  110XTA   HL3712302  27.665   3.917   5.503
  110XTA   HL3812303  27.762   3.776   5.535
  110XTA   HL3912304  27.707   3.862   5.250
  110XTA   HL4012305  27.663   3.724   5.344
  110XTA   HL4112306  27.827   3.745   5.296
  110XTA    CO812307  28.561   4.222   6.667
  110XTA    CO912308  28.466   4.413   6.795
  110XTA    OA612309  28.358   4.367   6.784
  110XTA   HL4212310  28.552   4.190   6.772
  110XTA   HL4312311  28.443   4.185   6.603
  110XTA   HL4412312  27.981   4.117   5.405
  110XTA   HL4512313  27.897   4.031   5.277
  110XTA   CO1012314  27.886   4.071   5.383
  110XTA   CO1112315  27.881   4.007   5.638
  110XTA    OA712316  27.798   4.137   5.401
  110XTA   HL4612317  27.924   3.899   5.728
  110XTA   HL4712318  27.963   4.080   5.644
  110XTA   HL4812319  28.461   4.517   6.788
  110XTA   HL4912320  28.514   4.403   6.893
  111XTA     NT12321  26.270   4.828   6.534
  111XTA    CN112322  26.223   4.823   6.664
  111XTA     C112323  26.200   4.937   6.742
  111XTA     C212324  26.154   4.927   6.876
  111XTA     C312325  26.132   4.800   6.929
  111XTA     C412326  26.152   4.684   6.849
  111XTA     C512327  26.195   4.694   6.715
  111XTA    CN212328  26.404   4.808   6.502
  111XTA     C612329  26.502   4.907   6.526
  111XTA     C712330  26.641   4.884   6.485
  111XTA     C812331  26.675   4.755   6.425
  111XTA     C912332  26.576   4.660   6.408
  111XTA    C1012333  26.444   4.684   6.449
  111XTA    CN312334  26.194   4.890   6.443
  111XTA    C1112335  26.056   4.843   6.425
  111XTA    C1212336  25.980   4.919   6.338
  111XTA    C1312337  26.024   5.028   6.266
  111XTA    C1412338  26.157   5.067   6.281
  111XTA    C1512339  26.242   5.010   6.376
  111XTA     H112340  26.217   5.041   6.712
  111XTA     H212341  26.151   5.025   6.919
  111XTA     H312342  26.127   4.582   6.877
  111XTA     H412343  26.207   4.607   6.647
  111XTA     H512344  26.477   4.997   6.571
  111XTA     H612345  26.714   4.961   6.498
  111XTA     H712346  26.611   4.568   6.357
  111XTA     H812347  26.372   4.609   6.438
  111XTA     H912348  26.021   4.754   6.469
  111XTA    H1012349  25.887   4.878   6.313
  111XTA    H1112350  26.197   5.152   6.225
  111XTA    H1212351  26.342   5.048   6.392
  111XTA    OA112352  26.075   4.787   7.052
  111XTA    CO112353  26.110   4.667   7.122
  111XTA    OA212354  26.797   4.727   6.364
  111XTA    CO212355  26.900   4.828   6.359
  111XTA    CL112356  27.006   4.770   6.266
  111XTA    CL212357  27.085   4.869   6.184
  111XTA    CL312358  27.214   4.805   6.124
  111XTA    CL412359  27.340   4.788   6.221
  111XTA    CO312360  27.407   4.925   6.260
  111XTA    OA312361  27.495   4.898   6.361
  111XTA    CO412362  27.429   4.875   6.483
  111XTA    CT112363  27.513   4.919   6.603
  111XTA    CL512364  27.445   4.886   6.736
  111XTA    CL612365  27.441   4.737   6.781
  111XTA    OA412366  25.951   5.091   6.171
  111XTA    CO512367  25.963   5.029   6.041
  111XTA    CL712368  25.910   5.126   5.941
  111XTA    CL812369  25.993   5.257   5.932
  111XTA    CL912370  25.945   5.368   5.834
  111XTA   CL1012371  25.954   5.333   5.680
  111XTA    CO612372  26.093   5.370   5.635
  111XTA    OA512373  26.175   5.257   5.654
  111XTA    CO712374  26.167   5.153   5.558
  111XTA    CT212375  26.251   5.035   5.607
  111XTA   CL1112376  26.277   5.039   5.758
  111XTA   CL1212377  26.386   4.943   5.796
  111XTA    HL112378  26.070   4.665   7.221
  111XTA    HL212379  26.062   4.581   7.063
  111XTA    HL312380  26.218   4.655   7.115
  111XTA    HL412381  26.860   4.915   6.311
  111XTA    HL512382  26.932   4.875   6.454
  111XTA    HL612383  26.953   4.715   6.187
  111XTA    HL712384  27.082   4.699   6.319
  111XTA    HL812385  27.108   4.963   6.235
  111XTA    HL912386  27.015   4.886   6.111
  111XTA   HL1012387  27.185   4.702   6.098
  111XTA   HL1112388  27.257   4.835   6.027
  111XTA   HL1212389  27.417   4.721   6.176
  111XTA   HL1312390  27.307   4.744   6.314
  111XTA   HL1412391  27.450   4.986   6.175
  111XTA   HL1512392  27.338   4.995   6.289
  111XTA   HL1612393  27.330   4.923   6.486
  111XTA   HL1712394  27.405   4.769   6.499
  111XTA   HL1812395  27.340   4.923   6.724
  111XTA   HL1912396  27.491   4.938   6.822
  111XTA   HL2012397  27.408   4.672   6.693
  111XTA   HL2112398  27.366   4.731   6.861
  111XTA   HL2212399  27.534   4.701   6.809
  111XTA   HL2312400  25.901   4.940   6.036
  111XTA   HL2412401  26.062   5.017   6.013
  111XTA   HL2512402  25.911   5.073   5.842
  111XTA   HL2612403  25.805   5.148   5.955
  111XTA   HL2712404  25.996   5.293   6.037
  111XTA   HL2812405  26.099   5.228   5.908
  111XTA   HL2912406  25.839   5.379   5.857
  111XTA   HL3012407  26.003   5.465   5.861
  111XTA   HL3112408  25.920   5.233   5.665
  111XTA   HL3212409  25.894   5.407   5.627
  111XTA   HL3312410  26.085   5.381   5.528
  111XTA   HL3412411  26.139   5.455   5.674
  111XTA   HL3512412  26.196   5.192   5.462
  111XTA   HL3612413  26.063   5.119   5.534
  111XTA   HL3712414  26.189   5.010   5.816
  111XTA   HL3812415  26.309   5.140   5.793
  111XTA   HL3912416  26.485   4.974   5.762
  111XTA   HL4012417  26.361   4.843   5.765
  111XTA   HL4112418  26.402   4.946   5.902
  111XTA    CO812419  27.531   5.077   6.585
  111XTA    CO912420  27.655   4.862   6.606
  111XTA    OA612421  27.409   5.140   6.596
  111XTA   HL4212422  27.564   5.084   6.484
  111XTA   HL4312423  27.613   5.104   6.649
  111XTA   HL4412424  26.382   5.057   5.424
  111XTA   HL4512425  26.395   4.929   5.517
  111XTA   CO1012426  26.387   5.037   5.532
  111XTA   CO1112427  26.177   4.907   5.568
  111XTA    OA712428  26.078   4.884   5.661
  111XTA   HL4612429  26.130   4.913   5.474
  111XTA   HL4712430  26.234   4.818   5.558
  111XTA   HL4812431  27.719   4.899   6.518
  111XTA   HL4912432  27.639   4.755   6.595
  112XTA     NT12433  26.210   2.797   7.400
  112XTA    CN112434  26.270   2.762   7.517
  112XTA     C112435  26.226   2.658   7.599
  112XTA     C212436  26.293   2.614   7.716
  112XTA     C312437  26.416   2.681   7.749
  112XTA     C412438  26.460   2.785   7.664
  112XTA     C512439  26.387   2.831   7.550
  112XTA    CN212440  26.221   2.708   7.300
  112XTA     C612441  26.105   2.641   7.250
  112XTA     C712442  26.121   2.543   7.148
  112XTA     C812443  26.243   2.528   7.082
  112XTA     C912444  26.357   2.586   7.134
  112XTA    C1012445  26.348   2.681   7.239
  112XTA    CN312446  26.104   2.876   7.402
  112XTA    C1112447  26.117   2.998   7.331
  112XTA    C1212448  26.006   3.092   7.324
  112XTA    C1312449  25.882   3.056   7.382
  112XTA    C1412450  25.871   2.936   7.452
  112XTA    C1512451  25.982   2.850   7.465
  112XTA     H112452  26.136   2.616   7.569
  112XTA     H212453  26.249   2.538   7.771
  112XTA     H312454  26.557   2.835   7.687
  112XTA     H412455  26.435   2.907   7.493
  112XTA     H512456  26.008   2.660   7.295
  112XTA     H612457  26.036   2.480   7.109
  112XTA     H712458  26.455   2.560   7.092
  112XTA     H812459  26.442   2.722   7.267
  112XTA     H912460  26.214   3.035   7.299
  112XTA    H1012461  26.028   3.184   7.271
  112XTA    H1112462  25.777   2.907   7.493
  112XTA    H1212463  25.962   2.762   7.514
  112XTA    OA112464  26.499   2.644   7.856
  112XTA    CO112465  26.421   2.600   7.974
  112XTA    OA212466  26.256   2.456   6.967
  112XTA    CO212467  26.171   2.494   6.853
  112XTA    CL112468  26.210   2.634   6.804
  112XTA    CL212469  26.160   2.678   6.663
  112XTA    CL312470  26.215   2.813   6.615
  112XTA    CL412471  26.367   2.833   6.630
  112XTA    CO312472  26.415   2.971   6.569
  112XTA    OA312473  26.423   2.944   6.432
  112XTA    CO412474  26.396   3.054   6.352
  112XTA    CT112475  26.416   3.016   6.199
  112XTA    CL512476  26.304   2.913   6.166
  112XTA    CL612477  26.321   2.834   6.035
  112XTA    OA412478  25.770   3.135   7.361
  112XTA    CO512479  25.783   3.265   7.301
  112XTA    CL712480  25.804   3.266   7.150
  112XTA    CL812481  25.766   3.398   7.072
  112XTA    CL912482  25.780   3.367   6.918
  112XTA   CL1012483  25.921   3.394   6.862
  112XTA    CO612484  25.927   3.359   6.710
  112XTA    OA512485  26.045   3.412   6.653
  112XTA    CO712486  26.022   3.526   6.574
  112XTA    CT212487  26.142   3.627   6.574
  112XTA   CL1112488  26.090   3.765   6.530
  112XTA   CL1212489  26.203   3.867   6.474
  112XTA    HL112490  26.483   2.580   8.061
  112XTA    HL212491  26.345   2.675   8.003
  112XTA    HL312492  26.364   2.515   7.984
  112XTA    HL412493  26.179   2.423   6.774
  112XTA    HL512494  26.069   2.508   6.891
  112XTA    HL612495  26.318   2.623   6.808
  112XTA    HL712496  26.185   2.716   6.874
  112XTA    HL812497  26.051   2.679   6.666
  112XTA    HL912498  26.188   2.603   6.586
  112XTA   HL1012499  26.190   2.827   6.512
  112XTA   HL1112500  26.164   2.898   6.668
  112XTA   HL1212501  26.419   2.758   6.569
  112XTA   HL1312502  26.396   2.835   6.735
  112XTA   HL1412503  26.332   3.037   6.607
  112XTA   HL1512504  26.510   2.987   6.609
  112XTA   HL1612505  26.293   3.083   6.360
  112XTA   HL1712506  26.466   3.133   6.387
  112XTA   HL1812507  26.211   2.967   6.174
  112XTA   HL1912508  26.296   2.844   6.245
  112XTA   HL2012509  26.314   2.897   5.950
  112XTA   HL2112510  26.241   2.763   6.027
  112XTA   HL2212511  26.424   2.790   6.031
  112XTA   HL2312512  25.861   3.314   7.355
  112XTA   HL2412513  25.690   3.311   7.324
  112XTA   HL2512514  25.906   3.231   7.119
  112XTA   HL2612515  25.733   3.196   7.103
  112XTA   HL2712516  25.661   3.422   7.102
  112XTA   HL2812517  25.822   3.485   7.097
  112XTA   HL2912518  25.746   3.271   6.895
  112XTA   HL3012519  25.716   3.434   6.862
  112XTA   HL3112520  25.939   3.499   6.871
  112XTA   HL3212521  25.986   3.328   6.926
  112XTA   HL3312522  25.927   3.252   6.703
  112XTA   HL3412523  25.835   3.403   6.670
  112XTA   HL3512524  25.930   3.582   6.606
  112XTA   HL3612525  25.995   3.479   6.475
  112XTA   HL3712526  26.046   3.811   6.618
  112XTA   HL3812527  26.011   3.743   6.460
  112XTA   HL3912528  26.187   3.968   6.507
  112XTA   HL4012529  26.227   3.855   6.369
  112XTA   HL4112530  26.302   3.852   6.518
  112XTA    CO812531  26.555   2.950   6.199
  112XTA    CO912532  26.416   3.142   6.113
  112XTA    OA612533  26.320   3.206   6.128
  112XTA   HL4212534  26.615   3.012   6.262
  112XTA   HL4312535  26.560   2.815   6.231
  112XTA   HL4412536  26.311   3.460   6.525
  112XTA   HL4512537  26.336   3.647   6.458
  112XTA   CO1012538  26.255   3.571   6.470
  112XTA   CO1112539  26.204   3.649   6.717
  112XTA    OA712540  26.311   3.676   6.711
  112XTA   HL4612541  26.152   3.724   6.773
  112XTA   HL4712542  26.196   3.567   6.789
  112XTA   HL4812543  26.414   3.108   6.006
  112XTA   HL4912544  26.498   3.210   6.142
  113XTA     NT12545  25.776   3.197   1.971
  113XTA    CN112546  25.835   3.300   1.905
  113XTA     C112547  25.876   3.292   1.771
  113XTA     C212548  25.950   3.395   1.712
  113XTA     C312549  25.989   3.509   1.784
  113XTA     C412550  25.946   3.520   1.918
  113XTA     C512551  25.867   3.417   1.977
  113XTA    CN212552  25.803   3.070   1.942
  113XTA     C612553  25.722   2.990   1.849
  113XTA     C712554  25.758   2.860   1.816
  113XTA     C812555  25.858   2.792   1.886
  113XTA     C912556  25.934   2.867   1.979
  113XTA    C1012557  25.907   3.003   2.006
  113XTA    CN312558  25.668   3.216   2.042
  113XTA    C1112559  25.541   3.218   1.982
  113XTA    C1212560  25.428   3.243   2.060
  113XTA    C1312561  25.435   3.267   2.199
  113XTA    C1412562  25.563   3.261   2.254
  113XTA    C1512563  25.675   3.239   2.179
  113XTA     H112564  25.838   3.206   1.715
  113XTA     H212565  25.983   3.375   1.610
  113XTA     H312566  25.960   3.617   1.974
  113XTA     H412567  25.828   3.438   2.077
  113XTA     H512568  25.658   3.038   1.778
  113XTA     H612569  25.692   2.816   1.740
  113XTA     H712570  26.020   2.817   2.017
  113XTA     H812571  25.962   3.071   2.068
  113XTA     H912572  25.534   3.208   1.869
  113XTA    H1012573  25.334   3.249   2.017
  113XTA    H1112574  25.576   3.276   2.359
  113XTA    H1212575  25.764   3.234   2.236
  113XTA    OA112576  26.064   3.615   1.732
  113XTA    CO112577  26.140   3.589   1.614
  113XTA    OA212578  25.888   2.660   1.856
  113XTA    CO212579  25.914   2.638   1.714
  113XTA    CL112580  25.934   2.489   1.696
  113XTA    CL212581  25.980   2.457   1.555
  113XTA    CL312582  26.052   2.325   1.540
  113XTA    CL412583  26.194   2.327   1.602
  113XTA    CO312584  26.294   2.424   1.530
  113XTA    OA312585  26.417   2.413   1.603
  113XTA    CO412586  26.491   2.297   1.574
  113XTA    CT112587  26.621   2.277   1.659
  113XTA    CL512588  26.690   2.409   1.707
  113XTA    CL612589  26.726   2.523   1.604
  113XTA    OA412590  25.322   3.305   2.264
  113XTA    CO512591  25.323   3.289   2.405
  113XTA    CL712592  25.185   3.292   2.464
  113XTA    CL812593  25.115   3.163   2.420
  113XTA    CL912594  25.091   3.131   2.271
  113XTA   CL1012595  25.019   2.999   2.242
  113XTA    CO612596  25.005   2.990   2.092
  113XTA    OA512597  25.130   2.969   2.024
  113XTA    CO712598  25.156   2.834   2.008
  113XTA    CT212599  25.310   2.812   2.022
  113XTA   CL1112600  25.391   2.888   1.917
  113XTA   CL1212601  25.390   2.841   1.769
  113XTA    HL112602  26.194   3.498   1.629
  113XTA    HL212603  26.086   3.577   1.522
  113XTA    HL312604  26.220   3.665   1.586
  113XTA    HL412605  25.828   2.674   1.660
  113XTA    HL512606  25.995   2.710   1.685
  113XTA    HL612607  25.855   2.425   1.728
  113XTA    HL712608  26.032   2.463   1.747
  113XTA    HL812609  26.042   2.537   1.516
  113XTA    HL912610  25.892   2.462   1.491
  113XTA   HL1012611  25.984   2.266   1.596
  113XTA   HL1112612  26.050   2.282   1.436
  113XTA   HL1212613  26.219   2.225   1.590
  113XTA   HL1312614  26.185   2.356   1.707
  113XTA   HL1412615  26.308   2.420   1.417
  113XTA   HL1512616  26.257   2.527   1.546
  113XTA   HL1612617  26.429   2.209   1.583
  113XTA   HL1712618  26.517   2.301   1.471
  113XTA   HL1812619  26.778   2.382   1.759
  113XTA   HL1912620  26.628   2.458   1.789
  113XTA   HL2012621  26.656   2.548   1.531
  113XTA   HL2112622  26.814   2.489   1.552
  113XTA   HL2212623  26.741   2.619   1.660
  113XTA   HL2312624  25.380   3.373   2.441
  113XTA   HL2412625  25.383   3.199   2.436
  113XTA   HL2512626  25.174   3.302   2.571
  113XTA   HL2612627  25.139   3.383   2.432
  113XTA   HL2712628  25.157   3.072   2.459
  113XTA   HL2812629  25.017   3.173   2.477
  113XTA   HL2912630  25.028   3.211   2.237
  113XTA   HL3012631  25.182   3.119   2.214
  113XTA   HL3112632  25.080   2.911   2.277
  113XTA   HL3212633  24.916   2.995   2.273
  113XTA   HL3312634  24.931   2.918   2.059
  113XTA   HL3412635  24.979   3.090   2.059
  113XTA   HL3512636  25.124   2.797   1.909
  113XTA   HL3612637  25.102   2.775   2.081
  113XTA   HL3712638  25.491   2.899   1.959
  113XTA   HL3812639  25.362   2.996   1.920
  113XTA   HL3912640  25.433   2.746   1.756
  113XTA   HL4012641  25.453   2.906   1.708
  113XTA   HL4112642  25.290   2.851   1.718
  113XTA    CO812643  26.726   2.199   1.571
  113XTA    CO912644  26.591   2.185   1.779
  113XTA    OA612645  26.525   2.241   1.847
  113XTA   HL4212646  26.758   2.258   1.491
  113XTA   HL4312647  26.829   2.151   1.650
  113XTA   HL4412648  25.299   2.609   1.931
  113XTA   HL4512649  25.443   2.654   2.021
  113XTA   CO1012650  25.335   2.664   2.017
  113XTA   CO1112651  25.356   2.859   2.161
  113XTA    OA712652  25.283   2.617   2.106
  113XTA   HL4612653  25.334   2.998   2.161
  113XTA   HL4712654  25.284   2.825   2.241
  113XTA   HL4812655  26.678   2.160   1.843
  113XTA   HL4912656  26.558   2.087   1.739
  114XTA     NT12657  26.575   3.589   0.664
  114XTA    CN112658  26.470   3.652   0.610
  114XTA     C112659  26.353   3.652   0.690
  114XTA     C212660  26.231   3.690   0.631
  114XTA     C312661  26.218   3.746   0.506
  114XTA     C412662  26.338   3.750   0.424
  114XTA     C512663  26.460   3.701   0.477
  114XTA    CN212664  26.547   3.466   0.716
  114XTA     C612665  26.541   3.351   0.628
  114XTA     C712666  26.529   3.219   0.684
  114XTA     C812667  26.540   3.200   0.826
  114XTA     C912668  26.550   3.310   0.910
  114XTA    C1012669  26.553   3.442   0.857
  114XTA    CN312670  26.702   3.642   0.642
  114XTA    C1112671  26.764   3.627   0.521
  114XTA    C1212672  26.889   3.685   0.498
  114XTA    C1312673  26.949   3.767   0.599
  114XTA    C1412674  26.880   3.783   0.722
  114XTA    C1512675  26.763   3.720   0.746
  114XTA     H112676  26.356   3.613   0.790
  114XTA     H212677  26.153   3.698   0.704
  114XTA     H312678  26.336   3.793   0.326
  114XTA     H412679  26.540   3.703   0.408
  114XTA     H512680  26.546   3.364   0.515
  114XTA     H612681  26.508   3.127   0.630
  114XTA     H712682  26.560   3.308   1.020
  114XTA     H812683  26.573   3.518   0.934
  114XTA     H912684  26.730   3.568   0.436
  114XTA    H1012685  26.936   3.669   0.403
  114XTA    H1112686  26.928   3.842   0.797
  114XTA    H1212687  26.716   3.738   0.844
  114XTA    OA112688  26.093   3.794   0.463
  114XTA    CO112689  26.075   3.837   0.327
  114XTA    OA212690  26.517   3.072   0.869
  114XTA    CO212691  26.603   3.027   0.973
  114XTA    CL112692  26.612   2.874   0.969
  114XTA    CL212693  26.668   2.820   1.095
  114XTA    CL312694  26.721   2.673   1.086
  114XTA    CL412695  26.632   2.563   1.032
  114XTA    CO312696  26.665   2.539   0.890
  114XTA    OA312697  26.558   2.476   0.833
  114XTA    CO412698  26.576   2.464   0.689
  114XTA    CT112699  26.474   2.562   0.613
  114XTA    CL512700  26.468   2.513   0.468
  114XTA    CL612701  26.399   2.383   0.430
  114XTA    OA412702  27.066   3.837   0.574
  114XTA    CO512703  27.161   3.839   0.677
  114XTA    CL712704  27.161   3.981   0.735
  114XTA    CL812705  27.246   3.999   0.866
  114XTA    CL912706  27.202   4.124   0.938
  114XTA   CL1012707  27.063   4.110   1.007
  114XTA    CO612708  27.075   4.204   1.132
  114XTA    OA512709  26.974   4.175   1.218
  114XTA    CO712710  27.008   4.063   1.304
  114XTA    CT212711  26.888   4.005   1.389
  114XTA   CL1112712  26.755   4.003   1.300
  114XTA   CL1212713  26.755   3.893   1.188
  114XTA    HL112714  25.975   3.868   0.312
  114XTA    HL212715  26.150   3.905   0.293
  114XTA    HL312716  26.088   3.746   0.274
  114XTA    HL412717  26.707   3.074   0.969
  114XTA    HL512718  26.558   3.044   1.066
  114XTA    HL612719  26.666   2.841   0.875
  114XTA    HL712720  26.512   2.833   0.972
  114XTA    HL812721  26.592   2.817   1.162
  114XTA    HL912722  26.747   2.874   1.149
  114XTA   HL1012723  26.821   2.667   1.035
  114XTA   HL1112724  26.742   2.633   1.184
  114XTA   HL1212725  26.527   2.582   1.055
  114XTA   HL1312726  26.653   2.473   1.085
  114XTA   HL1412727  26.675   2.635   0.842
  114XTA   HL1512728  26.754   2.472   0.879
  114XTA   HL1612729  26.677   2.487   0.657
  114XTA   HL1712730  26.559   2.358   0.668
  114XTA   HL1812731  26.562   2.522   0.411
  114XTA   HL1912732  26.401   2.581   0.413
  114XTA   HL2012733  26.400   2.378   0.317
  114XTA   HL2112734  26.301   2.385   0.465
  114XTA   HL2212735  26.445   2.296   0.471
  114XTA   HL2312736  27.258   3.824   0.634
  114XTA   HL2412737  27.152   3.764   0.754
  114XTA   HL2512738  27.188   4.065   0.657
  114XTA   HL2612739  27.059   4.007   0.757
  114XTA   HL2712740  27.235   3.920   0.942
  114XTA   HL2812741  27.349   4.004   0.837
  114XTA   HL2912742  27.280   4.147   1.015
  114XTA   HL3012743  27.210   4.200   0.866
  114XTA   HL3112744  26.980   4.135   0.943
  114XTA   HL3212745  27.045   4.009   1.025
  114XTA   HL3312746  27.170   4.206   1.174
  114XTA   HL3412747  27.064   4.303   1.088
  114XTA   HL3512748  27.082   4.102   1.370
  114XTA   HL3612749  27.057   3.982   1.249
  114XTA   HL3712750  26.729   4.102   1.259
  114XTA   HL3812751  26.675   3.979   1.371
  114XTA   HL3912752  26.844   3.910   1.129
  114XTA   HL4012753  26.670   3.905   1.121
  114XTA   HL4112754  26.761   3.795   1.218
  114XTA    CO812755  26.507   2.709   0.618
  114XTA    CO912756  26.333   2.552   0.680
  114XTA    OA612757  26.614   2.709   0.574
  114XTA   HL4212758  26.507   2.742   0.723
  114XTA   HL4312759  26.433   2.768   0.559
  114XTA   HL4412760  26.807   4.052   1.577
  114XTA   HL4512761  26.990   4.092   1.567
  114XTA   CO1012762  26.868   4.096   1.507
  114XTA   CO1112763  26.922   3.862   1.437
  114XTA    OA712764  26.950   3.795   1.349
  114XTA   HL4612765  27.004   3.872   1.509
  114XTA   HL4712766  26.845   3.817   1.492
  114XTA   HL4812767  26.302   2.424   0.724
  114XTA   HL4912768  26.259   2.569   0.598
  115XTA     NT12769  28.594   5.388  -0.605
  115XTA    CN112770  28.600   5.252  -0.636
  115XTA     C112771  28.479   5.186  -0.663
  115XTA     C212772  28.469   5.050  -0.695
  115XTA     C312773  28.577   4.964  -0.689
  115XTA     C412774  28.701   5.028  -0.669
  115XTA     C512775  28.715   5.170  -0.646
  115XTA    CN212776  28.572   5.423  -0.472
  115XTA     C612777  28.659   5.368  -0.372
  115XTA     C712778  28.634   5.401  -0.243
  115XTA     C812779  28.538   5.495  -0.200
  115XTA     C912780  28.456   5.553  -0.298
  115XTA    C1012781  28.474   5.519  -0.433
  115XTA    CN312782  28.669   5.478  -0.668
  115XTA    C1112783  28.612   5.572  -0.762
  115XTA    C1212784  28.684   5.676  -0.819
  115XTA    C1312785  28.821   5.685  -0.787
  115XTA    C1412786  28.888   5.585  -0.710
  115XTA    C1512787  28.807   5.482  -0.651
  115XTA     H112788  28.394   5.248  -0.671
  115XTA     H212789  28.375   5.006  -0.714
  115XTA     H312790  28.785   4.963  -0.658
  115XTA     H412791  28.823   5.194  -0.641
  115XTA     H512792  28.742   5.315  -0.410
  115XTA     H612793  28.698   5.355  -0.170
  115XTA     H712794  28.374   5.619  -0.281
  115XTA     H812795  28.408   5.548  -0.518
  115XTA     H912796  28.507   5.566  -0.777
  115XTA    H1012797  28.638   5.745  -0.891
  115XTA    H1112798  28.986   5.588  -0.690
  115XTA    H1212799  28.858   5.414  -0.583
  115XTA    OA112800  28.555   4.831  -0.688
  115XTA    CO112801  28.643   4.742  -0.616
  115XTA    OA212802  28.531   5.540  -0.068
  115XTA    CO212803  28.604   5.470   0.027
  115XTA    CL112804  28.578   5.534   0.162
  115XTA    CL212805  28.680   5.491   0.263
  115XTA    CL312806  28.641   5.529   0.396
  115XTA    CL412807  28.614   5.683   0.416
  115XTA    CO312808  28.724   5.783   0.362
  115XTA    OA312809  28.668   5.913   0.360
  115XTA    CO412810  28.620   5.959   0.233
  115XTA    CT112811  28.549   6.093   0.237
  115XTA    CL512812  28.637   6.199   0.301
  115XTA    CL612813  28.782   6.209   0.257
  115XTA    OA412814  28.903   5.786  -0.833
  115XTA    CO512815  28.849   5.910  -0.836
  115XTA    CL712816  28.962   6.000  -0.772
  115XTA    CL812817  28.918   6.138  -0.718
  115XTA    CL912818  28.795   6.136  -0.627
  115XTA   CL1012819  28.832   6.047  -0.506
  115XTA    CO612820  28.712   6.024  -0.410
  115XTA    OA512821  28.656   6.143  -0.356
  115XTA    CO712822  28.737   6.210  -0.270
  115XTA    CT212823  28.666   6.323  -0.197
  115XTA   CL1112824  28.614   6.414  -0.309
  115XTA   CL1212825  28.503   6.512  -0.261
  115XTA    HL112826  28.610   4.639  -0.636
  115XTA    HL212827  28.744   4.751  -0.645
  115XTA    HL312828  28.634   4.752  -0.508
  115XTA    HL412829  28.596   5.364   0.020
  115XTA    HL512830  28.710   5.491  -0.001
  115XTA    HL612831  28.480   5.496   0.201
  115XTA    HL712832  28.585   5.643   0.156
  115XTA    HL812833  28.782   5.510   0.228
  115XTA    HL912834  28.677   5.380   0.269
  115XTA   HL1012835  28.562   5.463   0.421
  115XTA   HL1112836  28.708   5.502   0.477
  115XTA   HL1212837  28.579   5.706   0.515
  115XTA   HL1312838  28.529   5.714   0.350
  115XTA   HL1412839  28.807   5.782   0.438
  115XTA   HL1512840  28.789   5.743   0.280
  115XTA   HL1612841  28.710   5.960   0.174
  115XTA   HL1712842  28.557   5.883   0.189
  115XTA   HL1812843  28.650   6.177   0.409
  115XTA   HL1912844  28.577   6.290   0.284
  115XTA   HL2012845  28.833   6.304   0.296
  115XTA   HL2112846  28.786   6.213   0.151
  115XTA   HL2212847  28.829   6.115   0.287
  115XTA   HL2312848  28.760   5.921  -0.775
  115XTA   HL2412849  28.828   5.942  -0.946
  115XTA   HL2512850  29.024   5.951  -0.694
  115XTA   HL2612851  29.030   6.007  -0.861
  115XTA   HL2712852  29.006   6.178  -0.668
  115XTA   HL2812853  28.890   6.204  -0.805
  115XTA   HL2912854  28.762   6.231  -0.583
  115XTA   HL3012855  28.706   6.094  -0.671
  115XTA   HL3112856  28.867   5.954  -0.538
  115XTA   HL3212857  28.908   6.097  -0.445
  115XTA   HL3312858  28.638   5.976  -0.472
  115XTA   HL3412859  28.738   5.959  -0.334
  115XTA   HL3512860  28.818   6.241  -0.337
  115XTA   HL3612861  28.798   6.147  -0.211
  115XTA   HL3712862  28.559   6.353  -0.384
  115XTA   HL3812863  28.692   6.471  -0.360
  115XTA   HL3912864  28.481   6.585  -0.341
  115XTA   HL4012865  28.535   6.563  -0.171
  115XTA   HL4112866  28.420   6.448  -0.235
  115XTA    CO812867  28.422   6.073   0.317
  115XTA    CO912868  28.492   6.143   0.097
  115XTA    OA612869  28.595   6.180   0.009
  115XTA   HL4212870  28.442   6.049   0.417
  115XTA   HL4312871  28.373   6.162   0.330
  115XTA   HL4412872  28.826   6.328  -0.054
  115XTA   HL4512873  28.844   6.426  -0.198
  115XTA   CO1012874  28.777   6.395  -0.123
  115XTA   CO1112875  28.560   6.268  -0.099
  115XTA    OA712876  28.758   6.515  -0.052
  115XTA   HL4612877  28.481   6.215  -0.157
  115XTA   HL4712878  28.520   6.364  -0.064
  115XTA   HL4812879  28.417   6.220   0.111
  115XTA   HL4912880  28.430   6.073   0.051
  116XTA     NT12881  26.674   3.808   2.056
  116XTA    CN112882  26.743   3.912   2.099
  116XTA     C112883  26.698   3.973   2.220
  116XTA     C212884  26.775   4.084   2.276
  116XTA     C312885  26.901   4.122   2.223
  116XTA     C412886  26.949   4.047   2.114
  116XTA     C512887  26.870   3.949   2.054
  116XTA    CN212888  26.643   3.793   1.928
  116XTA     C612889  26.726   3.721   1.841
  116XTA     C712890  26.690   3.703   1.712
  116XTA     C812891  26.568   3.757   1.666
  116XTA     C912892  26.486   3.836   1.748
  116XTA    C1012893  26.522   3.852   1.881
  116XTA    CN312894  26.655   3.708   2.140
  116XTA    C1112895  26.760   3.609   2.157
  116XTA    C1212896  26.730   3.502   2.234
  116XTA    C1312897  26.609   3.479   2.293
  116XTA    C1412898  26.505   3.578   2.276
  116XTA    C1512899  26.525   3.687   2.190
  116XTA     H112900  26.607   3.957   2.275
  116XTA     H212901  26.740   4.134   2.361
  116XTA     H312902  27.045   4.079   2.069
  116XTA     H412903  26.908   3.915   1.961
  116XTA     H512904  26.814   3.672   1.884
  116XTA     H612905  26.752   3.652   1.647
  116XTA     H712906  26.396   3.880   1.717
  116XTA     H812907  26.449   3.906   1.944
  116XTA     H912908  26.861   3.621   2.109
  116XTA    H1012909  26.808   3.433   2.263
  116XTA    H1112910  26.408   3.566   2.322
  116XTA    H1212911  26.450   3.755   2.171
  116XTA    OA112912  26.959   4.226   2.284
  116XTA    CO112913  27.088   4.261   2.231
  116XTA    OA212914  26.517   3.734   1.541
  116XTA    CO212915  26.589   3.631   1.475
  116XTA    CL112916  26.529   3.579   1.343
  116XTA    CL212917  26.607   3.472   1.265
  116XTA    CL312918  26.618   3.333   1.335
  116XTA    CL412919  26.720   3.247   1.264
  116XTA    CO312920  26.861   3.277   1.306
  116XTA    OA312921  26.902   3.409   1.266
  116XTA    CO412922  27.040   3.437   1.281
  116XTA    CT112923  27.069   3.588   1.253
  116XTA    CL512924  27.005   3.636   1.120
  116XTA    CL612925  27.051   3.585   0.985
  116XTA    OA412926  26.604   3.374   2.385
  116XTA    CO512927  26.493   3.362   2.473
  116XTA    CL712928  26.514   3.463   2.584
  116XTA    CL812929  26.433   3.432   2.719
  116XTA    CL912930  26.386   3.562   2.781
  116XTA   CL1012931  26.312   3.532   2.912
  116XTA    CO612932  26.244   3.654   2.981
  116XTA    OA512933  26.171   3.612   3.099
  116XTA    CO712934  26.039   3.567   3.062
  116XTA    CT212935  25.969   3.466   3.152
  116XTA   CL1112936  26.056   3.340   3.160
  116XTA   CL1212937  26.058   3.251   3.038
  116XTA    HL112938  27.075   4.306   2.135
  116XTA    HL212939  27.142   4.332   2.286
  116XTA    HL312940  27.160   4.178   2.217
  116XTA    HL412941  26.692   3.671   1.461
  116XTA    HL512942  26.586   3.545   1.541
  116XTA    HL612943  26.530   3.669   1.279
  116XTA    HL712944  26.428   3.550   1.347
  116XTA    HL812945  26.705   3.515   1.243
  116XTA    HL912946  26.550   3.454   1.172
  116XTA   HL1012947  26.631   3.345   1.439
  116XTA   HL1112948  26.524   3.280   1.331
  116XTA   HL1212949  26.717   3.246   1.156
  116XTA   HL1312950  26.701   3.146   1.298
  116XTA   HL1412951  26.864   3.268   1.413
  116XTA   HL1512952  26.934   3.214   1.254
  116XTA   HL1612953  27.077   3.416   1.386
  116XTA   HL1712954  27.091   3.366   1.218
  116XTA   HL1812955  27.009   3.749   1.120
  116XTA   HL1912956  26.906   3.608   1.119
  116XTA   HL2012957  26.983   3.622   0.905
  116XTA   HL2112958  27.046   3.482   0.968
  116XTA   HL2212959  27.148   3.633   0.967
  116XTA   HL2312960  26.495   3.264   2.525
  116XTA   HL2412961  26.392   3.382   2.437
  116XTA   HL2512962  26.621   3.476   2.602
  116XTA   HL2612963  26.482   3.556   2.542
  116XTA   HL2712964  26.345   3.375   2.689
  116XTA   HL2812965  26.489   3.372   2.791
  116XTA   HL2912966  26.478   3.624   2.799
  116XTA   HL3012967  26.320   3.614   2.720
  116XTA   HL3112968  26.238   3.453   2.894
  116XTA   HL3212969  26.376   3.476   2.985
  116XTA   HL3312970  26.314   3.729   3.014
  116XTA   HL3412971  26.173   3.711   2.919
  116XTA   HL3512972  26.038   3.518   2.963
  116XTA   HL3612973  25.983   3.658   3.051
  116XTA   HL3712974  26.011   3.275   3.234
  116XTA   HL3812975  26.161   3.364   3.180
  116XTA   HL3912976  25.956   3.224   3.008
  116XTA   HL4012977  26.132   3.172   3.061
  116XTA   HL4112978  26.102   3.304   2.952
  116XTA    CO812979  27.221   3.609   1.263
  116XTA    CO912980  27.021   3.682   1.371
  116XTA    OA612981  27.268   3.549   1.185
  116XTA   HL4212982  27.256   3.576   1.361
  116XTA   HL4312983  27.232   3.712   1.245
  116XTA   HL4412984  25.821   3.400   3.016
  116XTA   HL4512985  25.771   3.379   3.175
  116XTA   CO1012986  25.827   3.448   3.105
  116XTA   CO1112987  25.964   3.536   3.292
  116XTA    OA712988  25.771   3.578   3.108
  116XTA   HL4612989  26.067   3.518   3.338
  116XTA   HL4712990  25.958   3.640   3.286
  116XTA   HL4812991  27.126   3.702   1.463
  116XTA   HL4912992  26.943   3.624   1.424
  117XTA     NT12993  24.320   3.007   2.086
  117XTA    CN112994  24.320   3.103   1.992
  117XTA     C112995  24.363   3.229   2.033
  117XTA     C212996  24.349   3.336   1.941
  117XTA     C312997  24.280   3.319   1.823
  117XTA     C412998  24.244   3.186   1.780
  117XTA     C512999  24.267   3.078   1.860
  117XTA    CN213000  24.416   2.915   2.083
  117XTA     C613001  24.398   2.789   2.022
  117XTA     C713002  24.503   2.694   2.021
  117XTA     C813003  24.626   2.722   2.084
  117XTA     C913004  24.646   2.854   2.137
  117XTA    C1013005  24.546   2.949   2.132
  117XTA    CN313006  24.238   3.008   2.195
  117XTA    C1113007  24.118   2.944   2.185
  117XTA    C1213008  24.027   2.947   2.289
  117XTA    C1313009  24.060   3.017   2.410
  117XTA    C1413010  24.184   3.078   2.424
  117XTA    C1513011  24.274   3.077   2.316
  117XTA     H113012  24.412   3.244   2.131
  117XTA     H213013  24.385   3.432   1.979
  117XTA     H313014  24.196   3.177   1.682
  117XTA     H413015  24.244   2.985   1.821
  117XTA     H513016  24.309   2.761   1.976
  117XTA     H613017  24.483   2.597   1.982
  117XTA     H713018  24.736   2.882   2.193
  117XTA     H813019  24.551   3.050   2.180
  117XTA     H913020  24.108   2.887   2.099
  117XTA    H1013021  23.935   2.896   2.270
  117XTA    H1113022  24.216   3.117   2.510
  117XTA    H1213023  24.373   3.109   2.324
  117XTA    OA113024  24.254   3.425   1.735
  117XTA    CO113025  24.219   3.552   1.793
  117XTA    OA213026  24.724   2.626   2.094
  117XTA    CO213027  24.704   2.501   2.023
  117XTA    CL113028  24.837   2.417   2.040
  117XTA    CL213029  24.817   2.266   1.995
  117XTA    CL313030  24.955   2.193   2.004
  117XTA    CL413031  24.981   2.151   2.146
  117XTA    CO313032  25.133   2.117   2.178
  117XTA    OA313033  25.214   2.229   2.158
  117XTA    CO413034  25.179   2.338   2.253
  117XTA    CT113035  25.288   2.441   2.291
  117XTA    CL513036  25.396   2.381   2.377
  117XTA    CL613037  25.464   2.250   2.333
  117XTA    OA413038  23.970   3.013   2.517
  117XTA    CO513039  23.995   3.068   2.646
  117XTA    CL713040  23.887   3.004   2.732
  117XTA    CL813041  23.890   2.850   2.749
  117XTA    CL913042  23.795   2.793   2.854
  117XTA   CL1013043  23.822   2.642   2.874
  117XTA    CO613044  23.747   2.593   2.999
  117XTA    OA513045  23.743   2.455   3.012
  117XTA    CO713046  23.875   2.401   3.008
  117XTA    CT213047  23.882   2.255   3.068
  117XTA   CL1113048  23.786   2.157   2.996
  117XTA   CL1213049  23.791   2.155   2.846
  117XTA    HL113050  24.193   3.543   1.899
  117XTA    HL213051  24.296   3.628   1.767
  117XTA    HL313052  24.127   3.584   1.744
  117XTA    HL413053  24.611   2.451   2.062
  117XTA    HL513054  24.702   2.522   1.917
  117XTA    HL613055  24.866   2.425   2.146
  117XTA    HL713056  24.915   2.463   1.985
  117XTA    HL813057  24.788   2.278   1.885
  117XTA    HL913058  24.742   2.213   2.052
  117XTA   HL1013059  24.947   2.100   1.942
  117XTA   HL1113060  25.033   2.253   1.958
  117XTA   HL1213061  24.913   2.075   2.185
  117XTA   HL1313062  24.955   2.246   2.195
  117XTA   HL1413063  25.150   2.082   2.285
  117XTA   HL1513064  25.156   2.036   2.118
  117XTA   HL1613065  25.102   2.398   2.196
  117XTA   HL1713066  25.143   2.289   2.341
  117XTA   HL1813067  25.354   2.363   2.478
  117XTA   HL1913068  25.477   2.444   2.390
  117XTA   HL2013069  25.476   2.243   2.226
  117XTA   HL2113070  25.389   2.171   2.367
  117XTA   HL2213071  25.558   2.225   2.382
  117XTA   HL2313072  23.987   3.175   2.641
  117XTA   HL2413073  24.091   3.036   2.679
  117XTA   HL2513074  23.891   3.036   2.838
  117XTA   HL2613075  23.790   3.024   2.685
  117XTA   HL2713076  23.855   2.799   2.656
  117XTA   HL2813077  23.989   2.823   2.773
  117XTA   HL2913078  23.808   2.838   2.952
  117XTA   HL3013079  23.692   2.807   2.824
  117XTA   HL3113080  23.781   2.586   2.791
  117XTA   HL3213081  23.932   2.628   2.885
  117XTA   HL3313082  23.788   2.637   3.095
  117XTA   HL3413083  23.649   2.638   3.005
  117XTA   HL3513084  23.948   2.457   3.073
  117XTA   HL3613085  23.922   2.395   2.907
  117XTA   HL3713086  23.680   2.179   3.016
  117XTA   HL3813087  23.805   2.050   3.020
  117XTA   HL3913088  23.719   2.085   2.816
  117XTA   HL4013089  23.886   2.125   2.816
  117XTA   HL4113090  23.770   2.255   2.798
  117XTA    CO813091  25.218   2.558   2.372
  117XTA    CO913092  25.336   2.496   2.159
  117XTA    OA613093  25.150   2.520   2.448
  117XTA   HL4213094  25.155   2.621   2.300
  117XTA   HL4313095  25.296   2.629   2.405
  117XTA   HL4413096  23.762   2.330   3.230
  117XTA   HL4513097  23.857   2.173   3.249
  117XTA   CO1013098  23.854   2.272   3.214
  117XTA   CO1113099  24.033   2.211   3.056
  117XTA    OA713100  23.933   2.336   3.272
  117XTA   HL4613101  24.129   2.298   3.125
  117XTA   HL4713102  24.047   2.120   3.110
  117XTA   HL4813103  25.319   2.403   2.066
  117XTA   HL4913104  25.448   2.505   2.174
  118XTA     NT13105  28.553   3.078   2.994
  118XTA    CN113106  28.592   3.199   3.035
  118XTA     C113107  28.656   3.286   2.945
  118XTA     C213108  28.698   3.414   2.995
  118XTA     C313109  28.668   3.460   3.117
  118XTA     C413110  28.605   3.375   3.208
  118XTA     C513111  28.569   3.240   3.167
  118XTA    CN213112  28.434   3.057   2.923
  118XTA     C613113  28.432   3.073   2.783
  118XTA     C713114  28.309   3.054   2.711
  118XTA     C813115  28.190   3.020   2.782
  118XTA     C913116  28.193   3.014   2.919
  118XTA    C1013117  28.314   3.020   2.987
  118XTA    CN313118  28.623   2.966   3.030
  118XTA    C1113119  28.620   2.936   3.165
  118XTA    C1213120  28.689   2.822   3.212
  118XTA    C1313121  28.759   2.740   3.122
  118XTA    C1413122  28.751   2.769   2.983
  118XTA    C1513123  28.679   2.880   2.936
  118XTA     H113124  28.679   3.251   2.849
  118XTA     H213125  28.760   3.474   2.926
  118XTA     H313126  28.569   3.404   3.305
  118XTA     H413127  28.514   3.176   3.232
  118XTA     H513128  28.518   3.113   2.731
  118XTA     H613129  28.303   3.082   2.603
  118XTA     H713130  28.120   2.983   2.992
  118XTA     H813131  28.323   2.989   3.088
  118XTA     H913132  28.552   2.993   3.230
  118XTA    H1013133  28.685   2.799   3.322
  118XTA    H1113134  28.794   2.701   2.910
  118XTA    H1213135  28.672   2.908   2.833
  118XTA    OA113136  28.701   3.589   3.150
  118XTA    CO113137  28.637   3.641   3.268
  118XTA    OA213138  28.069   3.005   2.728
  118XTA    CO213139  28.041   3.022   2.586
  118XTA    CL113140  27.973   3.161   2.564
  118XTA    CL213141  28.089   3.266   2.547
  118XTA    CL313142  28.025   3.411   2.538
  118XTA    CL413143  27.970   3.444   2.398
  118XTA    CO313144  27.928   3.590   2.396
  118XTA    OA313145  27.834   3.619   2.496
  118XTA    CO413146  27.830   3.763   2.511
  118XTA    CT113147  27.707   3.786   2.603
  118XTA    CL513148  27.697   3.939   2.616
  118XTA    CL613149  27.575   3.991   2.696
  118XTA    OA413150  28.826   2.630   3.174
  118XTA    CO513151  28.880   2.528   3.096
  118XTA    CL713152  28.892   2.398   3.168
  118XTA    CL813153  28.767   2.308   3.178
  118XTA    CL913154  28.662   2.343   3.294
  118XTA   CL1013155  28.567   2.436   3.220
  118XTA    CO613156  28.472   2.525   3.301
  118XTA    OA513157  28.379   2.577   3.207
  118XTA    CO713158  28.253   2.628   3.249
  118XTA    CT213159  28.149   2.530   3.208
  118XTA   CL1113160  28.139   2.534   3.054
  118XTA   CL1213161  28.106   2.665   2.981
  118XTA    HL113162  28.650   3.582   3.359
  118XTA    HL213163  28.672   3.745   3.288
  118XTA    HL313164  28.527   3.651   3.238
  118XTA    HL413165  28.120   2.999   2.520
  118XTA    HL513166  27.958   2.960   2.573
  118XTA    HL613167  27.911   3.190   2.650
  118XTA    HL713168  27.907   3.145   2.480
  118XTA    HL813169  28.162   3.250   2.462
  118XTA    HL913170  28.154   3.261   2.635
  118XTA   HL1013171  27.964   3.435   2.624
  118XTA   HL1113172  28.105   3.475   2.555
  118XTA   HL1213173  27.886   3.381   2.378
  118XTA   HL1313174  28.039   3.433   2.315
  118XTA   HL1413175  28.014   3.658   2.416
  118XTA   HL1513176  27.892   3.618   2.297
  118XTA   HL1613177  27.920   3.799   2.560
  118XTA   HL1713178  27.820   3.800   2.410
  118XTA   HL1813179  27.685   3.979   2.508
  118XTA   HL1913180  27.794   3.974   2.659
  118XTA   HL2013181  27.481   3.948   2.652
  118XTA   HL2113182  27.565   4.097   2.700
  118XTA   HL2213183  27.578   3.941   2.792
  118XTA   HL2313184  28.969   2.551   3.046
  118XTA   HL2413185  28.798   2.516   3.023
  118XTA   HL2513186  28.970   2.342   3.115
  118XTA   HL2613187  28.916   2.421   3.271
  118XTA   HL2713188  28.733   2.291   3.074
  118XTA   HL2813189  28.804   2.207   3.200
  118XTA   HL2913190  28.621   2.250   3.328
  118XTA   HL3013191  28.720   2.387   3.373
  118XTA   HL3113192  28.630   2.497   3.158
  118XTA   HL3213193  28.512   2.375   3.156
  118XTA   HL3313194  28.416   2.458   3.373
  118XTA   HL3413195  28.529   2.609   3.360
  118XTA   HL3513196  28.232   2.724   3.205
  118XTA   HL3613197  28.245   2.647   3.359
  118XTA   HL3713198  28.065   2.454   3.021
  118XTA   HL3813199  28.233   2.501   3.013
  118XTA   HL3913200  28.036   2.731   3.043
  118XTA   HL4013201  28.057   2.665   2.875
  118XTA   HL4113202  28.197   2.730   2.966
  118XTA    CO813203  27.723   3.724   2.741
  118XTA    CO913204  27.575   3.731   2.546
  118XTA    OA613205  27.534   3.787   2.465
  118XTA   HL4213206  27.631   3.715   2.796
  118XTA   HL4313207  27.746   3.585   2.702
  118XTA   HL4413208  28.007   2.513   3.405
  118XTA   HL4513209  27.935   2.542   3.225
  118XTA   CO1013210  28.022   2.580   3.279
  118XTA   CO1113211  28.189   2.393   3.272
  118XTA    OA713212  28.106   2.311   3.270
  118XTA   HL4613213  28.285   2.359   3.232
  118XTA   HL4713214  28.207   2.417   3.372
  118XTA   HL4813215  27.499   3.723   2.629
  118XTA   HL4913216  27.590   3.628   2.519
  119XTA     NT13217  28.679   6.366   5.060
  119XTA    CN113218  28.612   6.335   5.177
  119XTA     C113219  28.482   6.285   5.169
  119XTA     C213220  28.416   6.240   5.288
  119XTA     C313221  28.484   6.253   5.411
  119XTA     C413222  28.608   6.321   5.423
  119XTA     C513223  28.666   6.356   5.306
  119XTA    CN213224  28.738   6.483   5.040
  119XTA     C613225  28.876   6.487   5.018
  119XTA     C713226  28.937   6.610   4.985
  119XTA     C813227  28.862   6.733   4.980
  119XTA     C913228  28.722   6.726   5.004
  119XTA    C1013229  28.661   6.600   5.033
  119XTA    CN313230  28.729   6.259   4.997
  119XTA    C1113231  28.685   6.224   4.865
  119XTA    C1213232  28.733   6.106   4.802
  119XTA    C1313233  28.829   6.032   4.866
  119XTA    C1413234  28.879   6.069   4.995
  119XTA    C1513235  28.836   6.187   5.055
  119XTA     H113236  28.434   6.276   5.081
  119XTA     H213237  28.331   6.174   5.290
  119XTA     H313238  28.673   6.316   5.510
  119XTA     H413239  28.773   6.385   5.307
  119XTA     H513240  28.943   6.401   5.021
  119XTA     H613241  29.044   6.613   4.970
  119XTA     H713242  28.651   6.812   5.005
  119XTA     H813243  28.559   6.610   5.026
  119XTA     H913244  28.615   6.285   4.814
  119XTA    H1013245  28.693   6.086   4.706
  119XTA    H1113246  28.956   6.017   5.039
  119XTA    H1213247  28.881   6.217   5.150
  119XTA    OA113248  28.426   6.193   5.525
  119XTA    CO113249  28.333   6.268   5.600
  119XTA    OA213250  28.916   6.855   4.969
  119XTA    CO213251  29.007   6.869   4.866
  119XTA    CL113252  28.977   7.012   4.813
  119XTA    CL213253  28.830   7.044   4.793
  119XTA    CL313254  28.797   7.193   4.802
  119XTA    CL413255  28.647   7.219   4.828
  119XTA    CO313256  28.564   7.185   4.704
  119XTA    OA313257  28.430   7.222   4.727
  119XTA    CO413258  28.409   7.365   4.721
  119XTA    CT113259  28.258   7.385   4.728
  119XTA    CL513260  28.217   7.534   4.702
  119XTA    CL613261  28.307   7.633   4.780
  119XTA    OA413262  28.874   5.907   4.824
  119XTA    CO513263  28.797   5.849   4.727
  119XTA    CL713264  28.841   5.706   4.698
  119XTA    CL813265  28.766   5.649   4.572
  119XTA    CL913266  28.609   5.662   4.568
  119XTA   CL1013267  28.549   5.594   4.438
  119XTA    CO613268  28.398   5.603   4.429
  119XTA    OA513269  28.359   5.629   4.301
  119XTA    CO713270  28.233   5.592   4.252
  119XTA    CT213271  28.244   5.606   4.096
  119XTA   CL1113272  28.110   5.564   4.036
  119XTA   CL1213273  28.104   5.588   3.887
  119XTA    HL113274  28.335   6.371   5.570
  119XTA    HL213275  28.229   6.242   5.595
  119XTA    HL313276  28.359   6.279   5.704
  119XTA    HL413277  29.108   6.850   4.894
  119XTA    HL513278  28.988   6.783   4.793
  119XTA    HL613279  29.032   7.023   4.723
  119XTA    HL713280  29.030   7.079   4.881
  119XTA    HL813281  28.774   7.000   4.876
  119XTA    HL913282  28.791   6.998   4.697
  119XTA   HL1013283  28.848   7.235   4.882
  119XTA   HL1113284  28.830   7.253   4.719
  119XTA   HL1213285  28.636   7.325   4.839
  119XTA   HL1313286  28.628   7.153   4.916
  119XTA   HL1413287  28.612   7.233   4.608
  119XTA   HL1513288  28.569   7.071   4.694
  119XTA   HL1613289  28.454   7.410   4.808
  119XTA   HL1713290  28.448   7.409   4.634
  119XTA   HL1813291  28.112   7.554   4.733
  119XTA   HL1913292  28.223   7.548   4.598
  119XTA   HL2013293  28.333   7.581   4.873
  119XTA   HL2113294  28.254   7.728   4.802
  119XTA   HL2213295  28.398   7.643   4.718
  119XTA   HL2313296  28.814   5.903   4.631
  119XTA   HL2413297  28.695   5.859   4.761
  119XTA   HL2513298  28.948   5.709   4.674
  119XTA   HL2613299  28.827   5.640   4.781
  119XTA   HL2713300  28.802   5.702   4.482
  119XTA   HL2813301  28.791   5.541   4.567
  119XTA   HL2913302  28.564   5.611   4.650
  119XTA   HL3013303  28.585   5.768   4.574
  119XTA   HL3113304  28.605   5.633   4.359
  119XTA   HL3213305  28.574   5.484   4.449
  119XTA   HL3313306  28.354   5.513   4.462
  119XTA   HL3413307  28.375   5.689   4.492
  119XTA   HL3513308  28.161   5.665   4.285
  119XTA   HL3613309  28.212   5.486   4.272
  119XTA   HL3713310  28.034   5.622   4.086
  119XTA   HL3813311  28.083   5.460   4.059
  119XTA   HL3913312  28.117   5.692   3.858
  119XTA   HL4013313  28.005   5.589   3.852
  119XTA   HL4113314  28.162   5.527   3.819
  119XTA    CO813315  28.186   7.336   4.851
  119XTA    CO913316  28.191   7.305   4.617
  119XTA    OA613317  28.225   7.370   4.945
  119XTA   HL4213318  28.199   7.227   4.844
  119XTA   HL4313319  28.081   7.363   4.846
  119XTA   HL4413320  28.369   5.527   3.941
  119XTA   HL4513321  28.447   5.528   4.087
  119XTA   CO1013322  28.347   5.504   4.049
  119XTA   CO1113323  28.279   5.756   4.050
  119XTA    OA713324  28.308   5.370   4.073
  119XTA   HL4613325  28.302   5.751   3.946
  119XTA   HL4713326  28.366   5.790   4.103
  119XTA   HL4813327  28.283   7.304   4.503
  119XTA   HL4913328  28.179   7.199   4.644
  120XTA     NT13329  25.664   1.939   6.506
  120XTA    CN113330  25.611   1.881   6.398
  120XTA     C113331  25.474   1.852   6.409
  120XTA     C213332  25.399   1.818   6.297
  120XTA     C313333  25.454   1.834   6.167
  120XTA     C413334  25.588   1.878   6.154
  120XTA     C513335  25.670   1.890   6.268
  120XTA    CN213336  25.707   1.860   6.606
  120XTA     C613337  25.623   1.841   6.712
  120XTA     C713338  25.655   1.765   6.825
  120XTA     C813339  25.779   1.702   6.831
  120XTA     C913340  25.864   1.706   6.717
  120XTA    C1013341  25.822   1.788   6.605
  120XTA    CN313342  25.690   2.068   6.501
  120XTA    C1113343  25.817   2.133   6.505
  120XTA    C1213344  25.825   2.270   6.477
  120XTA    C1313345  25.710   2.354   6.464
  120XTA    C1413346  25.586   2.298   6.484
  120XTA    C1513347  25.577   2.157   6.505
  120XTA     H113348  25.436   1.857   6.510
  120XTA     H213349  25.299   1.784   6.307
  120XTA     H313350  25.627   1.898   6.059
  120XTA     H413351  25.773   1.922   6.271
  120XTA     H513352  25.525   1.893   6.726
  120XTA     H613353  25.580   1.765   6.910
  120XTA     H713354  25.958   1.662   6.721
  120XTA     H813355  25.883   1.804   6.516
  120XTA     H913356  25.903   2.078   6.510
  120XTA    H1013357  25.921   2.314   6.464
  120XTA    H1113358  25.493   2.356   6.479
  120XTA    H1213359  25.483   2.102   6.515
  120XTA    OA113360  25.384   1.799   6.058
  120XTA    CO113361  25.454   1.763   5.942
  120XTA    OA213362  25.826   1.630   6.939
  120XTA    CO213363  25.771   1.659   7.064
  120XTA    CL113364  25.877   1.627   7.166
  120XTA    CL213365  25.827   1.627   7.311
  120XTA    CL313366  25.733   1.739   7.350
  120XTA    CL413367  25.805   1.873   7.389
  120XTA    CO313368  25.707   1.990   7.391
  120XTA    OA313369  25.666   2.006   7.258
  120XTA    CO413370  25.567   2.099   7.238
  120XTA    CT113371  25.426   2.037   7.214
  120XTA    CL513372  25.421   1.917   7.126
  120XTA    CL613373  25.277   1.850   7.101
  120XTA    OA413374  25.709   2.489   6.443
  120XTA    CO513375  25.820   2.561   6.471
  120XTA    CL713376  25.793   2.702   6.437
  120XTA    CL813377  25.920   2.792   6.443
  120XTA    CL913378  25.872   2.929   6.398
  120XTA   CL1013379  25.978   3.038   6.388
  120XTA    CO613380  25.951   3.164   6.307
  120XTA    OA513381  26.076   3.221   6.265
  120XTA    CO713382  26.057   3.338   6.182
  120XTA    CT213383  26.185   3.419   6.143
  120XTA   CL1113384  26.145   3.548   6.071
  120XTA   CL1213385  26.099   3.524   5.928
  120XTA    HL113386  25.495   1.853   5.899
  120XTA    HL213387  25.529   1.693   5.967
  120XTA    HL313388  25.388   1.718   5.872
  120XTA    HL413389  25.769   1.770   7.059
  120XTA    HL513390  25.674   1.611   7.082
  120XTA    HL613391  25.948   1.708   7.156
  120XTA    HL713392  25.914   1.523   7.130
  120XTA    HL813393  25.907   1.622   7.382
  120XTA    HL913394  25.780   1.540   7.343
  120XTA   HL1013395  25.664   1.768   7.274
  120XTA   HL1113396  25.674   1.719   7.444
  120XTA   HL1213397  25.884   1.906   7.316
  120XTA   HL1313398  25.850   1.867   7.492
  120XTA   HL1413399  25.621   1.982   7.456
  120XTA   HL1513400  25.745   2.079   7.436
  120XTA   HL1613401  25.570   2.174   7.321
  120XTA   HL1713402  25.590   2.149   7.146
  120XTA   HL1813403  25.493   1.846   7.152
  120XTA   HL1913404  25.440   1.957   7.028
  120XTA   HL2013405  25.196   1.919   7.072
  120XTA   HL2113406  25.258   1.794   7.199
  120XTA   HL2213407  25.281   1.789   7.013
  120XTA   HL2313408  25.921   2.535   6.425
  120XTA   HL2413409  25.833   2.534   6.579
  120XTA   HL2513410  25.761   2.691   6.339
  120XTA   HL2613411  25.712   2.748   6.498
  120XTA   HL2713412  25.961   2.811   6.543
  120XTA   HL2813413  26.003   2.748   6.387
  120XTA   HL2913414  25.817   2.925   6.298
  120XTA   HL3013415  25.795   2.966   6.462
  120XTA   HL3113416  26.023   3.058   6.482
  120XTA   HL3213417  26.057   2.994   6.338
  120XTA   HL3313418  25.880   3.154   6.214
  120XTA   HL3413419  25.895   3.230   6.375
  120XTA   HL3513420  25.996   3.411   6.234
  120XTA   HL3613421  26.011   3.328   6.081
  120XTA   HL3713422  26.240   3.612   6.070
  120XTA   HL3813423  26.072   3.597   6.138
  120XTA   HL3913424  26.170   3.474   5.869
  120XTA   HL4013425  26.081   3.623   5.886
  120XTA   HL4113426  26.006   3.470   5.919
  120XTA    CO813427  25.344   2.157   7.176
  120XTA    CO913428  25.375   2.001   7.354
  120XTA    OA613429  25.263   1.991   7.359
  120XTA   HL4213430  25.367   2.171   7.069
  120XTA   HL4313431  25.213   2.106   7.169
  120XTA   HL4413432  26.247   3.300   5.957
  120XTA   HL4513433  26.372   3.389   6.043
  120XTA   CO1013434  26.286   3.327   6.059
  120XTA   CO1113435  26.262   3.444   6.270
  120XTA    OA713436  26.196   3.539   6.346
  120XTA   HL4613437  26.285   3.346   6.322
  120XTA   HL4713438  26.363   3.481   6.247
  120XTA   HL4813439  25.396   2.087   7.411
  120XTA   HL4913440  25.432   1.917   7.396
  121XTA     NT13441  27.485   4.323   1.398
  121XTA    CN113442  27.471   4.191   1.397
  121XTA     C113443  27.575   4.103   1.388
  121XTA     C213444  27.554   3.964   1.395
  121XTA     C313445  27.424   3.911   1.423
  121XTA     C413446  27.318   4.000   1.438
  121XTA     C513447  27.342   4.137   1.427
  121XTA    CN213448  27.562   4.376   1.489
  121XTA     C613449  27.704   4.385   1.472
  121XTA     C713450  27.789   4.425   1.571
  121XTA     C813451  27.740   4.456   1.702
  121XTA     C913452  27.603   4.450   1.725
  121XTA    C1013453  27.517   4.409   1.619
  121XTA    CN313454  27.421   4.392   1.300
  121XTA    C1113455  27.456   4.364   1.164
  121XTA    C1213456  27.384   4.430   1.057
  121XTA    C1313457  27.268   4.509   1.096
  121XTA    C1413458  27.243   4.539   1.231
  121XTA    C1513459  27.321   4.486   1.334
  121XTA     H113460  27.676   4.128   1.363
  121XTA     H213461  27.635   3.896   1.376
  121XTA     H313462  27.221   3.968   1.454
  121XTA     H413463  27.261   4.207   1.430
  121XTA     H513464  27.758   4.355   1.375
  121XTA     H613465  27.902   4.433   1.551
  121XTA     H713466  27.572   4.481   1.828
  121XTA     H813467  27.414   4.397   1.638
  121XTA     H913468  27.541   4.307   1.154
  121XTA    H1013469  27.408   4.403   0.954
  121XTA    H1113470  27.154   4.603   1.238
  121XTA    H1213471  27.285   4.507   1.435
  121XTA    OA113472  27.396   3.779   1.444
  121XTA    CO113473  27.504   3.697   1.483
  121XTA    OA213474  27.813   4.499   1.800
  121XTA    CO213475  27.953   4.511   1.782
  121XTA    CL113476  28.010   4.563   1.916
  121XTA    CL213477  27.952   4.694   1.961
  121XTA    CL313478  27.973   4.813   1.863
  121XTA    CL413479  27.851   4.895   1.836
  121XTA    CO313480  27.747   4.847   1.724
  121XTA    OA313481  27.627   4.924   1.731
  121XTA    CO413482  27.527   4.870   1.645
  121XTA    CT113483  27.391   4.921   1.669
  121XTA    CL513484  27.290   4.814   1.609
  121XTA    CL613485  27.321   4.772   1.470
  121XTA    OA413486  27.185   4.544   0.992
  121XTA    CO513487  27.055   4.584   1.020
  121XTA    CL713488  26.967   4.556   0.890
  121XTA    CL813489  26.820   4.610   0.889
  121XTA    CL913490  26.736   4.523   0.989
  121XTA   CL1013491  26.636   4.611   1.066
  121XTA    CO613492  26.553   4.534   1.173
  121XTA    OA513493  26.612   4.537   1.303
  121XTA    CO713494  26.673   4.414   1.349
  121XTA    CT213495  26.729   4.420   1.500
  121XTA   CL1113496  26.851   4.515   1.504
  121XTA   CL1213497  26.981   4.473   1.435
  121XTA    HL113498  27.473   3.600   1.522
  121XTA    HL213499  27.583   3.662   1.415
  121XTA    HL313500  27.551   3.757   1.569
  121XTA    HL413501  28.004   4.425   1.753
  121XTA    HL513502  27.972   4.590   1.708
  121XTA    HL613503  28.117   4.579   1.901
  121XTA    HL713504  27.997   4.486   1.987
  121XTA    HL813505  27.976   4.714   2.069
  121XTA    HL913506  27.845   4.671   1.964
  121XTA   HL1013507  28.053   4.878   1.899
  121XTA   HL1113508  28.003   4.777   1.766
  121XTA   HL1213509  27.901   4.986   1.799
  121XTA   HL1313510  27.803   4.929   1.930
  121XTA   HL1413511  27.790   4.862   1.625
  121XTA   HL1513512  27.730   4.745   1.751
  121XTA   HL1613513  27.569   4.887   1.545
  121XTA   HL1713514  27.525   4.759   1.661
  121XTA   HL1813515  27.186   4.845   1.624
  121XTA   HL1913516  27.283   4.722   1.669
  121XTA   HL2013517  27.420   4.724   1.467
  121XTA   HL2113518  27.335   4.853   1.400
  121XTA   HL2213519  27.237   4.712   1.436
  121XTA   HL2313520  27.045   4.689   1.056
  121XTA   HL2413521  27.014   4.534   1.106
  121XTA   HL2513522  27.010   4.589   0.800
  121XTA   HL2613523  26.961   4.448   0.870
  121XTA   HL2713524  26.817   4.710   0.915
  121XTA   HL2813525  26.781   4.603   0.788
  121XTA   HL2913526  26.676   4.455   0.936
  121XTA   HL3013527  26.793   4.470   1.065
  121XTA   HL3113528  26.704   4.684   1.121
  121XTA   HL3213529  26.572   4.669   0.998
  121XTA   HL3313530  26.465   4.585   1.189
  121XTA   HL3413531  26.521   4.435   1.139
  121XTA   HL3513532  26.760   4.394   1.288
  121XTA   HL3613533  26.604   4.326   1.343
  121XTA   HL3713534  26.883   4.530   1.610
  121XTA   HL3813535  26.817   4.611   1.461
  121XTA   HL3913536  27.062   4.541   1.448
  121XTA   HL4013537  26.970   4.447   1.325
  121XTA   HL4113538  27.020   4.377   1.471
  121XTA    CO813539  27.369   5.059   1.607
  121XTA    CO913540  27.369   4.936   1.820
  121XTA    OA613541  27.230   4.933   1.858
  121XTA   HL4213542  27.439   5.062   1.526
  121XTA   HL4313543  27.268   5.050   1.566
  121XTA   HL4413544  26.800   4.283   1.655
  121XTA   HL4513545  26.674   4.212   1.538
  121XTA   CO1013546  26.759   4.278   1.555
  121XTA   CO1113547  26.617   4.481   1.578
  121XTA    OA713548  26.842   4.239   1.489
  121XTA   HL4613549  26.575   4.600   1.514
  121XTA   HL4713550  26.642   4.493   1.680
  121XTA   HL4813551  27.423   5.024   1.856
  121XTA   HL4913552  27.409   4.850   1.876
  122XTA     NT13553  26.313  -0.029   0.007
  122XTA    CN113554  26.325   0.095   0.062
  122XTA     C113555  26.326   0.111   0.204
  122XTA     C213556  26.334   0.241   0.264
  122XTA     C313557  26.341   0.357   0.179
  122XTA     C413558  26.327   0.343   0.041
  122XTA     C513559  26.320   0.211  -0.021
  122XTA    CN213560  26.417  -0.109   0.021
  122XTA     C613561  26.408  -0.238   0.083
  122XTA     C713562  26.518  -0.308   0.112
  122XTA     C813563  26.643  -0.250   0.086
  122XTA     C913564  26.656  -0.125   0.018
  122XTA    C1013565  26.543  -0.056  -0.018
  122XTA    CN313566  26.189  -0.079  -0.008
  122XTA    C1113567  26.083  -0.074   0.081
  122XTA    C1213568  25.953  -0.117   0.047
  122XTA    C1313569  25.927  -0.172  -0.076
  122XTA    C1413570  26.028  -0.169  -0.172
  122XTA    C1513571  26.158  -0.122  -0.137
  122XTA     H113572  26.324   0.027   0.258
  122XTA     H213573  26.341   0.247   0.369
  122XTA     H313574  26.335   0.434  -0.025
  122XTA     H413575  26.312   0.205  -0.126
  122XTA     H513576  26.308  -0.275   0.108
  122XTA     H613577  26.510  -0.405   0.158
  122XTA     H713578  26.760  -0.094   0.002
  122XTA     H813579  26.544   0.047  -0.063
  122XTA     H913580  26.104  -0.044   0.183
  122XTA    H1013581  25.876  -0.103   0.128
  122XTA    H1113582  26.009  -0.210  -0.272
  122XTA    H1213583  26.239  -0.136  -0.208
  122XTA    OA113584  26.357   0.491   0.219
  122XTA    CO113585  26.384   0.509   0.359
  122XTA    OA213586  26.751  -0.327   0.123
  122XTA    CO213587  26.857  -0.255   0.188
  122XTA    CL113588  26.979  -0.345   0.226
  122XTA    CL213589  27.058  -0.398   0.108
  122XTA    CL313590  26.976  -0.469  -0.003
  122XTA    CL413591  27.058  -0.547  -0.108
  122XTA    CO313592  26.973  -0.639  -0.195
  122XTA    OA313593  26.911  -0.746  -0.124
  122XTA    CO413594  26.831  -0.814  -0.221
  122XTA    CT113595  26.742  -0.913  -0.146
  122XTA    CL513596  26.649  -0.986  -0.242
  122XTA    CL613597  26.575  -0.890  -0.342
  122XTA    OA413598  25.802  -0.211  -0.113
  122XTA    CO513599  25.711  -0.240  -0.004
  122XTA    CL713600  25.756  -0.345   0.104
  122XTA    CL813601  25.784  -0.491   0.055
  122XTA    CL913602  25.917  -0.512  -0.020
  122XTA   CL1013603  26.036  -0.506   0.074
  122XTA    CO613604  26.170  -0.548   0.001
  122XTA    OA513605  26.243  -0.633   0.083
  122XTA    CO713606  26.216  -0.775   0.058
  122XTA    CT213607  26.338  -0.868   0.096
  122XTA   CL1113608  26.374  -0.869   0.247
  122XTA   CL1213609  26.256  -0.863   0.350
  122XTA    HL113610  26.408   0.604   0.385
  122XTA    HL213611  26.300   0.477   0.418
  122XTA    HL313612  26.471   0.462   0.380
  122XTA    HL413613  26.898  -0.176   0.121
  122XTA    HL513614  26.814  -0.215   0.276
  122XTA    HL613615  26.960  -0.424   0.290
  122XTA    HL713616  27.033  -0.269   0.286
  122XTA    HL813617  27.145  -0.454   0.140
  122XTA    HL913618  27.091  -0.306   0.067
  122XTA   HL1013619  26.917  -0.549   0.047
  122XTA   HL1113620  26.903  -0.402  -0.046
  122XTA   HL1213621  27.139  -0.595  -0.060
  122XTA   HL1313622  27.110  -0.473  -0.178
  122XTA   HL1413623  26.899  -0.569  -0.236
  122XTA   HL1513624  27.029  -0.685  -0.279
  122XTA   HL1613625  26.764  -0.742  -0.272
  122XTA   HL1713626  26.893  -0.863  -0.292
  122XTA   HL1813627  26.571  -1.040  -0.180
  122XTA   HL1913628  26.707  -1.053  -0.302
  122XTA   HL2013629  26.543  -0.805  -0.288
  122XTA   HL2113630  26.488  -0.942  -0.382
  122XTA   HL2213631  26.625  -0.854  -0.430
  122XTA   HL2313632  25.614  -0.265  -0.053
  122XTA   HL2413633  25.687  -0.146   0.050
  122XTA   HL2513634  25.851  -0.321   0.154
  122XTA   HL2613635  25.686  -0.334   0.187
  122XTA   HL2713636  25.779  -0.561   0.131
  122XTA   HL2813637  25.708  -0.517  -0.009
  122XTA   HL2913638  25.914  -0.617  -0.057
  122XTA   HL3013639  25.936  -0.452  -0.107
  122XTA   HL3113640  26.056  -0.405   0.116
  122XTA   HL3213641  26.017  -0.572   0.161
  122XTA   HL3313642  26.155  -0.601  -0.089
  122XTA   HL3413643  26.212  -0.452  -0.028
  122XTA   HL3513644  26.215  -0.787  -0.047
  122XTA   HL3613645  26.123  -0.803   0.109
  122XTA   HL3713646  26.425  -0.780   0.264
  122XTA   HL3813647  26.451  -0.940   0.269
  122XTA   HL3913648  26.288  -0.897   0.443
  122XTA   HL4013649  26.167  -0.921   0.323
  122XTA   HL4113650  26.226  -0.758   0.367
  122XTA    CO813651  26.664  -0.844  -0.038
  122XTA    CO913652  26.841  -1.018  -0.079
  122XTA    OA613653  26.909  -1.070  -0.149
  122XTA   HL4213654  26.729  -0.821   0.045
  122XTA   HL4313655  26.625  -0.711  -0.083
  122XTA   HL4413656  26.426  -0.833  -0.083
  122XTA   HL4513657  26.486  -0.733   0.053
  122XTA   CO1013658  26.462  -0.835   0.025
  122XTA   CO1113659  26.307  -1.015   0.061
  122XTA    OA713660  26.552  -0.900   0.026
  122XTA   HL4613661  26.416  -1.087   0.102
  122XTA   HL4713662  26.316  -1.028  -0.047
  122XTA   HL4813663  26.779  -1.092  -0.038
  122XTA   HL4913664  26.896  -0.982   0.006
  123XTA     NT13665  25.693   6.114   5.907
  123XTA    CN113666  25.713   6.151   6.036
  123XTA     C113667  25.833   6.215   6.071
  123XTA     C213668  25.863   6.221   6.205
  123XTA     C313669  25.783   6.173   6.307
  123XTA     C413670  25.663   6.106   6.270
  123XTA     C513671  25.627   6.096   6.136
  123XTA    CN213672  25.579   6.146   5.849
  123XTA     C613673  25.483   6.051   5.819
  123XTA     C713674  25.352   6.081   5.758
  123XTA     C813675  25.342   6.204   5.696
  123XTA     C913676  25.437   6.306   5.730
  123XTA    C1013677  25.547   6.273   5.810
  123XTA    CN313678  25.798   6.052   5.839
  123XTA    C1113679  25.838   5.918   5.861
  123XTA    C1213680  25.919   5.861   5.764
  123XTA    C1313681  25.985   5.935   5.664
  123XTA    C1413682  25.949   6.072   5.642
  123XTA    C1513683  25.859   6.129   5.736
  123XTA     H113684  25.897   6.237   5.987
  123XTA     H213685  25.963   6.258   6.221
  123XTA     H313686  25.605   6.046   6.345
  123XTA     H413687  25.528   6.058   6.118
  123XTA     H513688  25.493   5.943   5.840
  123XTA     H613689  25.282   6.005   5.720
  123XTA     H713690  25.429   6.400   5.680
  123XTA     H813691  25.611   6.353   5.831
  123XTA     H913692  25.789   5.851   5.935
  123XTA    H1013693  25.946   5.763   5.756
  123XTA    H1113694  25.991   6.132   5.565
  123XTA    H1213695  25.827   6.231   5.724
  123XTA    OA113696  25.829   6.169   6.433
  123XTA    CO113697  25.761   6.093   6.530
  123XTA    OA213698  25.239   6.223   5.613
  123XTA    CO213699  25.216   6.358   5.557
  123XTA    CL113700  25.085   6.354   5.482
  123XTA    CL213701  25.108   6.257   5.365
  123XTA    CL313702  24.985   6.238   5.276
  123XTA    CL413703  24.932   6.360   5.214
  123XTA    CO313704  24.854   6.340   5.087
  123XTA    OA313705  24.833   6.463   5.017
  123XTA    CO413706  24.759   6.571   5.084
  123XTA    CT113707  24.606   6.547   5.077
  123XTA    CL513708  24.564   6.520   4.933
  123XTA    CL613709  24.409   6.498   4.912
  123XTA    OA413710  26.054   5.853   5.570
  123XTA    CO513711  26.158   5.908   5.499
  123XTA    CL713712  26.281   5.818   5.490
  123XTA    CL813713  26.403   5.888   5.432
  123XTA    CL913714  26.526   5.796   5.435
  123XTA   CL1013715  26.571   5.768   5.572
  123XTA    CO613716  26.701   5.690   5.583
  123XTA    OA513717  26.690   5.552   5.542
  123XTA    CO713718  26.590   5.474   5.618
  123XTA    CT213719  26.613   5.328   5.562
  123XTA   CL1113720  26.641   5.327   5.412
  123XTA   CL1213721  26.520   5.361   5.327
  123XTA    HL113722  25.773   5.986   6.520
  123XTA    HL213723  25.812   6.120   6.623
  123XTA    HL313724  25.657   6.112   6.540
  123XTA    HL413725  25.199   6.427   5.636
  123XTA    HL513726  25.311   6.395   5.510
  123XTA    HL613727  25.068   6.452   5.443
  123XTA    HL713728  24.997   6.331   5.539
  123XTA    HL813729  25.131   6.157   5.403
  123XTA    HL913730  25.199   6.284   5.309
  123XTA   HL1013731  25.020   6.168   5.201
  123XTA   HL1113732  24.909   6.193   5.334
  123XTA   HL1213733  25.024   6.414   5.201
  123XTA   HL1313734  24.875   6.422   5.288
  123XTA   HL1413735  24.922   6.271   5.030
  123XTA   HL1513736  24.767   6.279   5.101
  123XTA   HL1613737  24.787   6.587   5.188
  123XTA   HL1713738  24.796   6.668   5.035
  123XTA   HL1813739  24.622   6.425   4.912
  123XTA   HL1913740  24.590   6.612   4.873
  123XTA   HL2013741  24.386   6.492   4.811
  123XTA   HL2113742  24.342   6.578   4.962
  123XTA   HL2213743  24.387   6.403   4.970
  123XTA   HL2313744  26.202   5.995   5.566
  123XTA   HL2413745  26.116   5.947   5.401
  123XTA   HL2513746  26.303   5.777   5.590
  123XTA   HL2613747  26.258   5.729   5.430
  123XTA   HL2713748  26.397   5.936   5.331
  123XTA   HL2813749  26.416   5.984   5.486
  123XTA   HL2913750  26.500   5.701   5.388
  123XTA   HL3013751  26.597   5.839   5.367
  123XTA   HL3113752  26.579   5.862   5.634
  123XTA   HL3213753  26.499   5.711   5.616
  123XTA   HL3313754  26.794   5.738   5.536
  123XTA   HL3413755  26.735   5.686   5.691
  123XTA   HL3513756  26.491   5.510   5.584
  123XTA   HL3613757  26.603   5.496   5.721
  123XTA   HL3713758  26.663   5.225   5.399
  123XTA   HL3813759  26.734   5.386   5.388
  123XTA   HL3913760  26.440   5.288   5.331
  123XTA   HL4013761  26.551   5.378   5.228
  123XTA   HL4113762  26.472   5.453   5.369
  123XTA    CO813763  24.530   6.676   5.130
  123XTA    CO913764  24.567   6.428   5.170
  123XTA    OA613765  24.609   6.428   5.306
  123XTA   HL4213766  24.520   6.751   5.051
  123XTA   HL4313767  24.426   6.636   5.153
  123XTA   HL4413768  26.492   5.235   5.711
  123XTA   HL4513769  26.398   5.266   5.573
  123XTA   CO1013770  26.498   5.240   5.604
  123XTA   CO1113771  26.748   5.278   5.633
  123XTA    OA713772  26.514   5.099   5.582
  123XTA   HL4613773  26.734   5.279   5.745
  123XTA   HL4713774  26.761   5.174   5.608
  123XTA   HL4813775  24.587   6.334   5.140
  123XTA   HL4913776  24.458   6.418   5.175
  124XTA     NT13777  26.169   4.333   5.274
  124XTA    CN113778  26.038   4.312   5.301
  124XTA     C113779  25.945   4.359   5.213
  124XTA     C213780  25.811   4.365   5.244
  124XTA     C313781  25.759   4.317   5.371
  124XTA     C413782  25.853   4.275   5.469
  124XTA     C513783  25.992   4.278   5.432
  124XTA    CN213784  26.235   4.263   5.174
  124XTA     C613785  26.314   4.146   5.194
  124XTA     C713786  26.389   4.080   5.093
  124XTA     C813787  26.371   4.119   4.957
  124XTA     C913788  26.301   4.240   4.934
  124XTA    C1013789  26.233   4.304   5.040
  124XTA    CN313790  26.243   4.404   5.361
  124XTA    C1113791  26.262   4.546   5.340
  124XTA    C1213792  26.348   4.617   5.423
  124XTA    C1313793  26.422   4.551   5.519
  124XTA    C1413794  26.404   4.421   5.545
  124XTA    C1513795  26.314   4.346   5.469
  124XTA     H113796  25.972   4.404   5.115
  124XTA     H213797  25.746   4.404   5.171
  124XTA     H313798  25.832   4.248   5.571
  124XTA     H413799  26.058   4.247   5.508
  124XTA     H513800  26.329   4.110   5.296
  124XTA     H613801  26.452   3.998   5.116
  124XTA     H713802  26.286   4.271   4.839
  124XTA     H813803  26.177   4.400   5.016
  124XTA     H913804  26.215   4.599   5.265
  124XTA    H1013805  26.360   4.720   5.411
  124XTA    H1113806  26.463   4.381   5.632
  124XTA    H1213807  26.313   4.244   5.495
  124XTA    OA113808  25.624   4.310   5.396
  124XTA    CO113809  25.545   4.428   5.366
  124XTA    OA213810  26.435   4.052   4.863
  124XTA    CO213811  26.397   4.084   4.726
  124XTA    CL113812  26.471   3.983   4.636
  124XTA    CL213813  26.457   3.836   4.681
  124XTA    CL313814  26.537   3.742   4.596
  124XTA    CL413815  26.693   3.764   4.616
  124XTA    CO313816  26.777   3.638   4.599
  124XTA    OA313817  26.757   3.551   4.711
  124XTA    CO413818  26.801   3.414   4.694
  124XTA    CT113819  26.753   3.332   4.810
  124XTA    CL513820  26.811   3.193   4.797
  124XTA    CL613821  26.961   3.170   4.763
  124XTA    OA413822  26.494   4.627   5.604
  124XTA    CO513823  26.608   4.690   5.538
  124XTA    CL713824  26.720   4.591   5.502
  124XTA    CL813825  26.850   4.662   5.457
  124XTA    CL913826  26.941   4.566   5.376
  124XTA   CL1013827  27.010   4.459   5.458
  124XTA    CO613828  27.126   4.519   5.539
  124XTA    OA513829  27.167   4.416   5.624
  124XTA    CO713830  27.173   4.448   5.762
  124XTA    CT213831  27.218   4.321   5.845
  124XTA   CL1113832  27.217   4.353   5.993
  124XTA   CL1213833  27.313   4.458   6.039
  124XTA    HL113834  25.570   4.522   5.418
  124XTA    HL213835  25.550   4.434   5.250
  124XTA    HL313836  25.445   4.416   5.406
  124XTA    HL413837  26.289   4.074   4.711
  124XTA    HL513838  26.416   4.186   4.699
  124XTA    HL613839  26.577   4.004   4.632
  124XTA    HL713840  26.438   3.992   4.530
  124XTA    HL813841  26.353   3.807   4.681
  124XTA    HL913842  26.495   3.818   4.777
  124XTA   HL1013843  26.517   3.631   4.633
  124XTA   HL1113844  26.514   3.757   4.492
  124XTA   HL1213845  26.714   3.799   4.718
  124XTA   HL1313846  26.737   3.829   4.544
  124XTA   HL1413847  26.773   3.581   4.515
  124XTA   HL1513848  26.880   3.665   4.608
  124XTA   HL1613849  26.752   3.375   4.605
  124XTA   HL1713850  26.911   3.416   4.698
  124XTA   HL1813851  26.738   3.136   4.738
  124XTA   HL1913852  26.795   3.150   4.899
  124XTA   HL2013853  26.988   3.225   4.668
  124XTA   HL2113854  26.975   3.064   4.745
  124XTA   HL2213855  27.024   3.198   4.850
  124XTA   HL2313856  26.648   4.774   5.596
  124XTA   HL2413857  26.567   4.742   5.452
  124XTA   HL2513858  26.746   4.539   5.601
  124XTA   HL2613859  26.689   4.502   5.442
  124XTA   HL2713860  26.832   4.751   5.401
  124XTA   HL2813861  26.902   4.714   5.540
  124XTA   HL2913862  26.887   4.503   5.307
  124XTA   HL3013863  27.014   4.617   5.308
  124XTA   HL3113864  26.938   4.426   5.531
  124XTA   HL3213865  27.051   4.373   5.394
  124XTA   HL3313866  27.207   4.554   5.481
  124XTA   HL3413867  27.086   4.604   5.600
  124XTA   HL3513868  27.073   4.477   5.793
  124XTA   HL3613869  27.232   4.534   5.790
  124XTA   HL3713870  27.241   4.263   6.054
  124XTA   HL3813871  27.123   4.389   6.024
  124XTA   HL3913872  27.285   4.478   6.140
  124XTA   HL4013873  27.307   4.549   5.969
  124XTA   HL4113874  27.410   4.416   6.035
  124XTA    CO813875  26.602   3.324   4.806
  124XTA    CO913876  26.784   3.395   4.945
  124XTA    OA613877  26.548   3.252   4.690
  124XTA   HL4213878  26.564   3.427   4.800
  124XTA   HL4313879  26.550   3.284   4.891
  124XTA   HL4413880  27.340   4.218   5.691
  124XTA   HL4513881  27.399   4.374   5.735
  124XTA   CO1013882  27.358   4.278   5.780
  124XTA   CO1113883  27.117   4.209   5.821
  124XTA    OA713884  27.421   4.223   5.847
  124XTA   HL4613885  27.142   4.174   5.690
  124XTA   HL4713886  27.014   4.231   5.833
  124XTA   HL4813887  26.767   3.314   5.019
  124XTA   HL4913888  26.891   3.404   4.941
  125XTA     NT13889  31.354   3.445   2.892
  125XTA    CN113890  31.285   3.479   3.005
  125XTA     C113891  31.215   3.377   3.081
  125XTA     C213892  31.141   3.422   3.188
  125XTA     C313893  31.152   3.553   3.242
  125XTA     C413894  31.218   3.651   3.159
  125XTA     C513895  31.281   3.615   3.046
  125XTA    CN213896  31.486   3.407   2.901
  125XTA     C613897  31.519   3.297   2.979
  125XTA     C713898  31.645   3.244   3.004
  125XTA     C813899  31.753   3.311   2.938
  125XTA     C913900  31.722   3.416   2.844
  125XTA    C1013901  31.594   3.472   2.834
  125XTA    CN313902  31.299   3.418   2.772
  125XTA    C1113903  31.308   3.507   2.667
  125XTA    C1213904  31.241   3.473   2.546
  125XTA    C1313905  31.185   3.348   2.527
  125XTA    C1413906  31.185   3.256   2.632
  125XTA    C1513907  31.241   3.288   2.751
  125XTA     H113908  31.212   3.280   3.026
  125XTA     H213909  31.063   3.359   3.227
  125XTA     H313910  31.219   3.751   3.191
  125XTA     H413911  31.321   3.694   2.979
  125XTA     H513912  31.440   3.250   3.030
  125XTA     H613913  31.666   3.157   3.065
  125XTA     H713914  31.812   3.463   2.791
  125XTA     H813915  31.563   3.555   2.781
  125XTA     H913916  31.360   3.601   2.670
  125XTA    H1013917  31.234   3.542   2.467
  125XTA    H1113918  31.125   3.163   2.624
  125XTA    H1213919  31.231   3.222   2.841
  125XTA    OA113920  31.081   3.601   3.349
  125XTA    CO113921  31.080   3.514   3.458
  125XTA    OA213922  31.885   3.271   2.932
  125XTA    CO213923  31.910   3.141   2.989
  125XTA    CL113924  31.950   3.153   3.137
  125XTA    CL213925  31.974   3.015   3.209
  125XTA    CL313926  32.076   3.009   3.330
  125XTA    CL413927  32.168   2.880   3.329
  125XTA    CO313928  32.263   2.868   3.453
  125XTA    OA313929  32.193   2.903   3.572
  125XTA    CO413930  32.278   2.876   3.690
  125XTA    CT113931  32.235   2.929   3.831
  125XTA    CL513932  32.093   2.881   3.869
  125XTA    CL613933  32.032   2.935   4.007
  125XTA    OA413934  31.134   3.316   2.399
  125XTA    CO513935  31.008   3.374   2.361
  125XTA    CL713936  30.910   3.269   2.399
  125XTA    CL813937  30.853   3.260   2.539
  125XTA    CL913938  30.745   3.145   2.542
  125XTA   CL1013939  30.639   3.173   2.648
  125XTA    CO613940  30.523   3.089   2.622
  125XTA    OA513941  30.429   3.113   2.725
  125XTA    CO713942  30.302   3.054   2.698
  125XTA    CT213943  30.203   3.087   2.808
  125XTA   CL1113944  30.257   3.045   2.948
  125XTA   CL1213945  30.281   2.898   2.960
  125XTA    HL113946  31.037   3.416   3.439
  125XTA    HL213947  31.179   3.502   3.505
  125XTA    HL313948  31.015   3.559   3.537
  125XTA    HL413949  31.812   3.083   2.982
  125XTA    HL513950  31.987   3.084   2.933
  125XTA    HL613951  31.871   3.215   3.179
  125XTA    HL713952  32.038   3.217   3.149
  125XTA    HL813953  32.010   2.939   3.131
  125XTA    HL913954  31.880   2.975   3.241
  125XTA   HL1013955  32.143   3.095   3.319
  125XTA   HL1113956  32.030   3.025   3.427
  125XTA   HL1213957  32.234   2.877   3.236
  125XTA   HL1313958  32.103   2.797   3.329
  125XTA   HL1413959  32.302   2.772   3.464
  125XTA   HL1513960  32.349   2.930   3.454
  125XTA   HL1613961  32.270   2.768   3.700
  125XTA   HL1713962  32.380   2.896   3.672
  125XTA   HL1813963  32.095   2.774   3.869
  125XTA   HL1913964  32.034   2.910   3.774
  125XTA   HL2013965  32.043   3.044   3.994
  125XTA   HL2113966  32.100   2.911   4.088
  125XTA   HL2213967  31.929   2.911   4.025
  125XTA   HL2313968  31.008   3.392   2.252
  125XTA   HL2413969  30.989   3.468   2.426
  125XTA   HL2513970  30.825   3.291   2.338
  125XTA   HL2613971  30.946   3.171   2.365
  125XTA   HL2713972  30.930   3.250   2.617
  125XTA   HL2813973  30.801   3.356   2.546
  125XTA   HL2913974  30.700   3.154   2.440
  125XTA   HL3013975  30.796   3.051   2.544
  125XTA   HL3113976  30.678   3.153   2.743
  125XTA   HL3213977  30.622   3.282   2.642
  125XTA   HL3313978  30.488   3.113   2.527
  125XTA   HL3413979  30.550   2.979   2.611
  125XTA   HL3513980  30.316   2.948   2.688
  125XTA   HL3613981  30.276   3.077   2.596
  125XTA   HL3713982  30.179   3.050   3.021
  125XTA   HL3813983  30.346   3.100   2.983
  125XTA   HL3913984  30.369   2.858   2.905
  125XTA   HL4013985  30.191   2.837   2.944
  125XTA   HL4113986  30.305   2.870   3.066
  125XTA    CO813987  32.250   3.081   3.816
  125XTA    CO913988  32.342   2.895   3.934
  125XTA    OA613989  32.372   3.130   3.755
  125XTA   HL4213990  32.248   3.113   3.915
  125XTA   HL4313991  32.160   3.123   3.774
  125XTA   HL4413992  30.014   3.043   2.875
  125XTA   HL4513993  30.086   2.914   2.776
  125XTA   CO1013994  30.063   3.018   2.779
  125XTA   CO1113995  30.174   3.240   2.803
  125XTA    OA713996  30.068   3.301   2.883
  125XTA   HL4613997  30.276   3.289   2.818
  125XTA   HL4713998  30.142   3.245   2.693
  125XTA   HL4813999  32.434   2.938   3.899
  125XTA   HL4914000  32.318   2.940   4.034
  126XTA     NT14001  28.535   4.495   3.672
  126XTA    CN114002  28.510   4.503   3.801
  126XTA     C114003  28.404   4.587   3.830
  126XTA     C214004  28.378   4.608   3.967
  126XTA     C314005  28.444   4.541   4.069
  126XTA     C414006  28.552   4.453   4.040
  126XTA     C514007  28.585   4.425   3.903
  126XTA    CN214008  28.465   4.406   3.592
  126XTA     C614009  28.478   4.272   3.623
  126XTA     C714010  28.412   4.174   3.544
  126XTA     C814011  28.336   4.219   3.432
  126XTA     C914012  28.326   4.358   3.397
  126XTA    C1014013  28.392   4.448   3.480
  126XTA    CN314014  28.636   4.578   3.625
  126XTA    C1114015  28.772   4.544   3.643
  126XTA    C1214016  28.878   4.633   3.622
  126XTA    C1314017  28.848   4.758   3.561
  126XTA    C1414018  28.723   4.779   3.518
  126XTA    C1514019  28.611   4.696   3.553
  126XTA     H114020  28.342   4.629   3.758
  126XTA     H214021  28.304   4.678   4.004
  126XTA     H314022  28.610   4.406   4.124
  126XTA     H414023  28.671   4.371   3.867
  126XTA     H514024  28.532   4.245   3.719
  126XTA     H614025  28.389   4.073   3.579
  126XTA     H714026  28.286   4.390   3.303
  126XTA     H814027  28.385   4.550   3.453
  126XTA     H914028  28.801   4.448   3.677
  126XTA    H1014029  28.985   4.610   3.654
  126XTA    H1114030  28.700   4.868   3.456
  126XTA    H1214031  28.518   4.734   3.528
  126XTA    OA114032  28.404   4.583   4.191
  126XTA    CO114033  28.485   4.568   4.300
  126XTA    OA214034  28.278   4.124   3.354
  126XTA    CO214035  28.361   4.022   3.309
  126XTA    CL114036  28.378   4.027   3.160
  126XTA    CL214037  28.473   3.919   3.120
  126XTA    CL314038  28.482   3.894   2.966
  126XTA    CL414039  28.494   3.750   2.914
  126XTA    CO314040  28.373   3.700   2.836
  126XTA    OA314041  28.261   3.730   2.921
  126XTA    CO414042  28.137   3.680   2.866
  126XTA    CT114043  28.022   3.682   2.976
  126XTA    CL514044  28.042   3.562   3.068
  126XTA    CL614045  28.167   3.562   3.160
  126XTA    OA414046  28.950   4.850   3.535
  126XTA    CO514047  28.925   4.992   3.535
  126XTA    CL714048  29.057   5.057   3.592
  126XTA    CL814049  29.023   5.203   3.632
  126XTA    CL914050  29.142   5.291   3.636
  126XTA   CL1014051  29.225   5.268   3.760
  126XTA    CO614052  29.154   5.266   3.894
  126XTA    OA514053  29.072   5.382   3.917
  126XTA    CO714054  28.989   5.366   4.030
  126XTA    CT214055  28.871   5.473   4.021
  126XTA   CL1114056  28.782   5.471   3.895
  126XTA   CL1214057  28.863   5.530   3.773
  126XTA    HL114058  28.521   4.468   4.316
  126XTA    HL214059  28.566   4.643   4.286
  126XTA    HL314060  28.430   4.603   4.381
  126XTA    HL414061  28.458   4.025   3.358
  126XTA    HL514062  28.311   3.929   3.341
  126XTA    HL614063  28.404   4.127   3.136
  126XTA    HL714064  28.275   4.014   3.113
  126XTA    HL814065  28.443   3.827   3.175
  126XTA    HL914066  28.579   3.928   3.147
  126XTA   HL1014067  28.398   3.945   2.917
  126XTA   HL1114068  28.564   3.952   2.930
  126XTA   HL1214069  28.509   3.673   2.990
  126XTA   HL1314070  28.584   3.744   2.851
  126XTA   HL1414071  28.366   3.753   2.740
  126XTA   HL1514072  28.390   3.594   2.818
  126XTA   HL1614073  28.095   3.748   2.792
  126XTA   HL1714074  28.144   3.578   2.824
  126XTA   HL1814075  28.031   3.469   3.018
  126XTA   HL1914076  27.956   3.565   3.141
  126XTA   HL2014077  28.258   3.588   3.107
  126XTA   HL2114078  28.176   3.465   3.206
  126XTA   HL2214079  28.147   3.630   3.252
  126XTA   HL2314080  28.843   5.009   3.605
  126XTA   HL2414081  28.893   5.035   3.442
  126XTA   HL2514082  29.104   5.006   3.678
  126XTA   HL2614083  29.125   5.048   3.517
  126XTA   HL2714084  28.961   5.252   3.556
  126XTA   HL2814085  28.972   5.221   3.719
  126XTA   HL2914086  29.192   5.285   3.539
  126XTA   HL3014087  29.101   5.387   3.636
  126XTA   HL3114088  29.300   5.190   3.746
  126XTA   HL3214089  29.291   5.353   3.759
  126XTA   HL3314090  29.089   5.179   3.901
  126XTA   HL3414091  29.225   5.262   3.976
  126XTA   HL3514092  29.034   5.383   4.124
  126XTA   HL3614093  28.937   5.260   4.026
  126XTA   HL3714094  28.685   5.529   3.914
  126XTA   HL3814095  28.750   5.373   3.872
  126XTA   HL3914096  28.891   5.637   3.785
  126XTA   HL4014097  28.806   5.525   3.688
  126XTA   HL4114098  28.952   5.468   3.751
  126XTA    CO814099  27.882   3.664   2.910
  126XTA    CO914100  28.027   3.814   3.050
  126XTA    OA614101  27.831   3.766   2.823
  126XTA   HL4214102  27.809   3.640   2.987
  126XTA   HL4314103  27.876   3.565   2.860
  126XTA   HL4414104  28.993   5.648   3.958
  126XTA   HL4514105  28.846   5.688   4.051
  126XTA   CO1014106  28.929   5.621   4.040
  126XTA   CO1114107  28.773   5.451   4.137
  126XTA    OA714108  28.989   5.635   4.171
  126XTA   HL4614109  28.711   5.541   4.136
  126XTA   HL4714110  28.823   5.452   4.230
  126XTA   HL4814111  27.999   3.896   2.978
  126XTA   HL4914112  28.130   3.826   3.091
  127XTA     NT14113  30.309   3.917   5.649
  127XTA    CN114114  30.183   3.943   5.679
  127XTA     C114115  30.090   3.847   5.653
  127XTA     C214116  29.967   3.853   5.711
  127XTA     C314117  29.919   3.965   5.779
  127XTA     C414118  30.022   4.060   5.815
  127XTA     C514119  30.154   4.047   5.770
  127XTA    CN214120  30.369   3.839   5.746
  127XTA     C614121  30.465   3.892   5.833
  127XTA     C714122  30.514   3.819   5.944
  127XTA     C814123  30.486   3.684   5.950
  127XTA     C914124  30.410   3.624   5.849
  127XTA    C1014125  30.349   3.702   5.748
  127XTA    CN314126  30.386   3.990   5.561
  127XTA    C1114127  30.468   3.918   5.478
  127XTA    C1214128  30.542   3.981   5.381
  127XTA    C1314129  30.538   4.121   5.369
  127XTA    C1414130  30.441   4.193   5.446
  127XTA    C1514131  30.372   4.125   5.548
  127XTA     H114132  30.132   3.771   5.594
  127XTA     H214133  29.907   3.770   5.685
  127XTA     H314134  29.993   4.148   5.872
  127XTA     H414135  30.233   4.120   5.790
  127XTA     H514136  30.491   4.001   5.821
  127XTA     H614137  30.588   3.864   6.017
  127XTA     H714138  30.371   3.528   5.863
  127XTA     H814139  30.277   3.658   5.681
  127XTA     H914140  30.487   3.813   5.481
  127XTA    H1014141  30.611   3.920   5.331
  127XTA    H1114142  30.444   4.304   5.433
  127XTA    H1214143  30.296   4.180   5.616
  127XTA    OA114144  29.794   3.974   5.836
  127XTA    CO114145  29.708   3.860   5.839
  127XTA    OA214146  30.542   3.621   6.064
  127XTA    CO214147  30.504   3.485   6.082
  127XTA    CL114148  30.529   3.445   6.223
  127XTA    CL214149  30.521   3.293   6.230
  127XTA    CL314150  30.658   3.229   6.236
  127XTA    CL414151  30.715   3.213   6.375
  127XTA    CO314152  30.866   3.202   6.361
  127XTA    OA314153  30.927   3.302   6.272
  127XTA    CO414154  30.903   3.436   6.319
  127XTA    CT114155  30.972   3.542   6.219
  127XTA    CL514156  31.132   3.520   6.202
  127XTA    CL614157  31.217   3.515   6.330
  127XTA    OA414158  30.625   4.187   5.272
  127XTA    CO514159  30.676   4.114   5.164
  127XTA    CL714160  30.731   4.215   5.063
  127XTA    CL814161  30.746   4.156   4.925
  127XTA    CL914162  30.790   4.266   4.830
  127XTA   CL1014163  30.719   4.249   4.694
  127XTA    CO614164  30.756   4.356   4.588
  127XTA    OA514165  30.738   4.484   4.630
  127XTA    CO714166  30.849   4.545   4.691
  127XTA    CT214167  30.805   4.666   4.772
  127XTA   CL1114168  30.711   4.638   4.888
  127XTA   CL1214169  30.570   4.577   4.856
  127XTA    HL114170  29.746   3.777   5.901
  127XTA    HL214171  29.610   3.883   5.883
  127XTA    HL314172  29.692   3.830   5.739
  127XTA    HL414173  30.396   3.490   6.070
  127XTA    HL514174  30.544   3.430   5.993
  127XTA    HL614175  30.468   3.487   6.291
  127XTA    HL714176  30.622   3.485   6.248
  127XTA    HL814177  30.444   3.251   6.171
  127XTA    HL914178  30.476   3.268   6.322
  127XTA   HL1014179  30.660   3.125   6.193
  127XTA   HL1114180  30.719   3.292   6.172
  127XTA   HL1214181  30.685   3.121   6.419
  127XTA   HL1314182  30.690   3.300   6.442
  127XTA   HL1414183  30.906   3.221   6.459
  127XTA   HL1514184  30.895   3.102   6.314
  127XTA   HL1614185  30.798   3.464   6.313
  127XTA   HL1714186  30.943   3.446   6.421
  127XTA   HL1814187  31.162   3.586   6.125
  127XTA   HL1914188  31.144   3.412   6.175
  127XTA   HL2014189  31.325   3.515   6.302
  127XTA   HL2114190  31.196   3.424   6.387
  127XTA   HL2214191  31.199   3.604   6.389
  127XTA   HL2314192  30.600   4.049   5.125
  127XTA   HL2414193  30.754   4.056   5.210
  127XTA   HL2514194  30.655   4.293   5.046
  127XTA   HL2614195  30.818   4.271   5.104
  127XTA   HL2714196  30.817   4.067   4.925
  127XTA   HL2814197  30.647   4.119   4.899
  127XTA   HL2914198  30.764   4.360   4.883
  127XTA   HL3014199  30.895   4.247   4.822
  127XTA   HL3114200  30.731   4.147   4.660
  127XTA   HL3214201  30.613   4.263   4.723
  127XTA   HL3314202  30.859   4.337   4.560
  127XTA   HL3414203  30.702   4.333   4.496
  127XTA   HL3514204  30.914   4.567   4.607
  127XTA   HL3614205  30.899   4.483   4.768
  127XTA   HL3714206  30.695   4.734   4.947
  127XTA   HL3814207  30.759   4.562   4.962
  127XTA   HL3914208  30.512   4.582   4.949
  127XTA   HL4014209  30.571   4.471   4.823
  127XTA   HL4114210  30.522   4.637   4.775
  127XTA    CO814211  30.942   3.683   6.274
  127XTA    CO914212  30.907   3.525   6.088
  127XTA    OA614213  30.955   3.623   5.995
  127XTA   HL4214214  30.836   3.691   6.308
  127XTA   HL4314215  30.941   3.751   6.184
  127XTA   HL4414216  30.787   4.774   4.585
  127XTA   HL4514217  30.643   4.764   4.666
  127XTA   CO1014218  30.751   4.782   4.685
  127XTA   CO1114219  30.936   4.708   4.838
  127XTA    OA714220  31.045   4.726   4.750
  127XTA   HL4614221  30.924   4.785   4.911
  127XTA   HL4714222  30.967   4.626   4.901
  127XTA   HL4814223  30.797   3.530   6.096
  127XTA   HL4914224  30.934   3.428   6.051
  128XTA     NT14225  26.817   8.099   6.013
  128XTA    CN114226  26.815   8.231   5.975
  128XTA     C114227  26.932   8.296   5.938
  128XTA     C214228  26.933   8.431   5.890
  128XTA     C314229  26.813   8.499   5.875
  128XTA     C414230  26.695   8.435   5.917
  128XTA     C514231  26.689   8.299   5.955
  128XTA    CN214232  26.779   8.010   5.922
  128XTA     C614233  26.843   7.982   5.802
  128XTA     C714234  26.798   7.874   5.722
  128XTA     C814235  26.686   7.789   5.752
  128XTA     C914236  26.625   7.813   5.880
  128XTA    C1014237  26.664   7.931   5.956
  128XTA    CN314238  26.873   8.061   6.130
  128XTA    C1114239  26.798   8.049   6.249
  128XTA    C1214240  26.856   8.009   6.368
  128XTA    C1314241  26.991   7.975   6.368
  128XTA    C1414242  27.071   7.989   6.255
  128XTA    C1514243  27.011   8.030   6.136
  128XTA     H114244  27.023   8.238   5.948
  128XTA     H214245  27.023   8.473   5.850
  128XTA     H314246  26.596   8.484   5.915
  128XTA     H414247  26.587   8.272   5.979
  128XTA     H514248  26.930   8.039   5.768
  128XTA     H614249  26.851   7.856   5.629
  128XTA     H714250  26.537   7.765   5.909
  128XTA     H814251  26.603   7.945   6.040
  128XTA     H914252  26.692   8.071   6.239
  128XTA    H1014253  26.786   7.995   6.458
  128XTA    H1114254  27.172   7.961   6.265
  128XTA    H1214255  27.074   8.047   6.053
  128XTA    OA114256  26.812   8.633   5.835
  128XTA    CO114257  26.693   8.712   5.850
  128XTA    OA214258  26.639   7.695   5.665
  128XTA    CO214259  26.501   7.705   5.641
  128XTA    CL114260  26.440   7.840   5.602
  128XTA    CL214261  26.283   7.836   5.598
  128XTA    CL314262  26.238   7.973   5.563
  128XTA    CL414263  26.114   8.007   5.641
  128XTA    CO314264  26.017   8.104   5.570
  128XTA    OA314265  25.909   8.146   5.656
  128XTA    CO414266  25.791   8.059   5.658
  128XTA    CT114267  25.702   8.107   5.767
  128XTA    CL514268  25.762   8.080   5.904
  128XTA    CL614269  25.797   7.933   5.939
  128XTA    OA414270  27.044   7.910   6.469
  128XTA    CO514271  26.970   7.876   6.580
  128XTA    CL714272  27.061   7.795   6.668
  128XTA    CL814273  27.004   7.745   6.800
  128XTA    CL914274  27.048   7.609   6.846
  128XTA   CL1014275  27.094   7.610   6.989
  128XTA    CO614276  27.106   7.475   7.065
  128XTA    OA514277  27.142   7.499   7.204
  128XTA    CO714278  27.269   7.563   7.230
  128XTA    CT214279  27.314   7.547   7.375
  128XTA   CL1114280  27.304   7.404   7.411
  128XTA   CL1214281  27.352   7.300   7.309
  128XTA    HL114282  26.611   8.653   5.807
  128XTA    HL214283  26.671   8.727   5.957
  128XTA    HL314284  26.692   8.806   5.790
  128XTA    HL414285  26.481   7.642   5.558
  128XTA    HL514286  26.446   7.663   5.729
  128XTA    HL614287  26.479   7.871   5.499
  128XTA    HL714288  26.479   7.918   5.669
  128XTA    HL814289  26.230   7.803   5.688
  128XTA    HL914290  26.236   7.773   5.519
  128XTA   HL1014291  26.315   8.050   5.592
  128XTA   HL1114292  26.230   7.969   5.452
  128XTA   HL1214293  26.138   8.042   5.744
  128XTA   HL1314294  26.048   7.923   5.657
  128XTA   HL1414295  26.072   8.195   5.541
  128XTA   HL1514296  25.984   8.061   5.471
  128XTA   HL1614297  25.744   8.086   5.560
  128XTA   HL1714298  25.807   7.953   5.674
  128XTA   HL1814299  25.681   8.107   5.971
  128XTA   HL1914300  25.851   8.143   5.915
  128XTA   HL2014301  25.875   7.895   5.874
  128XTA   HL2114302  25.703   7.874   5.938
  128XTA   HL2214303  25.851   7.923   6.034
  128XTA   HL2314304  26.883   7.816   6.548
  128XTA   HL2414305  26.931   7.969   6.625
  128XTA   HL2514306  27.101   7.716   6.608
  128XTA   HL2614307  27.143   7.861   6.686
  128XTA   HL2714308  27.027   7.822   6.876
  128XTA   HL2814309  26.891   7.741   6.797
  128XTA   HL2914310  26.970   7.534   6.831
  128XTA   HL3014311  27.139   7.592   6.792
  128XTA   HL3114312  27.191   7.665   6.998
  128XTA   HL3214313  27.016   7.662   7.041
  128XTA   HL3314314  27.018   7.414   7.062
  128XTA   HL3414315  27.193   7.418   7.023
  128XTA   HL3514316  27.259   7.668   7.212
  128XTA   HL3614317  27.338   7.516   7.160
  128XTA   HL3714318  27.202   7.382   7.443
  128XTA   HL3814319  27.363   7.390   7.502
  128XTA   HL3914320  27.295   7.289   7.214
  128XTA   HL4014321  27.351   7.201   7.364
  128XTA   HL4114322  27.462   7.318   7.284
  128XTA    CO814323  25.557   8.042   5.758
  128XTA    CO914324  25.676   8.260   5.745
  128XTA    OA614325  25.573   8.296   5.840
  128XTA   HL4214326  25.484   8.084   5.831
  128XTA   HL4314327  25.561   7.934   5.778
  128XTA   HL4414328  27.217   7.725   7.411
  128XTA   HL4514329  27.265   7.647   7.553
  128XTA   CO1014330  27.214   7.625   7.463
  128XTA   CO1114331  27.456   7.603   7.403
  128XTA    OA714332  27.457   7.742   7.387
  128XTA   HL4614333  27.500   7.584   7.497
  128XTA   HL4714334  27.528   7.558   7.330
  128XTA   HL4814335  25.648   8.289   5.638
  128XTA   HL4914336  25.769   8.308   5.771
  129XTA     NT14337  24.384   3.582  -1.615
  129XTA    CN114338  24.308   3.689  -1.650
  129XTA     C114339  24.252   3.695  -1.779
  129XTA     C214340  24.164   3.797  -1.814
  129XTA     C314341  24.133   3.902  -1.727
  129XTA     C414342  24.194   3.904  -1.601
  129XTA     C514343  24.282   3.802  -1.564
  129XTA    CN214344  24.514   3.595  -1.638
  129XTA     C614345  24.575   3.533  -1.748
  129XTA     C714346  24.710   3.546  -1.770
  129XTA     C814347  24.782   3.617  -1.672
  129XTA     C914348  24.723   3.663  -1.551
  129XTA    C1014349  24.588   3.656  -1.537
  129XTA    CN314350  24.337   3.455  -1.601
  129XTA    C1114351  24.313   3.406  -1.469
  129XTA    C1214352  24.267   3.274  -1.444
  129XTA    C1314353  24.249   3.186  -1.557
  129XTA    C1414354  24.276   3.236  -1.687
  129XTA    C1514355  24.307   3.370  -1.707
  129XTA     H114356  24.270   3.618  -1.853
  129XTA     H214357  24.115   3.801  -1.906
  129XTA     H314358  24.177   3.989  -1.541
  129XTA     H414359  24.328   3.790  -1.468
  129XTA     H514360  24.516   3.487  -1.819
  129XTA     H614361  24.752   3.497  -1.858
  129XTA     H714362  24.781   3.720  -1.482
  129XTA     H814363  24.536   3.692  -1.453
  129XTA     H914364  24.347   3.472  -1.395
  129XTA    H1014365  24.268   3.227  -1.344
  129XTA    H1114366  24.251   3.171  -1.773
  129XTA    H1214367  24.324   3.392  -1.810
  129XTA    OA114368  24.032   3.991  -1.765
  129XTA    CO114369  24.016   4.098  -1.676
  129XTA    OA214370  24.917   3.631  -1.689
  129XTA    CO214371  25.000   3.587  -1.582
  129XTA    CL114372  25.153   3.566  -1.627
  129XTA    CL214373  25.162   3.454  -1.727
  129XTA    CL314374  25.300   3.429  -1.796
  129XTA    CL414375  25.397   3.357  -1.699
  129XTA    CO314376  25.503   3.273  -1.781
  129XTA    OA314377  25.428   3.173  -1.839
  129XTA    CO414378  25.487   3.107  -1.953
  129XTA    CT114379  25.392   3.000  -2.015
  129XTA    CL514380  25.245   3.067  -2.023
  129XTA    CL614381  25.125   2.986  -2.088
  129XTA    OA414382  24.211   3.058  -1.545
  129XTA    CO514383  24.221   3.003  -1.416
  129XTA    CL714384  24.157   2.859  -1.416
  129XTA    CL814385  24.206   2.768  -1.302
  129XTA    CL914386  24.155   2.624  -1.317
  129XTA   CL1014387  24.012   2.597  -1.279
  129XTA    CO614388  23.994   2.469  -1.189
  129XTA    OA514389  24.100   2.463  -1.088
  129XTA    CO714390  24.089   2.567  -0.992
  129XTA    CT214391  24.203   2.592  -0.892
  129XTA   CL1114392  24.318   2.661  -0.969
  129XTA   CL1214393  24.433   2.722  -0.888
  129XTA    HL114394  23.984   4.068  -1.577
  129XTA    HL214395  24.116   4.150  -1.653
  129XTA    HL314396  23.942   4.173  -1.708
  129XTA    HL414397  24.997   3.657  -1.502
  129XTA    HL514398  24.958   3.486  -1.548
  129XTA    HL614399  25.211   3.535  -1.546
  129XTA    HL714400  25.182   3.663  -1.664
  129XTA    HL814401  25.082   3.482  -1.797
  129XTA    HL914402  25.118   3.363  -1.673
  129XTA   HL1014403  25.290   3.363  -1.883
  129XTA   HL1114404  25.342   3.528  -1.824
  129XTA   HL1214405  25.341   3.287  -1.640
  129XTA   HL1314406  25.454   3.427  -1.627
  129XTA   HL1414407  25.540   3.351  -1.843
  129XTA   HL1514408  25.580   3.228  -1.719
  129XTA   HL1614409  25.515   3.175  -2.021
  129XTA   HL1714410  25.586   3.063  -1.931
  129XTA   HL1814411  25.259   3.152  -2.089
  129XTA   HL1914412  25.214   3.109  -1.923
  129XTA   HL2014413  25.125   2.967  -2.199
  129XTA   HL2114414  25.036   3.044  -2.073
  129XTA   HL2214415  25.104   2.892  -2.037
  129XTA   HL2314416  24.161   3.059  -1.337
  129XTA   HL2414417  24.322   3.005  -1.375
  129XTA   HL2514418  24.045   2.875  -1.420
  129XTA   HL2614419  24.181   2.809  -1.511
  129XTA   HL2714420  24.312   2.782  -1.302
  129XTA   HL2814421  24.175   2.808  -1.203
  129XTA   HL2914422  24.180   2.570  -1.409
  129XTA   HL3014423  24.229   2.576  -1.255
  129XTA   HL3114424  23.966   2.676  -1.225
  129XTA   HL3214425  23.949   2.594  -1.367
  129XTA   HL3314426  23.894   2.460  -1.144
  129XTA   HL3414427  24.014   2.378  -1.250
  129XTA   HL3514428  23.998   2.547  -0.942
  129XTA   HL3614429  24.070   2.659  -1.044
  129XTA   HL3714430  24.286   2.744  -1.035
  129XTA   HL3814431  24.357   2.596  -1.035
  129XTA   HL3914432  24.499   2.642  -0.866
  129XTA   HL4014433  24.406   2.784  -0.798
  129XTA   HL4114434  24.483   2.786  -0.962
  129XTA    CO814435  25.376   2.878  -1.921
  129XTA    CO914436  25.447   2.959  -2.154
  129XTA    OA614437  25.311   2.799  -1.967
  129XTA   HL4214438  25.326   2.920  -1.831
  129XTA   HL4314439  25.472   2.841  -1.892
  129XTA   HL4414440  24.147   2.390  -0.793
  129XTA   HL4514441  24.282   2.392  -0.905
  129XTA   CO1014442  24.234   2.451  -0.828
  129XTA   CO1114443  24.141   2.685  -0.782
  129XTA    OA714444  24.322   2.471  -0.719
  129XTA   HL4614445  24.218   2.708  -0.708
  129XTA   HL4714446  24.058   2.635  -0.727
  129XTA   HL4814447  25.340   2.876  -2.206
  129XTA   HL4914448  25.516   2.874  -2.135
  130XTA     NT14449  31.083  -0.670  -0.662
  130XTA    CN114450  30.983  -0.715  -0.582
  130XTA     C114451  30.989  -0.689  -0.448
  130XTA     C214452  30.879  -0.714  -0.363
  130XTA     C314453  30.771  -0.793  -0.409
  130XTA     C414454  30.769  -0.830  -0.545
  130XTA     C514455  30.873  -0.788  -0.630
  130XTA    CN214456  31.120  -0.537  -0.661
  130XTA     C614457  31.252  -0.499  -0.658
  130XTA     C714458  31.293  -0.367  -0.686
  130XTA     C814459  31.201  -0.259  -0.681
  130XTA     C914460  31.065  -0.297  -0.682
  130XTA    C1014461  31.024  -0.432  -0.664
  130XTA    CN314462  31.159  -0.752  -0.739
  130XTA    C1114463  31.148  -0.747  -0.883
  130XTA    C1214464  31.235  -0.832  -0.962
  130XTA    C1314465  31.321  -0.925  -0.900
  130XTA    C1414466  31.336  -0.922  -0.761
  130XTA    C1514467  31.261  -0.833  -0.684
  130XTA     H114468  31.063  -0.615  -0.407
  130XTA     H214469  30.887  -0.684  -0.261
  130XTA     H314470  30.694  -0.892  -0.584
  130XTA     H414471  30.857  -0.813  -0.731
  130XTA     H514472  31.324  -0.587  -0.647
  130XTA     H614473  31.401  -0.355  -0.689
  130XTA     H714474  30.994  -0.220  -0.689
  130XTA     H814475  30.921  -0.461  -0.659
  130XTA     H914476  31.068  -0.687  -0.927
  130XTA    H1014477  31.247  -0.832  -1.068
  130XTA    H1114478  31.410  -0.992  -0.715
  130XTA    H1214479  31.277  -0.835  -0.581
  130XTA    OA114480  30.652  -0.819  -0.340
  130XTA    CO114481  30.645  -0.765  -0.210
  130XTA    OA214482  31.231  -0.133  -0.694
  130XTA    CO214483  31.367  -0.087  -0.688
  130XTA    CL114484  31.370   0.061  -0.692
  130XTA    CL214485  31.512   0.103  -0.699
  130XTA    CL314486  31.542   0.250  -0.672
  130XTA    CL414487  31.689   0.282  -0.692
  130XTA    CO314488  31.712   0.427  -0.666
  130XTA    OA314489  31.664   0.466  -0.541
  130XTA    CO414490  31.625   0.602  -0.533
  130XTA    CT114491  31.589   0.637  -0.390
  130XTA    CL514492  31.721   0.648  -0.308
  130XTA    CL614493  31.698   0.655  -0.154
  130XTA    OA414494  31.400  -1.002  -0.973
  130XTA    CO514495  31.377  -1.145  -0.956
  130XTA    CL714496  31.373  -1.222  -1.086
  130XTA    CL814497  31.253  -1.184  -1.177
  130XTA    CL914498  31.266  -1.059  -1.252
  130XTA   CL1014499  31.129  -0.995  -1.288
  130XTA    CO614500  31.156  -0.887  -1.391
  130XTA    OA514501  31.249  -0.796  -1.337
  130XTA    CO714502  31.293  -0.690  -1.419
  130XTA    CT214503  31.353  -0.564  -1.348
  130XTA   CL1114504  31.406  -0.467  -1.458
  130XTA   CL1214505  31.291  -0.396  -1.540
  130XTA    HL114506  30.701  -0.822  -0.139
  130XTA    HL214507  30.659  -0.655  -0.218
  130XTA    HL314508  30.549  -0.777  -0.160
  130XTA    HL414509  31.402  -0.107  -0.591
  130XTA    HL514510  31.421  -0.139  -0.767
  130XTA    HL614511  31.310   0.108  -0.610
  130XTA    HL714512  31.302   0.094  -0.766
  130XTA    HL814513  31.561   0.083  -0.796
  130XTA    HL914514  31.574   0.046  -0.631
  130XTA   HL1014515  31.475   0.309  -0.735
  130XTA   HL1114516  31.517   0.285  -0.573
  130XTA   HL1214517  31.737   0.260  -0.784
  130XTA   HL1314518  31.743   0.237  -0.616
  130XTA   HL1414519  31.819   0.443  -0.688
  130XTA   HL1514520  31.650   0.480  -0.745
  130XTA   HL1614521  31.708   0.650  -0.573
  130XTA   HL1714522  31.541   0.631  -0.603
  130XTA   HL1814523  31.782   0.730  -0.350
  130XTA   HL1914524  31.765   0.552  -0.337
  130XTA   HL2014525  31.791   0.701  -0.120
  130XTA   HL2114526  31.675   0.556  -0.114
  130XTA   HL2214527  31.627   0.726  -0.130
  130XTA   HL2314528  31.284  -1.155  -0.905
  130XTA   HL2414529  31.453  -1.187  -0.894
  130XTA   HL2514530  31.469  -1.223  -1.152
  130XTA   HL2614531  31.361  -1.331  -1.064
  130XTA   HL2714532  31.234  -1.258  -1.252
  130XTA   HL2814533  31.166  -1.165  -1.112
  130XTA   HL2914534  31.316  -0.973  -1.197
  130XTA   HL3014535  31.331  -1.070  -1.338
  130XTA   HL3114536  31.057  -1.064  -1.329
  130XTA   HL3214537  31.088  -0.956  -1.194
  130XTA   HL3314538  31.190  -0.930  -1.480
  130XTA   HL3414539  31.080  -0.824  -1.427
  130XTA   HL3514540  31.207  -0.666  -1.482
  130XTA   HL3614541  31.362  -0.728  -1.499
  130XTA   HL3714542  31.464  -0.541  -1.514
  130XTA   HL3814543  31.478  -0.390  -1.423
  130XTA   HL3914544  31.211  -0.457  -1.588
  130XTA   HL4014545  31.343  -0.353  -1.621
  130XTA   HL4114546  31.248  -0.321  -1.479
  130XTA    CO814547  31.493   0.533  -0.330
  130XTA    CO914548  31.509   0.769  -0.392
  130XTA    OA614549  31.597   0.868  -0.452
  130XTA   HL4214550  31.539   0.439  -0.322
  130XTA   HL4314551  31.454   0.560  -0.229
  130XTA   HL4414552  31.450  -0.676  -1.188
  130XTA   HL4514553  31.552  -0.657  -1.326
  130XTA   CO1014554  31.482  -0.601  -1.267
  130XTA   CO1114555  31.265  -0.494  -1.242
  130XTA    OA714556  31.528  -0.504  -1.229
  130XTA   HL4614557  31.259  -0.550  -1.116
  130XTA   HL4714558  31.307  -0.397  -1.230
  130XTA   HL4814559  31.479   0.800  -0.294
  130XTA   HL4914560  31.415   0.753  -0.443
  131XTA     NT14561  25.687   4.471  -1.230
  131XTA    CN114562  25.734   4.525  -1.120
  131XTA     C114563  25.833   4.459  -1.036
  131XTA     C214564  25.897   4.529  -0.928
  131XTA     C314565  25.858   4.658  -0.885
  131XTA     C414566  25.763   4.719  -0.974
  131XTA     C514567  25.703   4.659  -1.084
  131XTA    CN214568  25.773   4.404  -1.313
  131XTA     C614569  25.747   4.269  -1.331
  131XTA     C714570  25.819   4.200  -1.431
  131XTA     C814571  25.919   4.267  -1.498
  131XTA     C914572  25.939   4.408  -1.487
  131XTA    C1014573  25.865   4.472  -1.390
  131XTA    CN314574  25.557   4.472  -1.265
  131XTA    C1114575  25.517   4.549  -1.380
  131XTA    C1214576  25.383   4.547  -1.423
  131XTA    C1314577  25.279   4.483  -1.361
  131XTA    C1414578  25.315   4.406  -1.251
  131XTA    C1514579  25.454   4.398  -1.204
  131XTA     H114580  25.861   4.363  -1.066
  131XTA     H214581  25.977   4.474  -0.871
  131XTA     H314582  25.736   4.818  -0.947
  131XTA     H414583  25.623   4.701  -1.147
  131XTA     H514584  25.676   4.211  -1.269
  131XTA     H614585  25.806   4.094  -1.453
  131XTA     H714586  26.006   4.456  -1.549
  131XTA     H814587  25.865   4.581  -1.385
  131XTA     H914588  25.579   4.618  -1.435
  131XTA    H1014589  25.362   4.608  -1.505
  131XTA    H1114590  25.247   4.339  -1.208
  131XTA    H1214591  25.466   4.337  -1.116
  131XTA    OA114592  25.912   4.717  -0.779
  131XTA    CO114593  25.893   4.857  -0.763
  131XTA    OA214594  26.005   4.208  -1.584
  131XTA    CO214595  26.082   4.111  -1.513
  131XTA    CL114596  26.224   4.157  -1.535
  131XTA    CL214597  26.269   4.296  -1.474
  131XTA    CL314598  26.408   4.334  -1.512
  131XTA    CL414599  26.415   4.425  -1.633
  131XTA    CO314600  26.539   4.381  -1.713
  131XTA    OA314601  26.520   4.249  -1.759
  131XTA    CO414602  26.619   4.202  -1.859
  131XTA    CT114603  26.598   4.056  -1.907
  131XTA    CL514604  26.560   3.963  -1.785
  131XTA    CL614605  26.642   3.987  -1.655
  131XTA    OA414606  25.155   4.480  -1.421
  131XTA    CO514607  25.056   4.385  -1.376
  131XTA    CL714608  25.095   4.248  -1.424
  131XTA    CL814609  25.021   4.213  -1.553
  131XTA    CL914610  25.049   4.074  -1.593
  131XTA   CL1014611  25.031   4.049  -1.739
  131XTA    CO614612  25.019   3.899  -1.768
  131XTA    OA514613  25.038   3.866  -1.905
  131XTA    CO714614  25.047   3.722  -1.931
  131XTA    CT214615  25.086   3.684  -2.075
  131XTA   CL1114616  25.206   3.765  -2.130
  131XTA   CL1214617  25.340   3.710  -2.078
  131XTA    HL114618  25.788   4.884  -0.748
  131XTA    HL214619  25.945   4.895  -0.677
  131XTA    HL314620  25.938   4.911  -0.849
  131XTA    HL414621  26.060   4.108  -1.407
  131XTA    HL514622  26.056   4.016  -1.551
  131XTA    HL614623  26.271   4.165  -1.632
  131XTA    HL714624  26.292   4.089  -1.476
  131XTA    HL814625  26.256   4.296  -1.364
  131XTA    HL914626  26.196   4.372  -1.504
  131XTA   HL1014627  26.458   4.392  -1.441
  131XTA   HL1114628  26.462   4.239  -1.522
  131XTA   HL1214629  26.412   4.527  -1.591
  131XTA   HL1314630  26.317   4.420  -1.682
  131XTA   HL1414631  26.559   4.452  -1.797
  131XTA   HL1514632  26.632   4.394  -1.650
  131XTA   HL1614633  26.627   4.270  -1.944
  131XTA   HL1714634  26.711   4.205  -1.803
  131XTA   HL1814635  26.558   3.858  -1.814
  131XTA   HL1914636  26.461   3.992  -1.740
  131XTA   HL2014637  26.744   4.009  -1.692
  131XTA   HL2114638  26.647   3.903  -1.586
  131XTA   HL2214639  26.614   4.077  -1.592
  131XTA   HL2314640  24.962   4.412  -1.423
  131XTA   HL2414641  25.040   4.397  -1.269
  131XTA   HL2514642  25.204   4.244  -1.444
  131XTA   HL2614643  25.068   4.174  -1.347
  131XTA   HL2714644  24.912   4.234  -1.558
  131XTA   HL2814645  25.055   4.279  -1.628
  131XTA   HL2914646  25.156   4.052  -1.563
  131XTA   HL3014647  24.994   4.001  -1.532
  131XTA   HL3114648  24.954   4.110  -1.782
  131XTA   HL3214649  25.124   4.070  -1.796
  131XTA   HL3314650  25.102   3.856  -1.710
  131XTA   HL3414651  24.928   3.864  -1.726
  131XTA   HL3514652  24.946   3.692  -1.928
  131XTA   HL3614653  25.093   3.666  -1.853
  131XTA   HL3714654  25.198   3.873  -2.097
  131XTA   HL3814655  25.218   3.763  -2.245
  131XTA   HL3914656  25.344   3.706  -1.967
  131XTA   HL4014657  25.423   3.762  -2.118
  131XTA   HL4114658  25.345   3.602  -2.114
  131XTA    CO814659  26.722   4.013  -1.985
  131XTA    CO914660  26.478   4.051  -2.011
  131XTA    OA614661  26.812   4.034  -1.930
  131XTA   HL4214662  26.720   4.063  -2.085
  131XTA   HL4314663  26.715   3.910  -1.994
  131XTA   HL4414664  24.865   3.667  -2.136
  131XTA   HL4514665  24.990   3.686  -2.263
  131XTA   CO1014666  24.964   3.709  -2.162
  131XTA   CO1114667  25.122   3.533  -2.085
  131XTA    OA714668  25.148   3.489  -2.219
  131XTA   HL4614669  25.203   3.500  -2.022
  131XTA   HL4714670  25.040   3.477  -2.034
  131XTA   HL4814671  26.460   3.918  -2.049
  131XTA   HL4914672  26.509   4.090  -2.109
  132XTA     NT14673  28.239   5.252   0.389
  132XTA    CN114674  28.200   5.289   0.516
  132XTA     C114675  28.249   5.409   0.573
  132XTA     C214676  28.222   5.446   0.711
  132XTA     C314677  28.150   5.361   0.797
  132XTA     C414678  28.088   5.244   0.739
  132XTA     C514679  28.120   5.211   0.606
  132XTA    CN214680  28.173   5.321   0.289
  132XTA     C614681  28.034   5.333   0.276
  132XTA     C714682  27.972   5.398   0.169
  132XTA     C814683  28.049   5.451   0.068
  132XTA     C914684  28.188   5.437   0.071
  132XTA    C1014685  28.251   5.374   0.183
  132XTA    CN314686  28.351   5.177   0.376
  132XTA    C1114687  28.340   5.054   0.305
  132XTA    C1214688  28.455   4.976   0.283
  132XTA    C1314689  28.582   5.017   0.331
  132XTA    C1414690  28.592   5.134   0.406
  132XTA    C1514691  28.473   5.216   0.431
  132XTA     H114692  28.312   5.482   0.520
  132XTA     H214693  28.258   5.541   0.751
  132XTA     H314694  28.024   5.169   0.787
  132XTA     H414695  28.068   5.124   0.572
  132XTA     H514696  27.968   5.291   0.350
  132XTA     H614697  27.865   5.396   0.176
  132XTA     H714698  28.247   5.481  -0.010
  132XTA     H814699  28.356   5.364   0.179
  132XTA     H914700  28.252   5.015   0.266
  132XTA    H1014701  28.451   4.889   0.216
  132XTA    H1114702  28.683   5.173   0.454
  132XTA    H1214703  28.473   5.292   0.500
  132XTA    OA114704  28.125   5.388   0.929
  132XTA    CO114705  28.185   5.502   0.985
  132XTA    OA214706  27.983   5.525  -0.032
  132XTA    CO214707  28.043   5.504  -0.160
  132XTA    CL114708  27.942   5.522  -0.268
  132XTA    CL214709  27.841   5.411  -0.283
  132XTA    CL314710  27.727   5.460  -0.376
  132XTA    CL414711  27.602   5.367  -0.363
  132XTA    CO314712  27.523   5.371  -0.236
  132XTA    OA314713  27.431   5.260  -0.232
  132XTA    CO414714  27.300   5.305  -0.249
  132XTA    CT114715  27.195   5.199  -0.191
  132XTA    CL514716  27.227   5.069  -0.259
  132XTA    CL614717  27.117   4.960  -0.255
  132XTA    OA414718  28.697   4.949   0.297
  132XTA    CO514719  28.786   5.021   0.214
  132XTA    CL714720  28.931   5.000   0.258
  132XTA    CL814721  28.959   5.080   0.390
  132XTA    CL914722  28.943   5.234   0.375
  132XTA   CL1014723  28.972   5.305   0.509
  132XTA    CO614724  29.023   5.443   0.473
  132XTA    OA514725  29.124   5.439   0.371
  132XTA    CO714726  29.175   5.567   0.339
  132XTA    CT214727  29.245   5.563   0.204
  132XTA   CL1114728  29.159   5.489   0.101
  132XTA   CL1214729  29.033   5.567   0.047
  132XTA    HL114730  28.135   5.595   0.949
  132XTA    HL214731  28.183   5.496   1.092
  132XTA    HL314732  28.289   5.512   0.964
  132XTA    HL414733  28.122   5.572  -0.178
  132XTA    HL514734  28.087   5.404  -0.174
  132XTA    HL614735  27.991   5.537  -0.366
  132XTA    HL714736  27.885   5.611  -0.252
  132XTA    HL814737  27.801   5.390  -0.189
  132XTA    HL914738  27.889   5.320  -0.322
  132XTA   HL1014739  27.698   5.560  -0.346
  132XTA   HL1114740  27.754   5.467  -0.477
  132XTA   HL1214741  27.617   5.262  -0.382
  132XTA   HL1314742  27.530   5.395  -0.438
  132XTA   HL1414743  27.586   5.381  -0.144
  132XTA   HL1514744  27.471   5.471  -0.242
  132XTA   HL1614745  27.290   5.403  -0.202
  132XTA   HL1714746  27.271   5.322  -0.353
  132XTA   HL1814747  27.312   5.025  -0.205
  132XTA   HL1914748  27.247   5.102  -0.359
  132XTA   HL2014749  27.055   4.977  -0.161
  132XTA   HL2114750  27.162   4.864  -0.236
  132XTA   HL2214751  27.052   4.962  -0.340
  132XTA   HL2314752  28.762   5.126   0.208
  132XTA   HL2414753  28.786   4.972   0.114
  132XTA   HL2514754  28.946   4.890   0.265
  132XTA   HL2614755  29.001   5.036   0.179
  132XTA   HL2714756  28.895   5.039   0.472
  132XTA   HL2814757  29.060   5.053   0.419
  132XTA   HL2914758  29.012   5.268   0.299
  132XTA   HL3014759  28.840   5.261   0.345
  132XTA   HL3114760  28.879   5.324   0.566
  132XTA   HL3214761  29.049   5.236   0.559
  132XTA   HL3314762  28.936   5.496   0.436
  132XTA   HL3414763  29.061   5.496   0.568
  132XTA   HL3514764  29.237   5.604   0.423
  132XTA   HL3614765  29.083   5.628   0.328
  132XTA   HL3714766  29.132   5.394   0.140
  132XTA   HL3814767  29.210   5.469   0.010
  132XTA   HL3914768  29.073   5.649  -0.017
  132XTA   HL4014769  28.972   5.600   0.133
  132XTA   HL4114770  28.979   5.500  -0.016
  132XTA    CO814771  27.054   5.251  -0.205
  132XTA    CO914772  27.218   5.180  -0.038
  132XTA    OA614773  27.030   5.343  -0.141
  132XTA   HL4214774  26.974   5.176  -0.190
  132XTA   HL4314775  27.045   5.286  -0.312
  132XTA   HL4414776  29.427   5.495   0.311
  132XTA   HL4514777  29.338   5.379   0.243
  132XTA   CO1014778  29.376   5.476   0.221
  132XTA   CO1114779  29.284   5.702   0.152
  132XTA    OA714780  29.471   5.474   0.123
  132XTA   HL4614781  29.359   5.725   0.226
  132XTA   HL4714782  29.350   5.693   0.058
  132XTA   HL4814783  27.216   5.305   0.017
  132XTA   HL4914784  27.128   5.140   0.007
  133XTA     NT14785  23.119  -0.652   3.283
  133XTA    CN114786  23.040  -0.717   3.193
  133XTA     C114787  23.087  -0.829   3.127
  133XTA     C214788  23.011  -0.900   3.030
  133XTA     C314789  22.883  -0.846   2.995
  133XTA     C414790  22.828  -0.729   3.061
  133XTA     C514791  22.905  -0.680   3.171
  133XTA    CN214792  23.209  -0.561   3.243
  133XTA     C614793  23.332  -0.559   3.302
  133XTA     C714794  23.423  -0.456   3.279
  133XTA     C814795  23.387  -0.355   3.184
  133XTA     C914796  23.260  -0.361   3.120
  133XTA    C1014797  23.166  -0.461   3.150
  133XTA    CN314798  23.099  -0.674   3.414
  133XTA    C1114799  23.149  -0.791   3.474
  133XTA    C1214800  23.130  -0.809   3.611
  133XTA    C1314801  23.056  -0.719   3.692
  133XTA    C1414802  23.002  -0.613   3.629
  133XTA    C1514803  23.028  -0.579   3.496
  133XTA     H114804  23.182  -0.868   3.151
  133XTA     H214805  23.049  -0.989   2.980
  133XTA     H314806  22.729  -0.679   3.039
  133XTA     H414807  22.865  -0.595   3.220
  133XTA     H514808  23.335  -0.632   3.389
  133XTA     H614809  23.522  -0.469   3.321
  133XTA     H714810  23.246  -0.290   3.042
  133XTA     H814811  23.066  -0.454   3.114
  133XTA     H914812  23.216  -0.851   3.416
  133XTA    H1014813  23.178  -0.893   3.653
  133XTA    H1114814  22.942  -0.540   3.682
  133XTA    H1214815  22.993  -0.483   3.445
  133XTA    OA114816  22.813  -0.904   2.889
  133XTA    CO114817  22.744  -0.815   2.812
  133XTA    OA214818  23.471  -0.252   3.158
  133XTA    CO214819  23.487  -0.159   3.265
  133XTA    CL114820  23.520  -0.028   3.192
  133XTA    CL214821  23.534   0.085   3.294
  133XTA    CL314822  23.577   0.218   3.242
  133XTA    CL414823  23.493   0.262   3.115
  133XTA    CO314824  23.526   0.405   3.066
  133XTA    OA314825  23.438   0.407   2.951
  133XTA    CO414826  23.446   0.525   2.873
  133XTA    CT114827  23.319   0.528   2.789
  133XTA    CL514828  23.307   0.662   2.719
  133XTA    CL614829  23.260   0.779   2.819
  133XTA    OA414830  23.047  -0.732   3.826
  133XTA    CO514831  23.023  -0.866   3.876
  133XTA    CL714832  23.068  -0.872   4.021
  133XTA    CL814833  23.000  -0.773   4.113
  133XTA    CL914834  23.021  -0.811   4.258
  133XTA   CL1014835  22.911  -0.762   4.348
  133XTA    CO614836  22.883  -0.855   4.469
  133XTA    OA514837  22.754  -0.826   4.528
  133XTA    CO714838  22.750  -0.696   4.595
  133XTA    CT214839  22.647  -0.704   4.704
  133XTA   CL1114840  22.513  -0.755   4.649
  133XTA   CL1214841  22.465  -0.681   4.530
  133XTA    HL114842  22.682  -0.871   2.751
  133XTA    HL214843  22.672  -0.752   2.858
  133XTA    HL314844  22.811  -0.751   2.770
  133XTA    HL414845  23.390  -0.135   3.324
  133XTA    HL514846  23.561  -0.191   3.338
  133XTA    HL614847  23.439  -0.011   3.122
  133XTA    HL714848  23.608  -0.031   3.129
  133XTA    HL814849  23.584   0.053   3.382
  133XTA    HL914850  23.432   0.097   3.322
  133XTA   HL1014851  23.543   0.297   3.314
  133XTA   HL1114852  23.682   0.230   3.227
  133XTA   HL1214853  23.390   0.266   3.127
  133XTA   HL1314854  23.513   0.203   3.030
  133XTA   HL1414855  23.501   0.482   3.139
  133XTA   HL1514856  23.632   0.413   3.039
  133XTA   HL1614857  23.444   0.602   2.948
  133XTA   HL1714858  23.540   0.531   2.819
  133XTA   HL1814859  23.232   0.647   2.635
  133XTA   HL1914860  23.400   0.687   2.661
  133XTA   HL2014861  23.163   0.762   2.866
  133XTA   HL2114862  23.255   0.880   2.774
  133XTA   HL2214863  23.325   0.773   2.910
  133XTA   HL2314864  23.076  -0.940   3.814
  133XTA   HL2414865  22.914  -0.889   3.865
  133XTA   HL2514866  23.052  -0.973   4.065
  133XTA   HL2614867  23.176  -0.855   4.024
  133XTA   HL2714868  23.029  -0.677   4.103
  133XTA   HL2814869  22.895  -0.782   4.086
  133XTA   HL2914870  23.036  -0.917   4.264
  133XTA   HL3014871  23.110  -0.763   4.300
  133XTA   HL3114872  22.928  -0.661   4.386
  133XTA   HL3214873  22.824  -0.757   4.284
  133XTA   HL3314874  22.871  -0.962   4.439
  133XTA   HL3414875  22.967  -0.863   4.539
  133XTA   HL3514876  22.722  -0.627   4.519
  133XTA   HL3614877  22.846  -0.674   4.636
  133XTA   HL3714878  22.437  -0.748   4.726
  133XTA   HL3814879  22.508  -0.864   4.629
  133XTA   HL3914880  22.380  -0.734   4.489
  133XTA   HL4014881  22.541  -0.685   4.453
  133XTA   HL4114882  22.441  -0.586   4.569
  133XTA    CO814883  23.194   0.476   2.868
  133XTA    CO914884  23.338   0.434   2.675
  133XTA    OA614885  23.407   0.316   2.714
  133XTA   HL4214886  23.213   0.366   2.890
  133XTA   HL4314887  23.187   0.531   2.963
  133XTA   HL4414888  22.568  -0.555   4.852
  133XTA   HL4514889  22.741  -0.556   4.824
  133XTA   CO1014890  22.642  -0.571   4.776
  133XTA   CO1114891  22.694  -0.803   4.806
  133XTA    OA714892  22.625  -0.471   4.674
  133XTA   HL4614893  22.622  -0.817   4.879
  133XTA   HL4714894  22.695  -0.897   4.750
  133XTA   HL4814895  23.372   0.476   2.584
  133XTA   HL4914896  23.238   0.390   2.660
  134XTA     NT14897  27.261  -2.281   4.147
  134XTA    CN114898  27.189  -2.390   4.195
  134XTA     C114899  27.262  -2.502   4.240
  134XTA     C214900  27.192  -2.616   4.286
  134XTA     C314901  27.051  -2.617   4.280
  134XTA     C414902  26.981  -2.512   4.219
  134XTA     C514903  27.051  -2.403   4.182
  134XTA    CN214904  27.330  -2.295   4.032
  134XTA     C614905  27.251  -2.316   3.917
  134XTA     C714906  27.310  -2.312   3.790
  134XTA     C814907  27.452  -2.295   3.783
  134XTA     C914908  27.526  -2.276   3.894
  134XTA    C1014909  27.466  -2.264   4.020
  134XTA    CN314910  27.219  -2.159   4.192
  134XTA    C1114911  27.230  -2.124   4.329
  134XTA    C1214912  27.200  -1.992   4.377
  134XTA    C1314913  27.154  -1.897   4.286
  134XTA    C1414914  27.152  -1.926   4.148
  134XTA    C1514915  27.183  -2.057   4.102
  134XTA     H114916  27.367  -2.516   4.231
  134XTA     H214917  27.251  -2.704   4.311
  134XTA     H314918  26.874  -2.528   4.196
  134XTA     H414919  26.999  -2.322   4.131
  134XTA     H514920  27.145  -2.333   3.931
  134XTA     H614921  27.256  -2.337   3.705
  134XTA     H714922  27.636  -2.262   3.888
  134XTA     H814923  27.520  -2.237   4.107
  134XTA     H914924  27.264  -2.207   4.387
  134XTA    H1014925  27.212  -1.968   4.485
  134XTA    H1114926  27.126  -1.852   4.074
  134XTA    H1214927  27.190  -2.088   3.997
  134XTA    OA114928  26.978  -2.725   4.310
  134XTA    CO114929  27.050  -2.840   4.346
  134XTA    OA214930  27.514  -2.278   3.664
  134XTA    CO214931  27.443  -2.260   3.548
  134XTA    CL114932  27.399  -2.112   3.517
  134XTA    CL214933  27.501  -2.014   3.564
  134XTA    CL314934  27.480  -1.877   3.510
  134XTA    CL414935  27.532  -1.865   3.359
  134XTA    CO314936  27.467  -1.756   3.279
  134XTA    OA314937  27.471  -1.635   3.355
  134XTA    CO414938  27.387  -1.532   3.310
  134XTA    CT114939  27.277  -1.496   3.409
  134XTA    CL514940  27.188  -1.618   3.408
  134XTA    CL614941  27.046  -1.591   3.470
  134XTA    OA414942  27.107  -1.775   4.332
  134XTA    CO514943  27.028  -1.787   4.447
  134XTA    CL714944  26.935  -1.665   4.451
  134XTA    CL814945  26.838  -1.665   4.576
  134XTA    CL914946  26.752  -1.789   4.599
  134XTA   CL1014947  26.667  -1.843   4.485
  134XTA    CO614948  26.569  -1.953   4.532
  134XTA    OA514949  26.645  -2.052   4.614
  134XTA    CO714950  26.747  -2.119   4.538
  134XTA    CT214951  26.780  -2.248   4.621
  134XTA   CL1114952  26.893  -2.330   4.545
  134XTA   CL1214953  27.035  -2.266   4.540
  134XTA    HL114954  27.122  -2.875   4.270
  134XTA    HL214955  27.115  -2.831   4.438
  134XTA    HL314956  26.986  -2.918   4.380
  134XTA    HL414957  27.511  -2.276   3.475
  134XTA    HL514958  27.362  -2.335   3.542
  134XTA    HL614959  27.301  -2.101   3.565
  134XTA    HL714960  27.390  -2.099   3.407
  134XTA    HL814961  27.601  -2.049   3.537
  134XTA    HL914962  27.500  -1.998   3.676
  134XTA   HL1014963  27.377  -1.847   3.521
  134XTA   HL1114964  27.534  -1.810   3.574
  134XTA   HL1214965  27.537  -1.960   3.305
  134XTA   HL1314966  27.644  -1.844   3.360
  134XTA   HL1414967  27.502  -1.753   3.177
  134XTA   HL1514968  27.358  -1.780   3.257
  134XTA   HL1614969  27.460  -1.446   3.307
  134XTA   HL1714970  27.362  -1.545   3.208
  134XTA   HL1814971  27.239  -1.703   3.464
  134XTA   HL1914972  27.174  -1.665   3.303
  134XTA   HL2014973  27.039  -1.557   3.574
  134XTA   HL2114974  26.978  -1.669   3.454
  134XTA   HL2214975  27.003  -1.508   3.413
  134XTA   HL2314976  27.080  -1.791   4.540
  134XTA   HL2414977  26.966  -1.880   4.435
  134XTA   HL2514978  26.989  -1.570   4.449
  134XTA   HL2614979  26.879  -1.667   4.360
  134XTA   HL2714980  26.900  -1.648   4.661
  134XTA   HL2814981  26.783  -1.571   4.563
  134XTA   HL2914982  26.820  -1.867   4.626
  134XTA   HL3014983  26.697  -1.770   4.694
  134XTA   HL3114984  26.612  -1.758   4.446
  134XTA   HL3214985  26.741  -1.872   4.414
  134XTA   HL3314986  26.491  -1.910   4.599
  134XTA   HL3414987  26.527  -2.001   4.446
  134XTA   HL3514988  26.822  -2.045   4.531
  134XTA   HL3614989  26.711  -2.153   4.436
  134XTA   HL3714990  26.853  -2.350   4.444
  134XTA   HL3814991  26.894  -2.427   4.588
  134XTA   HL3914992  27.037  -2.164   4.525
  134XTA   HL4014993  27.099  -2.308   4.468
  134XTA   HL4114994  27.077  -2.285   4.636
  134XTA    CO814995  27.217  -1.359   3.371
  134XTA    CO914996  27.344  -1.476   3.551
  134XTA    OA614997  27.314  -1.266   3.333
  134XTA   HL4214998  27.159  -1.319   3.454
  134XTA   HL4314999  27.148  -1.383   3.290
  134XTA   HL4415000  26.595  -2.285   4.705
  134XTA   HL4515001  26.702  -2.430   4.682
  134XTA   CO1015002  26.661  -2.338   4.636
  134XTA   CO1115003  26.827  -2.221   4.770
  134XTA    OA715004  26.938  -2.125   4.780
  134XTA   HL4615005  26.745  -2.187   4.835
  134XTA   HL4715006  26.871  -2.311   4.818
  134XTA   HL4815007  27.426  -1.550   3.558
  134XTA   HL4915008  27.399  -1.380   3.550
  135XTA     NT15009  31.748   4.301   2.910
  135XTA    CN115010  31.814   4.211   2.830
  135XTA     C115011  31.949   4.231   2.799
  135XTA     C215012  32.017   4.143   2.716
  135XTA     C315013  31.948   4.037   2.649
  135XTA     C415014  31.819   4.014   2.687
  135XTA     C515015  31.754   4.098   2.771
  135XTA    CN215016  31.707   4.424   2.868
  135XTA     C615017  31.578   4.464   2.911
  135XTA     C715018  31.523   4.579   2.859
  135XTA     C815019  31.595   4.665   2.775
  135XTA     C915020  31.717   4.622   2.728
  135XTA    C1015021  31.776   4.499   2.773
  135XTA    CN315022  31.756   4.274   3.041
  135XTA    C1115023  31.851   4.327   3.129
  135XTA    C1215024  31.839   4.305   3.265
  135XTA    C1315025  31.734   4.230   3.319
  135XTA    C1415026  31.636   4.181   3.229
  135XTA    C1515027  31.650   4.198   3.089
  135XTA     H115028  31.998   4.312   2.844
  135XTA     H215029  32.123   4.149   2.701
  135XTA     H315030  31.770   3.922   2.655
  135XTA     H415031  31.648   4.078   2.791
  135XTA     H515032  31.524   4.390   2.972
  135XTA     H615033  31.423   4.604   2.889
  135XTA     H715034  31.779   4.690   2.657
  135XTA     H815035  31.869   4.465   2.733
  135XTA     H915036  31.922   4.400   3.099
  135XTA    H1015037  31.904   4.350   3.333
  135XTA    H1115038  31.547   4.136   3.259
  135XTA    H1215039  31.573   4.178   3.017
  135XTA    OA115040  31.996   3.953   2.559
  135XTA    CO115041  32.110   3.998   2.480
  135XTA    OA215042  31.551   4.789   2.734
  135XTA    CO215043  31.494   4.879   2.832
  135XTA    CL115044  31.499   5.022   2.776
  135XTA    CL215045  31.637   5.058   2.721
  135XTA    CL315046  31.745   5.036   2.821
  135XTA    CL415047  31.881   5.063   2.773
  135XTA    CO315048  31.933   4.949   2.695
  135XTA    OA315049  32.066   4.984   2.664
  135XTA    CO415050  32.097   4.886   2.568
  135XTA    CT115051  32.245   4.898   2.518
  135XTA    CL515052  32.267   5.013   2.421
  135XTA    CL615053  32.266   5.155   2.481
  135XTA    OA415054  31.729   4.223   3.458
  135XTA    CO515055  31.623   4.150   3.521
  135XTA    CL715056  31.616   4.192   3.669
  135XTA    CL815057  31.476   4.148   3.720
  135XTA    CL915058  31.363   4.245   3.687
  135XTA   CL1015059  31.227   4.178   3.736
  135XTA    CO615060  31.217   4.186   3.890
  135XTA    OA515061  31.259   4.320   3.924
  135XTA    CO715062  31.254   4.338   4.059
  135XTA    CT215063  31.312   4.479   4.093
  135XTA   CL1115064  31.350   4.486   4.243
  135XTA   CL1215065  31.252   4.416   4.342
  135XTA    HL115066  32.205   3.997   2.535
  135XTA    HL215067  32.138   3.923   2.405
  135XTA    HL315068  32.094   4.090   2.431
  135XTA    HL415069  31.391   4.851   2.857
  135XTA    HL515070  31.549   4.874   2.926
  135XTA    HL615071  31.468   5.085   2.856
  135XTA    HL715072  31.428   5.025   2.698
  135XTA    HL815073  31.635   5.154   2.682
  135XTA    HL915074  31.652   4.991   2.628
  135XTA   HL1015075  31.737   5.099   2.909
  135XTA   HL1115076  31.753   4.932   2.865
  135XTA   HL1215077  31.946   5.094   2.853
  135XTA   HL1315078  31.870   5.154   2.717
  135XTA   HL1415079  31.942   4.857   2.742
  135XTA   HL1515080  31.864   4.948   2.614
  135XTA   HL1615081  32.092   4.789   2.616
  135XTA   HL1715082  32.037   4.892   2.483
  135XTA   HL1815083  32.193   5.003   2.341
  135XTA   HL1915084  32.361   4.998   2.369
  135XTA   HL2015085  32.169   5.200   2.502
  135XTA   HL2115086  32.313   5.226   2.402
  135XTA   HL2215087  32.326   5.155   2.572
  135XTA   HL2315088  31.624   4.042   3.507
  135XTA   HL2415089  31.534   4.175   3.469
  135XTA   HL2515090  31.708   4.149   3.714
  135XTA   HL2615091  31.630   4.300   3.686
  135XTA   HL2715092  31.452   4.045   3.685
  135XTA   HL2815093  31.492   4.133   3.824
  135XTA   HL2915094  31.385   4.347   3.714
  135XTA   HL3015095  31.355   4.257   3.582
  135XTA   HL3115096  31.148   4.239   3.693
  135XTA   HL3215097  31.217   4.073   3.699
  135XTA   HL3315098  31.112   4.169   3.931
  135XTA   HL3415099  31.278   4.108   3.930
  135XTA   HL3515100  31.308   4.260   4.113
  135XTA   HL3615101  31.155   4.327   4.086
  135XTA   HL3715102  31.353   4.589   4.259
  135XTA   HL3815103  31.451   4.459   4.272
  135XTA   HL3915104  31.147   4.446   4.316
  135XTA   HL4015105  31.271   4.445   4.452
  135XTA   HL4115106  31.251   4.306   4.326
  135XTA    CO815107  32.265   4.771   2.437
  135XTA    CO915108  32.359   4.886   2.627
  135XTA    OA615109  32.180   4.743   2.371
  135XTA   HL4215110  32.283   4.684   2.500
  135XTA   HL4315111  32.360   4.776   2.381
  135XTA   HL4415112  31.230   4.677   4.094
  135XTA   HL4515113  31.183   4.599   3.925
  135XTA   CO1015114  31.198   4.579   4.061
  135XTA   CO1115115  31.431   4.512   4.005
  135XTA    OA715116  31.451   4.619   4.009
  135XTA   HL4615117  31.512   4.442   4.029
  135XTA   HL4715118  31.404   4.492   3.901
  135XTA   HL4815119  32.340   4.976   2.734
  135XTA   HL4915120  32.372   4.785   2.671
  136XTA     NT15121  32.609   4.478   4.292
  136XTA    CN115122  32.731   4.443   4.248
  136XTA     C115123  32.800   4.536   4.159
  136XTA     C215124  32.935   4.507   4.133
  136XTA     C315125  33.001   4.390   4.165
  136XTA     C415126  32.931   4.292   4.236
  136XTA     C515127  32.798   4.321   4.279
  136XTA    CN215128  32.516   4.521   4.204
  136XTA     C615129  32.462   4.648   4.224
  136XTA     C715130  32.367   4.707   4.146
  136XTA     C815131  32.322   4.629   4.037
  136XTA     C915132  32.378   4.501   4.017
  136XTA    C1015133  32.468   4.441   4.102
  136XTA    CN315134  32.595   4.512   4.422
  136XTA    C1115135  32.663   4.623   4.479
  136XTA    C1215136  32.636   4.669   4.609
  136XTA    C1315137  32.537   4.605   4.689
  136XTA    C1415138  32.486   4.481   4.644
  136XTA    C1515139  32.517   4.436   4.513
  136XTA     H115140  32.745   4.626   4.133
  136XTA     H215141  32.991   4.584   4.087
  136XTA     H315142  32.978   4.199   4.275
  136XTA     H415143  32.746   4.247   4.346
  136XTA     H515144  32.489   4.719   4.305
  136XTA     H615145  32.336   4.807   4.175
  136XTA     H715146  32.335   4.442   3.937
  136XTA     H815147  32.507   4.335   4.095
  136XTA     H915148  32.747   4.672   4.424
  136XTA    H1015149  32.699   4.750   4.642
  136XTA    H1115150  32.428   4.431   4.706
  136XTA    H1215151  32.461   4.349   4.478
  136XTA    OA115152  33.137   4.371   4.145
  136XTA    CO115153  33.188   4.426   4.023
  136XTA    OA215154  32.241   4.682   3.942
  136XTA    CO215155  32.174   4.803   3.976
  136XTA    CL115156  32.262   4.917   3.934
  136XTA    CL215157  32.249   5.041   4.025
  136XTA    CL315158  32.108   5.091   4.037
  136XTA    CL415159  32.051   5.141   3.905
  136XTA    CO315160  31.910   5.214   3.925
  136XTA    OA315161  31.872   5.266   3.802
  136XTA    CO415162  31.803   5.173   3.732
  136XTA    CT115163  31.793   5.226   3.587
  136XTA    CL515164  31.703   5.358   3.588
  136XTA    CL615165  31.676   5.416   3.446
  136XTA    OA415166  32.502   4.638   4.819
  136XTA    CO515167  32.554   4.759   4.864
  136XTA    CL715168  32.508   4.799   5.008
  136XTA    CL815169  32.600   4.899   5.066
  136XTA    CL915170  32.604   5.020   4.977
  136XTA   CL1015171  32.501   5.128   5.010
  136XTA    CO615172  32.384   5.120   4.903
  136XTA    OA515173  32.275   5.170   4.977
  136XTA    CO715174  32.151   5.173   4.912
  136XTA    CT215175  32.042   5.223   5.004
  136XTA   CL1115176  32.021   5.118   5.118
  136XTA   CL1215177  31.919   5.159   5.223
  136XTA    HL115178  33.296   4.434   4.029
  136XTA    HL215179  33.160   4.373   3.935
  136XTA    HL315180  33.157   4.523   4.009
  136XTA    HL415181  32.075   4.824   3.926
  136XTA    HL515182  32.155   4.810   4.082
  136XTA    HL615183  32.237   4.941   3.828
  136XTA    HL715184  32.365   4.881   3.928
  136XTA    HL815185  32.313   5.126   3.973
  136XTA    HL915186  32.291   5.029   4.123
  136XTA   HL1015187  32.043   5.009   4.075
  136XTA   HL1115188  32.095   5.172   4.104
  136XTA   HL1215189  32.045   5.060   3.834
  136XTA   HL1315190  32.126   5.206   3.861
  136XTA   HL1415191  31.839   5.152   3.972
  136XTA   HL1515192  31.922   5.302   3.989
  136XTA   HL1615193  31.846   5.071   3.731
  136XTA   HL1715194  31.702   5.167   3.771
  136XTA   HL1815195  31.754   5.431   3.650
  136XTA   HL1915196  31.605   5.344   3.645
  136XTA   HL2015197  31.765   5.426   3.388
  136XTA   HL2115198  31.626   5.508   3.444
  136XTA   HL2215199  31.605   5.356   3.382
  136XTA   HL2315200  32.514   4.834   4.792
  136XTA   HL2415201  32.665   4.761   4.869
  136XTA   HL2515202  32.405   4.827   5.017
  136XTA   HL2615203  32.521   4.708   5.067
  136XTA   HL2715204  32.555   4.923   5.163
  136XTA   HL2815205  32.696   4.859   5.070
  136XTA   HL2915206  32.704   5.067   4.980
  136XTA   HL3015207  32.598   4.996   4.869
  136XTA   HL3115208  32.468   5.122   5.113
  136XTA   HL3215209  32.538   5.229   4.996
  136XTA   HL3315210  32.399   5.167   4.806
  136XTA   HL3415211  32.366   5.016   4.892
  136XTA   HL3515212  32.124   5.075   4.861
  136XTA   HL3615213  32.154   5.237   4.824
  136XTA   HL3715214  32.121   5.118   5.173
  136XTA   HL3815215  31.997   5.017   5.079
  136XTA   HL3915216  31.939   5.256   5.263
  136XTA   HL4015217  31.929   5.095   5.307
  136XTA   HL4115218  31.815   5.153   5.182
  136XTA    CO815219  31.726   5.120   3.495
  136XTA    CO915220  31.935   5.255   3.533
  136XTA    OA615221  31.993   5.164   3.535
  136XTA   HL4215222  31.740   5.155   3.395
  136XTA   HL4315223  31.786   5.002   3.498
  136XTA   HL4415224  31.918   5.274   4.826
  136XTA   HL4515225  31.829   5.332   4.983
  136XTA   CO1015226  31.903   5.230   4.922
  136XTA   CO1115227  32.083   5.372   5.048
  136XTA    OA715228  32.081   5.429   4.955
  136XTA   HL4615229  32.011   5.408   5.124
  136XTA   HL4715230  32.184   5.379   5.098
  136XTA   HL4815231  31.980   5.333   3.591
  136XTA   HL4915232  31.940   5.293   3.431
  137XTA     NT15233  25.665   0.752   5.186
  137XTA    CN115234  25.706   0.631   5.145
  137XTA     C115235  25.736   0.612   5.011
  137XTA     C215236  25.781   0.488   4.956
  137XTA     C315237  25.787   0.379   5.038
  137XTA     C415238  25.756   0.393   5.173
  137XTA     C515239  25.720   0.518   5.229
  137XTA    CN215240  25.632   0.776   5.316
  137XTA     C615241  25.727   0.775   5.418
  137XTA     C715242  25.692   0.777   5.553
  137XTA     C815243  25.556   0.771   5.592
  137XTA     C915244  25.460   0.775   5.491
  137XTA    C1015245  25.496   0.780   5.354
  137XTA    CN315246  25.699   0.871   5.123
  137XTA    C1115247  25.606   0.957   5.066
  137XTA    C1215248  25.641   1.079   5.007
  137XTA    C1315249  25.778   1.118   4.996
  137XTA    C1415250  25.874   1.032   5.057
  137XTA    C1515251  25.839   0.914   5.134
  137XTA     H115252  25.722   0.699   4.941
  137XTA     H215253  25.802   0.489   4.850
  137XTA     H315254  25.779   0.307   5.232
  137XTA     H415255  25.682   0.525   5.336
  137XTA     H515256  25.831   0.772   5.386
  137XTA     H615257  25.777   0.788   5.627
  137XTA     H715258  25.355   0.777   5.516
  137XTA     H815259  25.418   0.785   5.280
  137XTA     H915260  25.508   0.928   5.077
  137XTA    H1015261  25.561   1.142   4.971
  137XTA    H1115262  25.978   1.067   5.057
  137XTA    H1215263  25.919   0.858   5.177
  137XTA    OA115264  25.819   0.255   4.988
  137XTA    CO115265  25.878   0.245   4.858
  137XTA    OA215266  25.518   0.777   5.724
  137XTA    CO215267  25.624   0.781   5.817
  137XTA    CL115268  25.565   0.745   5.961
  137XTA    CL215269  25.478   0.854   6.033
  137XTA    CL315270  25.422   0.803   6.170
  137XTA    CL415271  25.361   0.914   6.255
  137XTA    CO315272  25.458   0.975   6.354
  137XTA    OA315273  25.537   1.081   6.312
  137XTA    CO415274  25.460   1.197   6.317
  137XTA    CT115275  25.532   1.325   6.259
  137XTA    CL515276  25.660   1.356   6.346
  137XTA    CL615277  25.723   1.497   6.337
  137XTA    OA415278  25.811   1.232   4.925
  137XTA    CO515279  25.884   1.326   5.006
  137XTA    CL715280  25.790   1.449   5.041
  137XTA    CL815281  25.859   1.556   5.126
  137XTA    CL915282  25.894   1.501   5.267
  137XTA   CL1015283  26.037   1.531   5.308
  137XTA    CO615284  26.139   1.434   5.250
  137XTA    OA515285  26.143   1.309   5.313
  137XTA    CO715286  26.229   1.226   5.244
  137XTA    CT215287  26.247   1.096   5.320
  137XTA   CL1115288  26.327   1.112   5.448
  137XTA   CL1215289  26.484   1.121   5.427
  137XTA    HL115290  25.917   0.149   4.843
  137XTA    HL215291  25.804   0.281   4.789
  137XTA    HL315292  25.968   0.307   4.854
  137XTA    HL415293  25.696   0.699   5.792
  137XTA    HL515294  25.675   0.876   5.831
  137XTA    HL615295  25.649   0.702   6.023
  137XTA    HL715296  25.502   0.658   5.942
  137XTA    HL815297  25.399   0.882   5.961
  137XTA    HL915298  25.542   0.940   6.056
  137XTA   HL1015299  25.364   0.720   6.149
  137XTA   HL1115300  25.507   0.761   6.226
  137XTA   HL1215301  25.280   0.865   6.312
  137XTA   HL1315302  25.322   0.989   6.185
  137XTA   HL1415303  25.420   1.001   6.452
  137XTA   HL1515304  25.541   0.905   6.383
  137XTA   HL1615305  25.367   1.184   6.262
  137XTA   HL1715306  25.441   1.205   6.426
  137XTA   HL1815307  25.731   1.278   6.319
  137XTA   HL1915308  25.643   1.333   6.452
  137XTA   HL2015309  25.746   1.518   6.231
  137XTA   HL2115310  25.812   1.506   6.403
  137XTA   HL2215311  25.667   1.591   6.375
  137XTA   HL2315312  25.972   1.356   4.951
  137XTA   HL2415313  25.920   1.281   5.100
  137XTA   HL2515314  25.755   1.487   4.942
  137XTA   HL2615315  25.701   1.408   5.085
  137XTA   HL2715316  25.936   1.606   5.071
  137XTA   HL2815317  25.772   1.624   5.147
  137XTA   HL2915318  25.823   1.549   5.338
  137XTA   HL3015319  25.881   1.395   5.266
  137XTA   HL3115320  26.069   1.635   5.284
  137XTA   HL3215321  26.056   1.537   5.421
  137XTA   HL3315322  26.126   1.421   5.142
  137XTA   HL3415323  26.237   1.485   5.264
  137XTA   HL3515324  26.328   1.277   5.239
  137XTA   HL3615325  26.189   1.202   5.145
  137XTA   HL3715326  26.298   1.019   5.504
  137XTA   HL3815327  26.279   1.194   5.493
  137XTA   HL3915328  26.512   1.195   5.356
  137XTA   HL4015329  26.526   1.032   5.387
  137XTA   HL4115330  26.539   1.150   5.518
  137XTA    CO815331  25.437   1.441   6.264
  137XTA    CO915332  25.575   1.298   6.111
  137XTA    OA615333  25.302   1.410   6.236
  137XTA   HL4215334  25.472   1.504   6.186
  137XTA   HL4315335  25.441   1.495   6.362
  137XTA   HL4415336  26.227   0.979   5.104
  137XTA   HL4515337  26.330   0.900   5.262
  137XTA   CO1015338  26.313   0.999   5.215
  137XTA   CO1115339  26.104   1.036   5.356
  137XTA    OA715340  26.046   1.105   5.423
  137XTA   HL4615341  26.060   1.038   5.257
  137XTA   HL4715342  26.103   0.939   5.405
  137XTA   HL4815343  25.635   1.208   6.115
  137XTA   HL4915344  25.480   1.288   6.054
  138XTA     NT15345  24.657   4.647   0.726
  138XTA    CN115346  24.528   4.677   0.711
  138XTA     C115347  24.449   4.684   0.825
  138XTA     C215348  24.314   4.711   0.806
  138XTA     C315349  24.258   4.752   0.683
  138XTA     C415350  24.342   4.745   0.571
  138XTA     C515351  24.475   4.707   0.577
  138XTA    CN215352  24.698   4.546   0.804
  138XTA     C615353  24.714   4.568   0.944
  138XTA     C715354  24.756   4.458   1.023
  138XTA     C815355  24.768   4.325   0.972
  138XTA     C915356  24.747   4.311   0.834
  138XTA    C1015357  24.723   4.421   0.755
  138XTA    CN315358  24.741   4.744   0.702
  138XTA    C1115359  24.854   4.709   0.629
  138XTA    C1215360  24.960   4.800   0.598
  138XTA    C1315361  24.948   4.931   0.635
  138XTA    C1415362  24.838   4.969   0.716
  138XTA    C1515363  24.735   4.881   0.741
  138XTA     H115364  24.482   4.641   0.922
  138XTA     H215365  24.245   4.703   0.890
  138XTA     H315366  24.293   4.774   0.475
  138XTA     H415367  24.535   4.704   0.486
  138XTA     H515368  24.709   4.665   0.991
  138XTA     H615369  24.773   4.471   1.129
  138XTA     H715370  24.766   4.211   0.792
  138XTA     H815371  24.716   4.417   0.649
  138XTA     H915372  24.879   4.606   0.610
  138XTA    H1015373  25.048   4.751   0.550
  138XTA    H1115374  24.830   5.064   0.761
  138XTA    H1215375  24.657   4.922   0.802
  138XTA    OA115376  24.124   4.783   0.660
  138XTA    CO115377  24.045   4.782   0.779
  138XTA    OA215378  24.795   4.214   1.045
  138XTA    CO215379  24.919   4.223   1.112
  138XTA    CL115380  24.941   4.110   1.202
  138XTA    CL215381  24.822   4.070   1.292
  138XTA    CL315382  24.790   4.158   1.408
  138XTA    CL415383  24.695   4.272   1.368
  138XTA    CO315384  24.659   4.362   1.477
  138XTA    OA315385  24.619   4.278   1.590
  138XTA    CO415386  24.572   4.348   1.706
  138XTA    CT115387  24.684   4.358   1.821
  138XTA    CL515388  24.626   4.440   1.938
  138XTA    CL615389  24.492   4.388   1.990
  138XTA    OA415390  25.043   5.026   0.596
  138XTA    CO515391  25.172   4.987   0.554
  138XTA    CL715392  25.240   5.107   0.504
  138XTA    CL815393  25.265   5.225   0.595
  138XTA    CL915394  25.393   5.300   0.570
  138XTA   CL1015395  25.405   5.442   0.640
  138XTA    CO615396  25.544   5.505   0.617
  138XTA    OA515397  25.561   5.548   0.481
  138XTA    CO715398  25.681   5.620   0.470
  138XTA    CT215399  25.665   5.704   0.335
  138XTA   CL1115400  25.801   5.775   0.314
  138XTA   CL1215401  25.837   5.886   0.419
  138XTA    HL115402  24.034   4.683   0.823
  138XTA    HL215403  24.087   4.863   0.840
  138XTA    HL315404  23.950   4.830   0.754
  138XTA    HL415405  25.002   4.239   1.044
  138XTA    HL515406  24.913   4.316   1.174
  138XTA    HL615407  25.034   4.136   1.254
  138XTA    HL715408  24.961   4.025   1.137
  138XTA    HL815409  24.845   3.978   1.334
  138XTA    HL915410  24.734   4.060   1.231
  138XTA   HL1015411  24.739   4.107   1.483
  138XTA   HL1115412  24.870   4.202   1.474
  138XTA   HL1215413  24.604   4.230   1.333
  138XTA   HL1315414  24.735   4.335   1.285
  138XTA   HL1415415  24.745   4.435   1.495
  138XTA   HL1515416  24.577   4.427   1.445
  138XTA   HL1615417  24.538   4.447   1.662
  138XTA   HL1715418  24.476   4.308   1.730
  138XTA   HL1815419  24.611   4.542   1.908
  138XTA   HL1915420  24.698   4.446   2.019
  138XTA   HL2015421  24.455   4.463   2.062
  138XTA   HL2115422  24.493   4.284   2.035
  138XTA   HL2215423  24.417   4.392   1.909
  138XTA   HL2315424  25.159   4.911   0.477
  138XTA   HL2415425  25.217   4.946   0.646
  138XTA   HL2515426  25.338   5.073   0.474
  138XTA   HL2615427  25.207   5.140   0.404
  138XTA   HL2715428  25.189   5.295   0.597
  138XTA   HL2815429  25.273   5.178   0.696
  138XTA   HL2915430  25.481   5.228   0.581
  138XTA   HL3015431  25.391   5.320   0.467
  138XTA   HL3115432  25.332   5.515   0.607
  138XTA   HL3215433  25.375   5.426   0.746
  138XTA   HL3315434  25.559   5.580   0.695
  138XTA   HL3415435  25.625   5.431   0.649
  138XTA   HL3515436  25.767   5.558   0.479
  138XTA   HL3615437  25.686   5.689   0.553
  138XTA   HL3715438  25.794   5.825   0.215
  138XTA   HL3815439  25.879   5.697   0.309
  138XTA   HL3915440  25.817   5.841   0.520
  138XTA   HL4015441  25.771   5.973   0.409
  138XTA   HL4115442  25.941   5.908   0.397
  138XTA    CO815443  24.808   4.435   1.770
  138XTA    CO915444  24.723   4.215   1.871
  138XTA    OA615445  24.783   4.536   1.738
  138XTA   HL4215446  24.858   4.380   1.691
  138XTA   HL4315447  24.882   4.455   1.850
  138XTA   HL4415448  25.445   5.750   0.347
  138XTA   HL4515449  25.550   5.855   0.443
  138XTA   CO1015450  25.541   5.800   0.349
  138XTA   CO1115451  25.641   5.607   0.215
  138XTA    OA715452  25.548   5.890   0.235
  138XTA   HL4615453  25.642   5.658   0.118
  138XTA   HL4715454  25.538   5.573   0.220
  138XTA   HL4815455  24.630   4.123   1.828
  138XTA   HL4915456  24.719   4.222   1.980
  139XTA     NT15457  26.482  -0.504   3.972
  139XTA    CN115458  26.373  -0.437   3.927
  139XTA     C115459  26.252  -0.437   4.006
  139XTA     C215460  26.140  -0.360   3.967
  139XTA     C315461  26.154  -0.280   3.853
  139XTA     C415462  26.276  -0.273   3.781
  139XTA     C515463  26.386  -0.360   3.811
  139XTA    CN215464  26.584  -0.447   4.032
  139XTA     C615465  26.711  -0.421   3.965
  139XTA     C715466  26.804  -0.343   4.030
  139XTA     C815467  26.788  -0.304   4.164
  139XTA     C915468  26.674  -0.340   4.236
  139XTA    C1015469  26.572  -0.404   4.164
  139XTA    CN315470  26.478  -0.642   3.968
  139XTA    C1115471  26.510  -0.716   4.079
  139XTA    C1215472  26.482  -0.854   4.088
  139XTA    C1315473  26.441  -0.919   3.967
  139XTA    C1415474  26.441  -0.850   3.848
  139XTA    C1515475  26.456  -0.709   3.841
  139XTA     H115476  26.242  -0.494   4.107
  139XTA     H215477  26.047  -0.359   4.018
  139XTA     H315478  26.289  -0.212   3.693
  139XTA     H415479  26.478  -0.360   3.756
  139XTA     H515480  26.721  -0.457   3.864
  139XTA     H615481  26.891  -0.325   3.969
  139XTA     H715482  26.668  -0.309   4.341
  139XTA     H815483  26.483  -0.433   4.219
  139XTA     H915484  26.548  -0.666   4.168
  139XTA    H1015485  26.500  -0.905   4.183
  139XTA    H1115486  26.414  -0.901   3.763
  139XTA    H1215487  26.448  -0.640   3.760
  139XTA    OA115488  26.056  -0.192   3.811
  139XTA    CO115489  25.934  -0.182   3.886
  139XTA    OA215490  26.886  -0.232   4.232
  139XTA    CO215491  26.977  -0.150   4.163
  139XTA    CL115492  27.058  -0.072   4.268
  139XTA    CL215493  27.148   0.036   4.206
  139XTA    CL315494  27.299   0.007   4.181
  139XTA    CL415495  27.358   0.109   4.090
  139XTA    CO315496  27.511   0.107   4.102
  139XTA    OA315497  27.567  -0.003   4.041
  139XTA    CO415498  27.541  -0.037   3.905
  139XTA    CT115499  27.665  -0.106   3.844
  139XTA    CL515500  27.802  -0.033   3.868
  139XTA    CL615501  27.797   0.108   3.830
  139XTA    OA415502  26.413  -1.054   3.953
  139XTA    CO515503  26.390  -1.126   4.068
  139XTA    CL715504  26.365  -1.274   4.028
  139XTA    CL815505  26.331  -1.364   4.146
  139XTA    CL915506  26.450  -1.405   4.242
  139XTA   CL1015507  26.557  -1.499   4.188
  139XTA    CO615508  26.684  -1.521   4.273
  139XTA    OA515509  26.772  -1.417   4.292
  139XTA    CO715510  26.850  -1.401   4.176
  139XTA    CT215511  26.952  -1.282   4.186
  139XTA   CL1115512  26.887  -1.143   4.204
  139XTA   CL1215513  26.746  -1.117   4.137
  139XTA    HL115514  25.871  -0.278   3.891
  139XTA    HL215515  25.944  -0.145   3.982
  139XTA    HL315516  25.877  -0.097   3.843
  139XTA    HL415517  27.043  -0.223   4.115
  139XTA    HL515518  26.927  -0.082   4.090
  139XTA    HL615519  27.114  -0.140   4.340
  139XTA    HL715520  26.974  -0.026   4.327
  139XTA    HL815521  27.130   0.127   4.251
  139XTA    HL915522  27.103   0.049   4.115
  139XTA   HL1015523  27.365   0.008   4.263
  139XTA   HL1115524  27.299  -0.092   4.138
  139XTA   HL1215525  27.333   0.211   4.100
  139XTA   HL1315526  27.327   0.082   3.991
  139XTA   HL1415527  27.539   0.194   4.044
  139XTA   HL1515528  27.552   0.121   4.205
  139XTA   HL1615529  27.457  -0.108   3.892
  139XTA   HL1715530  27.509   0.046   3.851
  139XTA   HL1815531  27.890  -0.085   3.820
  139XTA   HL1915532  27.831  -0.042   3.968
  139XTA   HL2015533  27.780   0.179   3.913
  139XTA   HL2115534  27.727   0.131   3.747
  139XTA   HL2215535  27.895   0.147   3.789
  139XTA   HL2315536  26.306  -1.082   4.128
  139XTA   HL2415537  26.475  -1.112   4.143
  139XTA   HL2515538  26.286  -1.275   3.954
  139XTA   HL2615539  26.453  -1.314   3.973
  139XTA   HL2715540  26.257  -1.326   4.216
  139XTA   HL2815541  26.291  -1.456   4.110
  139XTA   HL2915542  26.508  -1.321   4.272
  139XTA   HL3015543  26.412  -1.458   4.336
  139XTA   HL3115544  26.513  -1.597   4.171
  139XTA   HL3215545  26.574  -1.463   4.087
  139XTA   HL3315546  26.641  -1.549   4.359
  139XTA   HL3415547  26.736  -1.609   4.233
  139XTA   HL3515548  26.788  -1.378   4.092
  139XTA   HL3615549  26.900  -1.494   4.155
  139XTA   HL3715550  26.962  -1.078   4.169
  139XTA   HL3815551  26.884  -1.130   4.308
  139XTA   HL3915552  26.675  -1.181   4.188
  139XTA   HL4015553  26.746  -1.153   4.039
  139XTA   HL4115554  26.715  -1.015   4.151
  139XTA    CO815555  27.637  -0.134   3.701
  139XTA    CO915556  27.675  -0.256   3.866
  139XTA    OA615557  27.639  -0.275   3.731
  139XTA   HL4215558  27.732  -0.118   3.651
  139XTA   HL4315559  27.542  -0.087   3.650
  139XTA   HL4415560  27.000  -1.234   3.990
  139XTA   HL4515561  27.137  -1.222   4.091
  139XTA   CO1015562  27.051  -1.286   4.073
  139XTA   CO1115563  27.045  -1.315   4.309
  139XTA    OA715564  27.093  -1.383   4.042
  139XTA   HL4615565  27.107  -1.426   4.269
  139XTA   HL4715566  27.127  -1.247   4.302
  139XTA   HL4815567  27.597  -0.296   3.931
  139XTA   HL4915568  27.774  -0.291   3.897
  140XTA     NT15569  27.974  -1.932   2.406
  140XTA    CN115570  27.918  -2.051   2.431
  140XTA     C115571  27.826  -2.112   2.341
  140XTA     C215572  27.756  -2.233   2.372
  140XTA     C315573  27.761  -2.288   2.504
  140XTA     C415574  27.862  -2.231   2.592
  140XTA     C515575  27.935  -2.117   2.557
  140XTA    CN215576  28.105  -1.919   2.388
  140XTA     C615577  28.175  -1.986   2.291
  140XTA     C715578  28.316  -1.983   2.292
  140XTA     C815579  28.391  -1.898   2.378
  140XTA     C915580  28.314  -1.820   2.467
  140XTA    C1015581  28.177  -1.837   2.474
  140XTA    CN315582  27.898  -1.823   2.412
  140XTA    C1115583  27.861  -1.752   2.297
  140XTA    C1215584  27.774  -1.636   2.311
  140XTA    C1315585  27.735  -1.587   2.437
  140XTA    C1415586  27.774  -1.667   2.549
  140XTA    C1515587  27.847  -1.787   2.539
  140XTA     H115588  27.819  -2.072   2.246
  140XTA     H215589  27.694  -2.266   2.292
  140XTA     H315590  27.870  -2.272   2.687
  140XTA     H415591  28.006  -2.087   2.636
  140XTA     H515592  28.127  -2.062   2.234
  140XTA     H615593  28.370  -2.033   2.218
  140XTA     H715594  28.360  -1.760   2.539
  140XTA     H815595  28.128  -1.784   2.554
  140XTA     H915596  27.908  -1.782   2.201
  140XTA    H1015597  27.751  -1.575   2.224
  140XTA    H1115598  27.759  -1.621   2.642
  140XTA    H1215599  27.876  -1.851   2.621
  140XTA    OA115600  27.679  -2.400   2.532
  140XTA    CO115601  27.701  -2.456   2.664
  140XTA    OA215602  28.526  -1.903   2.359
  140XTA    CO215603  28.606  -1.838   2.453
  140XTA    CL115604  28.628  -1.922   2.578
  140XTA    CL215605  28.756  -1.872   2.657
  140XTA    CL315606  28.742  -1.891   2.811
  140XTA    CL415607  28.866  -1.858   2.887
  140XTA    CO315608  28.995  -1.922   2.826
  140XTA    OA315609  29.038  -1.839   2.716
  140XTA    CO415610  29.148  -1.889   2.645
  140XTA    CT115611  29.194  -1.795   2.529
  140XTA    CL515612  29.075  -1.735   2.443
  140XTA    CL615613  29.004  -1.842   2.372
  140XTA    OA415614  27.660  -1.475   2.445
  140XTA    CO515615  27.672  -1.396   2.569
  140XTA    CL715616  27.589  -1.275   2.564
  140XTA    CL815617  27.619  -1.181   2.437
  140XTA    CL915618  27.767  -1.152   2.421
  140XTA   CL1015619  27.789  -1.032   2.330
  140XTA    CO615620  27.937  -1.015   2.288
  140XTA    OA515621  27.974  -1.139   2.231
  140XTA    CO715622  27.915  -1.177   2.106
  140XTA    CT215623  27.997  -1.284   2.025
  140XTA   CL1115624  28.142  -1.224   2.013
  140XTA   CL1215625  28.266  -1.303   1.952
  140XTA    HL115626  27.687  -2.384   2.745
  140XTA    HL215627  27.627  -2.534   2.692
  140XTA    HL315628  27.801  -2.496   2.673
  140XTA    HL415629  28.705  -1.822   2.413
  140XTA    HL515630  28.585  -1.733   2.477
  140XTA    HL615631  28.638  -2.031   2.553
  140XTA    HL715632  28.534  -1.921   2.643
  140XTA    HL815633  28.771  -1.772   2.635
  140XTA    HL915634  28.837  -1.931   2.616
  140XTA   HL1015635  28.665  -1.825   2.840
  140XTA   HL1115636  28.704  -1.990   2.833
  140XTA   HL1215637  28.852  -1.880   2.994
  140XTA   HL1315638  28.878  -1.757   2.900
  140XTA   HL1415639  29.068  -1.937   2.906
  140XTA   HL1515640  28.979  -2.013   2.778
  140XTA   HL1615641  29.230  -1.905   2.716
  140XTA   HL1715642  29.133  -1.986   2.594
  140XTA   HL1815643  29.120  -1.679   2.365
  140XTA   HL1915644  28.998  -1.664   2.485
  140XTA   HL2015645  28.928  -1.799   2.304
  140XTA   HL2115646  28.957  -1.915   2.437
  140XTA   HL2215647  29.064  -1.905   2.306
  140XTA   HL2315648  27.780  -1.376   2.589
  140XTA   HL2415649  27.650  -1.452   2.654
  140XTA   HL2515650  27.490  -1.298   2.546
  140XTA   HL2615651  27.597  -1.211   2.651
  140XTA   HL2715652  27.573  -1.221   2.342
  140XTA   HL2815653  27.564  -1.095   2.465
  140XTA   HL2915654  27.808  -1.139   2.521
  140XTA   HL3015655  27.821  -1.230   2.377
  140XTA   HL3115656  27.741  -1.043   2.234
  140XTA   HL3215657  27.752  -0.937   2.362
  140XTA   HL3315658  27.952  -0.940   2.213
  140XTA   HL3415659  27.996  -0.990   2.373
  140XTA   HL3515660  27.885  -1.090   2.049
  140XTA   HL3615661  27.821  -1.234   2.119
  140XTA   HL3715662  28.169  -1.199   2.116
  140XTA   HL3815663  28.135  -1.135   1.957
  140XTA   HL3915664  28.341  -1.229   1.936
  140XTA   HL4015665  28.243  -1.332   1.852
  140XTA   HL4115666  28.297  -1.383   2.027
  140XTA    CO815667  29.301  -1.864   2.432
  140XTA    CO915668  29.266  -1.675   2.602
  140XTA    OA615669  29.393  -1.944   2.499
  140XTA   HL4215670  29.355  -1.781   2.386
  140XTA   HL4315671  29.260  -1.912   2.346
  140XTA   HL4415672  27.984  -1.373   1.818
  140XTA   HL4515673  27.837  -1.374   1.905
  140XTA   CO1015674  27.927  -1.310   1.888
  140XTA   CO1115675  28.011  -1.415   2.099
  140XTA    OA715676  27.898  -1.214   1.837
  140XTA   HL4615677  28.087  -1.396   2.214
  140XTA   HL4715678  27.916  -1.446   2.134
  140XTA   HL4815679  29.199  -1.648   2.682
  140XTA   HL4915680  29.345  -1.717   2.660
  141XTA     NT15681  26.254  -3.395   2.074
  141XTA    CN115682  26.130  -3.374   2.021
  141XTA     C115683  26.113  -3.283   1.910
  141XTA     C215684  25.981  -3.270   1.853
  141XTA     C315685  25.869  -3.344   1.912
  141XTA     C415686  25.892  -3.421   2.030
  141XTA     C515687  26.021  -3.447   2.076
  141XTA    CN215688  26.343  -3.485   2.024
  141XTA     C615689  26.399  -3.479   1.898
  141XTA     C715690  26.493  -3.571   1.863
  141XTA     C815691  26.532  -3.672   1.949
  141XTA     C915692  26.478  -3.679   2.081
  141XTA    C1015693  26.376  -3.592   2.118
  141XTA    CN315694  26.313  -3.310   2.165
  141XTA    C1115695  26.391  -3.202   2.116
  141XTA    C1215696  26.456  -3.120   2.212
  141XTA    C1315697  26.442  -3.143   2.349
  141XTA    C1415698  26.355  -3.247   2.393
  141XTA    C1515699  26.296  -3.333   2.302
  141XTA     H115700  26.191  -3.225   1.866
  141XTA     H215701  25.966  -3.216   1.763
  141XTA     H315702  25.803  -3.463   2.079
  141XTA     H415703  26.034  -3.518   2.149
  141XTA     H515704  26.365  -3.400   1.829
  141XTA     H615705  26.529  -3.576   1.761
  141XTA     H715706  26.509  -3.766   2.146
  141XTA     H815707  26.320  -3.622   2.207
  141XTA     H915708  26.393  -3.178   2.011
  141XTA    H1015709  26.511  -3.035   2.172
  141XTA    H1115710  26.335  -3.267   2.499
  141XTA    H1215711  26.238  -3.412   2.343
  141XTA    OA115712  25.743  -3.341   1.853
  141XTA    CO115713  25.737  -3.306   1.719
  141XTA    OA215714  26.625  -3.763   1.905
  141XTA    CO215715  26.665  -3.868   1.993
  141XTA    CL115716  26.761  -3.974   1.933
  141XTA    CL215717  26.897  -3.900   1.897
  141XTA    CL315718  27.005  -4.002   1.854
  141XTA    CL415719  27.130  -3.921   1.808
  141XTA    CO315720  27.218  -3.883   1.929
  141XTA    OA315721  27.161  -3.774   1.999
  141XTA    CO415722  27.188  -3.649   1.940
  141XTA    CT115723  27.166  -3.544   2.047
  141XTA    CL515724  27.238  -3.588   2.177
  141XTA    CL615725  27.389  -3.624   2.166
  141XTA    OA415726  26.495  -3.067   2.445
  141XTA    CO515727  26.506  -2.925   2.416
  141XTA    CL715728  26.544  -2.863   2.559
  141XTA    CL815729  26.540  -2.714   2.535
  141XTA    CL915730  26.603  -2.632   2.648
  141XTA   CL1015731  26.755  -2.652   2.643
  141XTA    CO615732  26.829  -2.556   2.742
  141XTA    OA515733  26.826  -2.420   2.704
  141XTA    CO715734  26.919  -2.387   2.601
  141XTA    CT215735  26.919  -2.237   2.577
  141XTA   CL1115736  26.787  -2.207   2.513
  141XTA   CL1215737  26.723  -2.299   2.403
  141XTA    HL115738  25.787  -3.214   1.686
  141XTA    HL215739  25.783  -3.389   1.664
  141XTA    HL315740  25.636  -3.279   1.689
  141XTA    HL415741  26.712  -3.810   2.072
  141XTA    HL515742  26.579  -3.929   2.026
  141XTA    HL615743  26.723  -4.025   1.846
  141XTA    HL715744  26.781  -4.057   2.008
  141XTA    HL815745  26.937  -3.861   1.996
  141XTA    HL915746  26.883  -3.815   1.828
  141XTA   HL1015747  27.017  -4.075   1.932
  141XTA   HL1115748  26.964  -4.064   1.767
  141XTA   HL1215749  27.109  -3.832   1.751
  141XTA   HL1315750  27.194  -3.982   1.744
  141XTA   HL1415751  27.215  -3.967   2.003
  141XTA   HL1515752  27.321  -3.863   1.893
  141XTA   HL1615753  27.283  -3.646   1.894
  141XTA   HL1715754  27.126  -3.648   1.853
  141XTA   HL1815755  27.192  -3.685   2.212
  141XTA   HL1915756  27.228  -3.501   2.250
  141XTA   HL2015757  27.450  -3.535   2.119
  141XTA   HL2115758  27.394  -3.708   2.100
  141XTA   HL2215759  27.429  -3.651   2.260
  141XTA   HL2315760  26.415  -2.882   2.376
  141XTA   HL2415761  26.583  -2.913   2.344
  141XTA   HL2515762  26.464  -2.900   2.628
  141XTA   HL2615763  26.636  -2.909   2.589
  141XTA   HL2715764  26.602  -2.689   2.441
  141XTA   HL2815765  26.436  -2.678   2.518
  141XTA   HL2915766  26.574  -2.533   2.616
  141XTA   HL3015767  26.559  -2.645   2.745
  141XTA   HL3115768  26.786  -2.754   2.678
  141XTA   HL3215769  26.796  -2.622   2.540
  141XTA   HL3315770  26.786  -2.561   2.839
  141XTA   HL3415771  26.932  -2.585   2.752
  141XTA   HL3515772  26.913  -2.440   2.509
  141XTA   HL3615773  27.015  -2.420   2.639
  141XTA   HL3715774  26.800  -2.109   2.477
  141XTA   HL3815775  26.707  -2.206   2.588
  141XTA   HL3915776  26.687  -2.399   2.438
  141XTA   HL4015777  26.795  -2.314   2.326
  141XTA   HL4115778  26.636  -2.259   2.364
  141XTA    CO815779  27.020  -3.545   2.068
  141XTA    CO915780  27.213  -3.399   1.999
  141XTA    OA615781  26.987  -3.493   2.196
  141XTA   HL4215782  26.980  -3.644   2.076
  141XTA   HL4315783  26.968  -3.483   1.993
  141XTA   HL4415784  27.129  -2.247   2.514
  141XTA   HL4515785  27.029  -2.244   2.379
  141XTA   CO1015786  27.039  -2.202   2.481
  141XTA   CO1115787  26.940  -2.162   2.704
  141XTA    OA715788  27.061  -2.059   2.473
  141XTA   HL4615789  26.978  -2.064   2.687
  141XTA   HL4715790  27.015  -2.214   2.770
  141XTA   HL4815791  27.147  -3.312   2.034
  141XTA   HL4915792  27.301  -3.378   2.049
  142XTA     NT15793  27.475   0.426   0.499
  142XTA    CN115794  27.442   0.544   0.440
  142XTA     C115795  27.544   0.630   0.395
  142XTA     C215796  27.510   0.751   0.326
  142XTA     C315797  27.374   0.791   0.306
  142XTA     C415798  27.272   0.701   0.351
  142XTA     C515799  27.305   0.586   0.421
  142XTA    CN215800  27.408   0.313   0.452
  142XTA     C615801  27.286   0.278   0.508
  142XTA     C715802  27.240   0.150   0.480
  142XTA     C815803  27.309   0.059   0.396
  142XTA     C915804  27.435   0.096   0.334
  142XTA    C1015805  27.488   0.221   0.377
  142XTA    CN315806  27.566   0.417   0.598
  142XTA    C1115807  27.701   0.372   0.566
  142XTA    C1215808  27.801   0.370   0.665
  142XTA    C1315809  27.771   0.412   0.795
  142XTA    C1415810  27.638   0.455   0.825
  142XTA    C1515811  27.536   0.451   0.728
  142XTA     H115812  27.651   0.610   0.422
  142XTA     H215813  27.594   0.818   0.308
  142XTA     H315814  27.166   0.722   0.333
  142XTA     H415815  27.222   0.529   0.456
  142XTA     H515816  27.241   0.345   0.583
  142XTA     H615817  27.151   0.112   0.533
  142XTA     H715818  27.490   0.027   0.271
  142XTA     H815819  27.582   0.244   0.341
  142XTA     H915820  27.728   0.324   0.473
  142XTA    H1015821  27.898   0.323   0.634
  142XTA    H1115822  27.609   0.484   0.930
  142XTA    H1215823  27.435   0.468   0.750
  142XTA    OA115824  27.341   0.905   0.244
  142XTA    CO115825  27.440   0.996   0.200
  142XTA    OA215826  27.258  -0.070   0.395
  142XTA    CO215827  27.322  -0.162   0.305
  142XTA    CL115828  27.440  -0.231   0.370
  142XTA    CL215829  27.559  -0.262   0.277
  142XTA    CL315830  27.684  -0.339   0.323
  142XTA    CL415831  27.741  -0.281   0.453
  142XTA    CO315832  27.881  -0.345   0.473
  142XTA    OA315833  27.924  -0.341   0.600
  142XTA    CO415834  27.961  -0.213   0.641
  142XTA    CT115835  27.995  -0.209   0.795
  142XTA    CL515836  28.053  -0.077   0.820
  142XTA    CL615837  27.983   0.052   0.775
  142XTA    OA415838  27.875   0.413   0.888
  142XTA    CO515839  27.844   0.492   1.001
  142XTA    CL715840  27.775   0.407   1.110
  142XTA    CL815841  27.732   0.495   1.229
  142XTA    CL915842  27.630   0.602   1.207
  142XTA   CL1015843  27.565   0.642   1.337
  142XTA    CO615844  27.467   0.543   1.385
  142XTA    OA515845  27.368   0.601   1.474
  142XTA    CO715846  27.263   0.507   1.498
  142XTA    CT215847  27.146   0.560   1.581
  142XTA   CL1115848  27.170   0.549   1.733
  142XTA   CL1215849  27.299   0.616   1.783
  142XTA    HL115850  27.398   1.084   0.145
  142XTA    HL215851  27.495   1.033   0.284
  142XTA    HL315852  27.499   0.934   0.143
  142XTA    HL415853  27.255  -0.240   0.289
  142XTA    HL515854  27.341  -0.129   0.204
  142XTA    HL615855  27.402  -0.327   0.412
  142XTA    HL715856  27.479  -0.169   0.454
  142XTA    HL815857  27.612  -0.173   0.246
  142XTA    HL915858  27.517  -0.315   0.191
  142XTA   HL1015859  27.665  -0.448   0.331
  142XTA   HL1115860  27.763  -0.331   0.247
  142XTA   HL1215861  27.670  -0.312   0.525
  142XTA   HL1315862  27.736  -0.170   0.458
  142XTA   HL1415863  27.874  -0.451   0.432
  142XTA   HL1515864  27.945  -0.288   0.408
  142XTA   HL1615865  28.032  -0.170   0.573
  142XTA   HL1715866  27.866  -0.163   0.631
  142XTA   HL1815867  28.154  -0.078   0.787
  142XTA   HL1915868  28.060  -0.064   0.931
  142XTA   HL2015869  27.949   0.055   0.673
  142XTA   HL2115870  28.031   0.139   0.806
  142XTA   HL2215871  27.886   0.072   0.828
  142XTA   HL2315872  27.798   0.582   0.965
  142XTA   HL2415873  27.942   0.526   1.036
  142XTA   HL2515874  27.691   0.351   1.079
  142XTA   HL2615875  27.850   0.331   1.128
  142XTA   HL2715876  27.705   0.433   1.310
  142XTA   HL2815877  27.819   0.540   1.275
  142XTA   HL2915878  27.674   0.687   1.159
  142XTA   HL3015879  27.544   0.560   1.147
  142XTA   HL3115880  27.638   0.678   1.407
  142XTA   HL3215881  27.498   0.728   1.315
  142XTA   HL3315882  27.418   0.494   1.300
  142XTA   HL3415883  27.521   0.471   1.441
  142XTA   HL3515884  27.301   0.423   1.547
  142XTA   HL3615885  27.229   0.471   1.395
  142XTA   HL3715886  27.181   0.445   1.759
  142XTA   HL3815887  27.093   0.591   1.790
  142XTA   HL3915888  27.320   0.556   1.877
  142XTA   HL4015889  27.284   0.728   1.804
  142XTA   HL4115890  27.385   0.603   1.716
  142XTA    CO815891  28.090  -0.320   0.833
  142XTA    CO915892  27.860  -0.227   0.868
  142XTA    OA615893  27.873  -0.205   1.005
  142XTA   HL4215894  28.090  -0.331   0.941
  142XTA   HL4315895  28.045  -0.410   0.796
  142XTA   HL4415896  26.932   0.519   1.601
  142XTA   HL4515897  27.002   0.496   1.439
  142XTA   CO1015898  27.017   0.480   1.541
  142XTA   CO1115899  27.124   0.704   1.535
  142XTA    OA715900  27.023   0.376   1.575
  142XTA   HL4615901  27.249   0.774   1.556
  142XTA   HL4715902  27.048   0.754   1.593
  142XTA   HL4815903  27.812  -0.324   0.838
  142XTA   HL4915904  27.805  -0.148   0.834
  143XTA     NT15905  31.030  -0.038   6.674
  143XTA    CN115906  31.146   0.029   6.682
  143XTA     C115907  31.244  -0.019   6.774
  143XTA     C215908  31.364   0.051   6.785
  143XTA     C315909  31.386   0.168   6.712
  143XTA     C415910  31.299   0.211   6.613
  143XTA     C515911  31.177   0.137   6.592
  143XTA    CN215912  30.930  -0.001   6.759
  143XTA     C615913  30.935  -0.043   6.894
  143XTA     C715914  30.829  -0.009   6.985
  143XTA     C815915  30.724   0.075   6.935
  143XTA     C915916  30.721   0.109   6.798
  143XTA    C1015917  30.819   0.065   6.708
  143XTA    CN315918  31.018  -0.147   6.600
  143XTA    C1115919  31.012  -0.277   6.650
  143XTA    C1215920  30.977  -0.382   6.565
  143XTA    C1315921  30.936  -0.362   6.439
  143XTA    C1415922  30.936  -0.231   6.385
  143XTA    C1515923  30.981  -0.122   6.467
  143XTA     H115924  31.222  -0.107   6.827
  143XTA     H215925  31.433   0.015   6.865
  143XTA     H315926  31.316   0.297   6.552
  143XTA     H415927  31.100   0.165   6.522
  143XTA     H515928  31.013  -0.112   6.929
  143XTA     H615929  30.837  -0.030   7.095
  143XTA     H715930  30.648   0.174   6.740
  143XTA     H815931  30.803   0.100   6.608
  143XTA     H915932  31.020  -0.303   6.755
  143XTA    H1015933  30.984  -0.483   6.601
  143XTA    H1115934  30.914  -0.209   6.283
  143XTA    H1215935  30.983  -0.024   6.418
  143XTA    OA115936  31.495   0.251   6.739
  143XTA    CO115937  31.574   0.219   6.854
  143XTA    OA215938  30.628   0.122   7.026
  143XTA    CO215939  30.513   0.187   6.970
  143XTA    CL115940  30.419   0.245   7.080
  143XTA    CL215941  30.495   0.341   7.178
  143XTA    CL315942  30.433   0.336   7.316
  143XTA    CL415943  30.493   0.445   7.404
  143XTA    CO315944  30.433   0.579   7.395
  143XTA    OA315945  30.525   0.664   7.465
  143XTA    CO415946  30.523   0.808   7.434
  143XTA    CT115947  30.640   0.871   7.506
  143XTA    CL515948  30.763   0.824   7.432
  143XTA    CL615949  30.797   0.675   7.441
  143XTA    OA415950  30.899  -0.476   6.368
  143XTA    CO515951  30.805  -0.458   6.260
  143XTA    CL715952  30.671  -0.406   6.315
  143XTA    CL815953  30.564  -0.416   6.205
  143XTA    CL915954  30.595  -0.348   6.074
  143XTA   CL1015955  30.623  -0.200   6.099
  143XTA    CO615956  30.641  -0.118   5.970
  143XTA    OA515957  30.514  -0.114   5.902
  143XTA    CO715958  30.542  -0.034   5.783
  143XTA    CT215959  30.420  -0.035   5.693
  143XTA   CL1115960  30.455   0.051   5.569
  143XTA   CL1215961  30.493   0.191   5.600
  143XTA    HL115962  31.633   0.313   6.859
  143XTA    HL215963  31.520   0.214   6.954
  143XTA    HL315964  31.638   0.135   6.837
  143XTA    HL415965  30.544   0.277   6.902
  143XTA    HL515966  30.460   0.108   6.917
  143XTA    HL615967  30.378   0.161   7.147
  143XTA    HL715968  30.327   0.294   7.044
  143XTA    HL815969  30.485   0.438   7.128
  143XTA    HL915970  30.603   0.333   7.171
  143XTA   HL1015971  30.328   0.357   7.314
  143XTA   HL1115972  30.439   0.237   7.350
  143XTA   HL1215973  30.603   0.457   7.376
  143XTA   HL1315974  30.488   0.409   7.503
  143XTA   HL1415975  30.428   0.615   7.288
  143XTA   HL1515976  30.339   0.575   7.442
  143XTA   HL1615977  30.524   0.823   7.328
  143XTA   HL1715978  30.427   0.868   7.458
  143XTA   HL1815979  30.847   0.877   7.469
  143XTA   HL1915980  30.758   0.844   7.327
  143XTA   HL2015981  30.741   0.620   7.367
  143XTA   HL2115982  30.795   0.637   7.541
  143XTA   HL2215983  30.895   0.656   7.401
  143XTA   HL2315984  30.806  -0.551   6.209
  143XTA   HL2415985  30.858  -0.399   6.190
  143XTA   HL2515986  30.642  -0.460   6.396
  143XTA   HL2615987  30.694  -0.303   6.346
  143XTA   HL2715988  30.563  -0.525   6.186
  143XTA   HL2815989  30.467  -0.380   6.246
  143XTA   HL2915990  30.674  -0.406   6.039
  143XTA   HL3015991  30.505  -0.364   6.007
  143XTA   HL3115992  30.546  -0.154   6.165
  143XTA   HL3215993  30.726  -0.196   6.142
  143XTA   HL3315994  30.677  -0.018   5.994
  143XTA   HL3415995  30.709  -0.157   5.894
  143XTA   HL3515996  30.611  -0.081   5.726
  143XTA   HL3615997  30.564   0.070   5.812
  143XTA   HL3715998  30.373   0.066   5.500
  143XTA   HL3815999  30.533   0.006   5.507
  143XTA   HL3916000  30.573   0.225   5.662
  143XTA   HL4016001  30.396   0.229   5.630
  143XTA   HL4116002  30.497   0.249   5.509
  143XTA    CO816003  30.637   0.828   7.655
  143XTA    CO916004  30.647   1.020   7.494
  143XTA    OA616005  30.724   0.852   7.709
  143XTA   HL4216006  30.614   0.724   7.667
  143XTA   HL4316007  30.552   0.873   7.707
  143XTA   HL4416008  30.277  -0.052   5.851
  143XTA   HL4516009  30.311   0.113   5.802
  143XTA   CO1016010  30.295   0.011   5.765
  143XTA   CO1116011  30.394  -0.183   5.647
  143XTA    OA716012  30.345  -0.198   5.519
  143XTA   HL4616013  30.489  -0.239   5.647
  143XTA   HL4716014  30.319  -0.234   5.713
  143XTA   HL4816015  30.649   1.068   7.366
  143XTA   HL4916016  30.743   1.046   7.542
  144XTA     NT16017  32.226   0.777   2.531
  144XTA    CN116018  32.170   0.851   2.438
  144XTA     C116019  32.203   0.986   2.422
  144XTA     C216020  32.134   1.070   2.326
  144XTA     C316021  32.028   1.022   2.254
  144XTA     C416022  32.000   0.885   2.262
  144XTA     C516023  32.070   0.802   2.353
  144XTA    CN216024  32.189   0.798   2.659
  144XTA     C616025  32.276   0.791   2.769
  144XTA     C716026  32.230   0.813   2.899
  144XTA     C816027  32.093   0.820   2.928
  144XTA     C916028  32.007   0.819   2.823
  144XTA    C1016029  32.053   0.803   2.685
  144XTA    CN316030  32.316   0.688   2.495
  144XTA    C1116031  32.451   0.719   2.493
  144XTA    C1216032  32.547   0.642   2.429
  144XTA    C1316033  32.510   0.510   2.386
  144XTA    C1416034  32.373   0.477   2.388
  144XTA    C1516035  32.272   0.570   2.437
  144XTA     H116036  32.285   1.001   2.482
  144XTA     H216037  32.161   1.173   2.302
  144XTA     H316038  31.932   0.851   2.192
  144XTA     H416039  32.045   0.700   2.365
  144XTA     H516040  32.377   0.774   2.745
  144XTA     H616041  32.302   0.804   2.983
  144XTA     H716042  31.893   0.827   2.838
  144XTA     H816043  31.969   0.790   2.616
  144XTA     H916044  32.482   0.815   2.522
  144XTA    H1016045  32.650   0.680   2.437
  144XTA    H1116046  32.342   0.384   2.351
  144XTA    H1216047  32.165   0.552   2.426
  144XTA    OA116048  31.984   1.100   2.150
  144XTA    CO116049  31.840   1.106   2.131
  144XTA    OA216050  32.037   0.830   3.053
  144XTA    CO216051  32.121   0.798   3.160
  144XTA    CL116052  32.029   0.810   3.285
  144XTA    CL216053  32.104   0.807   3.416
  144XTA    CL316054  32.015   0.848   3.532
  144XTA    CL416055  31.920   0.737   3.585
  144XTA    CO316056  31.848   0.760   3.716
  144XTA    OA316057  31.759   0.657   3.738
  144XTA    CO416058  31.802   0.577   3.853
  144XTA    CT116059  31.746   0.430   3.855
  144XTA    CL516060  31.589   0.430   3.843
  144XTA    CL616061  31.521   0.452   3.978
  144XTA    OA416062  32.597   0.410   2.354
  144XTA    CO516063  32.714   0.400   2.429
  144XTA    CL716064  32.819   0.462   2.330
  144XTA    CL816065  32.945   0.503   2.403
  144XTA    CL916066  32.914   0.611   2.515
  144XTA   CL1016067  33.037   0.673   2.582
  144XTA    CO616068  33.010   0.762   2.702
  144XTA    OA516069  32.886   0.830   2.684
  144XTA    CO716070  32.877   0.949   2.753
  144XTA    CT216071  32.791   1.048   2.678
  144XTA   CL1116072  32.651   0.985   2.686
  144XTA   CL1216073  32.544   1.072   2.609
  144XTA    HL116074  31.811   1.008   2.118
  144XTA    HL216075  31.785   1.148   2.212
  144XTA    HL316076  31.807   1.158   2.037
  144XTA    HL416077  32.155   0.693   3.164
  144XTA    HL516078  32.213   0.863   3.166
  144XTA    HL616079  31.955   0.727   3.278
  144XTA    HL716080  31.965   0.899   3.284
  144XTA    HL816081  32.179   0.887   3.399
  144XTA    HL916082  32.163   0.711   3.425
  144XTA   HL1016083  32.082   0.867   3.613
  144XTA   HL1116084  31.970   0.941   3.511
  144XTA   HL1216085  31.984   0.646   3.595
  144XTA   HL1316086  31.843   0.699   3.521
  144XTA   HL1416087  31.920   0.779   3.790
  144XTA   HL1516088  31.788   0.847   3.712
  144XTA   HL1616089  31.904   0.574   3.859
  144XTA   HL1716090  31.773   0.626   3.948
  144XTA   HL1816091  31.555   0.337   3.803
  144XTA   HL1916092  31.558   0.498   3.769
  144XTA   HL2016093  31.418   0.426   3.963
  144XTA   HL2116094  31.533   0.556   4.015
  144XTA   HL2216095  31.563   0.394   4.058
  144XTA   HL2316096  32.725   0.297   2.450
  144XTA   HL2416097  32.719   0.440   2.528
  144XTA   HL2516098  32.846   0.389   2.246
  144XTA   HL2616099  32.771   0.544   2.272
  144XTA   HL2716100  33.011   0.422   2.447
  144XTA   HL2816101  33.016   0.550   2.327
  144XTA   HL2916102  32.869   0.692   2.469
  144XTA   HL3016103  32.852   0.572   2.597
  144XTA   HL3116104  33.109   0.597   2.614
  144XTA   HL3216105  33.092   0.737   2.510
  144XTA   HL3316106  32.992   0.700   2.788
  144XTA   HL3416107  33.094   0.823   2.732
  144XTA   HL3516108  32.979   0.993   2.749
  144XTA   HL3616109  32.848   0.935   2.865
  144XTA   HL3716110  32.637   0.977   2.795
  144XTA   HL3816111  32.642   0.890   2.639
  144XTA   HL3916112  32.569   1.056   2.505
  144XTA   HL4016113  32.551   1.180   2.632
  144XTA   HL4116114  32.439   1.030   2.622
  144XTA    CO816115  31.802   0.337   3.958
  144XTA    CO916116  31.800   0.347   3.744
  144XTA    OA616117  31.845   0.261   3.851
  144XTA   HL4216118  31.721   0.286   4.011
  144XTA   HL4316119  31.873   0.376   4.024
  144XTA   HL4416120  32.831   0.963   2.493
  144XTA   HL4516121  32.757   1.111   2.465
  144XTA   CO1016122  32.833   1.066   2.529
  144XTA   CO1116123  32.794   1.187   2.743
  144XTA    OA716124  32.927   1.128   2.528
  144XTA   HL4616125  32.729   1.285   2.663
  144XTA   HL4716126  32.904   1.222   2.743
  144XTA   HL4816127  31.879   0.392   3.684
  144XTA   HL4916128  31.714   0.308   3.692
  145XTA     NT16129  24.219   0.125  -0.358
  145XTA    CN116130  24.089   0.166  -0.345
  145XTA     C116131  24.007   0.119  -0.244
  145XTA     C216132  23.878   0.159  -0.216
  145XTA     C316133  23.830   0.263  -0.292
  145XTA     C416134  23.913   0.331  -0.380
  145XTA     C516135  24.041   0.281  -0.412
  145XTA    CN216136  24.325   0.201  -0.314
  145XTA     C616137  24.423   0.246  -0.409
  145XTA     C716138  24.525   0.331  -0.371
  145XTA     C816139  24.544   0.360  -0.235
  145XTA     C916140  24.452   0.315  -0.139
  145XTA    C1016141  24.344   0.236  -0.181
  145XTA    CN316142  24.247  -0.000  -0.393
  145XTA    C1116143  24.184  -0.058  -0.504
  145XTA    C1216144  24.203  -0.195  -0.538
  145XTA    C1316145  24.295  -0.273  -0.470
  145XTA    C1416146  24.362  -0.215  -0.367
  145XTA    C1516147  24.333  -0.084  -0.319
  145XTA     H116148  24.046   0.050  -0.177
  145XTA     H216149  23.828   0.115  -0.137
  145XTA     H316150  23.892   0.425  -0.429
  145XTA     H416151  24.096   0.341  -0.484
  145XTA     H516152  24.410   0.208  -0.506
  145XTA     H616153  24.595   0.364  -0.451
  145XTA     H716154  24.466   0.330  -0.030
  145XTA     H816155  24.283   0.198  -0.105
  145XTA     H916156  24.112   0.002  -0.562
  145XTA    H1016157  24.144  -0.232  -0.614
  145XTA    H1116158  24.439  -0.281  -0.321
  145XTA    H1216159  24.377  -0.054  -0.219
  145XTA    OA116160  23.697   0.295  -0.277
  145XTA    CO116161  23.622   0.337  -0.387
  145XTA    OA216162  24.661   0.420  -0.189
  145XTA    CO216163  24.777   0.442  -0.269
  145XTA    CL116164  24.890   0.433  -0.163
  145XTA    CL216165  24.888   0.537  -0.057
  145XTA    CL316166  25.008   0.525   0.046
  145XTA    CL416167  25.002   0.640   0.147
  145XTA    CO316168  25.109   0.628   0.255
  145XTA    OA316169  25.162   0.759   0.274
  145XTA    CO416170  25.267   0.764   0.367
  145XTA    CT116171  25.321   0.913   0.370
  145XTA    CL516172  25.243   1.009   0.455
  145XTA    CL616173  25.102   1.035   0.411
  145XTA    OA416174  24.329  -0.400  -0.514
  145XTA    CO516175  24.276  -0.460  -0.631
  145XTA    CL716176  24.330  -0.607  -0.648
  145XTA    CL816177  24.273  -0.680  -0.768
  145XTA    CL916178  24.359  -0.799  -0.805
  145XTA   CL1016179  24.316  -0.873  -0.932
  145XTA    CO616180  24.397  -0.999  -0.953
  145XTA    OA516181  24.363  -1.062  -1.074
  145XTA    CO716182  24.451  -1.020  -1.175
  145XTA    CT216183  24.415  -1.064  -1.314
  145XTA   CL1116184  24.501  -0.974  -1.419
  145XTA   CL1216185  24.439  -0.970  -1.561
  145XTA    HL116186  23.513   0.324  -0.352
  145XTA    HL216187  23.646   0.441  -0.407
  145XTA    HL316188  23.634   0.265  -0.476
  145XTA    HL416189  24.792   0.362  -0.338
  145XTA    HL516190  24.776   0.538  -0.319
  145XTA    HL616191  24.986   0.446  -0.224
  145XTA    HL716192  24.893   0.332  -0.125
  145XTA    HL816193  24.802   0.517  -0.005
  145XTA    HL916194  24.883   0.635  -0.111
  145XTA   HL1016195  25.008   0.426   0.105
  145XTA   HL1116196  25.108   0.520  -0.009
  145XTA   HL1216197  24.900   0.649   0.197
  145XTA   HL1316198  25.013   0.739   0.097
  145XTA   HL1416199  25.076   0.595   0.345
  145XTA   HL1516200  25.191   0.565   0.222
  145XTA   HL1616201  25.239   0.722   0.468
  145XTA   HL1716202  25.344   0.700   0.334
  145XTA   HL1816203  25.291   1.111   0.461
  145XTA   HL1916204  25.236   0.978   0.560
  145XTA   HL2016205  25.063   0.977   0.328
  145XTA   HL2116206  25.089   1.140   0.386
  145XTA   HL2216207  25.038   1.008   0.499
  145XTA   HL2316208  24.299  -0.395  -0.718
  145XTA   HL2416209  24.168  -0.458  -0.632
  145XTA   HL2516210  24.428  -0.599  -0.666
  145XTA   HL2616211  24.329  -0.663  -0.551
  145XTA   HL2716212  24.166  -0.700  -0.756
  145XTA   HL2816213  24.285  -0.614  -0.856
  145XTA   HL2916214  24.458  -0.769  -0.823
  145XTA   HL3016215  24.355  -0.869  -0.727
  145XTA   HL3116216  24.212  -0.899  -0.921
  145XTA   HL3216217  24.323  -0.805  -1.015
  145XTA   HL3316218  24.505  -0.986  -0.941
  145XTA   HL3416219  24.376  -1.076  -0.881
  145XTA   HL3516220  24.550  -1.055  -1.156
  145XTA   HL3616221  24.461  -0.911  -1.186
  145XTA   HL3716222  24.602  -1.011  -1.423
  145XTA   HL3816223  24.511  -0.873  -1.385
  145XTA   HL3916224  24.455  -1.070  -1.602
  145XTA   HL4016225  24.471  -0.893  -1.632
  145XTA   HL4116226  24.327  -0.960  -1.552
  145XTA    CO816227  25.334   0.958   0.221
  145XTA    CO916228  25.466   0.910   0.429
  145XTA    OA616229  25.538   0.840   0.379
  145XTA   HL4216230  25.416   0.907   0.167
  145XTA   HL4316231  25.205   0.956   0.154
  145XTA   HL4416232  24.234  -1.105  -1.423
  145XTA   HL4516233  24.205  -1.119  -1.234
  145XTA   CO1016234  24.266  -1.048  -1.330
  145XTA   CO1116235  24.448  -1.207  -1.326
  145XTA    OA716236  24.555  -1.222  -1.327
  145XTA   HL4616237  24.396  -1.259  -1.244
  145XTA   HL4716238  24.410  -1.253  -1.410
  145XTA   HL4816239  25.464   0.890   0.542
  145XTA   HL4916240  25.511   1.006   0.418
  146XTA     NT16241  30.891   0.736   3.433
  146XTA    CN116242  30.966   0.660   3.516
  146XTA     C116243  31.012   0.528   3.468
  146XTA     C216244  31.082   0.446   3.564
  146XTA     C316245  31.104   0.487   3.695
  146XTA     C416246  31.046   0.605   3.743
  146XTA     C516247  30.963   0.683   3.656
  146XTA    CN216248  30.919   0.858   3.394
  146XTA     C616249  30.939   0.955   3.493
  146XTA     C716250  30.987   1.083   3.457
  146XTA     C816251  31.003   1.122   3.319
  146XTA     C916252  30.961   1.027   3.221
  146XTA    C1016253  30.928   0.896   3.255
  146XTA    CN316254  30.754   0.707   3.424
  146XTA    C1116255  30.704   0.643   3.307
  146XTA    C1216256  30.567   0.630   3.294
  146XTA    C1316257  30.475   0.677   3.392
  146XTA    C1416258  30.527   0.727   3.512
  146XTA    C1516259  30.667   0.746   3.530
  146XTA     H116260  31.005   0.501   3.363
  146XTA     H216261  31.128   0.348   3.545
  146XTA     H316262  31.084   0.626   3.844
  146XTA     H416263  30.908   0.767   3.690
  146XTA     H516264  30.929   0.941   3.594
  146XTA     H616265  31.022   1.160   3.528
  146XTA     H716266  30.986   1.054   3.121
  146XTA     H816267  30.910   0.835   3.168
  146XTA     H916268  30.767   0.619   3.221
  146XTA    H1016269  30.524   0.594   3.203
  146XTA    H1116270  30.469   0.764   3.593
  146XTA    H1216271  30.708   0.787   3.622
  146XTA    OA116272  31.172   0.397   3.769
  146XTA    CO116273  31.111   0.351   3.894
  146XTA    OA216274  31.051   1.245   3.292
  146XTA    CO216275  31.075   1.286   3.159
  146XTA    CL116276  31.157   1.407   3.162
  146XTA    CL216277  31.290   1.358   3.218
  146XTA    CL316278  31.401   1.461   3.204
  146XTA    CL416279  31.528   1.413   3.273
  146XTA    CO316280  31.511   1.404   3.421
  146XTA    OA316281  31.507   1.535   3.486
  146XTA    CO416282  31.386   1.605   3.496
  146XTA    CT116283  31.345   1.634   3.646
  146XTA    CL516284  31.197   1.692   3.644
  146XTA    CL616285  31.148   1.741   3.786
  146XTA    OA416286  30.341   0.664   3.361
  146XTA    CO516287  30.244   0.731   3.443
  146XTA    CL716288  30.235   0.875   3.414
  146XTA    CL816289  30.100   0.919   3.461
  146XTA    CL916290  30.097   0.946   3.612
  146XTA   CL1016291  30.164   1.077   3.651
  146XTA    CO616292  30.115   1.197   3.574
  146XTA    OA516293  30.136   1.317   3.645
  146XTA    CO716294  30.028   1.345   3.740
  146XTA    CT216295  30.057   1.466   3.833
  146XTA   CL1116296  30.202   1.466   3.888
  146XTA   CL1216297  30.228   1.348   3.989
  146XTA    HL116298  31.078   0.436   3.963
  146XTA    HL216299  31.025   0.289   3.875
  146XTA    HL316300  31.173   0.280   3.947
  146XTA    HL416301  31.116   1.218   3.088
  146XTA    HL516302  30.977   1.312   3.121
  146XTA    HL616303  31.111   1.479   3.227
  146XTA    HL716304  31.170   1.445   3.061
  146XTA    HL816305  31.310   1.264   3.169
  146XTA    HL916306  31.265   1.333   3.318
  146XTA   HL1016307  31.430   1.480   3.100
  146XTA   HL1116308  31.371   1.552   3.251
  146XTA   HL1216309  31.612   1.481   3.255
  146XTA   HL1316310  31.561   1.319   3.234
  146XTA   HL1416311  31.414   1.353   3.437
  146XTA   HL1516312  31.582   1.339   3.476
  146XTA   HL1616313  31.383   1.695   3.432
  146XTA   HL1716314  31.305   1.545   3.447
  146XTA   HL1816315  31.133   1.615   3.606
  146XTA   HL1916316  31.198   1.773   3.573
  146XTA   HL2016317  31.049   1.797   3.793
  146XTA   HL2116318  31.198   1.835   3.809
  146XTA   HL2216319  31.162   1.669   3.875
  146XTA   HL2316320  30.248   0.714   3.556
  146XTA   HL2416321  30.154   0.674   3.408
  146XTA   HL2516322  30.319   0.939   3.455
  146XTA   HL2616323  30.251   0.878   3.310
  146XTA   HL2716324  30.083   1.013   3.405
  146XTA   HL2816325  30.022   0.855   3.435
  146XTA   HL2916326  29.994   0.950   3.639
  146XTA   HL3016327  30.129   0.857   3.665
  146XTA   HL3116328  30.134   1.094   3.754
  146XTA   HL3216329  30.277   1.062   3.659
  146XTA   HL3316330  30.168   1.202   3.480
  146XTA   HL3416331  30.006   1.182   3.542
  146XTA   HL3516332  30.005   1.254   3.798
  146XTA   HL3616333  29.934   1.343   3.683
  146XTA   HL3716334  30.232   1.549   3.947
  146XTA   HL3816335  30.261   1.456   3.804
  146XTA   HL3916336  30.214   1.251   3.929
  146XTA   HL4016337  30.158   1.350   4.071
  146XTA   HL4116338  30.330   1.353   4.023
  146XTA    CO816339  31.454   1.729   3.707
  146XTA    CO916340  31.343   1.500   3.723
  146XTA    OA616341  31.451   1.848   3.636
  146XTA   HL4216342  31.553   1.688   3.701
  146XTA   HL4316343  31.434   1.733   3.816
  146XTA   HL4416344  29.849   1.477   3.889
  146XTA   HL4516345  29.949   1.382   3.990
  146XTA   CO1016346  29.943   1.474   3.935
  146XTA   CO1116347  30.027   1.591   3.746
  146XTA    OA716348  29.964   1.588   4.007
  146XTA   HL4616349  30.051   1.684   3.798
  146XTA   HL4716350  30.095   1.580   3.660
  146XTA   HL4816351  31.293   1.429   3.651
  146XTA   HL4916352  31.440   1.453   3.715
  147XTA     NT16353  28.268   0.867   4.505
  147XTA    CN116354  28.223   0.963   4.418
  147XTA     C116355  28.111   0.939   4.334
  147XTA     C216356  28.064   1.032   4.242
  147XTA     C316357  28.134   1.155   4.221
  147XTA     C416358  28.251   1.179   4.294
  147XTA     C516359  28.295   1.087   4.394
  147XTA    CN216360  28.347   0.919   4.607
  147XTA     C616361  28.279   0.983   4.715
  147XTA     C716362  28.354   1.024   4.827
  147XTA     C816363  28.494   1.026   4.828
  147XTA     C916364  28.557   0.962   4.719
  147XTA    C1016365  28.483   0.907   4.614
  147XTA    CN316366  28.190   0.755   4.520
  147XTA    C1116367  28.206   0.658   4.419
  147XTA    C1216368  28.110   0.555   4.408
  147XTA    C1316369  28.019   0.537   4.508
  147XTA    C1416370  28.003   0.630   4.618
  147XTA    C1516371  28.095   0.735   4.622
  147XTA     H116372  28.054   0.844   4.340
  147XTA     H216373  27.985   0.999   4.189
  147XTA     H316374  28.291   1.275   4.282
  147XTA     H416375  28.378   1.110   4.457
  147XTA     H516376  28.170   0.993   4.718
  147XTA     H616377  28.294   1.073   4.903
  147XTA     H716378  28.667   0.960   4.717
  147XTA     H816379  28.535   0.869   4.523
  147XTA     H916380  28.286   0.665   4.353
  147XTA    H1016381  28.109   0.485   4.327
  147XTA    H1116382  27.936   0.613   4.700
  147XTA    H1216383  28.088   0.798   4.701
  147XTA    OA116384  28.088   1.246   4.131
  147XTA    CO116385  28.163   1.355   4.090
  147XTA    OA216386  28.570   1.060   4.937
  147XTA    CO216387  28.497   1.126   5.041
  147XTA    CL116388  28.594   1.180   5.141
  147XTA    CL216389  28.706   1.266   5.076
  147XTA    CL316390  28.728   1.404   5.141
  147XTA    CL416391  28.656   1.513   5.066
  147XTA    CO316392  28.705   1.648   5.120
  147XTA    OA316393  28.616   1.746   5.066
  147XTA    CO416394  28.663   1.778   4.932
  147XTA    CT116395  28.554   1.842   4.844
  147XTA    CL516396  28.511   1.977   4.895
  147XTA    CL616397  28.442   1.975   5.028
  147XTA    OA416398  27.927   0.446   4.479
  147XTA    CO516399  27.833   0.408   4.574
  147XTA    CL716400  27.907   0.327   4.684
  147XTA    CL816401  27.810   0.313   4.807
  147XTA    CL916402  27.859   0.410   4.910
  147XTA   CL1016403  27.809   0.391   5.050
  147XTA    CO616404  27.857   0.499   5.144
  147XTA    OA516405  27.829   0.455   5.281
  147XTA    CO716406  27.900   0.538   5.383
  147XTA    CT216407  27.890   0.481   5.516
  147XTA   CL1116408  27.736   0.491   5.549
  147XTA   CL1216409  27.697   0.435   5.686
  147XTA    HL116410  28.158   1.426   4.172
  147XTA    HL216411  28.267   1.334   4.069
  147XTA    HL316412  28.117   1.408   4.001
  147XTA    HL416413  28.425   1.199   5.012
  147XTA    HL516414  28.433   1.061   5.105
  147XTA    HL616415  28.635   1.109   5.208
  147XTA    HL716416  28.530   1.250   5.206
  147XTA    HL816417  28.673   1.279   4.974
  147XTA    HL916418  28.803   1.204   5.075
  147XTA   HL1016419  28.705   1.398   5.248
  147XTA   HL1116420  28.841   1.427   5.146
  147XTA   HL1216421  28.548   1.502   5.070
  147XTA   HL1316422  28.682   1.498   4.960
  147XTA   HL1416423  28.701   1.651   5.231
  147XTA   HL1516424  28.819   1.659   5.102
  147XTA   HL1616425  28.741   1.848   4.949
  147XTA   HL1716426  28.707   1.687   4.884
  147XTA   HL1816427  28.445   2.018   4.814
  147XTA   HL1916428  28.594   2.044   4.896
  147XTA   HL2016429  28.503   1.957   5.115
  147XTA   HL2116430  28.355   1.914   5.031
  147XTA   HL2216431  28.406   2.077   5.036
  147XTA   HL2316432  27.764   0.343   4.523
  147XTA   HL2416433  27.774   0.490   4.617
  147XTA   HL2516434  27.920   0.225   4.643
  147XTA   HL2616435  28.009   0.367   4.704
  147XTA   HL2716436  27.705   0.352   4.779
  147XTA   HL2816437  27.798   0.216   4.840
  147XTA   HL2916438  27.968   0.399   4.906
  147XTA   HL3016439  27.839   0.509   4.864
  147XTA   HL3116440  27.704   0.376   5.063
  147XTA   HL3216441  27.844   0.292   5.073
  147XTA   HL3316442  27.959   0.517   5.126
  147XTA   HL3416443  27.819   0.594   5.113
  147XTA   HL3516444  27.855   0.639   5.381
  147XTA   HL3616445  27.999   0.552   5.359
  147XTA   HL3716446  27.669   0.457   5.465
  147XTA   HL3816447  27.708   0.600   5.551
  147XTA   HL3916448  27.696   0.317   5.696
  147XTA   HL4016449  27.608   0.465   5.740
  147XTA   HL4116450  27.774   0.465   5.753
  147XTA    CO816451  28.441   1.747   4.839
  147XTA    CO916452  28.602   1.854   4.696
  147XTA    OA616453  28.481   1.621   4.785
  147XTA   HL4216454  28.363   1.792   4.774
  147XTA   HL4316455  28.389   1.727   4.933
  147XTA   HL4416456  28.079   0.582   5.593
  147XTA   HL4516457  27.983   0.510   5.715
  147XTA   CO1016458  27.974   0.565   5.622
  147XTA   CO1116459  27.941   0.336   5.524
  147XTA    OA716460  28.079   0.323   5.508
  147XTA   HL4616461  27.925   0.302   5.629
  147XTA   HL4716462  27.885   0.266   5.466
  147XTA   HL4816463  28.523   1.893   4.639
  147XTA   HL4916464  28.624   1.752   4.653
  148XTA     NT16465  28.989   0.773   4.597
  148XTA    CN116466  28.938   0.749   4.723
  148XTA     C116467  28.868   0.850   4.789
  148XTA     C216468  28.825   0.832   4.921
  148XTA     C316469  28.842   0.705   4.983
  148XTA     C416470  28.903   0.600   4.913
  148XTA     C516471  28.962   0.630   4.789
  148XTA    CN216472  29.115   0.748   4.564
  148XTA     C616473  29.157   0.627   4.503
  148XTA     C716474  29.292   0.621   4.458
  148XTA     C816475  29.384   0.723   4.499
  148XTA     C916476  29.348   0.840   4.574
  148XTA    C1016477  29.209   0.846   4.602
  148XTA    CN316478  28.893   0.791   4.503
  148XTA    C1116479  28.805   0.683   4.475
  148XTA    C1216480  28.703   0.706   4.375
  148XTA    C1316481  28.694   0.835   4.316
  148XTA    C1416482  28.776   0.939   4.354
  148XTA    C1516483  28.883   0.918   4.442
  148XTA     H116484  28.858   0.939   4.740
  148XTA     H216485  28.792   0.912   4.975
  148XTA     H316486  28.909   0.502   4.955
  148XTA     H416487  29.028   0.558   4.746
  148XTA     H516488  29.082   0.559   4.485
  148XTA     H616489  29.332   0.539   4.405
  148XTA     H716490  29.415   0.914   4.597
  148XTA     H816491  29.177   0.938   4.646
  148XTA     H916492  28.821   0.583   4.518
  148XTA    H1016493  28.649   0.615   4.365
  148XTA    H1116494  28.760   1.036   4.307
  148XTA    H1216495  28.970   0.990   4.458
  148XTA    OA116496  28.802   0.678   5.113
  148XTA    CO116497  28.691   0.751   5.150
  148XTA    OA216498  29.506   0.693   4.441
  148XTA    CO216499  29.615   0.777   4.476
  148XTA    CL116500  29.749   0.696   4.461
  148XTA    CL216501  29.767   0.633   4.321
  148XTA    CL316502  29.899   0.541   4.307
  148XTA    CL416503  29.863   0.390   4.315
  148XTA    CO316504  29.833   0.331   4.453
  148XTA    OA316505  29.819   0.191   4.455
  148XTA    CO416506  29.783   0.142   4.586
  148XTA    CT116507  29.873   0.031   4.639
  148XTA    CL516508  30.022   0.067   4.633
  148XTA    CL616509  30.062   0.158   4.755
  148XTA    OA416510  28.603   0.860   4.225
  148XTA    CO516511  28.500   0.768   4.208
  148XTA    CL716512  28.389   0.811   4.104
  148XTA    CL816513  28.269   0.705   4.087
  148XTA    CL916514  28.205   0.714   3.950
  148XTA   CL1016515  28.082   0.635   3.932
  148XTA    CO616516  28.012   0.645   3.787
  148XTA    OA516517  28.092   0.685   3.681
  148XTA    CO716518  28.184   0.592   3.627
  148XTA    CT216519  28.277   0.656   3.521
  148XTA   CL1116520  28.318   0.802   3.566
  148XTA   CL1216521  28.369   0.898   3.463
  148XTA    HL116522  28.719   0.850   5.191
  148XTA    HL216523  28.619   0.761   5.069
  148XTA    HL316524  28.648   0.692   5.227
  148XTA    HL416525  29.616   0.874   4.426
  148XTA    HL516526  29.615   0.804   4.583
  148XTA    HL616527  29.758   0.625   4.540
  148XTA    HL716528  29.830   0.772   4.476
  148XTA    HL816529  29.778   0.721   4.255
  148XTA    HL916530  29.680   0.584   4.284
  148XTA   HL1016531  29.953   0.567   4.215
  148XTA   HL1116532  29.967   0.565   4.388
  148XTA   HL1216533  29.934   0.331   4.261
  148XTA   HL1316534  29.780   0.395   4.252
  148XTA   HL1416535  29.917   0.356   4.517
  148XTA   HL1516536  29.750   0.385   4.490
  148XTA   HL1616537  29.767   0.226   4.653
  148XTA   HL1716538  29.684   0.101   4.567
  148XTA   HL1816539  30.048   0.127   4.542
  148XTA   HL1916540  30.088  -0.021   4.621
  148XTA   HL2016541  30.030   0.106   4.843
  148XTA   HL2116542  30.006   0.250   4.753
  148XTA   HL2216543  30.167   0.187   4.759
  148XTA   HL2316544  28.453   0.741   4.303
  148XTA   HL2416545  28.548   0.676   4.175
  148XTA   HL2516546  28.340   0.900   4.139
  148XTA   HL2616547  28.438   0.830   4.006
  148XTA   HL2716548  28.301   0.606   4.101
  148XTA   HL2816549  28.201   0.725   4.169
  148XTA   HL2916550  28.179   0.824   3.923
  148XTA   HL3016551  28.269   0.675   3.877
  148XTA   HL3116552  28.116   0.534   3.948
  148XTA   HL3216553  28.009   0.660   4.008
  148XTA   HL3316554  27.963   0.548   3.762
  148XTA   HL3416555  27.940   0.723   3.790
  148XTA   HL3516556  28.143   0.503   3.574
  148XTA   HL3616557  28.248   0.549   3.706
  148XTA   HL3716558  28.398   0.793   3.633
  148XTA   HL3816559  28.237   0.843   3.618
  148XTA   HL3916560  28.294   0.939   3.396
  148XTA   HL4016561  28.447   0.850   3.399
  148XTA   HL4116562  28.403   0.981   3.513
  148XTA    CO816563  29.847  -0.091   4.544
  148XTA    CO916564  29.816  -0.013   4.778
  148XTA    OA616565  29.742  -0.132   4.540
  148XTA   HL4216566  29.913  -0.179   4.574
  148XTA   HL4316567  29.878  -0.061   4.446
  148XTA   HL4416568  28.113   0.708   3.380
  148XTA   HL4516569  28.276   0.734   3.324
  148XTA   CO1016570  28.214   0.667   3.382
  148XTA   CO1116571  28.409   0.570   3.506
  148XTA    OA716572  28.188   0.542   3.321
  148XTA   HL4616573  28.380   0.468   3.466
  148XTA   HL4716574  28.467   0.617   3.432
  148XTA   HL4816575  29.800   0.104   4.846
  148XTA   HL4916576  29.709  -0.048   4.781
  149XTA     NT16577  25.657   0.629   3.164
  149XTA    CN116578  25.787   0.630   3.129
  149XTA     C116579  25.852   0.728   3.052
  149XTA     C216580  25.988   0.720   3.015
  149XTA     C316581  26.071   0.611   3.057
  149XTA     C416582  26.002   0.514   3.139
  149XTA     C516583  25.864   0.524   3.173
  149XTA    CN216584  25.562   0.565   3.083
  149XTA     C616585  25.430   0.545   3.125
  149XTA     C716586  25.330   0.499   3.042
  149XTA     C816587  25.359   0.462   2.909
  149XTA     C916588  25.488   0.483   2.860
  149XTA    C1016589  25.587   0.537   2.946
  149XTA    CN316590  25.621   0.721   3.254
  149XTA    C1116591  25.573   0.844   3.215
  149XTA    C1216592  25.527   0.936   3.310
  149XTA    C1316593  25.527   0.913   3.447
  149XTA    C1416594  25.567   0.787   3.488
  149XTA    C1516595  25.603   0.684   3.392
  149XTA     H116596  25.797   0.808   3.011
  149XTA     H216597  26.030   0.798   2.955
  149XTA     H316598  26.051   0.419   3.172
  149XTA     H416599  25.816   0.453   3.238
  149XTA     H516600  25.395   0.567   3.220
  149XTA     H616601  25.230   0.487   3.076
  149XTA     H716602  25.509   0.459   2.757
  149XTA     H816603  25.683   0.554   2.900
  149XTA     H916604  25.566   0.872   3.109
  149XTA    H1016605  25.490   1.032   3.269
  149XTA    H1116606  25.572   0.767   3.592
  149XTA    H1216607  25.625   0.585   3.429
  149XTA    OA116608  26.205   0.598   3.037
  149XTA    CO116609  26.276   0.709   2.987
  149XTA    OA216610  25.258   0.416   2.818
  149XTA    CO216611  25.122   0.433   2.863
  149XTA    CL116612  25.037   0.388   2.745
  149XTA    CL216613  25.057   0.484   2.623
  149XTA    CL316614  24.988   0.426   2.497
  149XTA    CL416615  25.024   0.503   2.370
  149XTA    CO316616  24.970   0.426   2.247
  149XTA    OA316617  25.030   0.297   2.227
  149XTA    CO416618  25.164   0.298   2.178
  149XTA    CT116619  25.222   0.164   2.135
  149XTA    CL516620  25.242   0.076   2.261
  149XTA    CL616621  25.122   0.006   2.328
  149XTA    OA416622  25.480   1.009   3.532
  149XTA    CO516623  25.459   0.967   3.667
  149XTA    CL716624  25.384   1.070   3.748
  149XTA    CL816625  25.474   1.183   3.784
  149XTA    CL916626  25.427   1.275   3.896
  149XTA   CL1016627  25.532   1.383   3.914
  149XTA    CO616628  25.478   1.493   4.005
  149XTA    OA516629  25.586   1.589   4.026
  149XTA    CO716630  25.549   1.667   4.138
  149XTA    CT216631  25.665   1.724   4.207
  149XTA   CL1116632  25.610   1.787   4.336
  149XTA   CL1216633  25.713   1.868   4.416
  149XTA    HL116634  26.272   0.802   3.050
  149XTA    HL216635  26.383   0.693   2.980
  149XTA    HL316636  26.245   0.732   2.886
  149XTA    HL416637  25.112   0.372   2.949
  149XTA    HL516638  25.102   0.537   2.898
  149XTA    HL616639  24.937   0.374   2.781
  149XTA    HL716640  25.068   0.289   2.710
  149XTA    HL816641  25.164   0.494   2.592
  149XTA    HL916642  25.014   0.590   2.637
  149XTA   HL1016643  24.995   0.315   2.491
  149XTA   HL1116644  24.886   0.442   2.523
  149XTA   HL1216645  25.136   0.501   2.373
  149XTA   HL1316646  25.003   0.608   2.376
  149XTA   HL1416647  24.866   0.418   2.254
  149XTA   HL1516648  24.993   0.487   2.151
  149XTA   HL1616649  25.174   0.368   2.096
  149XTA   HL1716650  25.227   0.334   2.260
  149XTA   HL1816651  25.297   0.128   2.340
  149XTA   HL1916652  25.310  -0.001   2.236
  149XTA   HL2016653  25.162  -0.055   2.401
  149XTA   HL2116654  25.061  -0.051   2.258
  149XTA   HL2216655  25.061   0.064   2.385
  149XTA   HL2316656  25.552   0.946   3.718
  149XTA   HL2416657  25.395   0.883   3.665
  149XTA   HL2516658  25.293   1.109   3.707
  149XTA   HL2616659  25.348   1.020   3.837
  149XTA   HL2716660  25.571   1.133   3.807
  149XTA   HL2816661  25.492   1.243   3.693
  149XTA   HL2916662  25.324   1.300   3.887
  149XTA   HL3016663  25.439   1.213   3.985
  149XTA   HL3116664  25.620   1.335   3.965
  149XTA   HL3216665  25.565   1.406   3.811
  149XTA   HL3316666  25.388   1.531   3.957
  149XTA   HL3416667  25.459   1.437   4.096
  149XTA   HL3516668  25.506   1.593   4.207
  149XTA   HL3616669  25.467   1.730   4.097
  149XTA   HL3716670  25.574   1.699   4.394
  149XTA   HL3816671  25.520   1.839   4.312
  149XTA   HL3916672  25.661   1.901   4.512
  149XTA   HL4016673  25.734   1.962   4.367
  149XTA   HL4116674  25.806   1.823   4.448
  149XTA    CO816675  25.354   0.201   2.070
  149XTA    CO916676  25.129   0.104   2.027
  149XTA    OA616677  25.117   0.189   1.911
  149XTA   HL4216678  25.332   0.266   1.979
  149XTA   HL4316679  25.381   0.097   2.044
  149XTA   HL4416680  25.844   1.831   4.151
  149XTA   HL4516681  25.699   1.921   4.167
  149XTA   CO1016682  25.737   1.826   4.121
  149XTA   CO1116683  25.755   1.602   4.241
  149XTA    OA716684  25.869   1.652   4.310
  149XTA   HL4616685  25.715   1.532   4.313
  149XTA   HL4716686  25.791   1.549   4.144
  149XTA   HL4816687  25.034   0.083   2.062
  149XTA   HL4916688  25.165   0.010   1.985
  150XTA     NT16689  27.792  -1.705   5.154
  150XTA    CN116690  27.809  -1.813   5.227
  150XTA     C116691  27.936  -1.882   5.230
  150XTA     C216692  27.962  -1.998   5.311
  150XTA     C316693  27.861  -2.050   5.391
  150XTA     C416694  27.742  -1.973   5.395
  150XTA     C516695  27.722  -1.859   5.318
  150XTA    CN216696  27.792  -1.577   5.207
  150XTA     C616697  27.827  -1.470   5.129
  150XTA     C716698  27.820  -1.342   5.183
  150XTA     C816699  27.781  -1.312   5.313
  150XTA     C916700  27.745  -1.420   5.395
  150XTA    C1016701  27.757  -1.551   5.343
  150XTA    CN316702  27.708  -1.720   5.051
  150XTA    C1116703  27.757  -1.739   4.922
  150XTA    C1216704  27.668  -1.745   4.813
  150XTA    C1316705  27.536  -1.724   4.837
  150XTA    C1416706  27.482  -1.718   4.963
  150XTA    C1516707  27.572  -1.715   5.068
  150XTA     H116708  28.014  -1.845   5.165
  150XTA     H216709  28.051  -2.055   5.304
  150XTA     H316710  27.673  -2.008   5.468
  150XTA     H416711  27.632  -1.800   5.336
  150XTA     H516712  27.857  -1.477   5.026
  150XTA     H616713  27.839  -1.253   5.134
  150XTA     H716714  27.721  -1.399   5.502
  150XTA     H816715  27.716  -1.637   5.398
  150XTA     H916716  27.856  -1.757   4.902
  150XTA    H1016717  27.706  -1.753   4.709
  150XTA    H1116718  27.378  -1.710   4.979
  150XTA    H1216719  27.535  -1.711   5.172
  150XTA    OA116720  27.891  -2.151   5.480
  150XTA    CO116721  27.788  -2.183   5.573
  150XTA    OA216722  27.786  -1.180   5.358
  150XTA    CO216723  27.722  -1.138   5.475
  150XTA    CL116724  27.713  -0.980   5.472
  150XTA    CL216725  27.603  -0.938   5.569
  150XTA    CL316726  27.571  -0.789   5.554
  150XTA    CL416727  27.690  -0.696   5.593
  150XTA    CO316728  27.649  -0.554   5.578
  150XTA    OA316729  27.715  -0.464   5.665
  150XTA    CO416730  27.662  -0.456   5.787
  150XTA    CT116731  27.582  -0.331   5.815
  150XTA    CL516732  27.505  -0.274   5.696
  150XTA    CL616733  27.588  -0.214   5.582
  150XTA    OA416734  27.447  -1.734   4.736
  150XTA    CO516735  27.488  -1.670   4.614
  150XTA    CL716736  27.360  -1.621   4.556
  150XTA    CL816737  27.380  -1.499   4.452
  150XTA    CL916738  27.480  -1.541   4.346
  150XTA   CL1016739  27.535  -1.414   4.276
  150XTA    CO616740  27.587  -1.442   4.133
  150XTA    OA516741  27.488  -1.413   4.031
  150XTA    CO716742  27.389  -1.512   4.036
  150XTA    CT216743  27.286  -1.500   3.923
  150XTA   CL1116744  27.206  -1.634   3.911
  150XTA   CL1216745  27.277  -1.761   3.849
  150XTA    HL116746  27.838  -2.246   5.655
  150XTA    HL216747  27.762  -2.099   5.628
  150XTA    HL316748  27.699  -2.235   5.528
  150XTA    HL416749  27.613  -1.173   5.476
  150XTA    HL516750  27.762  -1.163   5.570
  150XTA    HL616751  27.678  -0.948   5.375
  150XTA    HL716752  27.819  -0.942   5.504
  150XTA    HL816753  27.643  -0.953   5.667
  150XTA    HL916754  27.506  -0.999   5.559
  150XTA   HL1016755  27.529  -0.767   5.457
  150XTA   HL1116756  27.483  -0.770   5.611
  150XTA   HL1216757  27.774  -0.731   5.534
  150XTA   HL1316758  27.709  -0.714   5.700
  150XTA   HL1416759  27.687  -0.517   5.481
  150XTA   HL1516760  27.548  -0.528   5.569
  150XTA   HL1616761  27.602  -0.545   5.825
  150XTA   HL1716762  27.741  -0.457   5.861
  150XTA   HL1816763  27.441  -0.194   5.733
  150XTA   HL1916764  27.441  -0.346   5.665
  150XTA   HL2016765  27.640  -0.292   5.538
  150XTA   HL2116766  27.656  -0.133   5.614
  150XTA   HL2216767  27.517  -0.172   5.514
  150XTA   HL2316768  27.532  -1.736   4.541
  150XTA   HL2416769  27.555  -1.584   4.640
  150XTA   HL2516770  27.316  -1.693   4.488
  150XTA   HL2616771  27.291  -1.583   4.632
  150XTA   HL2716772  27.285  -1.476   4.412
  150XTA   HL2816773  27.413  -1.416   4.510
  150XTA   HL2916774  27.565  -1.591   4.379
  150XTA   HL3016775  27.440  -1.608   4.263
  150XTA   HL3116776  27.463  -1.336   4.275
  150XTA   HL3216777  27.619  -1.378   4.330
  150XTA   HL3316778  27.676  -1.391   4.127
  150XTA   HL3416779  27.608  -1.549   4.117
  150XTA   HL3516780  27.333  -1.495   4.129
  150XTA   HL3616781  27.433  -1.611   4.033
  150XTA   HL3716782  27.108  -1.611   3.855
  150XTA   HL3816783  27.171  -1.663   4.007
  150XTA   HL3916784  27.205  -1.844   3.829
  150XTA   HL4016785  27.368  -1.794   3.893
  150XTA   HL4116786  27.312  -1.736   3.749
  150XTA    CO816787  27.666  -0.217   5.876
  150XTA    CO916788  27.478  -0.361   5.931
  150XTA    OA616789  27.732  -0.258   5.963
  150XTA   HL4216790  27.598  -0.131   5.901
  150XTA   HL4316791  27.723  -0.173   5.801
  150XTA   HL4416792  27.432  -1.396   3.797
  150XTA   HL4516793  27.434  -1.559   3.769
  150XTA   CO1016794  27.363  -1.480   3.790
  150XTA   CO1116795  27.188  -1.375   3.936
  150XTA    OA716796  27.279  -1.474   3.673
  150XTA   HL4616797  27.248  -1.278   3.944
  150XTA   HL4716798  27.123  -1.374   3.842
  150XTA   HL4816799  27.545  -0.358   6.050
  150XTA   HL4916800  27.413  -0.275   5.945
  151XTA     NT16801  28.518   0.251   7.065
  151XTA    CN116802  28.408   0.214   7.139
  151XTA     C116803  28.279   0.218   7.083
  151XTA     C216804  28.170   0.182   7.165
  151XTA     C316805  28.188   0.123   7.293
  151XTA     C416806  28.314   0.117   7.345
  151XTA     C516807  28.422   0.161   7.267
  151XTA    CN216808  28.540   0.378   7.059
  151XTA     C616809  28.514   0.455   6.943
  151XTA     C716810  28.545   0.591   6.934
  151XTA     C816811  28.602   0.656   7.045
  151XTA     C916812  28.649   0.576   7.151
  151XTA    C1016813  28.612   0.438   7.167
  151XTA    CN316814  28.583   0.160   6.987
  151XTA    C1116815  28.526   0.112   6.866
  151XTA    C1216816  28.602   0.027   6.790
  151XTA    C1316817  28.730  -0.012   6.837
  151XTA    C1416818  28.787   0.034   6.956
  151XTA    C1516819  28.711   0.126   7.034
  151XTA     H116820  28.265   0.255   6.977
  151XTA     H216821  28.069   0.191   7.121
  151XTA     H316822  28.335   0.073   7.439
  151XTA     H416823  28.519   0.145   7.302
  151XTA     H516824  28.480   0.396   6.857
  151XTA     H616825  28.507   0.656   6.858
  151XTA     H716826  28.689   0.621   7.249
  151XTA     H816827  28.629   0.395   7.267
  151XTA     H916828  28.429   0.133   6.840
  151XTA    H1016829  28.555  -0.024   6.711
  151XTA    H1116830  28.888   0.015   6.977
  151XTA    H1216831  28.751   0.179   7.119
  151XTA    OA116832  28.083   0.063   7.367
  151XTA    CO116833  27.958   0.084   7.309
  151XTA    OA216834  28.612   0.796   7.045
  151XTA    CO216835  28.747   0.838   7.018
  151XTA    CL116836  28.841   0.819   7.139
  151XTA    CL216837  28.767   0.888   7.260
  151XTA    CL316838  28.857   0.878   7.391
  151XTA    CL416839  28.767   0.924   7.516
  151XTA    CO316840  28.844   0.914   7.644
  151XTA    OA316841  28.772   0.946   7.758
  151XTA    CO416842  28.860   0.990   7.856
  151XTA    CT116843  28.792   0.998   7.995
  151XTA    CL516844  28.891   1.025   8.108
  151XTA    CL616845  29.021   0.951   8.096
  151XTA    OA416846  28.801  -0.095   6.752
  151XTA    CO516847  28.843  -0.041   6.630
  151XTA    CL716848  28.970   0.039   6.644
  151XTA    CL816849  28.959   0.171   6.561
  151XTA    CL916850  29.091   0.246   6.540
  151XTA   CL1016851  29.050   0.394   6.505
  151XTA    CO616852  29.176   0.477   6.477
  151XTA    OA516853  29.268   0.418   6.386
  151XTA    CO716854  29.212   0.371   6.269
  151XTA    CT216855  29.297   0.398   6.144
  151XTA   CL1116856  29.444   0.426   6.191
  151XTA   CL1216857  29.515   0.311   6.261
  151XTA    HL116858  27.938   0.185   7.308
  151XTA    HL216859  27.964   0.049   7.206
  151XTA    HL316860  27.866   0.028   7.345
  151XTA    HL416861  28.781   0.783   6.933
  151XTA    HL516862  28.735   0.944   6.990
  151XTA    HL616863  28.938   0.875   7.124
  151XTA    HL716864  28.860   0.708   7.153
  151XTA    HL816865  28.676   0.829   7.276
  151XTA    HL916866  28.740   0.990   7.238
  151XTA   HL1016867  28.904   0.779   7.402
  151XTA   HL1116868  28.945   0.936   7.370
  151XTA   HL1216869  28.674   0.869   7.532
  151XTA   HL1316870  28.734   1.026   7.496
  151XTA   HL1416871  28.895   0.823   7.650
  151XTA   HL1516872  28.922   0.988   7.639
  151XTA   HL1616873  28.927   0.906   7.867
  151XTA   HL1716874  28.907   1.085   7.829
  151XTA   HL1816875  28.840   0.998   8.203
  151XTA   HL1916876  28.903   1.134   8.102
  151XTA   HL2016877  29.085   0.987   8.179
  151XTA   HL2116878  29.074   0.981   8.004
  151XTA   HL2216879  29.010   0.846   8.101
  151XTA   HL2316880  28.765   0.017   6.590
  151XTA   HL2416881  28.868  -0.129   6.569
  151XTA   HL2516882  28.993   0.058   6.746
  151XTA   HL2616883  29.061  -0.015   6.605
  151XTA   HL2716884  28.908   0.152   6.461
  151XTA   HL2816885  28.884   0.235   6.611
  151XTA   HL2916886  29.155   0.240   6.630
  151XTA   HL3016887  29.156   0.206   6.460
  151XTA   HL3116888  28.992   0.388   6.417
  151XTA   HL3216889  28.991   0.437   6.583
  151XTA   HL3316890  29.145   0.581   6.443
  151XTA   HL3416891  29.230   0.494   6.576
  151XTA   HL3516892  29.111   0.407   6.248
  151XTA   HL3616893  29.205   0.262   6.276
  151XTA   HL3716894  29.445   0.508   6.259
  151XTA   HL3816895  29.501   0.456   6.110
  151XTA   HL3916896  29.601   0.352   6.307
  151XTA   HL4016897  29.550   0.245   6.177
  151XTA   HL4116898  29.457   0.252   6.336
  151XTA    CO816899  28.717   0.860   8.027
  151XTA    CO916900  28.681   1.103   8.002
  151XTA    OA616901  28.699   1.224   7.935
  151XTA   HL4216902  28.792   0.782   8.020
  151XTA   HL4316903  28.700   0.864   8.137
  151XTA   HL4416904  29.236   0.597   6.153
  151XTA   HL4516905  29.124   0.495   6.062
  151XTA   CO1016906  29.233   0.521   6.080
  151XTA   CO1116907  29.306   0.270   6.053
  151XTA    OA716908  29.409   0.287   5.961
  151XTA   HL4616909  29.329   0.172   6.102
  151XTA   HL4716910  29.210   0.253   5.995
  151XTA   HL4816911  28.653   1.133   8.102
  151XTA   HL4916912  28.594   1.059   7.959
  152XTA     NT16913  27.254   1.971   7.546
  152XTA    CN116914  27.228   2.085   7.600
  152XTA     C116915  27.152   2.087   7.717
  152XTA     C216916  27.136   2.203   7.790
  152XTA     C316917  27.185   2.324   7.741
  152XTA     C416918  27.258   2.330   7.624
  152XTA     C516919  27.285   2.207   7.556
  152XTA    CN216920  27.212   1.946   7.423
  152XTA     C616921  27.075   1.922   7.399
  152XTA     C716922  27.027   1.903   7.270
  152XTA     C816923  27.116   1.891   7.163
  152XTA     C916924  27.254   1.922   7.182
  152XTA    C1016925  27.302   1.953   7.313
  152XTA    CN316926  27.365   1.904   7.586
  152XTA    C1116927  27.349   1.774   7.643
  152XTA    C1216928  27.465   1.707   7.680
  152XTA    C1316929  27.591   1.768   7.680
  152XTA    C1416930  27.608   1.894   7.625
  152XTA    C1516931  27.496   1.963   7.579
  152XTA     H116932  27.108   1.994   7.755
  152XTA     H216933  27.083   2.206   7.883
  152XTA     H316934  27.298   2.417   7.576
  152XTA     H416935  27.351   2.198   7.477
  152XTA     H516936  27.008   1.910   7.482
  152XTA     H616937  26.918   1.904   7.248
  152XTA     H716938  27.316   1.916   7.093
  152XTA     H816939  27.405   1.978   7.339
  152XTA     H916940  27.264   1.715   7.645
  152XTA    H1016941  27.463   1.609   7.727
  152XTA    H1116942  27.706   1.932   7.629
  152XTA    H1216943  27.505   2.064   7.540
  152XTA    OA116944  27.150   2.430   7.815
  152XTA    CO116945  27.241   2.534   7.806
  152XTA    OA216946  27.067   1.868   7.037
  152XTA    CO216947  27.139   1.773   6.959
  152XTA    CL116948  27.076   1.774   6.823
  152XTA    CL216949  27.107   1.899   6.744
  152XTA    CL316950  27.033   1.897   6.610
  152XTA    CL416951  26.879   1.910   6.638
  152XTA    CO316952  26.800   2.003   6.546
  152XTA    OA316953  26.663   1.996   6.585
  152XTA    CO416954  26.590   2.103   6.535
  152XTA    CT116955  26.443   2.115   6.592
  152XTA    CL516956  26.377   2.247   6.541
  152XTA    CL616957  26.223   2.232   6.549
  152XTA    OA416958  27.710   1.707   7.718
  152XTA    CO516959  27.699   1.583   7.795
  152XTA    CL716960  27.836   1.559   7.853
  152XTA    CL816961  27.842   1.432   7.942
  152XTA    CL916962  27.828   1.302   7.865
  152XTA   CL1016963  27.822   1.178   7.956
  152XTA    CO616964  27.759   1.056   7.885
  152XTA    OA516965  27.809   1.038   7.759
  152XTA    CO716966  27.710   0.991   7.665
  152XTA    CT216967  27.774   0.986   7.529
  152XTA   CL1116968  27.657   0.947   7.428
  152XTA   CL1216969  27.696   0.957   7.277
  152XTA    HL116970  27.223   2.601   7.722
  152XTA    HL216971  27.226   2.602   7.893
  152XTA    HL316972  27.344   2.495   7.814
  152XTA    HL416973  27.251   1.781   6.959
  152XTA    HL516974  27.122   1.680   7.016
  152XTA    HL616975  26.964   1.771   6.831
  152XTA    HL716976  27.104   1.683   6.765
  152XTA    HL816977  27.219   1.918   6.739
  152XTA    HL916978  27.072   1.981   6.804
  152XTA   HL1016979  27.065   1.982   6.552
  152XTA   HL1116980  27.070   1.803   6.550
  152XTA   HL1216981  26.879   1.957   6.736
  152XTA   HL1316982  26.835   1.803   6.650
  152XTA   HL1416983  26.842   2.100   6.559
  152XTA   HL1516984  26.810   1.985   6.438
  152XTA   HL1616985  26.633   2.203   6.559
  152XTA   HL1716986  26.583   2.097   6.425
  152XTA   HL1816987  26.408   2.271   6.444
  152XTA   HL1916988  26.414   2.326   6.602
  152XTA   HL2016989  26.180   2.179   6.633
  152XTA   HL2116990  26.186   2.172   6.460
  152XTA   HL2216991  26.174   2.330   6.548
  152XTA   HL2316992  27.662   1.500   7.734
  152XTA   HL2416993  27.635   1.607   7.884
  152XTA   HL2516994  27.907   1.558   7.771
  152XTA   HL2616995  27.855   1.648   7.912
  152XTA   HL2716996  27.938   1.435   7.994
  152XTA   HL2816997  27.758   1.427   8.021
  152XTA   HL2916998  27.732   1.315   7.813
  152XTA   HL3016999  27.902   1.286   7.786
  152XTA   HL3117000  27.917   1.155   8.007
  152XTA   HL3217001  27.761   1.207   8.039
  152XTA   HL3317002  27.775   0.974   7.946
  152XTA   HL3417003  27.648   1.068   7.885
  152XTA   HL3517004  27.630   1.064   7.663
  152XTA   HL3617005  27.674   0.888   7.697
  152XTA   HL3717006  27.582   1.017   7.440
  152XTA   HL3817007  27.605   0.859   7.452
  152XTA   HL3917008  27.731   1.052   7.241
  152XTA   HL4017009  27.602   0.938   7.219
  152XTA   HL4117010  27.767   0.879   7.237
  152XTA    CO817011  26.455   2.135   6.743
  152XTA    CO917012  26.373   1.983   6.558
  152XTA    OA617013  26.383   1.971   6.447
  152XTA   HL4217014  26.355   2.152   6.782
  152XTA   HL4317015  26.505   2.014   6.791
  152XTA   HL4417016  27.839   0.797   7.575
  152XTA   HL4517017  27.956   0.899   7.616
  152XTA   CO1017018  27.890   0.882   7.535
  152XTA   CO1117019  27.837   1.121   7.489
  152XTA    OA717020  27.734   1.216   7.462
  152XTA   HL4617021  27.903   1.164   7.570
  152XTA   HL4717022  27.906   1.111   7.404
  152XTA   HL4817023  26.272   1.969   6.596
  152XTA   HL4917024  26.439   1.910   6.595
  153XTA     NT17025  28.426   2.941   1.358
  153XTA    CN117026  28.449   3.064   1.316
  153XTA     C117027  28.502   3.098   1.191
  153XTA     C217028  28.537   3.224   1.149
  153XTA     C317029  28.522   3.329   1.244
  153XTA     C417030  28.476   3.298   1.371
  153XTA     C517031  28.434   3.166   1.410
  153XTA    CN217032  28.528   2.867   1.402
  153XTA     C617033  28.597   2.794   1.303
  153XTA     C717034  28.708   2.718   1.326
  153XTA     C817035  28.754   2.706   1.458
  153XTA     C917036  28.677   2.761   1.564
  153XTA    C1017037  28.567   2.846   1.537
  153XTA    CN317038  28.302   2.890   1.377
  153XTA    C1117039  28.225   2.937   1.484
  153XTA    C1217040  28.089   2.906   1.486
  153XTA    C1317041  28.028   2.833   1.385
  153XTA    C1417042  28.103   2.784   1.280
  153XTA    C1517043  28.235   2.819   1.280
  153XTA     H117044  28.508   3.008   1.121
  153XTA     H217045  28.563   3.238   1.048
  153XTA     H317046  28.476   3.382   1.435
  153XTA     H417047  28.411   3.151   1.516
  153XTA     H517048  28.560   2.795   1.200
  153XTA     H617049  28.761   2.670   1.246
  153XTA     H717050  28.723   2.747   1.665
  153XTA     H817051  28.506   2.883   1.619
  153XTA     H917052  28.256   3.010   1.552
  153XTA    H1017053  28.026   2.952   1.563
  153XTA    H1117054  28.059   2.734   1.198
  153XTA    H1217055  28.295   2.789   1.199
  153XTA    OA117056  28.542   3.463   1.209
  153XTA    CO117057  28.593   3.486   1.077
  153XTA    OA217058  28.865   2.626   1.494
  153XTA    CO217059  28.936   2.558   1.399
  153XTA    CL117060  29.056   2.486   1.466
  153XTA    CL217061  29.008   2.394   1.578
  153XTA    CL317062  28.941   2.272   1.534
  153XTA    CL417063  28.868   2.200   1.646
  153XTA    CO317064  28.736   2.268   1.681
  153XTA    OA317065  28.647   2.273   1.554
  153XTA    CO417066  28.558   2.380   1.564
  153XTA    CT117067  28.458   2.382   1.456
  153XTA    CL517068  28.537   2.397   1.320
  153XTA    CL617069  28.451   2.421   1.198
  153XTA    OA417070  27.894   2.821   1.398
  153XTA    CO517071  27.825   2.775   1.288
  153XTA    CL717072  27.689   2.728   1.326
  153XTA    CL817073  27.674   2.581   1.378
  153XTA    CL917074  27.716   2.562   1.524
  153XTA   CL1017075  27.602   2.598   1.615
  153XTA    CO617076  27.637   2.588   1.768
  153XTA    OA517077  27.669   2.456   1.794
  153XTA    CO717078  27.712   2.435   1.924
  153XTA    CT217079  27.816   2.317   1.935
  153XTA   CL1117080  27.755   2.177   1.940
  153XTA   CL1217081  27.691   2.127   1.806
  153XTA    HL117082  28.673   3.414   1.057
  153XTA    HL217083  28.513   3.463   1.017
  153XTA    HL317084  28.624   3.583   1.044
  153XTA    HL417085  28.874   2.488   1.341
  153XTA    HL517086  28.979   2.630   1.326
  153XTA    HL617087  29.118   2.567   1.513
  153XTA    HL717088  29.114   2.434   1.386
  153XTA    HL817089  28.943   2.442   1.651
  153XTA    HL917090  29.098   2.370   1.635
  153XTA   HL1017091  28.875   2.285   1.445
  153XTA   HL1117092  29.015   2.204   1.502
  153XTA   HL1217093  28.920   2.191   1.742
  153XTA   HL1317094  28.843   2.098   1.609
  153XTA   HL1417095  28.686   2.214   1.760
  153XTA   HL1517096  28.747   2.365   1.724
  153XTA   HL1617097  28.509   2.394   1.660
  153XTA   HL1717098  28.632   2.469   1.564
  153XTA   HL1817099  28.591   2.305   1.305
  153XTA   HL1917100  28.613   2.476   1.320
  153XTA   HL2017101  28.379   2.342   1.178
  153XTA   HL2117102  28.505   2.431   1.107
  153XTA   HL2217103  28.386   2.506   1.204
  153XTA   HL2317104  27.886   2.696   1.234
  153XTA   HL2417105  27.824   2.857   1.213
  153XTA   HL2517106  27.634   2.811   1.380
  153XTA   HL2617107  27.645   2.728   1.228
  153XTA   HL2717108  27.567   2.552   1.355
  153XTA   HL2817109  27.727   2.510   1.314
  153XTA   HL2917110  27.741   2.459   1.549
  153XTA   HL3017111  27.804   2.625   1.545
  153XTA   HL3117112  27.572   2.703   1.595
  153XTA   HL3217113  27.520   2.529   1.591
  153XTA   HL3317114  27.722   2.650   1.790
  153XTA   HL3417115  27.561   2.630   1.816
  153XTA   HL3517116  27.622   2.428   1.985
  153XTA   HL3617117  27.762   2.528   1.950
  153XTA   HL3717118  27.686   2.154   2.023
  153XTA   HL3817119  27.837   2.104   1.968
  153XTA   HL3917120  27.767   2.101   1.730
  153XTA   HL4017121  27.611   2.192   1.756
  153XTA   HL4117122  27.646   2.032   1.827
  153XTA    CO817123  28.356   2.505   1.470
  153XTA    CO917124  28.377   2.249   1.459
  153XTA    OA617125  28.298   2.494   1.598
  153XTA   HL4217126  28.278   2.515   1.398
  153XTA   HL4317127  28.418   2.592   1.464
  153XTA   HL4417128  27.964   2.445   2.057
  153XTA   HL4517129  27.831   2.373   2.149
  153XTA   CO1017130  27.906   2.350   2.068
  153XTA   CO1117131  27.917   2.317   1.813
  153XTA    OA717132  27.968   2.266   2.101
  153XTA   HL4617133  28.012   2.212   1.819
  153XTA   HL4717134  27.856   2.316   1.721
  153XTA   HL4817135  28.324   2.249   1.547
  153XTA   HL4917136  28.282   2.265   1.400
  154XTA     NT17137  27.459   0.228  -0.143
  154XTA    CN117138  27.361   0.184  -0.065
  154XTA     C117139  27.317   0.052  -0.086
  154XTA     C217140  27.207   0.005  -0.018
  154XTA     C317141  27.148   0.090   0.083
  154XTA     C417142  27.194   0.216   0.116
  154XTA     C517143  27.299   0.264   0.036
  154XTA    CN217144  27.431   0.319  -0.241
  154XTA     C617145  27.487   0.450  -0.247
  154XTA     C717146  27.447   0.543  -0.344
  154XTA     C817147  27.355   0.504  -0.440
  154XTA     C917148  27.288   0.377  -0.429
  154XTA    C1017149  27.331   0.280  -0.334
  154XTA    CN317150  27.586   0.211  -0.102
  154XTA    C1117151  27.640   0.300  -0.011
  154XTA    C1217152  27.754   0.262   0.068
  154XTA    C1317153  27.810   0.142   0.047
  154XTA    C1417154  27.754   0.050  -0.045
  154XTA    C1517155  27.650   0.093  -0.132
  154XTA     H117156  27.381  -0.007  -0.143
  154XTA     H217157  27.174  -0.096  -0.036
  154XTA     H317158  27.152   0.286   0.187
  154XTA     H417159  27.336   0.361   0.056
  154XTA     H517160  27.551   0.488  -0.171
  154XTA     H617161  27.497   0.637  -0.349
  154XTA     H717162  27.219   0.356  -0.511
  154XTA     H817163  27.288   0.182  -0.310
  154XTA     H917164  27.588   0.393   0.011
  154XTA    H1017165  27.798   0.326   0.140
  154XTA    H1117166  27.804  -0.046  -0.068
  154XTA    H1217167  27.605   0.024  -0.204
  154XTA    OA117168  27.034   0.037   0.138
  154XTA    CO117169  26.948   0.104   0.229
  154XTA    OA217170  27.300   0.593  -0.536
  154XTA    CO217171  27.373   0.712  -0.573
  154XTA    CL117172  27.331   0.840  -0.487
  154XTA    CL217173  27.181   0.859  -0.459
  154XTA    CL317174  27.160   0.995  -0.384
  154XTA    CL417175  27.009   1.024  -0.348
  154XTA    CO317176  26.930   1.128  -0.439
  154XTA    OA317177  26.893   1.072  -0.564
  154XTA    CO417178  26.998   1.099  -0.652
  154XTA    CT117179  26.970   1.061  -0.791
  154XTA    CL517180  27.098   1.059  -0.879
  154XTA    CL617181  27.215   0.967  -0.832
  154XTA    OA417182  27.915   0.102   0.132
  154XTA    CO517183  27.901  -0.019   0.193
  154XTA    CL717184  27.961  -0.005   0.338
  154XTA    CL817185  28.117  -0.023   0.338
  154XTA    CL917186  28.189   0.080   0.430
  154XTA   CL1017187  28.154   0.222   0.379
  154XTA    CO617188  28.257   0.323   0.423
  154XTA    OA517189  28.264   0.337   0.569
  154XTA    CO717190  28.368   0.423   0.608
  154XTA    CT217191  28.394   0.415   0.756
  154XTA   CL1117192  28.445   0.272   0.799
  154XTA   CL1217193  28.336   0.167   0.808
  154XTA    HL117194  26.844   0.099   0.183
  154XTA    HL217195  26.944   0.050   0.322
  154XTA    HL317196  26.965   0.210   0.239
  154XTA    HL417197  27.474   0.703  -0.587
  154XTA    HL517198  27.335   0.730  -0.675
  154XTA    HL617199  27.359   0.935  -0.537
  154XTA    HL717200  27.397   0.841  -0.400
  154XTA    HL817201  27.148   0.789  -0.387
  154XTA    HL917202  27.120   0.841  -0.542
  154XTA   HL1017203  27.232   1.003  -0.297
  154XTA   HL1117204  27.186   1.075  -0.454
  154XTA   HL1217205  27.019   1.074  -0.255
  154XTA   HL1317206  26.954   0.925  -0.335
  154XTA   HL1417207  26.844   1.156  -0.377
  154XTA   HL1517208  26.981   1.223  -0.448
  154XTA   HL1617209  27.031   1.200  -0.649
  154XTA   HL1717210  27.086   1.047  -0.624
  154XTA   HL1817211  27.122   1.165  -0.898
  154XTA   HL1917212  27.070   1.017  -0.973
  154XTA   HL2017213  27.267   0.994  -0.741
  154XTA   HL2117214  27.283   0.984  -0.916
  154XTA   HL2217215  27.194   0.862  -0.834
  154XTA   HL2317216  27.946  -0.105   0.147
  154XTA   HL2417217  27.792  -0.032   0.195
  154XTA   HL2517218  27.928   0.094   0.376
  154XTA   HL2617219  27.913  -0.074   0.396
  154XTA   HL2717220  28.143  -0.133   0.352
  154XTA   HL2817221  28.164  -0.007   0.244
  154XTA   HL2917222  28.154   0.064   0.531
  154XTA   HL3017223  28.296   0.066   0.417
  154XTA   HL3117224  28.142   0.216   0.277
  154XTA   HL3217225  28.051   0.252   0.410
  154XTA   HL3317226  28.358   0.302   0.374
  154XTA   HL3417227  28.225   0.424   0.388
  154XTA   HL3517228  28.326   0.523   0.583
  154XTA   HL3617229  28.463   0.408   0.541
  154XTA   HL3717230  28.491   0.292   0.898
  154XTA   HL3817231  28.538   0.237   0.746
  154XTA   HL3917232  28.373   0.078   0.849
  154XTA   HL4017233  28.278   0.137   0.715
  154XTA   HL4117234  28.258   0.208   0.884
  154XTA    CO817235  26.858   1.153  -0.860
  154XTA    CO917236  26.909   0.927  -0.784
  154XTA    OA617237  26.898   1.245  -0.905
  154XTA   HL4217238  26.786   1.177  -0.788
  154XTA   HL4317239  26.820   1.094  -0.944
  154XTA   HL4417240  28.158   0.396   0.786
  154XTA   HL4517241  28.252   0.569   0.819
  154XTA   CO1017242  28.269   0.455   0.836
  154XTA   CO1117243  28.504   0.510   0.791
  154XTA    OA717244  28.601   0.484   0.739
  154XTA   HL4617245  28.469   0.605   0.768
  154XTA   HL4717246  28.522   0.507   0.892
  154XTA   HL4817247  26.795   0.921  -0.702
  154XTA   HL4917248  26.983   0.864  -0.730
  155XTA     NT17249  30.177   4.544   3.537
  155XTA    CN117250  30.142   4.637   3.449
  155XTA     C117251  30.049   4.620   3.343
  155XTA     C217252  30.024   4.722   3.252
  155XTA     C317253  30.066   4.852   3.270
  155XTA     C417254  30.144   4.878   3.380
  155XTA     C517255  30.186   4.774   3.464
  155XTA    CN217256  30.306   4.535   3.573
  155XTA     C617257  30.364   4.611   3.676
  155XTA     C717258  30.502   4.600   3.706
  155XTA     C817259  30.581   4.514   3.634
  155XTA     C917260  30.526   4.441   3.522
  155XTA    C1017261  30.388   4.449   3.498
  155XTA    CN317262  30.075   4.498   3.622
  155XTA    C1117263  29.945   4.545   3.622
  155XTA    C1217264  29.847   4.509   3.717
  155XTA    C1317265  29.877   4.408   3.814
  155XTA    C1417266  30.001   4.346   3.803
  155XTA    C1517267  30.096   4.389   3.712
  155XTA     H117268  30.011   4.520   3.330
  155XTA     H217269  29.964   4.705   3.162
  155XTA     H317270  30.191   4.974   3.403
  155XTA     H417271  30.254   4.801   3.547
  155XTA     H517272  30.311   4.686   3.734
  155XTA     H617273  30.548   4.654   3.791
  155XTA     H717274  30.593   4.380   3.459
  155XTA     H817275  30.354   4.410   3.402
  155XTA     H917276  29.919   4.621   3.553
  155XTA    H1017277  29.755   4.557   3.711
  155XTA    H1117278  30.032   4.264   3.875
  155XTA    H1217279  30.199   4.347   3.721
  155XTA    OA117280  30.041   4.950   3.176
  155XTA    CO117281  30.014   5.078   3.230
  155XTA    OA217282  30.713   4.502   3.667
  155XTA    CO217283  30.764   4.374   3.643
  155XTA    CL117284  30.901   4.361   3.713
  155XTA    CL217285  30.999   4.481   3.685
  155XTA    CL317286  31.046   4.467   3.540
  155XTA    CL417287  31.156   4.564   3.491
  155XTA    CO317288  31.105   4.707   3.496
  155XTA    OA317289  30.979   4.725   3.436
  155XTA    CO417290  30.948   4.855   3.403
  155XTA    CT117291  30.794   4.856   3.389
  155XTA    CL517292  30.741   4.995   3.341
  155XTA    CL617293  30.604   4.997   3.273
  155XTA    OA417294  29.781   4.359   3.903
  155XTA    CO517295  29.663   4.438   3.927
  155XTA    CL717296  29.691   4.575   3.997
  155XTA    CL817297  29.785   4.571   4.114
  155XTA    CL917298  29.861   4.697   4.131
  155XTA   CL1017299  29.932   4.699   4.276
  155XTA    CO617300  29.887   4.827   4.345
  155XTA    OA517301  29.742   4.838   4.348
  155XTA    CO717302  29.694   4.755   4.450
  155XTA    CT217303  29.544   4.764   4.445
  155XTA   CL1117304  29.489   4.807   4.304
  155XTA   CL1217305  29.339   4.803   4.272
  155XTA    HL117306  30.105   5.110   3.276
  155XTA    HL217307  29.998   5.146   3.153
  155XTA    HL317308  29.943   5.077   3.308
  155XTA    HL417309  30.689   4.299   3.687
  155XTA    HL517310  30.779   4.363   3.535
  155XTA    HL617311  30.942   4.262   3.699
  155XTA    HL717312  30.879   4.365   3.822
  155XTA    HL817313  31.083   4.482   3.761
  155XTA    HL917314  30.952   4.574   3.712
  155XTA   HL1017315  31.069   4.364   3.517
  155XTA   HL1117316  30.958   4.502   3.471
  155XTA   HL1217317  31.175   4.531   3.391
  155XTA   HL1317318  31.253   4.554   3.541
  155XTA   HL1417319  31.081   4.746   3.596
  155XTA   HL1517320  31.193   4.762   3.458
  155XTA   HL1617321  30.977   4.923   3.483
  155XTA   HL1717322  30.990   4.872   3.302
  155XTA   HL1817323  30.818   5.040   3.271
  155XTA   HL1917324  30.744   5.060   3.428
  155XTA   HL2017325  30.598   4.956   3.168
  155XTA   HL2117326  30.554   5.096   3.265
  155XTA   HL2217327  30.536   4.930   3.325
  155XTA   HL2317328  29.597   4.380   3.983
  155XTA   HL2417329  29.607   4.438   3.837
  155XTA   HL2517330  29.726   4.646   3.920
  155XTA   HL2617331  29.590   4.600   4.026
  155XTA   HL2717332  29.719   4.544   4.201
  155XTA   HL2817333  29.845   4.482   4.100
  155XTA   HL2917334  29.942   4.687   4.056
  155XTA   HL3017335  29.793   4.780   4.101
  155XTA   HL3117336  29.907   4.611   4.334
  155XTA   HL3217337  30.039   4.694   4.263
  155XTA   HL3317338  29.927   4.838   4.447
  155XTA   HL3417339  29.928   4.913   4.288
  155XTA   HL3517340  29.723   4.787   4.549
  155XTA   HL3617341  29.733   4.659   4.420
  155XTA   HL3717342  29.542   4.745   4.234
  155XTA   HL3817343  29.523   4.910   4.290
  155XTA   HL3917344  29.287   4.706   4.274
  155XTA   HL4017345  29.325   4.848   4.170
  155XTA   HL4117346  29.280   4.874   4.329
  155XTA    CO817347  30.728   4.818   3.518
  155XTA    CO917348  30.756   4.745   3.297
  155XTA    OA617349  30.764   4.886   3.606
  155XTA   HL4217350  30.760   4.720   3.546
  155XTA   HL4317351  30.624   4.821   3.523
  155XTA   HL4417352  29.542   4.967   4.513
  155XTA   HL4517353  29.390   4.887   4.538
  155XTA   CO1017354  29.500   4.873   4.537
  155XTA   CO1117355  29.487   4.629   4.481
  155XTA    OA717356  29.540   4.845   4.668
  155XTA   HL4617357  29.516   4.560   4.406
  155XTA   HL4717358  29.382   4.631   4.477
  155XTA   HL4817359  30.621   4.707   3.303
  155XTA   HL4917360  30.803   4.648   3.319
  156XTA     NT17361  30.759  -0.766   4.002
  156XTA    CN117362  30.764  -0.883   4.073
  156XTA     C117363  30.817  -0.881   4.203
  156XTA     C217364  30.805  -1.003   4.273
  156XTA     C317365  30.757  -1.120   4.213
  156XTA     C417366  30.711  -1.114   4.080
  156XTA     C517367  30.726  -0.998   4.008
  156XTA    CN217368  30.714  -0.657   4.068
  156XTA     C617369  30.577  -0.658   4.105
  156XTA     C717370  30.519  -0.545   4.161
  156XTA     C817371  30.601  -0.435   4.188
  156XTA     C917372  30.738  -0.436   4.151
  156XTA    C1017373  30.794  -0.545   4.079
  156XTA    CN317374  30.777  -0.748   3.871
  156XTA    C1117375  30.900  -0.765   3.808
  156XTA    C1217376  30.915  -0.738   3.671
  156XTA    C1317377  30.804  -0.717   3.589
  156XTA    C1417378  30.674  -0.705   3.649
  156XTA    C1517379  30.666  -0.719   3.791
  156XTA     H117380  30.845  -0.775   4.235
  156XTA     H217381  30.835  -1.005   4.374
  156XTA     H317382  30.661  -1.203   4.038
  156XTA     H417383  30.705  -0.993   3.908
  156XTA     H517384  30.523  -0.749   4.105
  156XTA     H617385  30.416  -0.540   4.192
  156XTA     H717386  30.796  -0.353   4.178
  156XTA     H817387  30.891  -0.542   4.030
  156XTA     H917388  30.989  -0.791   3.861
  156XTA    H1017389  31.017  -0.740   3.635
  156XTA    H1117390  30.576  -0.686   3.610
  156XTA    H1217391  30.568  -0.709   3.844
  156XTA    OA117392  30.741  -1.223   4.297
  156XTA    CO117393  30.606  -1.277   4.301
  156XTA    OA217394  30.544  -0.325   4.254
  156XTA    CO217395  30.586  -0.193   4.204
  156XTA    CL117396  30.514  -0.091   4.291
  156XTA    CL217397  30.366  -0.093   4.286
  156XTA    CL317398  30.293  -0.015   4.178
  156XTA    CL417399  30.147  -0.063   4.166
  156XTA    CO317400  30.064   0.024   4.063
  156XTA    OA317401  29.957  -0.053   4.005
  156XTA    CO417402  29.901   0.018   3.899
  156XTA    CT117403  29.843  -0.072   3.794
  156XTA    CL517404  29.746  -0.178   3.855
  156XTA    CL617405  29.637  -0.117   3.938
  156XTA    OA417406  30.833  -0.704   3.456
  156XTA    CO517407  30.721  -0.734   3.374
  156XTA    CL717408  30.748  -0.748   3.221
  156XTA    CL817409  30.851  -0.853   3.178
  156XTA    CL917410  30.796  -0.997   3.214
  156XTA   CL1017411  30.893  -1.102   3.165
  156XTA    CO617412  31.028  -1.112   3.233
  156XTA    OA517413  31.000  -1.161   3.361
  156XTA    CO717414  31.068  -1.080   3.456
  156XTA    CT217415  31.038  -1.156   3.596
  156XTA   CL1117416  30.885  -1.182   3.612
  156XTA   CL1217417  30.808  -1.054   3.626
  156XTA    HL117418  30.527  -1.197   4.316
  156XTA    HL217419  30.582  -1.338   4.213
  156XTA    HL317420  30.589  -1.353   4.383
  156XTA    HL417421  30.698  -0.186   4.214
  156XTA    HL517422  30.569  -0.187   4.101
  156XTA    HL617423  30.545   0.007   4.256
  156XTA    HL717424  30.548  -0.079   4.396
  156XTA    HL817425  30.320  -0.056   4.381
  156XTA    HL917426  30.341  -0.196   4.267
  156XTA   HL1017427  30.290   0.086   4.222
  156XTA   HL1117428  30.353  -0.014   4.090
  156XTA   HL1217429  30.088  -0.068   4.259
  156XTA   HL1317430  30.138  -0.164   4.130
  156XTA   HL1417431  30.006   0.103   4.114
  156XTA   HL1517432  30.136   0.049   3.988
  156XTA   HL1617433  29.812   0.071   3.941
  156XTA   HL1717434  29.972   0.087   3.857
  156XTA   HL1817435  29.808  -0.248   3.923
  156XTA   HL1917436  29.697  -0.236   3.778
  156XTA   HL2017437  29.677  -0.073   4.030
  156XTA   HL2117438  29.564  -0.188   3.972
  156XTA   HL2217439  29.585  -0.027   3.899
  156XTA   HL2317440  30.651  -0.650   3.386
  156XTA   HL2417441  30.687  -0.836   3.394
  156XTA   HL2517442  30.652  -0.786   3.183
  156XTA   HL2617443  30.762  -0.649   3.175
  156XTA   HL2717444  30.883  -0.834   3.076
  156XTA   HL2817445  30.940  -0.827   3.240
  156XTA   HL2917446  30.767  -1.003   3.316
  156XTA   HL3017447  30.705  -1.007   3.151
  156XTA   HL3117448  30.838  -1.192   3.166
  156XTA   HL3217449  30.902  -1.074   3.058
  156XTA   HL3317450  31.079  -1.196   3.185
  156XTA   HL3417451  31.090  -1.017   3.230
  156XTA   HL3517452  31.022  -0.977   3.462
  156XTA   HL3617453  31.174  -1.076   3.431
  156XTA   HL3717454  30.872  -1.243   3.699
  156XTA   HL3817455  30.839  -1.246   3.532
  156XTA   HL3917456  30.726  -1.087   3.677
  156XTA   HL4017457  30.774  -1.003   3.529
  156XTA   HL4117458  30.861  -0.983   3.689
  156XTA    CO817459  29.965  -0.136   3.713
  156XTA    CO917460  29.768   0.007   3.684
  156XTA    OA617461  30.078  -0.054   3.711
  156XTA   HL4217462  29.939  -0.134   3.607
  156XTA   HL4317463  29.999  -0.233   3.739
  156XTA   HL4417464  31.181  -1.027   3.710
  156XTA   HL4517465  31.038  -1.066   3.805
  156XTA   CO1017466  31.108  -1.110   3.727
  156XTA   CO1117467  31.117  -1.287   3.608
  156XTA    OA717468  31.169  -1.236   3.736
  156XTA   HL4617469  31.057  -1.377   3.616
  156XTA   HL4717470  31.193  -1.288   3.525
  156XTA   HL4817471  29.726  -0.083   3.637
  156XTA   HL4917472  29.690   0.066   3.730
  157XTA     NT17473  29.306   3.190   5.260
  157XTA    CN117474  29.238   3.206   5.377
  157XTA     C117475  29.307   3.216   5.502
  157XTA     C217476  29.231   3.243   5.626
  157XTA     C317477  29.092   3.269   5.615
  157XTA     C417478  29.027   3.262   5.492
  157XTA     C517479  29.101   3.227   5.375
  157XTA    CN217480  29.429   3.136   5.265
  157XTA     C617481  29.442   2.998   5.290
  157XTA     C717482  29.572   2.942   5.290
  157XTA     C817483  29.686   3.021   5.289
  157XTA     C917484  29.670   3.159   5.273
  157XTA    C1017485  29.545   3.217   5.258
  157XTA    CN317486  29.253   3.217   5.139
  157XTA    C1117487  29.266   3.343   5.077
  157XTA    C1217488  29.216   3.359   4.951
  157XTA    C1317489  29.153   3.259   4.874
  157XTA    C1417490  29.142   3.135   4.940
  157XTA    C1517491  29.191   3.114   5.072
  157XTA     H117492  29.416   3.198   5.515
  157XTA     H217493  29.290   3.256   5.712
  157XTA     H317494  28.919   3.250   5.484
  157XTA     H417495  29.046   3.216   5.286
  157XTA     H517496  29.352   2.945   5.294
  157XTA     H617497  29.578   2.833   5.300
  157XTA     H717498  29.761   3.216   5.275
  157XTA     H817499  29.539   3.327   5.251
  157XTA     H917500  29.309   3.424   5.130
  157XTA    H1017501  29.219   3.460   4.919
  157XTA    H1117502  29.100   3.052   4.882
  157XTA    H1217503  29.187   3.015   5.115
  157XTA    OA117504  29.025   3.318   5.724
  157XTA    CO117505  28.889   3.289   5.735
  157XTA    OA217506  29.813   2.982   5.310
  157XTA    CO217507  29.850   2.842   5.315
  157XTA    CL117508  29.838   2.779   5.182
  157XTA    CL217509  29.935   2.808   5.067
  157XTA    CL317510  29.864   2.794   4.932
  157XTA    CL417511  29.960   2.810   4.809
  157XTA    CO317512  29.899   2.750   4.677
  157XTA    OA317513  29.976   2.786   4.561
  157XTA    CO417514  29.938   2.912   4.511
  157XTA    CT117515  30.033   2.966   4.410
  157XTA    CL517516  30.180   2.959   4.469
  157XTA    CL617517  30.218   3.061   4.581
  157XTA    OA417518  29.104   3.266   4.752
  157XTA    CO517519  29.064   3.392   4.698
  157XTA    CL717520  29.026   3.368   4.549
  157XTA    CL817521  29.145   3.363   4.451
  157XTA    CL917522  29.236   3.245   4.471
  157XTA   CL1017523  29.358   3.230   4.380
  157XTA    CO617524  29.459   3.134   4.434
  157XTA    OA517525  29.585   3.163   4.378
  157XTA    CO717526  29.596   3.127   4.244
  157XTA    CT217527  29.694   3.223   4.172
  157XTA   CL1117528  29.717   3.180   4.023
  157XTA   CL1217529  29.754   3.034   3.994
  157XTA    HL117530  28.883   3.179   5.733
  157XTA    HL217531  28.858   3.310   5.840
  157XTA    HL317532  28.831   3.347   5.663
  157XTA    HL417533  29.943   2.828   5.367
  157XTA    HL517534  29.777   2.797   5.383
  157XTA    HL617535  29.736   2.795   5.139
  157XTA    HL717536  29.836   2.674   5.210
  157XTA    HL817537  30.027   2.753   5.080
  157XTA    HL917538  29.968   2.909   5.085
  157XTA   HL1017539  29.815   2.697   4.920
  157XTA   HL1117540  29.790   2.874   4.925
  157XTA   HL1217541  30.062   2.774   4.825
  157XTA   HL1317542  29.976   2.920   4.801
  157XTA   HL1417543  29.895   2.639   4.684
  157XTA   HL1517544  29.798   2.782   4.654
  157XTA   HL1617545  29.838   2.894   4.476
  157XTA   HL1717546  29.938   2.985   4.590
  157XTA   HL1817547  30.244   2.983   4.384
  157XTA   HL1917548  30.210   2.860   4.484
  157XTA   HL2017549  30.313   3.032   4.621
  157XTA   HL2117550  30.137   3.056   4.658
  157XTA   HL2217551  30.232   3.165   4.555
  157XTA   HL2317552  29.140   3.473   4.698
  157XTA   HL2417553  28.980   3.429   4.753
  157XTA   HL2517554  28.981   3.270   4.544
  157XTA   HL2617555  28.959   3.442   4.508
  157XTA   HL2717556  29.098   3.361   4.353
  157XTA   HL2817557  29.207   3.452   4.447
  157XTA   HL2917558  29.272   3.235   4.578
  157XTA   HL3017559  29.184   3.150   4.471
  157XTA   HL3117560  29.327   3.212   4.277
  157XTA   HL3217561  29.405   3.329   4.376
  157XTA   HL3317562  29.467   3.159   4.530
  157XTA   HL3417563  29.439   3.027   4.424
  157XTA   HL3517564  29.504   3.132   4.195
  157XTA   HL3617565  29.636   3.031   4.241
  157XTA   HL3717566  29.802   3.241   3.984
  157XTA   HL3817567  29.635   3.211   3.959
  157XTA   HL3917568  29.833   2.994   4.055
  157XTA   HL4017569  29.775   3.012   3.886
  157XTA   HL4117570  29.669   2.974   4.019
  157XTA    CO817571  30.000   3.112   4.369
  157XTA    CO917572  30.031   2.879   4.284
  157XTA    OA617573  29.880   3.110   4.306
  157XTA   HL4217574  30.080   3.150   4.298
  157XTA   HL4317575  29.992   3.190   4.453
  157XTA   HL4417576  29.817   3.288   4.339
  157XTA   HL4517577  29.936   3.290   4.181
  157XTA   CO1017578  29.829   3.228   4.251
  157XTA   CO1117579  29.623   3.364   4.176
  157XTA    OA717580  29.523   3.365   4.127
  157XTA   HL4617581  29.613   3.386   4.283
  157XTA   HL4717582  29.695   3.431   4.130
  157XTA   HL4817583  30.105   2.907   4.220
  157XTA   HL4917584  29.927   2.884   4.233
  158XTA     NT17585  26.460   0.598   5.462
  158XTA    CN117586  26.372   0.626   5.368
  158XTA     C117587  26.233   0.638   5.397
  158XTA     C217588  26.149   0.659   5.291
  158XTA     C317589  26.182   0.670   5.155
  158XTA     C417590  26.321   0.659   5.134
  158XTA     C517591  26.412   0.635   5.235
  158XTA    CN217592  26.445   0.672   5.577
  158XTA     C617593  26.370   0.626   5.682
  158XTA     C717594  26.345   0.710   5.787
  158XTA     C817595  26.397   0.836   5.795
  158XTA     C917596  26.475   0.886   5.684
  158XTA    C1017597  26.497   0.806   5.575
  158XTA    CN317598  26.572   0.516   5.449
  158XTA    C1117599  26.695   0.557   5.398
  158XTA    C1217600  26.817   0.480   5.405
  158XTA    C1317601  26.801   0.350   5.461
  158XTA    C1417602  26.676   0.299   5.503
  158XTA    C1517603  26.566   0.386   5.511
  158XTA     H117604  26.190   0.623   5.494
  158XTA     H217605  26.045   0.660   5.308
  158XTA     H317606  26.358   0.657   5.035
  158XTA     H417607  26.512   0.617   5.216
  158XTA     H517608  26.321   0.529   5.669
  158XTA     H617609  26.271   0.678   5.852
  158XTA     H717610  26.511   0.984   5.691
  158XTA     H817611  26.571   0.834   5.497
  158XTA     H917612  26.695   0.660   5.365
  158XTA    H1017613  26.912   0.522   5.370
  158XTA    H1117614  26.668   0.196   5.543
  158XTA    H1217615  26.477   0.354   5.559
  158XTA    OA117616  26.085   0.684   5.056
  158XTA    CO117617  26.097   0.581   4.959
  158XTA    OA217618  26.372   0.916   5.899
  158XTA    CO217619  26.294   0.866   5.999
  158XTA    CL117620  26.322   0.979   6.101
  158XTA    CL217621  26.470   1.009   6.140
  158XTA    CL317622  26.488   1.071   6.278
  158XTA    CL417623  26.636   1.089   6.306
  158XTA    CO317624  26.664   1.127   6.446
  158XTA    OA317625  26.794   1.174   6.464
  158XTA    CO417626  26.887   1.064   6.465
  158XTA    CT117627  27.039   1.097   6.482
  158XTA    CL517628  27.063   1.148   6.629
  158XTA    CL617629  27.202   1.203   6.668
  158XTA    OA417630  26.909   0.281   5.501
  158XTA    CO517631  27.037   0.347   5.497
  158XTA    CL717632  27.146   0.250   5.560
  158XTA    CL817633  27.267   0.330   5.608
  158XTA    CL917634  27.317   0.434   5.513
  158XTA   CL1017635  27.371   0.383   5.381
  158XTA    CO617636  27.420   0.490   5.290
  158XTA    OA517637  27.310   0.571   5.261
  158XTA    CO717638  27.315   0.647   5.144
  158XTA    CT217639  27.171   0.692   5.112
  158XTA   CL1117640  27.088   0.569   5.071
  158XTA   CL1217641  26.937   0.599   5.057
  158XTA    HL117642  26.192   0.593   4.909
  158XTA    HL217643  26.095   0.479   5.009
  158XTA    HL317644  26.019   0.590   4.889
  158XTA    HL417645  26.189   0.855   5.970
  158XTA    HL517646  26.335   0.764   6.023
  158XTA    HL617647  26.271   0.948   6.196
  158XTA    HL717648  26.269   1.071   6.076
  158XTA    HL817649  26.523   1.063   6.069
  158XTA    HL917650  26.521   0.912   6.146
  158XTA   HL1017651  26.450   1.173   6.282
  158XTA   HL1117652  26.448   1.006   6.362
  158XTA   HL1217653  26.685   1.158   6.234
  158XTA   HL1317654  26.692   0.990   6.285
  158XTA   HL1417655  26.611   1.227   6.470
  158XTA   HL1517656  26.622   1.065   6.516
  158XTA   HL1617657  26.867   1.000   6.541
  158XTA   HL1717658  26.876   1.015   6.370
  158XTA   HL1817659  27.040   1.076   6.705
  158XTA   HL1917660  26.993   1.232   6.647
  158XTA   HL2017661  27.191   1.249   6.757
  158XTA   HL2117662  27.245   1.274   6.599
  158XTA   HL2217663  27.272   1.123   6.674
  158XTA   HL2317664  27.040   0.434   5.563
  158XTA   HL2417665  27.058   0.380   5.398
  158XTA   HL2517666  27.094   0.213   5.652
  158XTA   HL2617667  27.166   0.169   5.492
  158XTA   HL2717668  27.246   0.378   5.705
  158XTA   HL2817669  27.352   0.268   5.628
  158XTA   HL2917670  27.237   0.509   5.489
  158XTA   HL3017671  27.393   0.492   5.566
  158XTA   HL3117672  27.450   0.317   5.403
  158XTA   HL3217673  27.299   0.304   5.336
  158XTA   HL3317674  27.495   0.561   5.337
  158XTA   HL3417675  27.463   0.439   5.202
  158XTA   HL3517676  27.358   0.593   5.058
  158XTA   HL3617677  27.372   0.733   5.167
  158XTA   HL3717678  27.109   0.483   5.139
  158XTA   HL3817679  27.122   0.541   4.967
  158XTA   HL3917680  26.883   0.508   5.025
  158XTA   HL4017681  26.919   0.665   4.979
  158XTA   HL4117682  26.891   0.641   5.144
  158XTA    CO817683  27.088   1.207   6.378
  158XTA    CO917684  27.122   0.970   6.446
  158XTA    OA617685  27.068   1.165   6.279
  158XTA   HL4217686  27.187   1.241   6.406
  158XTA   HL4317687  27.033   1.301   6.381
  158XTA   HL4417688  27.183   0.894   5.067
  158XTA   HL4517689  27.055   0.832   4.936
  158XTA   CO1017690  27.177   0.807   5.004
  158XTA   CO1117691  27.111   0.756   5.239
  158XTA    OA717692  27.013   0.812   5.221
  158XTA   HL4617693  27.101   0.679   5.311
  158XTA   HL4717694  27.188   0.821   5.279
  158XTA   HL4817695  27.104   0.919   6.322
  158XTA   HL4917696  27.226   0.990   6.461
  159XTA     NT17697  27.629   4.358   7.648
  159XTA    CN117698  27.586   4.314   7.767
  159XTA     C117699  27.672   4.334   7.875
  159XTA     C217700  27.640   4.315   8.007
  159XTA     C317701  27.510   4.261   8.030
  159XTA     C417702  27.424   4.240   7.924
  159XTA     C517703  27.456   4.265   7.787
  159XTA    CN217704  27.612   4.281   7.540
  159XTA     C617705  27.717   4.204   7.499
  159XTA     C717706  27.699   4.117   7.382
  159XTA     C817707  27.585   4.128   7.296
  159XTA     C917708  27.476   4.208   7.353
  159XTA    C1017709  27.484   4.281   7.470
  159XTA    CN317710  27.656   4.484   7.622
  159XTA    C1117711  27.783   4.528   7.583
  159XTA    C1217712  27.795   4.661   7.541
  159XTA    C1317713  27.693   4.754   7.552
  159XTA    C1417714  27.572   4.707   7.595
  159XTA    C1517715  27.554   4.577   7.629
  159XTA     H117716  27.767   4.380   7.850
  159XTA     H217717  27.701   4.346   8.081
  159XTA     H317718  27.328   4.200   7.948
  159XTA     H417719  27.389   4.248   7.702
  159XTA     H517720  27.808   4.215   7.550
  159XTA     H617721  27.791   4.069   7.340
  159XTA     H717722  27.386   4.224   7.300
  159XTA     H817723  27.399   4.330   7.517
  159XTA     H917724  27.859   4.455   7.570
  159XTA    H1017725  27.890   4.686   7.501
  159XTA    H1117726  27.486   4.769   7.591
  159XTA    H1217727  27.457   4.552   7.648
  159XTA    OA117728  27.462   4.224   8.149
  159XTA    CO117729  27.534   4.265   8.267
  159XTA    OA217730  27.575   4.072   7.172
  159XTA    CO217731  27.687   4.087   7.083
  159XTA    CL117732  27.726   4.232   7.058
  159XTA    CL217733  27.610   4.322   7.001
  159XTA    CL317734  27.657   4.462   6.972
  159XTA    CL417735  27.712   4.541   7.089
  159XTA    CO317736  27.712   4.697   7.066
  159XTA    OA317737  27.826   4.734   6.989
  159XTA    CO417738  27.844   4.865   6.956
  159XTA    CT117739  27.914   4.894   6.822
  159XTA    CL517740  27.925   5.043   6.781
  159XTA    CL617741  28.002   5.133   6.880
  159XTA    OA417742  27.696   4.885   7.521
  159XTA    CO517743  27.818   4.926   7.446
  159XTA    CL717744  27.798   5.065   7.385
  159XTA    CL817745  27.709   5.061   7.256
  159XTA    CL917746  27.708   5.194   7.184
  159XTA   CL1017747  27.596   5.200   7.078
  159XTA    CO617748  27.639   5.265   6.947
  159XTA    OA517749  27.630   5.409   6.951
  159XTA    CO717750  27.661   5.461   6.821
  159XTA    CT217751  27.707   5.612   6.837
  159XTA   CL1117752  27.608   5.691   6.924
  159XTA   CL1217753  27.474   5.719   6.866
  159XTA    HL117754  27.471   4.241   8.351
  159XTA    HL217755  27.629   4.218   8.269
  159XTA    HL317756  27.550   4.379   8.266
  159XTA    HL417757  27.772   4.030   7.126
  159XTA    HL517758  27.655   4.041   6.993
  159XTA    HL617759  27.803   4.232   6.983
  159XTA    HL717760  27.780   4.259   7.154
  159XTA    HL817761  27.515   4.325   7.061
  159XTA    HL917762  27.569   4.270   6.919
  159XTA   HL1017763  27.731   4.463   6.892
  159XTA   HL1117764  27.570   4.518   6.937
  159XTA   HL1217765  27.809   4.505   7.125
  159XTA   HL1317766  27.645   4.526   7.179
  159XTA   HL1417767  27.614   4.729   7.022
  159XTA   HL1517768  27.717   4.741   7.165
  159XTA   HL1617769  27.755   4.923   6.969
  159XTA   HL1717770  27.910   4.899   7.039
  159XTA   HL1817771  27.826   5.076   6.758
  159XTA   HL1917772  27.988   5.052   6.700
  159XTA   HL2017773  28.015   5.238   6.839
  159XTA   HL2117774  28.105   5.100   6.891
  159XTA   HL2217775  27.950   5.122   6.971
  159XTA   HL2317776  27.836   4.846   7.375
  159XTA   HL2417777  27.902   4.922   7.520
  159XTA   HL2517778  27.768   5.144   7.458
  159XTA   HL2617779  27.892   5.108   7.354
  159XTA   HL2717780  27.745   4.976   7.189
  159XTA   HL2817781  27.614   5.024   7.297
  159XTA   HL2917782  27.698   5.283   7.254
  159XTA   HL3017783  27.811   5.193   7.140
  159XTA   HL3117784  27.579   5.100   7.044
  159XTA   HL3217785  27.494   5.229   7.115
  159XTA   HL3317786  27.740   5.236   6.920
  159XTA   HL3417787  27.574   5.227   6.870
  159XTA   HL3517788  27.567   5.443   6.768
  159XTA   HL3617789  27.740   5.400   6.776
  159XTA   HL3717790  27.641   5.782   6.963
  159XTA   HL3817791  27.594   5.637   7.022
  159XTA   HL3917792  27.395   5.711   6.935
  159XTA   HL4017793  27.447   5.649   6.787
  159XTA   HL4117794  27.470   5.816   6.815
  159XTA    CO817795  27.824   4.818   6.725
  159XTA    CO917796  28.052   4.824   6.816
  159XTA    OA617797  27.727   4.872   6.720
  159XTA   HL4217798  27.807   4.717   6.761
  159XTA   HL4317799  27.882   4.801   6.627
  159XTA   HL4417800  27.744   5.786   6.722
  159XTA   HL4517801  27.807   5.653   6.643
  159XTA   CO1017802  27.718   5.685   6.693
  159XTA   CO1117803  27.849   5.613   6.895
  159XTA    OA717804  27.620   5.683   6.636
  159XTA   HL4617805  27.945   5.566   6.800
  159XTA   HL4717806  27.864   5.721   6.914
  159XTA   HL4817807  28.126   4.874   6.923
  159XTA   HL4917808  28.101   4.862   6.727
  160XTA     NT17809  25.361   2.542   1.449
  160XTA    CN117810  25.291   2.659   1.432
  160XTA     C117811  25.153   2.654   1.459
  160XTA     C217812  25.084   2.776   1.443
  160XTA     C317813  25.141   2.902   1.413
  160XTA     C417814  25.276   2.898   1.383
  160XTA     C517815  25.349   2.782   1.406
  160XTA    CN217816  25.408   2.514   1.571
  160XTA     C617817  25.328   2.432   1.655
  160XTA     C717818  25.376   2.392   1.786
  160XTA     C817819  25.506   2.442   1.831
  160XTA     C917820  25.584   2.520   1.741
  160XTA    C1017821  25.538   2.554   1.616
  160XTA    CN317822  25.408   2.478   1.337
  160XTA    C1117823  25.530   2.515   1.260
  160XTA    C1217824  25.564   2.449   1.137
  160XTA    C1317825  25.489   2.334   1.096
  160XTA    C1417826  25.367   2.310   1.169
  160XTA    C1517827  25.330   2.373   1.284
  160XTA     H117828  25.096   2.569   1.483
  160XTA     H217829  24.980   2.777   1.457
  160XTA     H317830  25.325   2.990   1.345
  160XTA     H417831  25.457   2.777   1.407
  160XTA     H517832  25.229   2.387   1.640
  160XTA     H617833  25.311   2.334   1.844
  160XTA     H717834  25.679   2.562   1.768
  160XTA     H817835  25.592   2.623   1.556
  160XTA     H917836  25.587   2.597   1.299
  160XTA    H1017837  25.646   2.486   1.083
  160XTA    H1117838  25.311   2.232   1.134
  160XTA    H1217839  25.241   2.347   1.339
  160XTA    OA117840  25.066   3.017   1.419
  160XTA    CO117841  24.975   3.034   1.526
  160XTA    OA217842  25.551   2.395   1.961
  160XTA    CO217843  25.688   2.380   1.969
  160XTA    CL117844  25.725   2.295   2.081
  160XTA    CL217845  25.869   2.255   2.089
  160XTA    CL317846  25.951   2.317   2.202
  160XTA    CL417847  26.007   2.455   2.185
  160XTA    CO317848  26.091   2.458   2.058
  160XTA    OA317849  26.207   2.384   2.099
  160XTA    CO417850  26.296   2.335   1.996
  160XTA    CT117851  26.429   2.290   2.062
  160XTA    CL517852  26.376   2.222   2.195
  160XTA    CL617853  26.483   2.148   2.275
  160XTA    OA417854  25.522   2.264   0.982
  160XTA    CO517855  25.663   2.271   0.949
  160XTA    CL717856  25.704   2.176   0.836
  160XTA    CL817857  25.617   2.172   0.715
  160XTA    CL917858  25.588   2.318   0.670
  160XTA   CL1017859  25.514   2.326   0.537
  160XTA    CO617860  25.474   2.462   0.499
  160XTA    OA517861  25.580   2.522   0.417
  160XTA    CO717862  25.545   2.652   0.367
  160XTA    CT217863  25.661   2.732   0.305
  160XTA   CL1117864  25.732   2.642   0.198
  160XTA   CL1217865  25.840   2.711   0.107
  160XTA    HL117866  24.893   2.956   1.536
  160XTA    HL217867  25.031   3.032   1.619
  160XTA    HL317868  24.924   3.132   1.527
  160XTA    HL417869  25.716   2.323   1.881
  160XTA    HL517870  25.744   2.481   1.967
  160XTA    HL617871  25.683   2.201   2.055
  160XTA    HL717872  25.682   2.311   2.182
  160XTA    HL817873  25.928   2.260   1.997
  160XTA    HL917874  25.874   2.152   2.123
  160XTA   HL1017875  25.878   2.326   2.288
  160XTA   HL1117876  26.032   2.245   2.249
  160XTA   HL1217877  26.055   2.494   2.278
  160XTA   HL1317878  25.919   2.516   2.175
  160XTA   HL1417879  26.026   2.428   1.972
  160XTA   HL1517880  26.125   2.559   2.036
  160XTA   HL1617881  26.236   2.261   1.943
  160XTA   HL1717882  26.316   2.423   1.925
  160XTA   HL1817883  26.304   2.152   2.169
  160XTA   HL1917884  26.349   2.297   2.256
  160XTA   HL2017885  26.551   2.076   2.227
  160XTA   HL2117886  26.449   2.098   2.368
  160XTA   HL2217887  26.550   2.224   2.312
  160XTA   HL2317888  25.733   2.241   1.037
  160XTA   HL2417889  25.691   2.368   0.913
  160XTA   HL2517890  25.800   2.214   0.809
  160XTA   HL2617891  25.714   2.070   0.873
  160XTA   HL2717892  25.664   2.107   0.633
  160XTA   HL2817893  25.531   2.116   0.754
  160XTA   HL2917894  25.531   2.367   0.747
  160XTA   HL3017895  25.684   2.370   0.680
  160XTA   HL3117896  25.579   2.288   0.467
  160XTA   HL3217897  25.431   2.256   0.521
  160XTA   HL3317898  25.378   2.448   0.440
  160XTA   HL3417899  25.444   2.532   0.584
  160XTA   HL3517900  25.485   2.715   0.442
  160XTA   HL3617901  25.477   2.632   0.283
  160XTA   HL3717902  25.659   2.595   0.125
  160XTA   HL3817903  25.788   2.560   0.245
  160XTA   HL3917904  25.924   2.756   0.171
  160XTA   HL4017905  25.797   2.793   0.050
  160XTA   HL4117906  25.892   2.641   0.040
  160XTA    CO817907  26.534   2.403   2.090
  160XTA    CO917908  26.486   2.178   1.966
  160XTA    OA617909  26.496   2.488   2.158
  160XTA   HL4217910  26.570   2.450   1.995
  160XTA   HL4317911  26.623   2.366   2.135
  160XTA   HL4417912  25.797   2.668   0.447
  160XTA   HL4517913  25.851   2.813   0.351
  160XTA   CO1017914  25.773   2.765   0.404
  160XTA   CO1117915  25.614   2.857   0.238
  160XTA    OA717916  25.741   2.836   0.484
  160XTA   HL4617917  25.553   2.825   0.114
  160XTA   HL4717918  25.692   2.928   0.222
  160XTA   HL4817919  26.605   2.109   2.019
  160XTA   HL4917920  26.420   2.094   1.954
  161XTA     NT17921  29.653   6.591   1.624
  161XTA    CN117922  29.564   6.518   1.698
  161XTA     C117923  29.428   6.518   1.669
  161XTA     C217924  29.336   6.444   1.745
  161XTA     C317925  29.390   6.358   1.846
  161XTA     C417926  29.531   6.358   1.877
  161XTA     C517927  29.617   6.438   1.801
  161XTA    CN217928  29.688   6.526   1.512
  161XTA     C617929  29.623   6.560   1.397
  161XTA     C717930  29.643   6.481   1.284
  161XTA     C817931  29.726   6.369   1.286
  161XTA     C917932  29.802   6.346   1.396
  161XTA    C1017933  29.782   6.422   1.513
  161XTA    CN317934  29.711   6.705   1.669
  161XTA    C1117935  29.633   6.818   1.684
  161XTA    C1217936  29.691   6.937   1.733
  161XTA    C1317937  29.827   6.943   1.772
  161XTA    C1417938  29.904   6.826   1.757
  161XTA    C1517939  29.848   6.714   1.707
  161XTA     H117940  29.383   6.577   1.594
  161XTA     H217941  29.234   6.439   1.724
  161XTA     H317942  29.577   6.279   1.935
  161XTA     H417943  29.729   6.426   1.821
  161XTA     H517944  29.555   6.639   1.395
  161XTA     H617945  29.586   6.511   1.199
  161XTA     H717946  29.853   6.258   1.402
  161XTA     H817947  29.820   6.385   1.607
  161XTA     H917948  29.526   6.815   1.676
  161XTA    H1017949  29.622   7.010   1.759
  161XTA    H1117950  30.007   6.841   1.784
  161XTA    H1217951  29.905   6.633   1.686
  161XTA    OA117952  29.302   6.269   1.908
  161XTA    CO117953  29.359   6.189   2.010
  161XTA    OA217954  29.752   6.283   1.182
  161XTA    CO217955  29.688   6.306   1.057
  161XTA    CL117956  29.747   6.219   0.945
  161XTA    CL217957  29.677   6.236   0.810
  161XTA    CL317958  29.759   6.332   0.725
  161XTA    CL417959  29.679   6.400   0.609
  161XTA    CO317960  29.540   6.452   0.648
  161XTA    OA317961  29.482   6.524   0.534
  161XTA    CO417962  29.395   6.449   0.447
  161XTA    CT117963  29.333   6.555   0.352
  161XTA    CL517964  29.251   6.484   0.246
  161XTA    CL617965  29.159   6.566   0.151
  161XTA    OA417966  29.868   7.062   1.826
  161XTA    CO517967  29.943   7.051   1.943
  161XTA    CL717968  29.997   7.185   1.992
  161XTA    CL817969  30.016   7.194   2.143
  161XTA    CL917970  30.124   7.105   2.202
  161XTA   CL1017971  30.248   7.086   2.121
  161XTA    CO617972  30.334   7.213   2.105
  161XTA    OA517973  30.375   7.244   2.236
  161XTA    CO717974  30.377   7.382   2.279
  161XTA    CT217975  30.445   7.377   2.420
  161XTA   CL1117976  30.591   7.335   2.402
  161XTA   CL1217977  30.685   7.431   2.322
  161XTA    HL117978  29.281   6.124   2.054
  161XTA    HL217979  29.433   6.125   1.965
  161XTA    HL317980  29.406   6.240   2.094
  161XTA    HL417981  29.579   6.288   1.077
  161XTA    HL517982  29.698   6.409   1.033
  161XTA    HL617983  29.735   6.111   0.975
  161XTA    HL717984  29.850   6.240   0.941
  161XTA    HL817985  29.572   6.257   0.823
  161XTA    HL917986  29.662   6.140   0.760
  161XTA   HL1017987  29.803   6.416   0.774
  161XTA   HL1117988  29.843   6.281   0.681
  161XTA   HL1217989  29.675   6.322   0.533
  161XTA   HL1317990  29.742   6.475   0.562
  161XTA   HL1417991  29.477   6.377   0.686
  161XTA   HL1517992  29.535   6.511   0.738
  161XTA   HL1617993  29.442   6.368   0.389
  161XTA   HL1717994  29.313   6.415   0.505
  161XTA   HL1817995  29.193   6.408   0.299
  161XTA   HL1917996  29.314   6.430   0.181
  161XTA   HL2017997  29.092   6.500   0.099
  161XTA   HL2117998  29.214   6.633   0.082
  161XTA   HL2217999  29.108   6.643   0.205
  161XTA   HL2318000  30.037   6.991   1.925
  161XTA   HL2418001  29.887   6.995   2.015
  161XTA   HL2518002  30.086   7.204   1.933
  161XTA   HL2618003  29.918   7.250   1.969
  161XTA   HL2718004  30.050   7.302   2.168
  161XTA   HL2818005  29.923   7.177   2.196
  161XTA   HL2918006  30.144   7.137   2.301
  161XTA   HL3018007  30.081   7.007   2.224
  161XTA   HL3118008  30.312   7.019   2.173
  161XTA   HL3218009  30.213   7.035   2.039
  161XTA   HL3318010  30.424   7.196   2.049
  161XTA   HL3418011  30.274   7.295   2.064
  161XTA   HL3518012  30.275   7.417   2.270
  161XTA   HL3618013  30.438   7.441   2.208
  161XTA   HL3718014  30.595   7.234   2.358
  161XTA   HL3818015  30.630   7.314   2.505
  161XTA   HL3918016  30.783   7.383   2.322
  161XTA   HL4018017  30.679   7.533   2.365
  161XTA   HL4118018  30.669   7.442   2.220
  161XTA    CO818019  29.449   6.636   0.285
  161XTA    CO918020  29.251   6.658   0.424
  161XTA    OA618021  29.521   6.567   0.239
  161XTA   HL4218022  29.501   6.693   0.362
  161XTA   HL4318023  29.399   6.701   0.220
  161XTA   HL4418024  30.288   7.268   2.447
  161XTA   HL4518025  30.417   7.200   2.538
  161XTA   CO1018026  30.376   7.294   2.503
  161XTA   CO1118027  30.429   7.498   2.514
  161XTA    OA718028  30.353   7.380   2.577
  161XTA   HL4618029  30.554   7.531   2.577
  161XTA   HL4718030  30.363   7.571   2.476
  161XTA   HL4818031  29.331   6.713   0.519
  161XTA   HL4918032  29.238   6.744   0.355
  162XTA     NT18033  28.786   1.745   3.342
  162XTA    CN118034  28.682   1.815   3.279
  162XTA     C118035  28.714   1.925   3.200
  162XTA     C218036  28.621   2.007   3.135
  162XTA     C318037  28.485   1.990   3.150
  162XTA     C418038  28.452   1.894   3.251
  162XTA     C518039  28.545   1.809   3.315
  162XTA    CN218040  28.879   1.683   3.269
  162XTA     C618041  29.016   1.670   3.315
  162XTA     C718042  29.116   1.612   3.234
  162XTA     C818043  29.077   1.561   3.107
  162XTA     C918044  28.943   1.558   3.065
  162XTA    C1018045  28.840   1.616   3.150
  162XTA    CN318046  28.761   1.708   3.467
  162XTA    C1118047  28.748   1.808   3.566
  162XTA    C1218048  28.730   1.779   3.699
  162XTA    C1318049  28.716   1.646   3.737
  162XTA    C1418050  28.727   1.545   3.641
  162XTA    C1518051  28.746   1.576   3.508
  162XTA     H118052  28.817   1.942   3.184
  162XTA     H218053  28.652   2.090   3.073
  162XTA     H318054  28.344   1.882   3.266
  162XTA     H418055  28.508   1.731   3.390
  162XTA     H518056  29.050   1.713   3.410
  162XTA     H618057  29.220   1.617   3.274
  162XTA     H718058  28.921   1.497   2.977
  162XTA     H818059  28.731   1.610   3.123
  162XTA     H918060  28.763   1.916   3.538
  162XTA    H1018061  28.722   1.855   3.776
  162XTA    H1118062  28.711   1.439   3.658
  162XTA    H1218063  28.745   1.502   3.427
  162XTA    OA118064  28.388   2.063   3.097
  162XTA    CO118065  28.431   2.139   2.981
  162XTA    OA218066  29.185   1.514   3.036
  162XTA    CO218067  29.202   1.577   2.912
  162XTA    CL118068  29.253   1.717   2.926
  162XTA    CL218069  29.309   1.768   2.793
  162XTA    CL318070  29.381   1.901   2.809
  162XTA    CL418071  29.424   1.962   2.679
  162XTA    CO318072  29.327   2.066   2.629
  162XTA    OA318073  29.390   2.161   2.544
  162XTA    CO418074  29.290   2.235   2.473
  162XTA    CT118075  29.343   2.342   2.379
  162XTA    CL518076  29.439   2.441   2.457
  162XTA    CL618077  29.502   2.556   2.379
  162XTA    OA418078  28.696   1.610   3.871
  162XTA    CO518079  28.640   1.487   3.903
  162XTA    CL718080  28.628   1.498   4.052
  162XTA    CL818081  28.503   1.577   4.090
  162XTA    CL918082  28.472   1.557   4.239
  162XTA   CL1018083  28.355   1.647   4.276
  162XTA    CO618084  28.357   1.688   4.423
  162XTA    OA518085  28.311   1.586   4.506
  162XTA    CO718086  28.406   1.487   4.537
  162XTA    CT218087  28.378   1.428   4.673
  162XTA   CL1118088  28.493   1.328   4.705
  162XTA   CL1218089  28.641   1.370   4.682
  162XTA    HL118090  28.356   2.202   2.925
  162XTA    HL218091  28.495   2.203   3.023
  162XTA    HL318092  28.470   2.073   2.905
  162XTA    HL418093  29.276   1.520   2.853
  162XTA    HL518094  29.108   1.575   2.850
  162XTA    HL618095  29.332   1.726   3.003
  162XTA    HL718096  29.160   1.765   2.954
  162XTA    HL818097  29.232   1.760   2.716
  162XTA    HL918098  29.386   1.696   2.776
  162XTA   HL1018099  29.318   1.964   2.868
  162XTA   HL1118100  29.467   1.884   2.871
  162XTA   HL1218101  29.430   1.890   2.603
  162XTA   HL1318102  29.523   2.004   2.703
  162XTA   HL1418103  29.252   2.016   2.565
  162XTA   HL1518104  29.274   2.106   2.715
  162XTA   HL1618105  29.239   2.165   2.409
  162XTA   HL1718106  29.216   2.278   2.547
  162XTA   HL1818107  29.514   2.385   2.505
  162XTA   HL1918108  29.388   2.482   2.542
  162XTA   HL2018109  29.585   2.601   2.435
  162XTA   HL2118110  29.429   2.638   2.370
  162XTA   HL2218111  29.529   2.511   2.283
  162XTA   HL2318112  28.706   1.409   3.865
  162XTA   HL2418113  28.547   1.479   3.845
  162XTA   HL2518114  28.618   1.393   4.078
  162XTA   HL2618115  28.714   1.538   4.094
  162XTA   HL2718116  28.518   1.669   4.066
  162XTA   HL2818117  28.417   1.537   4.033
  162XTA   HL2918118  28.462   1.457   4.278
  162XTA   HL3018119  28.557   1.596   4.306
  162XTA   HL3118120  28.370   1.738   4.225
  162XTA   HL3218121  28.258   1.609   4.242
  162XTA   HL3318122  28.458   1.721   4.463
  162XTA   HL3418123  28.280   1.759   4.429
  162XTA   HL3518124  28.508   1.523   4.521
  162XTA   HL3618125  28.398   1.407   4.461
  162XTA   HL3718126  28.495   1.232   4.653
  162XTA   HL3818127  28.487   1.299   4.813
  162XTA   HL3918128  28.708   1.305   4.742
  162XTA   HL4018129  28.648   1.473   4.724
  162XTA   HL4118130  28.668   1.361   4.578
  162XTA    CO818131  29.224   2.428   2.330
  162XTA    CO918132  29.408   2.288   2.257
  162XTA    OA618133  29.525   2.211   2.293
  162XTA   HL4218134  29.251   2.500   2.257
  162XTA   HL4318135  29.170   2.480   2.413
  162XTA   HL4418136  28.261   1.264   4.602
  162XTA   HL4518137  28.233   1.324   4.774
  162XTA   CO1018138  28.250   1.347   4.672
  162XTA   CO1118139  28.359   1.545   4.779
  162XTA    OA718140  28.167   1.401   4.626
  162XTA   HL4618141  28.257   1.633   4.750
  162XTA   HL4718142  28.344   1.502   4.877
  162XTA   HL4818143  29.417   2.367   2.178
  162XTA   HL4918144  29.342   2.205   2.219
  163XTA     NT18145  30.120   1.740   5.292
  163XTA    CN118146  30.196   1.853   5.324
  163XTA     C118147  30.293   1.847   5.426
  163XTA     C218148  30.365   1.963   5.465
  163XTA     C318149  30.337   2.084   5.404
  163XTA     C418150  30.240   2.092   5.302
  163XTA     C518151  30.172   1.977   5.270
  163XTA    CN218152  30.021   1.701   5.372
  163XTA     C618153  30.028   1.581   5.447
  163XTA     C718154  29.915   1.543   5.518
  163XTA     C818155  29.809   1.628   5.542
  163XTA     C918156  29.809   1.753   5.484
  163XTA    C1018157  29.913   1.782   5.391
  163XTA    CN318158  30.171   1.650   5.210
  163XTA    C1118159  30.300   1.603   5.227
  163XTA    C1218160  30.351   1.507   5.134
  163XTA    C1318161  30.274   1.458   5.030
  163XTA    C1418162  30.145   1.514   5.010
  163XTA    C1518163  30.088   1.599   5.108
  163XTA     H118164  30.302   1.749   5.479
  163XTA     H218165  30.433   1.959   5.549
  163XTA     H318166  30.228   2.187   5.246
  163XTA     H418167  30.092   2.000   5.199
  163XTA     H518168  30.105   1.510   5.442
  163XTA     H618169  29.936   1.448   5.571
  163XTA     H718170  29.726   1.813   5.494
  163XTA     H818171  29.887   1.873   5.329
  163XTA     H918172  30.364   1.636   5.307
  163XTA    H1018173  30.454   1.479   5.143
  163XTA    H1118174  30.080   1.476   4.931
  163XTA    H1218175  29.980   1.623   5.093
  163XTA    OA118176  30.398   2.197   5.439
  163XTA    CO118177  30.304   2.294   5.497
  163XTA    OA218178  29.717   1.588   5.634
  163XTA    CO218179  29.612   1.672   5.686
  163XTA    CL118180  29.473   1.664   5.625
  163XTA    CL218181  29.483   1.701   5.476
  163XTA    CL318182  29.351   1.690   5.392
  163XTA    CL418183  29.300   1.544   5.392
  163XTA    CO318184  29.388   1.449   5.314
  163XTA    OA318185  29.513   1.438   5.390
  163XTA    CO418186  29.578   1.318   5.355
  163XTA    CT118187  29.548   1.202   5.446
  163XTA    CL518188  29.418   1.136   5.395
  163XTA    CL618189  29.389   0.995   5.457
  163XTA    OA418190  30.316   1.368   4.935
  163XTA    CO518191  30.419   1.281   4.978
  163XTA    CL718192  30.543   1.346   4.907
  163XTA    CL818193  30.655   1.245   4.871
  163XTA    CL918194  30.769   1.311   4.790
  163XTA   CL1018195  30.892   1.228   4.753
  163XTA    CO618196  31.008   1.301   4.676
  163XTA    OA518197  30.959   1.370   4.558
  163XTA    CO718198  30.916   1.276   4.466
  163XTA    CT218199  30.859   1.339   4.337
  163XTA   CL1118200  30.754   1.446   4.378
  163XTA   CL1218201  30.670   1.506   4.258
  163XTA    HL118202  30.224   2.322   5.424
  163XTA    HL218203  30.262   2.267   5.589
  163XTA    HL318204  30.355   2.391   5.509
  163XTA    HL418205  29.598   1.634   5.781
  163XTA    HL518206  29.642   1.778   5.699
  163XTA    HL618207  29.421   1.740   5.686
  163XTA    HL718208  29.434   1.568   5.631
  163XTA    HL818209  29.566   1.658   5.414
  163XTA    HL918210  29.497   1.811   5.480
  163XTA   HL1018211  29.276   1.741   5.456
  163XTA   HL1118212  29.366   1.739   5.296
  163XTA   HL1218213  29.199   1.550   5.342
  163XTA   HL1318214  29.277   1.502   5.491
  163XTA   HL1418215  29.335   1.352   5.302
  163XTA   HL1518216  29.406   1.488   5.215
  163XTA   HL1618217  29.572   1.302   5.246
  163XTA   HL1718218  29.683   1.349   5.375
  163XTA   HL1818219  29.417   1.129   5.284
  163XTA   HL1918220  29.338   1.206   5.426
  163XTA   HL2018221  29.461   0.927   5.410
  163XTA   HL2118222  29.288   0.955   5.444
  163XTA   HL2218223  29.417   0.988   5.568
  163XTA   HL2318224  30.396   1.183   4.943
  163XTA   HL2418225  30.430   1.267   5.090
  163XTA   HL2518226  30.515   1.393   4.816
  163XTA   HL2618227  30.567   1.425   4.970
  163XTA   HL2718228  30.695   1.201   4.962
  163XTA   HL2818229  30.608   1.157   4.826
  163XTA   HL2918230  30.736   1.358   4.696
  163XTA   HL3018231  30.822   1.388   4.845
  163XTA   HL3118232  30.937   1.179   4.831
  163XTA   HL3218233  30.863   1.145   4.689
  163XTA   HL3318234  31.052   1.378   4.734
  163XTA   HL3418235  31.088   1.233   4.639
  163XTA   HL3518236  30.846   1.198   4.503
  163XTA   HL3618237  30.993   1.209   4.431
  163XTA   HL3718238  30.811   1.521   4.426
  163XTA   HL3818239  30.669   1.394   4.433
  163XTA   HL3918240  30.608   1.577   4.310
  163XTA   HL4018241  30.599   1.441   4.203
  163XTA   HL4118242  30.739   1.542   4.177
  163XTA    CO818243  29.522   1.256   5.588
  163XTA    CO918244  29.669   1.093   5.444
  163XTA    OA618245  29.770   1.143   5.455
  163XTA   HL4218246  29.596   1.342   5.596
  163XTA   HL4318247  29.408   1.334   5.592
  163XTA   HL4418248  30.878   1.161   4.223
  163XTA   HL4518249  30.754   1.262   4.159
  163XTA   CO1018250  30.797   1.233   4.252
  163XTA   CO1118251  30.975   1.413   4.258
  163XTA    OA718252  31.081   1.332   4.201
  163XTA   HL4618253  30.935   1.475   4.178
  163XTA   HL4718254  31.013   1.485   4.332
  163XTA   HL4818255  29.655   1.047   5.342
  163XTA   HL4918256  29.662   1.012   5.515
  164XTH     NT18257  31.471   3.808   4.070
  164XTH    CN118258  31.343   3.808   4.030
  164XTH     C118259  31.231   3.819   4.124
  164XTH     C218260  31.102   3.804   4.075
  164XTH     C318261  31.070   3.801   3.934
  164XTH     C418262  31.177   3.802   3.847
  164XTH     C518263  31.308   3.795   3.893
  164XTH    CN218264  31.528   3.699   4.129
  164XTH     C618265  31.447   3.592   4.179
  164XTH     C718266  31.501   3.466   4.202
  164XTH     C818267  31.640   3.439   4.190
  164XTH     C918268  31.716   3.547   4.153
  164XTH    C1018269  31.664   3.674   4.124
  164XTH    CN318270  31.537   3.929   4.062
  164XTH    C1118271  31.506   4.035   4.144
  164XTH    C1218272  31.584   4.150   4.144
  164XTH    C1318273  31.697   4.162   4.052
  164XTH    C1418274  31.731   4.059   3.967
  164XTH    C1518275  31.648   3.943   3.972
  164XTH     H118276  31.247   3.823   4.230
  164XTH     H218277  31.026   3.816   4.146
  164XTH     H318278  31.150   3.805   3.737
  164XTH     H418279  31.384   3.800   3.816
  164XTH     H518280  31.336   3.601   4.175
  164XTH     H618281  31.434   3.380   4.231
  164XTH     H718282  31.824   3.534   4.149
  164XTH     H818283  31.740   3.740   4.086
  164XTH     H918284  31.414   4.024   4.199
  164XTH    H1018285  31.551   4.235   4.210
  164XTH    H1118286  31.810   4.066   3.896
  164XTH    H1218287  31.668   3.865   3.905
  164XTH    OA118288  30.941   3.808   3.881
  164XTH    CO118289  30.847   3.752   3.968
  164XTH    OA218290  31.710   3.324   4.225
  164XTH    CO218291  31.642   3.244   4.319
  164XTH    CL118292  31.729   3.130   4.365
  164XTH    CL218293  31.657   3.035   4.453
  164XTH    CL318294  31.632   3.088   4.592
  164XTH    CL418295  31.763   3.093   4.673
  164XTH    CO318296  31.739   3.074   4.827
  164XTH    OA318297  31.667   3.184   4.876
  164XTH    CO418298  31.735   3.302   4.865
  164XTH    CT118299  31.708   3.391   4.994
  164XTH    CL518300  31.784   3.518   4.955
  164XTH    CL618301  31.792   3.626   5.063
  164XTH    OA418302  31.760   4.282   4.048
  164XTH    CO518303  31.845   4.323   3.941
  164XTH    CL718304  31.881   4.476   3.938
  164XTH    CL818305  31.898   4.532   3.796
  164XTH    CL918306  32.007   4.466   3.715
  164XTH   CL1018307  31.983   4.325   3.665
  164XTH    CO618308  32.086   4.294   3.558
  164XTH    OA518309  32.044   4.170   3.501
  164XTH    CO718310  32.142   4.104   3.421
  164XTH    CT218311  32.089   3.970   3.365
  164XTH   CL1118312  31.964   3.971   3.274
  164XTH   CL1218313  31.988   4.032   3.134
  164XTH    HL118314  30.864   3.657   4.014
  164XTH    HL218315  30.833   3.820   4.044
  164XTH    HL318316  30.750   3.739   3.912
  164XTH    HL418317  31.621   3.314   4.403
  164XTH    HL518318  31.549   3.216   4.274
  164XTH    HL618319  31.816   3.173   4.418
  164XTH    HL718320  31.766   3.079   4.280
  164XTH    HL818321  31.714   2.938   4.457
  164XTH    HL918322  31.567   3.016   4.400
  164XTH   HL1018323  31.575   3.179   4.597
  164XTH   HL1118324  31.573   3.011   4.647
  164XTH   HL1218325  31.836   3.166   4.625
  164XTH   HL1318326  31.822   3.002   4.658
  164XTH   HL1418327  31.675   2.984   4.833
  164XTH   HL1518328  31.826   3.054   4.879
  164XTH   HL1618329  31.841   3.282   4.848
  164XTH   HL1718330  31.705   3.356   4.780
  164XTH   HL1818331  31.748   3.563   4.864
  164XTH   HL1918332  31.884   3.503   4.927
  164XTH   HL2018333  31.854   3.705   5.024
  164XTH   HL2118334  31.853   3.586   5.142
  164XTH   HL2218335  31.697   3.658   5.111
  164XTH   HL2318336  31.806   4.287   3.851
  164XTH   HL2418337  31.936   4.268   3.950
  164XTH   HL2518338  31.803   4.537   3.979
  164XTH   HL2618339  31.969   4.500   4.004
  164XTH   HL2718340  31.802   4.530   3.740
  164XTH   HL2818341  31.931   4.632   3.803
  164XTH   HL2918342  32.033   4.535   3.632
  164XTH   HL3018343  32.096   4.455   3.782
  164XTH   HL3118344  31.982   4.234   3.731
  164XTH   HL3218345  31.874   4.331   3.621
  164XTH   HL3318346  32.059   4.374   3.487
  164XTH   HL3418347  32.191   4.295   3.589
  164XTH   HL3518348  32.230   4.083   3.481
  164XTH   HL3618349  32.164   4.168   3.336
  164XTH   HL3718350  31.889   4.027   3.324
  164XTH   HL3818351  31.924   3.864   3.267
  164XTH   HL3918352  32.028   4.132   3.150
  164XTH   HL4018353  31.894   4.029   3.072
  164XTH   HL4118354  32.055   3.975   3.069
  164XTH    CO818355  31.772   3.325   5.113
  164XTH    CO918356  31.557   3.416   5.029
  164XTH    OA618357  31.501   3.327   5.039
  164XTH   HL4218358  31.721   3.227   5.125
  164XTH   HL4318359  31.751   3.389   5.234
  164XTH   HL4418360  32.118   3.897   3.573
  164XTH   HL4518361  31.962   3.928   3.519
  164XTH   CO1018362  32.055   3.885   3.485
  164XTH   CO1118363  32.212   3.891   3.303
  164XTH    OA718364  32.251   3.932   3.172
  164XTH   HL4618365  32.300   3.889   3.374
  164XTH   HL4718366  32.192   3.786   3.300
  164XTH   HL4818367  31.514   3.484   4.955
  164XTH   HL4918368  31.555   3.468   5.124
  165XTA     NT18369  28.068   1.724   8.254
  165XTA    CN118370  27.998   1.822   8.315
  165XTA     C118371  27.875   1.867   8.267
  165XTA     C218372  27.805   1.970   8.336
  165XTA     C318373  27.867   2.030   8.444
  165XTA     C418374  27.989   1.984   8.494
  165XTA     C518375  28.053   1.870   8.434
  165XTA    CN218376  28.063   1.600   8.303
  165XTA     C618377  27.947   1.524   8.304
  165XTA     C718378  27.940   1.404   8.375
  165XTA     C818379  28.045   1.362   8.453
  165XTA     C918380  28.161   1.440   8.457
  165XTA    C1018381  28.179   1.551   8.371
  165XTA    CN318382  28.160   1.742   8.151
  165XTA    C1118383  28.262   1.835   8.164
  165XTA    C1218384  28.359   1.866   8.065
  165XTA    C1318385  28.351   1.792   7.944
  165XTA    C1418386  28.248   1.695   7.924
  165XTA    C1518387  28.156   1.666   8.031
  165XTA     H118388  27.835   1.825   8.174
  165XTA     H218389  27.718   2.002   8.295
  165XTA     H318390  28.041   2.022   8.582
  165XTA     H418391  28.145   1.830   8.474
  165XTA     H518392  27.853   1.549   8.263
  165XTA     H618393  27.848   1.355   8.380
  165XTA     H718394  28.242   1.409   8.522
  165XTA     H818395  28.269   1.603   8.364
  165XTA     H918396  28.268   1.883   8.258
  165XTA    H1018397  28.426   1.944   8.076
  165XTA    H1118398  28.244   1.637   7.833
  165XTA    H1218399  28.083   1.589   8.011
  165XTA    OA118400  27.795   2.134   8.496
  165XTA    CO118401  27.867   2.218   8.585
  165XTA    OA218402  28.026   1.257   8.533
  165XTA    CO218403  28.152   1.183   8.563
  165XTA    CL118404  28.184   1.173   8.713
  165XTA    CL218405  28.294   1.062   8.738
  165XTA    CL318406  28.425   1.114   8.701
  165XTA    CL418407  28.486   1.197   8.809
  165XTA    CO318408  28.621   1.252   8.771
  165XTA    OA318409  28.679   1.340   8.869
  165XTA    CO418410  28.611   1.460   8.895
  165XTA    CT118411  28.704   1.569   8.944
  165XTA    CL518412  28.789   1.619   8.831
  165XTA    CL618413  28.718   1.692   8.717
  165XTA    OA418414  28.428   1.835   7.839
  165XTA    CO518415  28.362   1.897   7.736
  165XTA    CL718416  28.454   1.919   7.615
  165XTA    CL818417  28.465   1.795   7.520
  165XTA    CL918418  28.518   1.811   7.381
  165XTA   CL1018419  28.518   1.679   7.293
  165XTA    CO618420  28.616   1.569   7.337
  165XTA    OA518421  28.574   1.445   7.299
  165XTA    CO718422  28.442   1.407   7.335
  165XTA    CT218423  28.442   1.257   7.353
  165XTA   CL1118424  28.504   1.183   7.241
  165XTA   CL1218425  28.456   1.208   7.098
  165XTA    HL118426  27.955   2.254   8.538
  165XTA    HL218427  27.802   2.292   8.632
  165XTA    HL318428  27.898   2.165   8.670
  165XTA    HL418429  28.132   1.084   8.522
  165XTA    HL518430  28.236   1.218   8.501
  165XTA    HL618431  28.097   1.160   8.763
  165XTA    HL718432  28.228   1.264   8.761
  165XTA    HL818433  28.265   0.974   8.672
  165XTA    HL918434  28.296   1.021   8.838
  165XTA   HL1018435  28.489   1.034   8.670
  165XTA   HL1118436  28.414   1.173   8.610
  165XTA   HL1218437  28.502   1.140   8.894
  165XTA   HL1318438  28.412   1.268   8.842
  165XTA   HL1418439  28.683   1.160   8.761
  165XTA   HL1518440  28.631   1.275   8.665
  165XTA   HL1618441  28.556   1.505   8.810
  165XTA   HL1718442  28.552   1.439   8.986
  165XTA   HL1818443  28.848   1.538   8.795
  165XTA   HL1918444  28.872   1.678   8.876
  165XTA   HL2018445  28.668   1.781   8.746
  165XTA   HL2118446  28.643   1.635   8.660
  165XTA   HL2218447  28.805   1.718   8.653
  165XTA   HL2318448  28.301   1.985   7.760
  165XTA   HL2418449  28.282   1.832   7.706
  165XTA   HL2518450  28.411   1.995   7.545
  165XTA   HL2618451  28.547   1.966   7.648
  165XTA   HL2718452  28.537   1.735   7.562
  165XTA   HL2818453  28.375   1.736   7.527
  165XTA   HL2918454  28.459   1.889   7.334
  165XTA   HL3018455  28.622   1.847   7.390
  165XTA   HL3118456  28.412   1.645   7.282
  165XTA   HL3218457  28.535   1.693   7.186
  165XTA   HL3318458  28.721   1.583   7.296
  165XTA   HL3418459  28.616   1.581   7.448
  165XTA   HL3518460  28.376   1.436   7.254
  165XTA   HL3618461  28.407   1.457   7.430
  165XTA   HL3718462  28.499   1.078   7.260
  165XTA   HL3818463  28.610   1.202   7.250
  165XTA   HL3918464  28.508   1.153   7.023
  165XTA   HL4018465  28.457   1.316   7.067
  165XTA   HL4118466  28.360   1.172   7.088
  165XTA    CO818467  28.801   1.511   9.045
  165XTA    CO918468  28.637   1.693   8.997
  165XTA    OA618469  28.571   1.679   9.124
  165XTA   HL4218470  28.745   1.462   9.126
  165XTA   HL4318471  28.878   1.439   9.009
  165XTA   HL4418472  28.244   1.261   7.459
  165XTA   HL4518473  28.245   1.235   7.291
  165XTA   CO1018474  28.295   1.212   7.378
  165XTA   CO1118475  28.514   1.216   7.481
  165XTA    OA718476  28.287   1.072   7.392
  165XTA   HL4618477  28.491   1.107   7.504
  165XTA   HL4718478  28.621   1.217   7.455
  165XTA   HL4818479  28.565   1.731   8.924
  165XTA   HL4918480  28.719   1.771   9.005
  166XTA     NT18481  27.829   1.549   9.868
  166XTA    CN118482  27.736   1.512   9.964
  166XTA     C118483  27.714   1.595  10.075
  166XTA     C218484  27.622   1.563  10.170
  166XTA     C318485  27.545   1.446  10.162
  166XTA     C418486  27.567   1.363  10.049
  166XTA     C518487  27.662   1.400   9.948
  166XTA    CN218488  27.819   1.667   9.814
  166XTA     C618489  27.721   1.693   9.709
  166XTA     C718490  27.696   1.823   9.670
  166XTA     C818491  27.775   1.931   9.723
  166XTA     C918492  27.879   1.905   9.813
  166XTA    C1018493  27.897   1.774   9.865
  166XTA    CN318494  27.925   1.462   9.820
  166XTA    C1118495  27.991   1.390   9.917
  166XTA    C1218496  28.101   1.302   9.881
  166XTA    C1318497  28.136   1.283   9.745
  166XTA    C1418498  28.064   1.356   9.645
  166XTA    C1518499  27.960   1.450   9.688
  166XTA     H118500  27.778   1.681  10.089
  166XTA     H218501  27.597   1.636  10.251
  166XTA     H318502  27.503   1.278  10.049
  166XTA     H418503  27.696   1.324   9.876
  166XTA     H518504  27.663   1.615   9.669
  166XTA     H618505  27.617   1.847   9.601
  166XTA     H718506  27.935   1.981   9.864
  166XTA     H818507  27.972   1.754   9.940
  166XTA     H918508  27.977   1.413  10.017
  166XTA    H1018509  28.157   1.269   9.968
  166XTA    H1118510  28.084   1.339   9.541
  166XTA    H1218511  27.892   1.486   9.603
  166XTA    OA118512  27.455   1.414  10.257
  166XTA    CO118513  27.482   1.459  10.392
  166XTA    OA218514  27.741   2.061   9.679
  166XTA    CO218515  27.846   2.161   9.664
  166XTA    CL118516  27.898   2.162   9.525
  166XTA    CL218517  28.000   2.271   9.495
  166XTA    CL318518  28.074   2.255   9.363
  166XTA    CL418519  28.176   2.138   9.379
  166XTA    CO318520  28.221   2.101   9.237
  166XTA    OA318521  28.319   2.001   9.231
  166XTA    CO418522  28.271   1.865   9.237
  166XTA    CT118523  28.385   1.762   9.262
  166XTA    CL518524  28.322   1.620   9.281
  166XTA    CL618525  28.215   1.603   9.386
  166XTA    OA418526  28.227   1.199   9.689
  166XTA    CO518527  28.282   1.108   9.777
  166XTA    CL718528  28.379   1.033   9.684
  166XTA    CL818529  28.472   0.957   9.777
  166XTA    CL918530  28.399   0.839   9.847
  166XTA   CL1018531  28.474   0.706   9.858
  166XTA    CO618532  28.496   0.625   9.727
  166XTA    OA518533  28.375   0.572   9.679
  166XTA    CO718534  28.376   0.531   9.541
  166XTA    CT218535  28.261   0.438   9.503
  166XTA   CL1118536  28.137   0.486   9.589
  166XTA   CL1218537  28.089   0.630   9.574
  166XTA    HL118538  27.460   1.565  10.395
  166XTA    HL218539  27.419   1.409  10.467
  166XTA    HL318540  27.581   1.442  10.427
  166XTA    HL418541  27.805   2.265   9.681
  166XTA    HL518542  27.932   2.157   9.736
  166XTA    HL618543  27.814   2.176   9.458
  166XTA    HL718544  27.944   2.069   9.493
  166XTA    HL818545  28.078   2.274   9.571
  166XTA    HL918546  27.953   2.371   9.502
  166XTA   HL1018547  28.007   2.244   9.281
  166XTA   HL1118548  28.134   2.342   9.348
  166XTA   HL1218549  28.132   2.054   9.439
  166XTA   HL1318550  28.257   2.167   9.443
  166XTA   HL1418551  28.142   2.088   9.168
  166XTA   HL1518552  28.277   2.186   9.206
  166XTA   HL1618553  28.206   1.874   9.320
  166XTA   HL1718554  28.222   1.861   9.136
  166XTA   HL1818555  28.403   1.545   9.285
  166XTA   HL1918556  28.265   1.591   9.191
  166XTA   HL2018557  28.130   1.668   9.351
  166XTA   HL2118558  28.264   1.624   9.485
  166XTA   HL2218559  28.189   1.503   9.378
  166XTA   HL2318560  28.205   1.044   9.812
  166XTA   HL2418561  28.335   1.157   9.854
  166XTA   HL2518562  28.311   0.967   9.625
  166XTA   HL2618563  28.442   1.105   9.624
  166XTA   HL2718564  28.557   0.916   9.724
  166XTA   HL2818565  28.505   1.019   9.856
  166XTA   HL2918566  28.353   0.855   9.946
  166XTA   HL3018567  28.316   0.815   9.787
  166XTA   HL3118568  28.577   0.726   9.902
  166XTA   HL3218569  28.415   0.646   9.926
  166XTA   HL3318570  28.532   0.699   9.655
  166XTA   HL3418571  28.558   0.541   9.754
  166XTA   HL3518572  28.476   0.487   9.509
  166XTA   HL3618573  28.368   0.621   9.485
  166XTA   HL3718574  28.145   0.465   9.690
  166XTA   HL3818575  28.056   0.420   9.557
  166XTA   HL3918576  28.142   0.717   9.622
  166XTA   HL4018577  27.990   0.632   9.619
  166XTA   HL4118578  28.073   0.663   9.466
  166XTA    CO818579  28.477   1.793   9.381
  166XTA    CO918580  28.473   1.777   9.139
  166XTA    OA618581  28.420   1.790   9.510
  166XTA   HL4218582  28.536   1.887   9.361
  166XTA   HL4318583  28.551   1.715   9.372
  166XTA   HL4418584  28.442   0.277   9.477
  166XTA   HL4518585  28.257   0.223   9.463
  166XTA   CO1018586  28.311   0.294   9.527
  166XTA   CO1118587  28.220   0.451   9.356
  166XTA    OA718588  28.307   0.433   9.287
  166XTA   HL4618589  28.147   0.372   9.324
  166XTA   HL4718590  28.186   0.556   9.346
  166XTA   HL4818591  28.411   1.788   9.052
  166XTA   HL4918592  28.508   1.882   9.130
  167XTA     NT18593  29.365   2.811   5.884
  167XTA    CN118594  29.262   2.877   5.950
  167XTA     C118595  29.169   2.808   6.031
  167XTA     C218596  29.058   2.883   6.086
  167XTA     C318597  29.044   3.020   6.062
  167XTA     C418598  29.141   3.086   5.988
  167XTA     C518599  29.244   3.013   5.928
  167XTA    CN218600  29.356   2.694   5.818
  167XTA     C618601  29.298   2.685   5.687
  167XTA     C718602  29.280   2.553   5.630
  167XTA     C818603  29.323   2.436   5.699
  167XTA     C918604  29.405   2.457   5.812
  167XTA    C1018605  29.409   2.581   5.876
  167XTA    CN318606  29.478   2.877   5.851
  167XTA    C1118607  29.573   2.902   5.960
  167XTA    C1218608  29.692   2.970   5.935
  167XTA    C1318609  29.726   3.031   5.806
  167XTA    C1418610  29.634   2.998   5.696
  167XTA    C1518611  29.512   2.924   5.721
  167XTA     H118612  29.178   2.704   6.051
  167XTA     H218613  28.987   2.836   6.146
  167XTA     H318614  29.126   3.184   5.955
  167XTA     H418615  29.319   3.056   5.854
  167XTA     H518616  29.246   2.775   5.653
  167XTA     H618617  29.235   2.547   5.528
  167XTA     H718618  29.441   2.365   5.853
  167XTA     H818619  29.446   2.589   5.979
  167XTA     H918620  29.555   2.871   6.061
  167XTA    H1018621  29.763   2.978   6.021
  167XTA    H1118622  29.650   3.045   5.598
  167XTA    H1218623  29.453   2.889   5.637
  167XTA    OA118624  28.941   3.099   6.105
  167XTA    CO118625  28.879   3.060   6.230
  167XTA    OA218626  29.306   2.312   5.646
  167XTA    CO218627  29.242   2.214   5.726
  167XTA    CL118628  29.250   2.075   5.667
  167XTA    CL218629  29.165   1.974   5.746
  167XTA    CL318630  29.227   1.953   5.884
  167XTA    CL418631  29.360   1.879   5.890
  167XTA    CO318632  29.420   1.876   6.024
  167XTA    OA318633  29.466   2.009   6.063
  167XTA    CO418634  29.549   2.015   6.177
  167XTA    CT118635  29.562   2.163   6.205
  167XTA    CL518636  29.421   2.237   6.200
  167XTA    CL618637  29.303   2.188   6.291
  167XTA    OA418638  29.834   3.113   5.800
  167XTA    CO518639  29.899   3.124   5.676
  167XTA    CL718640  29.837   3.234   5.584
  167XTA    CL818641  29.863   3.373   5.643
  167XTA    CL918642  29.851   3.491   5.541
  167XTA   CL1018643  29.706   3.542   5.534
  167XTA    CO618644  29.697   3.685   5.474
  167XTA    OA518645  29.687   3.691   5.336
  167XTA    CO718646  29.554   3.701   5.298
  167XTA    CT218647  29.544   3.737   5.148
  167XTA   CL1118648  29.391   3.749   5.115
  167XTA   CL1218649  29.323   3.874   5.172
  167XTA    HL118650  28.945   3.078   6.320
  167XTA    HL218651  28.792   3.130   6.242
  167XTA    HL318652  28.839   2.962   6.235
  167XTA    HL418653  29.294   2.223   5.826
  167XTA    HL518654  29.139   2.248   5.738
  167XTA    HL618655  29.351   2.039   5.662
  167XTA    HL718656  29.213   2.068   5.565
  167XTA    HL818657  29.170   1.879   5.693
  167XTA    HL918658  29.055   1.999   5.738
  167XTA   HL1018659  29.230   2.051   5.941
  167XTA   HL1118660  29.156   1.898   5.948
  167XTA   HL1218661  29.431   1.916   5.816
  167XTA   HL1318662  29.334   1.770   5.861
  167XTA   HL1418663  29.349   1.840   6.106
  167XTA   HL1518664  29.500   1.810   6.003
  167XTA   HL1618665  29.504   1.959   6.258
  167XTA   HL1718666  29.640   1.962   6.156
  167XTA   HL1818667  29.390   2.237   6.094
  167XTA   HL1918668  29.439   2.342   6.209
  167XTA   HL2018669  29.208   2.224   6.250
  167XTA   HL2118670  29.311   2.207   6.396
  167XTA   HL2218671  29.288   2.085   6.279
  167XTA   HL2318672  29.912   3.024   5.636
  167XTA   HL2418673  30.001   3.160   5.696
  167XTA   HL2518674  29.885   3.232   5.487
  167XTA   HL2618675  29.731   3.220   5.563
  167XTA   HL2718676  29.796   3.391   5.729
  167XTA   HL2818677  29.960   3.372   5.689
  167XTA   HL2918678  29.909   3.577   5.567
  167XTA   HL3018679  29.888   3.457   5.444
  167XTA   HL3118680  29.637   3.472   5.475
  167XTA   HL3218681  29.667   3.536   5.641
  167XTA   HL3318682  29.622   3.749   5.525
  167XTA   HL3418683  29.795   3.736   5.492
  167XTA   HL3518684  29.508   3.777   5.361
  167XTA   HL3618685  29.491   3.616   5.312
  167XTA   HL3718686  29.347   3.670   5.165
  167XTA   HL3818687  29.366   3.741   5.008
  167XTA   HL3918688  29.315   3.863   5.279
  167XTA   HL4018689  29.229   3.897   5.115
  167XTA   HL4118690  29.390   3.959   5.152
  167XTA    CO818691  29.666   2.225   6.114
  167XTA    CO918692  29.622   2.182   6.349
  167XTA    OA618693  29.628   2.216   5.978
  167XTA   HL4218694  29.758   2.168   6.127
  167XTA   HL4318695  29.688   2.330   6.143
  167XTA   HL4418696  29.546   3.537   5.094
  167XTA   HL4518697  29.711   3.623   5.093
  167XTA   CO1018698  29.608   3.626   5.062
  167XTA   CO1118699  29.629   3.867   5.122
  167XTA    OA718700  29.579   3.928   5.005
  167XTA   HL4618701  29.600   3.940   5.210
  167XTA   HL4718702  29.735   3.846   5.126
  167XTA   HL4818703  29.627   2.292   6.357
  167XTA   HL4918704  29.724   2.146   6.354
  168XTH     NT18705  27.889   6.390   6.476
  168XTH    CN118706  27.941   6.276   6.421
  168XTH     C118707  27.858   6.169   6.399
  168XTH     C218708  27.906   6.040   6.362
  168XTH     C318709  28.044   6.019   6.335
  168XTH     C418710  28.129   6.137   6.341
  168XTH     C518711  28.076   6.260   6.388
  168XTH    CN218712  27.855   6.394   6.604
  168XTH     C618713  27.942   6.367   6.711
  168XTH     C718714  27.902   6.375   6.844
  168XTH     C818715  27.767   6.414   6.874
  168XTH     C918716  27.681   6.447   6.772
  168XTH    C1018717  27.723   6.444   6.638
  168XTH    CN318718  27.872   6.494   6.389
  168XTH    C1118719  27.769   6.476   6.295
  168XTH    C1218720  27.735   6.576   6.201
  168XTH    C1318721  27.814   6.692   6.195
  168XTH    C1418722  27.922   6.709   6.286
  168XTH    C1518723  27.943   6.616   6.390
  168XTH     H118724  27.750   6.183   6.427
  168XTH     H218725  27.829   5.967   6.341
  168XTH     H318726  28.231   6.127   6.324
  168XTH     H418727  28.132   6.347   6.403
  168XTH     H518728  28.043   6.335   6.679
  168XTH     H618729  27.963   6.349   6.931
  168XTH     H718730  27.585   6.489   6.794
  168XTH     H818731  27.659   6.485   6.563
  168XTH     H918732  27.708   6.387   6.302
  168XTH    H1018733  27.653   6.573   6.135
  168XTH    H1118734  27.979   6.796   6.278
  168XTH    H1218735  28.011   6.639   6.473
  168XTH    OA118736  28.081   5.900   6.279
  168XTH    CO118737  28.208   5.914   6.206
  168XTH    OA218738  27.730   6.415   7.009
  168XTH    CO218739  27.609   6.356   7.048
  168XTH    CL118740  27.616   6.203   7.081
  168XTH    CL218741  27.488   6.136   7.139
  168XTH    CL318742  27.493   5.981   7.147
  168XTH    CL418743  27.363   5.945   7.217
  168XTH    CO318744  27.345   5.789   7.238
  168XTH    OA318745  27.408   5.725   7.353
  168XTH    CO418746  27.541   5.712   7.331
  168XTH    CT118747  27.611   5.613   7.425
  168XTH    CL518748  27.565   5.477   7.387
  168XTH    CL618749  27.595   5.361   7.483
  168XTH    OA418750  27.777   6.777   6.095
  168XTH    CO518751  27.820   6.908   6.105
  168XTH    CL718752  27.948   6.930   6.018
  168XTH    CL818753  28.005   7.075   6.020
  168XTH    CL918754  27.959   7.143   5.886
  168XTH   CL1018755  28.006   7.287   5.871
  168XTH    CO618756  27.989   7.344   5.732
  168XTH    OA518757  28.045   7.471   5.731
  168XTH    CO718758  28.186   7.463   5.717
  168XTH    CT218759  28.239   7.604   5.712
  168XTH   CL1118760  28.240   7.653   5.566
  168XTH   CL1218761  28.110   7.633   5.488
  168XTH    HL118762  28.199   5.981   6.126
  168XTH    HL218763  28.289   5.955   6.269
  168XTH    HL318764  28.240   5.821   6.166
  168XTH    HL418765  27.575   6.417   7.133
  168XTH    HL518766  27.528   6.363   6.964
  168XTH    HL618767  27.703   6.193   7.142
  168XTH    HL718768  27.643   6.158   6.982
  168XTH    HL818769  27.407   6.163   7.071
  168XTH    HL918770  27.459   6.177   7.229
  168XTH   HL1018771  27.503   5.946   7.040
  168XTH   HL1118772  27.583   5.952   7.208
  168XTH   HL1218773  27.285   5.979   7.149
  168XTH   HL1318774  27.336   5.996   7.308
  168XTH   HL1418775  27.236   5.769   7.255
  168XTH   HL1518776  27.359   5.738   7.146
  168XTH   HL1618777  27.565   5.692   7.226
  168XTH   HL1718778  27.590   5.811   7.353
  168XTH   HL1818779  27.585   5.453   7.283
  168XTH   HL1918780  27.458   5.484   7.388
  168XTH   HL2018781  27.554   5.360   7.576
  168XTH   HL2118782  27.698   5.349   7.497
  168XTH   HL2218783  27.564   5.265   7.438
  168XTH   HL2318784  27.822   6.937   6.215
  168XTH   HL2418785  27.734   6.965   6.071
  168XTH   HL2518786  28.030   6.862   6.044
  168XTH   HL2618787  27.935   6.901   5.912
  168XTH   HL2718788  27.956   7.133   6.101
  168XTH   HL2818789  28.111   7.074   6.032
  168XTH   HL2918790  28.005   7.093   5.803
  168XTH   HL3018791  27.852   7.145   5.869
  168XTH   HL3118792  27.952   7.351   5.942
  168XTH   HL3218793  28.110   7.278   5.900
  168XTH   HL3318794  28.034   7.280   5.659
  168XTH   HL3418795  27.886   7.345   5.697
  168XTH   HL3518796  28.221   7.414   5.622
  168XTH   HL3618797  28.233   7.417   5.804
  168XTH   HL3718798  28.330   7.601   5.525
  168XTH   HL3818799  28.263   7.757   5.559
  168XTH   HL3918800  28.084   7.523   5.485
  168XTH   HL4018801  28.129   7.656   5.387
  168XTH   HL4118802  28.019   7.678   5.526
  168XTH    CO818803  27.579   5.653   7.565
  168XTH    CO918804  27.766   5.626   7.399
  168XTH    OA618805  27.794   5.615   7.293
  168XTH   HL4218806  27.471   5.661   7.582
  168XTH   HL4318807  27.618   5.554   7.648
  168XTH   HL4418808  28.369   7.551   5.885
  168XTH   HL4518809  28.455   7.548   5.722
  168XTH   CO1018810  28.382   7.598   5.781
  168XTH   CO1118811  28.156   7.700   5.792
  168XTH    OA718812  28.425   7.729   5.793
  168XTH   HL4618813  28.053   7.714   5.757
  168XTH   HL4718814  28.203   7.795   5.777
  168XTH   HL4818815  27.832   5.558   7.458
  168XTH   HL4918816  27.789   5.729   7.423
  169XTA     NT18817  26.048   5.275  -0.793
  169XTA    CN118818  25.927   5.242  -0.746
  169XTA     C118819  25.916   5.165  -0.630
  169XTA     C218820  25.788   5.126  -0.577
  169XTA     C318821  25.676   5.140  -0.657
  169XTA     C418822  25.685   5.231  -0.765
  169XTA     C518823  25.811   5.278  -0.811
  169XTA    CN218824  26.068   5.401  -0.831
  169XTA     C618825  26.089   5.495  -0.730
  169XTA     C718826  26.093   5.632  -0.759
  169XTA     C818827  26.096   5.674  -0.894
  169XTA     C918828  26.085   5.578  -0.996
  169XTA    C1018829  26.071   5.439  -0.966
  169XTA    CN318830  26.122   5.181  -0.854
  169XTA    C1118831  26.245   5.154  -0.795
  169XTA    C1218832  26.329   5.061  -0.861
  169XTA    C1318833  26.299   4.997  -0.986
  169XTA    C1418834  26.175   5.029  -1.045
  169XTA    C1518835  26.082   5.117  -0.976
  169XTA     H118836  26.006   5.130  -0.590
  169XTA     H218837  25.782   5.063  -0.488
  169XTA     H318838  25.594   5.265  -0.812
  169XTA     H418839  25.815   5.353  -0.893
  169XTA     H518840  26.104   5.461  -0.628
  169XTA     H618841  26.092   5.706  -0.678
  169XTA     H718842  26.092   5.608  -1.096
  169XTA     H818843  26.067   5.355  -1.039
  169XTA     H918844  26.280   5.195  -0.702
  169XTA    H1018845  26.417   5.046  -0.805
  169XTA    H1118846  26.157   4.979  -1.134
  169XTA    H1218847  25.992   5.142  -1.026
  169XTA    OA118848  25.554   5.089  -0.619
  169XTA    CO118849  25.450   5.112  -0.711
  169XTA    OA218850  26.086   5.805  -0.920
  169XTA    CO218851  26.145   5.851  -1.039
  169XTA    CL118852  26.124   5.996  -1.030
  169XTA    CL218853  26.181   6.086  -1.151
  169XTA    CL318854  26.151   6.037  -1.294
  169XTA    CL418855  25.994   6.060  -1.310
  169XTA    CO318856  25.936   5.988  -1.426
  169XTA    OA318857  25.949   5.849  -1.393
  169XTA    CO418858  25.860   5.764  -1.463
  169XTA    CT118859  25.908   5.618  -1.441
  169XTA    CL518860  25.920   5.588  -1.286
  169XTA    CL618861  25.789   5.583  -1.192
  169XTA    OA418862  26.375   4.901  -1.045
  169XTA    CO518863  26.469   4.837  -0.957
  169XTA    CL718864  26.509   4.701  -1.011
  169XTA    CL818865  26.571   4.604  -0.909
  169XTA    CL918866  26.495   4.556  -0.779
  169XTA   CL1018867  26.388   4.453  -0.819
  169XTA    CO618868  26.248   4.517  -0.799
  169XTA    OA518869  26.225   4.499  -0.662
  169XTA    CO718870  26.124   4.582  -0.612
  169XTA    CT218871  26.145   4.605  -0.460
  169XTA   CL1118872  26.179   4.482  -0.376
  169XTA   CL1218873  26.067   4.372  -0.370
  169XTA    HL118874  25.425   5.215  -0.720
  169XTA    HL218875  25.476   5.068  -0.812
  169XTA    HL318876  25.358   5.058  -0.677
  169XTA    HL418877  26.235   5.812  -1.067
  169XTA    HL518878  26.086   5.822  -1.125
  169XTA    HL618879  26.152   6.023  -0.929
  169XTA    HL718880  26.016   6.009  -1.027
  169XTA    HL818881  26.291   6.085  -1.142
  169XTA    HL918882  26.139   6.184  -1.148
  169XTA   HL1018883  26.210   6.086  -1.372
  169XTA   HL1118884  26.186   5.932  -1.301
  169XTA   HL1218885  25.963   6.164  -1.324
  169XTA   HL1318886  25.942   6.041  -1.223
  169XTA   HL1418887  25.828   6.001  -1.430
  169XTA   HL1518888  25.984   6.010  -1.522
  169XTA   HL1618889  25.759   5.782  -1.422
  169XTA   HL1718890  25.862   5.787  -1.571
  169XTA   HL1818891  25.975   5.668  -1.243
  169XTA   HL1918892  25.982   5.494  -1.268
  169XTA   HL2018893  25.814   5.586  -1.085
  169XTA   HL2118894  25.715   5.503  -1.193
  169XTA   HL2218895  25.727   5.671  -1.202
  169XTA   HL2318896  26.421   4.830  -0.859
  169XTA   HL2418897  26.564   4.887  -0.965
  169XTA   HL2518898  26.421   4.649  -1.039
  169XTA   HL2618899  26.571   4.695  -1.101
  169XTA   HL2718900  26.625   4.519  -0.964
  169XTA   HL2818901  26.655   4.664  -0.880
  169XTA   HL2918902  26.562   4.497  -0.717
  169XTA   HL3018903  26.457   4.643  -0.724
  169XTA   HL3118904  26.414   4.424  -0.924
  169XTA   HL3218905  26.385   4.363  -0.761
  169XTA   HL3318906  26.260   4.623  -0.828
  169XTA   HL3418907  26.164   4.488  -0.858
  169XTA   HL3518908  26.023   4.544  -0.642
  169XTA   HL3618909  26.122   4.678  -0.666
  169XTA   HL3718910  26.218   4.489  -0.272
  169XTA   HL3818911  26.266   4.428  -0.419
  169XTA   HL3918912  26.061   4.340  -0.470
  169XTA   HL4018913  25.966   4.413  -0.350
  169XTA   HL4118914  26.093   4.290  -0.293
  169XTA    CO818915  26.041   5.585  -1.511
  169XTA    CO918916  25.797   5.525  -1.493
  169XTA    OA618917  25.824   5.389  -1.455
  169XTA   HL4218918  26.109   5.655  -1.487
  169XTA   HL4318919  26.083   5.499  -1.471
  169XTA   HL4418920  25.981   4.739  -0.474
  169XTA   HL4518921  25.987   4.658  -0.314
  169XTA   CO1018922  26.043   4.694  -0.398
  169XTA   CO1118923  26.252   4.716  -0.430
  169XTA    OA718924  26.149   4.785  -0.359
  169XTA   HL4618925  26.335   4.678  -0.372
  169XTA   HL4718926  26.280   4.753  -0.528
  169XTA   HL4818927  25.787   5.546  -1.601
  169XTA   HL4918928  25.714   5.561  -1.436
  170XTA     NT18929  25.767   4.001   6.125
  170XTA    CN118930  25.759   4.079   6.236
  170XTA     C118931  25.790   4.023   6.364
  170XTA     C218932  25.771   4.093   6.482
  170XTA     C318933  25.741   4.229   6.484
  170XTA     C418934  25.712   4.289   6.359
  170XTA     C518935  25.723   4.216   6.237
  170XTA    CN218936  25.895   3.997   6.068
  170XTA     C618937  25.921   4.053   5.944
  170XTA     C718938  26.051   4.041   5.885
  170XTA     C818939  26.152   3.975   5.949
  170XTA     C918940  26.128   3.911   6.073
  170XTA    C1018941  25.997   3.927   6.130
  170XTA    CN318942  25.655   3.954   6.068
  170XTA    C1118943  25.562   4.042   6.019
  170XTA    C1218944  25.452   3.996   5.944
  170XTA    C1318945  25.431   3.861   5.926
  170XTA    C1418946  25.527   3.775   5.985
  170XTA    C1518947  25.636   3.817   6.056
  170XTA     H118948  25.811   3.911   6.372
  170XTA     H218949  25.785   4.035   6.570
  170XTA     H318950  25.676   4.390   6.363
  170XTA     H418951  25.698   4.268   6.145
  170XTA     H518952  25.837   4.106   5.889
  170XTA     H618953  26.076   4.081   5.773
  170XTA     H718954  26.203   3.854   6.132
  170XTA     H818955  25.979   3.871   6.218
  170XTA     H918956  25.581   4.145   6.027
  170XTA    H1018957  25.379   4.062   5.904
  170XTA    H1118958  25.512   3.672   6.004
  170XTA    H1218959  25.702   3.746   6.097
  170XTA    OA118960  25.716   4.285   6.606
  170XTA    CO118961  25.688   4.424   6.619
  170XTA    OA218962  26.282   3.990   5.901
  170XTA    CO218963  26.302   4.017   5.763
  170XTA    CL118964  26.449   3.988   5.733
  170XTA    CL218965  26.512   4.019   5.594
  170XTA    CL318966  26.467   3.923   5.482
  170XTA    CL418967  26.518   3.777   5.511
  170XTA    CO318968  26.516   3.683   5.391
  170XTA    OA318969  26.606   3.738   5.294
  170XTA    CO418970  26.659   3.640   5.209
  170XTA    CT118971  26.753   3.700   5.100
  170XTA    CL518972  26.894   3.718   5.154
  170XTA    CL618973  26.978   3.596   5.174
  170XTA    OA418974  25.314   3.819   5.864
  170XTA    CO518975  25.314   3.690   5.809
  170XTA    CL718976  25.213   3.669   5.699
  170XTA    CL818977  25.225   3.770   5.585
  170XTA    CL918978  25.170   3.913   5.609
  170XTA   CL1018979  25.014   3.931   5.593
  170XTA    CO618980  24.966   4.073   5.556
  170XTA    OA518981  25.012   4.090   5.423
  170XTA    CO718982  25.019   4.230   5.383
  170XTA    CT218983  25.043   4.269   5.233
  170XTA   CL1118984  25.125   4.402   5.210
  170XTA   CL1218985  25.097   4.495   5.088
  170XTA    HL118986  25.703   4.475   6.716
  170XTA    HL218987  25.747   4.479   6.549
  170XTA    HL318988  25.588   4.453   6.588
  170XTA    HL418989  26.237   3.959   5.700
  170XTA    HL518990  26.278   4.128   5.750
  170XTA    HL618991  26.466   3.884   5.761
  170XTA    HL718992  26.512   4.043   5.807
  170XTA    HL818993  26.624   4.009   5.598
  170XTA    HL918994  26.489   4.121   5.574
  170XTA   HL1018995  26.359   3.919   5.463
  170XTA   HL1118996  26.504   3.970   5.386
  170XTA   HL1218997  26.454   3.737   5.586
  170XTA   HL1318998  26.621   3.781   5.542
  170XTA   HL1418999  26.554   3.581   5.425
  170XTA   HL1519000  26.417   3.676   5.347
  170XTA   HL1619001  26.709   3.568   5.268
  170XTA   HL1719002  26.572   3.597   5.158
  170XTA   HL1819003  26.894   3.788   5.239
  170XTA   HL1919004  26.957   3.771   5.079
  170XTA   HL2019005  26.996   3.550   5.078
  170XTA   HL2119006  26.925   3.523   5.237
  170XTA   HL2219007  27.080   3.611   5.209
  170XTA   HL2319008  25.302   3.609   5.881
  170XTA   HL2419009  25.415   3.673   5.778
  170XTA   HL2519010  25.223   3.568   5.656
  170XTA   HL2619011  25.111   3.662   5.738
  170XTA   HL2719012  25.328   3.787   5.555
  170XTA   HL2819013  25.173   3.727   5.499
  170XTA   HL2919014  25.213   3.963   5.696
  170XTA   HL3019015  25.203   3.965   5.520
  170XTA   HL3119016  24.973   3.870   5.516
  170XTA   HL3219017  24.965   3.905   5.689
  170XTA   HL3319018  24.853   4.083   5.564
  170XTA   HL3419019  25.010   4.151   5.617
  170XTA   HL3519020  25.109   4.258   5.440
  170XTA   HL3619021  24.932   4.289   5.421
  170XTA   HL3719022  25.230   4.370   5.189
  170XTA   HL3819023  25.124   4.455   5.301
  170XTA   HL3919024  25.174   4.572   5.078
  170XTA   HL4019025  25.007   4.554   5.106
  170XTA   HL4119026  25.085   4.439   5.001
  170XTA    CO819027  26.690   3.832   5.053
  170XTA    CO919028  26.748   3.615   4.968
  170XTA    OA619029  26.719   3.512   4.996
  170XTA   HL4219030  26.589   3.815   5.016
  170XTA   HL4319031  26.680   3.914   5.164
  170XTA   HL4419032  24.863   4.372   5.205
  170XTA   HL4519033  24.914   4.281   5.054
  170XTA   CO1019034  24.899   4.277   5.164
  170XTA   CO1119035  25.099   4.158   5.145
  170XTA    OA719036  24.822   4.204   5.193
  170XTA   HL4619037  25.083   4.183   5.008
  170XTA   HL4719038  25.031   4.074   5.155
  170XTA   HL4819039  26.844   3.624   4.919
  170XTA   HL4919040  26.666   3.644   4.899
  171XTA     NT19041  27.750   4.828  -0.236
  171XTA    CN119042  27.630   4.772  -0.234
  171XTA     C119043  27.527   4.829  -0.154
  171XTA     C219044  27.410   4.764  -0.142
  171XTA     C319045  27.378   4.650  -0.220
  171XTA     C419046  27.477   4.594  -0.310
  171XTA     C519047  27.601   4.660  -0.313
  171XTA    CN219048  27.801   4.883  -0.348
  171XTA     C619049  27.884   4.811  -0.432
  171XTA     C719050  27.959   4.873  -0.533
  171XTA     C819051  27.943   5.012  -0.556
  171XTA     C919052  27.847   5.081  -0.484
  171XTA    C1019053  27.780   5.020  -0.378
  171XTA    CN319054  27.814   4.849  -0.124
  171XTA    C1119055  27.827   4.978  -0.063
  171XTA    C1219056  27.893   4.988   0.061
  171XTA    C1319057  27.954   4.879   0.120
  171XTA    C1419058  27.937   4.755   0.065
  171XTA    C1519059  27.863   4.740  -0.052
  171XTA     H119060  27.535   4.917  -0.095
  171XTA     H219061  27.336   4.803  -0.066
  171XTA     H319062  27.457   4.516  -0.382
  171XTA     H419063  27.685   4.621  -0.379
  171XTA     H519064  27.889   4.701  -0.423
  171XTA     H619065  28.029   4.810  -0.589
  171XTA     H719066  27.820   5.186  -0.509
  171XTA     H819067  27.704   5.060  -0.309
  171XTA     H919068  27.780   5.061  -0.109
  171XTA    H1019069  27.892   5.083   0.108
  171XTA    H1119070  27.976   4.671   0.121
  171XTA    H1219071  27.847   4.640  -0.089
  171XTA    OA119072  27.256   4.594  -0.196
  171XTA    CO119073  27.215   4.498  -0.288
  171XTA    OA219074  28.023   5.063  -0.651
  171XTA    CO219075  28.100   5.177  -0.609
  171XTA    CL119076  28.070   5.290  -0.708
  171XTA    CL219077  28.144   5.415  -0.645
  171XTA    CL319078  28.071   5.549  -0.670
  171XTA    CL419079  28.149   5.674  -0.623
  171XTA    CO319080  28.069   5.796  -0.662
  171XTA    OA319081  27.938   5.793  -0.610
  171XTA    CO419082  27.872   5.916  -0.604
  171XTA    CT119083  27.743   5.897  -0.527
  171XTA    CL519084  27.648   6.012  -0.540
  171XTA    CL619085  27.691   6.149  -0.481
  171XTA    OA419086  28.020   4.891   0.244
  171XTA    CO519087  28.048   4.773   0.313
  171XTA    CL719088  28.090   4.813   0.457
  171XTA    CL819089  27.969   4.837   0.549
  171XTA    CL919090  27.859   4.919   0.481
  171XTA   CL1019091  27.748   4.955   0.587
  171XTA    CO619092  27.642   5.056   0.536
  171XTA    OA519093  27.588   5.000   0.426
  171XTA    CO719094  27.481   5.076   0.369
  171XTA    CT219095  27.466   5.038   0.224
  171XTA   CL1119096  27.605   5.050   0.161
  171XTA   CL1219097  27.645   5.198   0.151
  171XTA    HL119098  27.117   4.468  -0.259
  171XTA    HL219099  27.207   4.530  -0.389
  171XTA    HL319100  27.273   4.406  -0.276
  171XTA    HL419101  28.069   5.207  -0.513
  171XTA    HL519102  28.202   5.148  -0.613
  171XTA    HL619103  27.963   5.302  -0.717
  171XTA    HL719104  28.107   5.275  -0.810
  171XTA    HL819105  28.251   5.428  -0.663
  171XTA    HL919106  28.122   5.397  -0.538
  171XTA   HL1019107  28.075   5.565  -0.779
  171XTA   HL1119108  27.975   5.548  -0.621
  171XTA   HL1219109  28.238   5.664  -0.682
  171XTA   HL1319110  28.172   5.672  -0.519
  171XTA   HL1419111  28.115   5.893  -0.630
  171XTA   HL1519112  28.062   5.797  -0.767
  171XTA   HL1619113  27.934   5.994  -0.558
  171XTA   HL1719114  27.853   5.957  -0.702
  171XTA   HL1819115  27.559   5.983  -0.485
  171XTA   HL1919116  27.622   6.029  -0.640
  171XTA   HL2019117  27.613   6.226  -0.488
  171XTA   HL2119118  27.770   6.195  -0.546
  171XTA   HL2219119  27.717   6.153  -0.375
  171XTA   HL2319120  28.120   4.717   0.267
  171XTA   HL2419121  27.965   4.702   0.320
  171XTA   HL2519122  28.148   4.735   0.500
  171XTA   HL2619123  28.152   4.907   0.456
  171XTA   HL2719124  27.929   4.746   0.595
  171XTA   HL2819125  28.011   4.903   0.620
  171XTA   HL2919126  27.902   5.009   0.439
  171XTA   HL3019127  27.823   4.861   0.402
  171XTA   HL3119128  27.689   4.869   0.618
  171XTA   HL3219129  27.794   4.992   0.677
  171XTA   HL3319130  27.571   5.070   0.615
  171XTA   HL3419131  27.688   5.156   0.512
  171XTA   HL3519132  27.509   5.182   0.376
  171XTA   HL3619133  27.395   5.067   0.430
  171XTA   HL3719134  27.606   5.003   0.056
  171XTA   HL3819135  27.684   4.996   0.216
  171XTA   HL3919136  27.664   5.241   0.256
  171XTA   HL4019137  27.575   5.258   0.090
  171XTA   HL4119138  27.736   5.218   0.099
  171XTA    CO819139  27.782   5.879  -0.377
  171XTA    CO919140  27.676   5.773  -0.569
  171XTA    OA619141  27.628   5.775  -0.705
  171XTA   HL4219142  27.832   5.785  -0.365
  171XTA   HL4319143  27.863   5.936  -0.343
  171XTA   HL4419144  27.254   5.118   0.199
  171XTA   HL4519145  27.370   5.238   0.170
  171XTA   CO1019146  27.353   5.127   0.155
  171XTA   CO1119147  27.420   4.895   0.200
  171XTA    OA719148  27.336   5.104   0.019
  171XTA   HL4619149  27.468   4.830   0.271
  171XTA   HL4719150  27.459   4.855   0.102
  171XTA   HL4819151  27.597   5.754  -0.503
  171XTA   HL4919152  27.741   5.690  -0.554
  172XTA     NT19153  27.737   3.069   0.868
  172XTA    CN119154  27.801   3.090   0.981
  172XTA     C119155  27.733   3.098   1.104
  172XTA     C219156  27.794   3.132   1.225
  172XTA     C319157  27.937   3.152   1.220
  172XTA     C419158  28.005   3.135   1.101
  172XTA     C519159  27.939   3.110   0.983
  172XTA    CN219160  27.687   2.940   0.843
  172XTA     C619161  27.758   2.846   0.767
  172XTA     C719162  27.718   2.712   0.762
  172XTA     C819163  27.598   2.670   0.822
  172XTA     C919164  27.519   2.765   0.879
  172XTA    C1019165  27.560   2.899   0.887
  172XTA    CN319166  27.746   3.166   0.772
  172XTA    C1119167  27.845   3.163   0.679
  172XTA    C1219168  27.853   3.265   0.578
  172XTA    C1319169  27.751   3.363   0.569
  172XTA    C1419170  27.643   3.352   0.658
  172XTA    C1519171  27.636   3.253   0.762
  172XTA     H119172  27.623   3.073   1.115
  172XTA     H219173  27.729   3.131   1.319
  172XTA     H319174  28.114   3.145   1.090
  172XTA     H419175  27.998   3.104   0.891
  172XTA     H519176  27.855   2.875   0.721
  172XTA     H619177  27.786   2.639   0.722
  172XTA     H719178  27.430   2.731   0.921
  172XTA     H819179  27.496   2.967   0.942
  172XTA     H919180  27.940   3.102   0.676
  172XTA    H1019181  27.937   3.273   0.519
  172XTA    H1119182  27.558   3.419   0.653
  172XTA    H1219183  27.557   3.247   0.826
  172XTA    OA119184  27.994   3.186   1.341
  172XTA    CO119185  28.137   3.217   1.330
  172XTA    OA219186  27.551   2.539   0.816
  172XTA    CO219187  27.658   2.440   0.822
  172XTA    CL119188  27.683   2.373   0.685
  172XTA    CL219189  27.577   2.279   0.625
  172XTA    CL319190  27.539   2.316   0.479
  172XTA    CL419191  27.455   2.447   0.466
  172XTA    CO319192  27.390   2.475   0.330
  172XTA    OA319193  27.316   2.601   0.340
  172XTA    CO419194  27.402   2.717   0.359
  172XTA    CT119195  27.329   2.856   0.351
  172XTA    CL519196  27.431   2.971   0.380
  172XTA    CL619197  27.498   2.970   0.520
  172XTA    OA419198  27.780   3.477   0.493
  172XTA    CO519199  27.729   3.603   0.530
  172XTA    CL719200  27.697   3.691   0.410
  172XTA    CL819201  27.636   3.834   0.439
  172XTA    CL919202  27.623   3.912   0.308
  172XTA   CL1019203  27.495   3.874   0.235
  172XTA    CO619204  27.473   3.968   0.116
  172XTA    OA519205  27.342   3.927   0.067
  172XTA    CO719206  27.296   4.032  -0.024
  172XTA    CT219207  27.150   4.001  -0.070
  172XTA   CL1119208  27.109   4.117  -0.164
  172XTA   CL1219209  26.995   4.079  -0.251
  172XTA    HL119210  28.206   3.133   1.323
  172XTA    HL219211  28.157   3.294   1.251
  172XTA    HL319212  28.169   3.263   1.428
  172XTA    HL419213  27.757   2.479   0.864
  172XTA    HL519214  27.615   2.367   0.898
  172XTA    HL619215  27.774   2.312   0.682
  172XTA    HL719216  27.704   2.452   0.616
  172XTA    HL819217  27.506   2.293   0.703
  172XTA    HL919218  27.596   2.175   0.635
  172XTA   HL1019219  27.627   2.320   0.412
  172XTA   HL1119220  27.469   2.239   0.431
  172XTA   HL1219221  27.521   2.529   0.488
  172XTA   HL1319222  27.380   2.450   0.539
  172XTA   HL1419223  27.463   2.495   0.245
  172XTA   HL1519224  27.328   2.387   0.302
  172XTA   HL1619225  27.448   2.713   0.455
  172XTA   HL1719226  27.481   2.715   0.288
  172XTA   HL1819227  27.380   3.067   0.375
  172XTA   HL1919228  27.513   2.967   0.313
  172XTA   HL2019229  27.556   3.063   0.537
  172XTA   HL2119230  27.557   2.879   0.534
  172XTA   HL2219231  27.419   2.963   0.597
  172XTA   HL2319232  27.781   3.660   0.610
  172XTA   HL2419233  27.630   3.604   0.573
  172XTA   HL2519234  27.784   3.692   0.342
  172XTA   HL2619235  27.627   3.625   0.357
  172XTA   HL2719236  27.536   3.833   0.486
  172XTA   HL2819237  27.708   3.884   0.499
  172XTA   HL2919238  27.599   4.015   0.336
  172XTA   HL3019239  27.712   3.915   0.239
  172XTA   HL3119240  27.484   3.769   0.198
  172XTA   HL3219241  27.409   3.882   0.306
  172XTA   HL3319242  27.473   4.070   0.134
  172XTA   HL3419243  27.548   3.946   0.047
  172XTA   HL3519244  27.369   4.023  -0.100
  172XTA   HL3619245  27.291   4.134   0.023
  172XTA   HL3719246  27.199   4.146  -0.218
  172XTA   HL3819247  27.078   4.212  -0.104
  172XTA   HL3919248  26.963   4.154  -0.318
  172XTA   HL4019249  26.908   4.038  -0.201
  172XTA   HL4119250  27.027   3.997  -0.309
  172XTA    CO819251  27.227   2.859   0.467
  172XTA    CO919252  27.259   2.874   0.216
  172XTA    OA619253  27.313   2.909   0.132
  172XTA   HL4219254  27.141   2.789   0.445
  172XTA   HL4319255  27.289   2.801   0.579
  172XTA   HL4419256  27.093   3.918   0.123
  172XTA   HL4519257  27.054   4.099   0.095
  172XTA   CO1019258  27.059   4.000   0.054
  172XTA   CO1119259  27.164   3.867  -0.148
  172XTA    OA719260  26.958   3.970   0.016
  172XTA   HL4619261  27.212   3.763  -0.056
  172XTA   HL4719262  27.067   3.842  -0.178
  172XTA   HL4819263  27.175   2.942   0.239
  172XTA   HL4919264  27.192   2.793   0.192
  173XTA     NT19265  30.312   4.345   4.267
  173XTA    CN119266  30.392   4.249   4.317
  173XTA     C119267  30.372   4.183   4.440
  173XTA     C219268  30.454   4.077   4.484
  173XTA     C319269  30.572   4.051   4.415
  173XTA     C419270  30.589   4.110   4.292
  173XTA     C519271  30.500   4.206   4.240
  173XTA    CN219272  30.343   4.477   4.285
  173XTA     C619273  30.329   4.578   4.187
  173XTA     C719274  30.351   4.717   4.218
  173XTA     C819275  30.408   4.755   4.337
  173XTA     C919276  30.432   4.652   4.430
  173XTA    C1019277  30.400   4.517   4.408
  173XTA    CN319278  30.183   4.315   4.263
  173XTA    C1119279  30.133   4.215   4.177
  173XTA    C1219280  29.995   4.199   4.166
  173XTA    C1319281  29.906   4.243   4.265
  173XTA    C1419282  29.953   4.335   4.363
  173XTA    C1519283  30.089   4.369   4.358
  173XTA     H119284  30.300   4.224   4.507
  173XTA     H219285  30.432   4.028   4.573
  173XTA     H319286  30.677   4.092   4.226
  173XTA     H419287  30.519   4.260   4.148
  173XTA     H519288  30.276   4.561   4.099
  173XTA     H619289  30.302   4.780   4.154
  173XTA     H719290  30.474   4.684   4.524
  173XTA     H819291  30.432   4.434   4.480
  173XTA     H919292  30.206   4.164   4.125
  173XTA    H1019293  29.946   4.139   4.086
  173XTA    H1119294  29.884   4.394   4.428
  173XTA    H1219295  30.119   4.438   4.431
  173XTA    OA119296  30.675   3.972   4.459
  173XTA    CO119297  30.639   3.886   4.570
  173XTA    OA219298  30.417   4.889   4.373
  173XTA    CO219299  30.372   4.989   4.282
  173XTA    CL119300  30.393   5.125   4.331
  173XTA    CL219301  30.537   5.163   4.353
  173XTA    CL319302  30.618   5.169   4.222
  173XTA    CL419303  30.762   5.231   4.244
  173XTA    CO319304  30.873   5.136   4.298
  173XTA    OA319305  30.839   5.078   4.427
  173XTA    CO419306  30.833   5.171   4.532
  173XTA    CT119307  30.800   5.110   4.673
  173XTA    CL519308  30.790   5.216   4.784
  173XTA    CL619309  30.679   5.326   4.762
  173XTA    OA419310  29.776   4.208   4.254
  173XTA    CO519311  29.679   4.244   4.354
  173XTA    CL719312  29.553   4.173   4.311
  173XTA    CL819313  29.551   4.025   4.360
  173XTA    CL919314  29.410   3.964   4.349
  173XTA   CL1019315  29.409   3.817   4.371
  173XTA    CO619316  29.426   3.782   4.523
  173XTA    OA519317  29.570   3.784   4.546
  173XTA    CO719318  29.613   3.764   4.676
  173XTA    CT219319  29.666   3.619   4.712
  173XTA   CL1119320  29.585   3.505   4.662
  173XTA   CL1219321  29.457   3.479   4.744
  173XTA    HL119322  30.640   3.928   4.665
  173XTA    HL219323  30.540   3.851   4.564
  173XTA    HL319324  30.694   3.795   4.577
  173XTA    HL419325  30.428   4.973   4.187
  173XTA    HL519326  30.266   4.963   4.265
  173XTA    HL619327  30.335   5.134   4.425
  173XTA    HL719328  30.362   5.201   4.256
  173XTA    HL819329  30.588   5.092   4.416
  173XTA    HL919330  30.533   5.258   4.413
  173XTA   HL1019331  30.631   5.066   4.185
  173XTA   HL1119332  30.565   5.225   4.140
  173XTA   HL1219333  30.742   5.317   4.311
  173XTA   HL1319334  30.791   5.271   4.140
  173XTA   HL1419335  30.892   5.051   4.238
  173XTA   HL1519336  30.961   5.197   4.318
  173XTA   HL1619337  30.930   5.227   4.534
  173XTA   HL1719338  30.767   5.256   4.518
  173XTA   HL1819339  30.890   5.251   4.792
  173XTA   HL1919340  30.780   5.181   4.887
  173XTA   HL2019341  30.673   5.388   4.850
  173XTA   HL2119342  30.578   5.279   4.744
  173XTA   HL2219343  30.709   5.388   4.682
  173XTA   HL2319344  29.675   4.354   4.361
  173XTA   HL2419345  29.711   4.210   4.454
  173XTA   HL2519346  29.469   4.221   4.360
  173XTA   HL2619347  29.518   4.181   4.210
  173XTA   HL2719348  29.622   3.969   4.296
  173XTA   HL2819349  29.589   4.013   4.467
  173XTA   HL2919350  29.348   4.021   4.422
  173XTA   HL3019351  29.366   3.989   4.256
  173XTA   HL3119352  29.307   3.782   4.342
  173XTA   HL3219353  29.490   3.757   4.307
  173XTA   HL3319354  29.371   3.852   4.585
  173XTA   HL3419355  29.399   3.678   4.547
  173XTA   HL3519356  29.533   3.802   4.750
  173XTA   HL3619357  29.693   3.836   4.683
  173XTA   HL3719358  29.637   3.410   4.682
  173XTA   HL3819359  29.566   3.520   4.553
  173XTA   HL3919360  29.475   3.470   4.847
  173XTA   HL4019361  29.406   3.392   4.697
  173XTA   HL4119362  29.380   3.561   4.731
  173XTA    CO819363  30.880   4.990   4.706
  173XTA    CO919364  30.675   5.012   4.675
  173XTA    OA619365  30.760   4.918   4.734
  173XTA   HL4219366  30.941   5.004   4.793
  173XTA   HL4319367  30.935   4.950   4.617
  173XTA   HL4419368  29.725   3.509   4.895
  173XTA   HL4519369  29.770   3.680   4.899
  173XTA   CO1019370  29.696   3.610   4.862
  173XTA   CO1119371  29.811   3.611   4.656
  173XTA    OA719372  29.606   3.638   4.923
  173XTA   HL4619373  29.870   3.487   4.675
  173XTA   HL4719374  29.866   3.669   4.723
  173XTA   HL4819375  30.647   4.977   4.574
  173XTA   HL4919376  30.591   5.040   4.725
  174XTA     NT19377  27.217   1.682   5.371
  174XTA    CN119378  27.321   1.683   5.279
  174XTA     C119379  27.423   1.586   5.301
  174XTA     C219380  27.528   1.579   5.204
  174XTA     C319381  27.534   1.666   5.092
  174XTA     C419382  27.422   1.758   5.078
  174XTA     C519383  27.319   1.768   5.171
  174XTA    CN219384  27.234   1.677   5.511
  174XTA     C619385  27.299   1.781   5.587
  174XTA     C719386  27.314   1.763   5.724
  174XTA     C819387  27.267   1.642   5.786
  174XTA     C919388  27.184   1.553   5.713
  174XTA    C1019389  27.176   1.564   5.571
  174XTA    CN319390  27.091   1.656   5.323
  174XTA    C1119391  27.057   1.527   5.270
  174XTA    C1219392  26.934   1.503   5.211
  174XTA    C1319393  26.836   1.601   5.237
  174XTA    C1419394  26.860   1.722   5.306
  174XTA    C1519395  26.989   1.749   5.347
  174XTA     H119396  27.415   1.523   5.385
  174XTA     H219397  27.615   1.512   5.227
  174XTA     H319398  27.417   1.830   4.995
  174XTA     H419399  27.238   1.835   5.148
  174XTA     H519400  27.330   1.866   5.532
  174XTA     H619401  27.373   1.840   5.781
  174XTA     H719402  27.148   1.463   5.752
  174XTA     H819403  27.123   1.492   5.514
  174XTA     H919404  27.135   1.457   5.267
  174XTA    H1019405  26.910   1.413   5.162
  174XTA    H1119406  26.772   1.790   5.313
  174XTA    H1219407  27.025   1.830   5.400
  174XTA    OA119408  27.640   1.663   4.999
  174XTA    CO119409  27.593   1.678   4.864
  174XTA    OA219410  27.302   1.604   5.912
  174XTA    CO219411  27.422   1.667   5.960
  174XTA    CL119412  27.494   1.578   6.057
  174XTA    CL219413  27.416   1.547   6.190
  174XTA    CL319414  27.494   1.459   6.291
  174XTA    CL419415  27.433   1.479   6.435
  174XTA    CO319416  27.516   1.414   6.543
  174XTA    OA319417  27.460   1.451   6.666
  174XTA    CO419418  27.554   1.423   6.771
  174XTA    CT119419  27.499   1.453   6.911
  174XTA    CL519420  27.485   1.597   6.913
  174XTA    CL619421  27.457   1.657   7.060
  174XTA    OA419422  26.703   1.592   5.201
  174XTA    CO519423  26.652   1.460   5.180
  174XTA    CL719424  26.503   1.455   5.136
  174XTA    CL819425  26.495   1.511   4.996
  174XTA    CL919426  26.360   1.510   4.922
  174XTA   CL1019427  26.305   1.372   4.893
  174XTA    CO619428  26.404   1.267   4.829
  174XTA    OA519429  26.468   1.189   4.931
  174XTA    CO719430  26.572   1.100   4.889
  174XTA    CT219431  26.619   1.012   5.006
  174XTA   CL1119432  26.717   0.898   4.962
  174XTA   CL1219433  26.660   0.784   4.878
  174XTA    HL119434  27.522   1.599   4.847
  174XTA    HL219435  27.540   1.771   4.857
  174XTA    HL319436  27.669   1.676   4.792
  174XTA    HL419437  27.491   1.688   5.880
  174XTA    HL519438  27.388   1.763   5.993
  174XTA    HL619439  27.596   1.613   6.082
  174XTA    HL719440  27.511   1.481   6.006
  174XTA    HL819441  27.325   1.504   6.156
  174XTA    HL919442  27.379   1.630   6.243
  174XTA   HL1019443  27.483   1.354   6.259
  174XTA   HL1119444  27.597   1.492   6.281
  174XTA   HL1219445  27.338   1.433   6.435
  174XTA   HL1319446  27.417   1.579   6.467
  174XTA   HL1419447  27.521   1.305   6.524
  174XTA   HL1519448  27.618   1.457   6.533
  174XTA   HL1619449  27.565   1.319   6.763
  174XTA   HL1719450  27.657   1.461   6.757
  174XTA   HL1819451  27.410   1.640   6.846
  174XTA   HL1919452  27.576   1.655   6.898
  174XTA   HL2019453  27.452   1.767   7.053
  174XTA   HL2119454  27.547   1.637   7.118
  174XTA   HL2219455  27.368   1.623   7.112
  174XTA   HL2319456  26.660   1.401   5.267
  174XTA   HL2419457  26.706   1.417   5.098
  174XTA   HL2519458  26.475   1.350   5.136
  174XTA   HL2619459  26.431   1.497   5.206
  174XTA   HL2719460  26.534   1.612   5.000
  174XTA   HL2819461  26.570   1.465   4.934
  174XTA   HL2919462  26.297   1.584   4.976
  174XTA   HL3019463  26.374   1.562   4.823
  174XTA   HL3119464  26.268   1.311   4.974
  174XTA   HL3219465  26.220   1.384   4.824
  174XTA   HL3319466  26.341   1.203   4.761
  174XTA   HL3419467  26.481   1.322   4.764
  174XTA   HL3519468  26.650   1.161   4.857
  174XTA   HL3619469  26.541   1.042   4.805
  174XTA   HL3719470  26.755   0.855   5.057
  174XTA   HL3819471  26.808   0.930   4.924
  174XTA   HL3919472  26.737   0.729   4.826
  174XTA   HL4019473  26.579   0.815   4.813
  174XTA   HL4119474  26.615   0.710   4.948
  174XTA    CO819475  27.604   1.406   7.009
  174XTA    CO919476  27.367   1.380   6.959
  174XTA    OA619477  27.367   1.246   6.945
  174XTA   HL4219478  27.615   1.301   6.983
  174XTA   HL4319479  27.709   1.442   6.978
  174XTA   HL4419480  26.421   0.907   5.011
  174XTA   HL4519481  26.534   0.858   5.146
  174XTA   CO1019482  26.498   0.945   5.082
  174XTA   CO1119483  26.689   1.108   5.111
  174XTA    OA719484  26.436   1.046   5.164
  174XTA   HL4619485  26.756   1.172   5.045
  174XTA   HL4719486  26.607   1.158   5.158
  174XTA   HL4819487  27.285   1.423   6.904
  174XTA   HL4919488  27.355   1.398   7.062
  175XTA     NT19489  28.773   4.138   5.183
  175XTA    CN119490  28.687   4.153   5.289
  175XTA     C119491  28.602   4.265   5.290
  175XTA     C219492  28.509   4.285   5.396
  175XTA     C319493  28.507   4.205   5.511
  175XTA     C419494  28.595   4.093   5.518
  175XTA     C519495  28.681   4.071   5.407
  175XTA    CN219496  28.792   4.011   5.131
  175XTA     C619497  28.691   3.911   5.145
  175XTA     C719498  28.721   3.773   5.120
  175XTA     C819499  28.856   3.734   5.087
  175XTA     C919500  28.956   3.837   5.070
  175XTA    C1019501  28.920   3.972   5.081
  175XTA    CN319502  28.832   4.249   5.130
  175XTA    C1119503  28.815   4.274   4.996
  175XTA    C1219504  28.888   4.371   4.929
  175XTA    C1319505  28.977   4.452   5.001
  175XTA    C1419506  28.984   4.435   5.143
  175XTA    C1519507  28.929   4.324   5.204
  175XTA     H119508  28.592   4.331   5.210
  175XTA     H219509  28.444   4.371   5.391
  175XTA     H319510  28.601   4.021   5.608
  175XTA     H419511  28.743   3.983   5.414
  175XTA     H519512  28.597   3.950   5.185
  175XTA     H619513  28.633   3.705   5.135
  175XTA     H719514  29.060   3.807   5.056
  175XTA     H819515  28.993   4.051   5.075
  175XTA     H919516  28.755   4.202   4.941
  175XTA    H1019517  28.876   4.389   4.819
  175XTA    H1119518  29.044   4.503   5.200
  175XTA    H1219519  28.933   4.319   5.310
  175XTA    OA119520  28.434   4.222   5.625
  175XTA    CO119521  28.463   4.346   5.680
  175XTA    OA219522  28.898   3.607   5.070
  175XTA    CO219523  28.801   3.501   5.082
  175XTA    CL119524  28.878   3.366   5.089
  175XTA    CL219525  28.814   3.261   5.188
  175XTA    CL319526  28.679   3.204   5.134
  175XTA    CL419527  28.630   3.087   5.214
  175XTA    CO319528  28.517   3.015   5.142
  175XTA    OA319529  28.513   2.883   5.185
  175XTA    CO419530  28.386   2.837   5.223
  175XTA    CT119531  28.432   2.717   5.309
  175XTA    CL519532  28.521   2.611   5.232
  175XTA    CL619533  28.538   2.477   5.305
  175XTA    OA419534  29.057   4.548   4.943
  175XTA    CO519535  29.022   4.620   4.824
  175XTA    CL719536  29.091   4.758   4.826
  175XTA    CL819537  29.061   4.838   4.956
  175XTA    CL919538  29.144   4.964   4.971
  175XTA   CL1019539  29.101   5.072   5.074
  175XTA    CO619540  29.189   5.189   5.061
  175XTA    OA519541  29.198   5.265   5.179
  175XTA    CO719542  29.317   5.343   5.173
  175XTA    CT219543  29.320   5.435   5.297
  175XTA   CL1119544  29.211   5.542   5.285
  175XTA   CL1219545  29.223   5.647   5.174
  175XTA    HL119546  28.462   4.432   5.607
  175XTA    HL219547  28.384   4.355   5.757
  175XTA    HL319548  28.556   4.342   5.729
  175XTA    HL419549  28.746   3.525   5.171
  175XTA    HL519550  28.724   3.499   4.999
  175XTA    HL619551  28.979   3.387   5.117
  175XTA    HL719552  28.896   3.320   4.991
  175XTA    HL819553  28.800   3.293   5.287
  175XTA    HL919554  28.885   3.176   5.201
  175XTA   HL1019555  28.608   3.285   5.106
  175XTA   HL1119556  28.693   3.164   5.038
  175XTA   HL1219557  28.601   3.095   5.317
  175XTA   HL1319558  28.710   3.006   5.213
  175XTA   HL1419559  28.420   3.062   5.154
  175XTA   HL1519560  28.537   3.002   5.034
  175XTA   HL1619561  28.324   2.912   5.279
  175XTA   HL1719562  28.329   2.809   5.134
  175XTA   HL1819563  28.620   2.655   5.221
  175XTA   HL1919564  28.486   2.583   5.129
  175XTA   HL2019565  28.596   2.413   5.244
  175XTA   HL2119566  28.450   2.422   5.340
  175XTA   HL2219567  28.592   2.500   5.403
  175XTA   HL2319568  28.919   4.625   4.844
  175XTA   HL2419569  29.032   4.558   4.732
  175XTA   HL2519570  29.194   4.736   4.815
  175XTA   HL2619571  29.049   4.809   4.737
  175XTA   HL2719572  28.957   4.863   4.962
  175XTA   HL2819573  29.066   4.775   5.045
  175XTA   HL2919574  29.238   4.928   4.985
  175XTA   HL3019575  29.157   5.018   4.870
  175XTA   HL3119576  29.002   5.104   5.053
  175XTA   HL3219577  29.114   5.035   5.177
  175XTA   HL3319578  29.283   5.153   5.022
  175XTA   HL3419579  29.153   5.261   4.985
  175XTA   HL3519580  29.318   5.409   5.091
  175XTA   HL3619581  29.403   5.279   5.174
  175XTA   HL3719582  29.216   5.599   5.374
  175XTA   HL3819583  29.114   5.500   5.284
  175XTA   HL3919584  29.155   5.732   5.190
  175XTA   HL4019585  29.178   5.607   5.083
  175XTA   HL4119586  29.326   5.690   5.155
  175XTA    CO819587  28.301   2.662   5.367
  175XTA    CO919588  28.514   2.771   5.425
  175XTA    OA619589  28.241   2.613   5.291
  175XTA   HL4219590  28.244   2.739   5.426
  175XTA   HL4319591  28.314   2.580   5.440
  175XTA   HL4419592  29.502   5.550   5.220
  175XTA   HL4519593  29.454   5.572   5.393
  175XTA   CO1019594  29.464   5.498   5.314
  175XTA   CO1119595  29.294   5.358   5.428
  175XTA    OA719596  29.542   5.422   5.332
  175XTA   HL4619597  29.379   5.249   5.442
  175XTA   HL4719598  29.201   5.296   5.408
  175XTA   HL4819599  28.633   2.837   5.378
  175XTA   HL4919600  28.552   2.691   5.488
  176XTA     NT19601  25.317   4.494   5.802
  176XTA    CN119602  25.212   4.526   5.720
  176XTA     C119603  25.088   4.458   5.737
  176XTA     C219604  24.996   4.462   5.638
  176XTA     C319605  25.014   4.540   5.520
  176XTA     C419606  25.135   4.607   5.505
  176XTA     C519607  25.234   4.602   5.602
  176XTA    CN219608  25.409   4.409   5.762
  176XTA     C619609  25.546   4.441   5.782
  176XTA     C719610  25.640   4.339   5.761
  176XTA     C819611  25.600   4.209   5.718
  176XTA     C919612  25.468   4.192   5.669
  176XTA    C1019613  25.373   4.298   5.695
  176XTA    CN319614  25.324   4.549   5.924
  176XTA    C1119615  25.300   4.690   5.940
  176XTA    C1219616  25.289   4.747   6.069
  176XTA    C1319617  25.294   4.668   6.186
  176XTA    C1419618  25.318   4.525   6.173
  176XTA    C1519619  25.329   4.473   6.040
  176XTA     H119620  25.077   4.401   5.830
  176XTA     H219621  24.900   4.414   5.646
  176XTA     H319622  25.159   4.662   5.413
  176XTA     H419623  25.328   4.643   5.572
  176XTA     H519624  25.569   4.543   5.821
  176XTA     H619625  25.741   4.367   5.786
  176XTA     H719626  25.434   4.091   5.645
  176XTA     H819627  25.274   4.282   5.656
  176XTA     H919628  25.289   4.748   5.851
  176XTA    H1019629  25.264   4.854   6.085
  176XTA    H1119630  25.323   4.472   6.267
  176XTA    H1219631  25.342   4.358   6.037
  176XTA    OA119632  24.911   4.538   5.434
  176XTA    CO119633  24.869   4.674   5.391
  176XTA    OA219634  25.699   4.112   5.718
  176XTA    CO219635  25.654   3.987   5.673
  176XTA    CL119636  25.758   3.884   5.709
  176XTA    CL219637  25.706   3.753   5.643
  176XTA    CL319638  25.816   3.643   5.638
  176XTA    CL419639  25.753   3.509   5.595
  176XTA    CO319640  25.812   3.474   5.458
  176XTA    OA319641  25.759   3.568   5.366
  176XTA    CO419642  25.790   3.535   5.232
  176XTA    CT119643  25.728   3.629   5.129
  176XTA    CL519644  25.775   3.769   5.143
  176XTA    CL619645  25.926   3.793   5.142
  176XTA    OA419646  25.283   4.732   6.307
  176XTA    CO519647  25.395   4.691   6.387
  176XTA    CL719648  25.451   4.803   6.483
  176XTA    CL819649  25.540   4.730   6.586
  176XTA    CL919650  25.632   4.820   6.668
  176XTA   CL1019651  25.743   4.882   6.583
  176XTA    CO619652  25.839   4.967   6.666
  176XTA    OA519653  25.756   5.059   6.737
  176XTA    CO719654  25.811   5.100   6.864
  176XTA    CT219655  25.710   5.176   6.949
  176XTA   CL1119656  25.750   5.191   7.100
  176XTA   CL1219657  25.765   5.059   7.183
  176XTA    HL119658  24.779   4.661   5.327
  176XTA    HL219659  24.830   4.736   5.473
  176XTA    HL319660  24.948   4.734   5.337
  176XTA    HL419661  25.561   3.951   5.718
  176XTA    HL519662  25.649   3.994   5.564
  176XTA    HL619663  25.781   3.874   5.816
  176XTA    HL719664  25.854   3.922   5.669
  176XTA    HL819665  25.669   3.770   5.543
  176XTA    HL919666  25.623   3.715   5.704
  176XTA   HL1019667  25.886   3.687   5.565
  176XTA   HL1119668  25.869   3.642   5.729
  176XTA   HL1219669  25.641   3.518   5.592
  176XTA   HL1319670  25.773   3.442   5.675
  176XTA   HL1419671  25.921   3.468   5.452
  176XTA   HL1519672  25.771   3.377   5.429
  176XTA   HL1619673  25.902   3.541   5.224
  176XTA   HL1719674  25.765   3.428   5.218
  176XTA   HL1819675  25.726   3.821   5.231
  176XTA   HL1919676  25.729   3.818   5.058
  176XTA   HL2019677  25.977   3.770   5.234
  176XTA   HL2119678  25.947   3.895   5.127
  176XTA   HL2219679  25.985   3.748   5.063
  176XTA   HL2319680  25.477   4.665   6.324
  176XTA   HL2419681  25.362   4.603   6.444
  176XTA   HL2519682  25.507   4.867   6.426
  176XTA   HL2619683  25.376   4.849   6.548
  176XTA   HL2719684  25.470   4.660   6.644
  176XTA   HL2819685  25.604   4.651   6.533
  176XTA   HL2919686  25.573   4.893   6.718
  176XTA   HL3019687  25.667   4.757   6.750
  176XTA   HL3119688  25.802   4.801   6.545
  176XTA   HL3219689  25.705   4.938   6.497
  176XTA   HL3319690  25.893   4.915   6.747
  176XTA   HL3419691  25.918   5.023   6.603
  176XTA   HL3519692  25.901   5.165   6.850
  176XTA   HL3619693  25.842   5.017   6.919
  176XTA   HL3719694  25.684   5.261   7.152
  176XTA   HL3819695  25.850   5.234   7.091
  176XTA   HL3919696  25.782   5.082   7.298
  176XTA   HL4019697  25.849   5.002   7.139
  176XTA   HL4119698  25.681   4.993   7.177
  176XTA    CO819699  25.573   3.623   5.160
  176XTA    CO919700  25.752   3.571   4.987
  176XTA    OA619701  25.512   3.730   5.091
  176XTA   HL4219702  25.544   3.637   5.265
  176XTA   HL4319703  25.524   3.523   5.145
  176XTA   HL4419704  25.528   5.132   6.829
  176XTA   HL4519705  25.578   5.013   6.957
  176XTA   CO1019706  25.568   5.117   6.931
  176XTA   CO1119707  25.707   5.315   6.873
  176XTA    OA719708  25.503   5.179   7.002
  176XTA   HL4619709  25.646   5.297   6.742
  176XTA   HL4719710  25.632   5.371   6.933
  176XTA   HL4819711  25.846   3.602   4.952
  176XTA   HL4919712  25.683   3.623   4.923
  177XTH     NT19713  25.208   4.236  -0.742
  177XTH    CN119714  25.242   4.115  -0.797
  177XTH     C119715  25.257   4.122  -0.936
  177XTH     C219716  25.294   4.005  -1.003
  177XTH     C319717  25.326   3.888  -0.939
  177XTH     C419718  25.329   3.889  -0.797
  177XTH     C519719  25.284   3.996  -0.723
  177XTH    CN219720  25.289   4.320  -0.671
  177XTH     C619721  25.354   4.279  -0.555
  177XTH     C719722  25.440   4.368  -0.488
  177XTH     C819723  25.471   4.495  -0.541
  177XTH     C919724  25.415   4.534  -0.667
  177XTH    C1019725  25.320   4.445  -0.727
  177XTH    CN319726  25.076   4.262  -0.723
  177XTH    C1119727  25.014   4.237  -0.594
  177XTH    C1219728  24.887   4.280  -0.579
  177XTH    C1319729  24.819   4.358  -0.674
  177XTH    C1419730  24.882   4.389  -0.795
  177XTH    C1519731  25.006   4.338  -0.817
  177XTH     H119732  25.226   4.208  -0.991
  177XTH     H219733  25.299   4.005  -1.112
  177XTH     H319734  25.368   3.805  -0.742
  177XTH     H419735  25.288   3.997  -0.613
  177XTH     H519736  25.338   4.178  -0.518
  177XTH     H619737  25.479   4.343  -0.390
  177XTH     H719738  25.427   4.623  -0.722
  177XTH     H819739  25.277   4.476  -0.825
  177XTH     H919740  25.071   4.177  -0.519
  177XTH    H1019741  24.851   4.261  -0.478
  177XTH    H1119742  24.840   4.455  -0.864
  177XTH    H1219743  25.037   4.374  -0.914
  177XTH    OA119744  25.366   3.782  -1.012
  177XTH    CO119745  25.342   3.654  -0.956
  177XTH    OA219746  25.556   4.574  -0.469
  177XTH    CO219747  25.601   4.690  -0.530
  177XTH    CL119748  25.720   4.737  -0.447
  177XTH    CL219749  25.681   4.836  -0.345
  177XTH    CL319750  25.784   4.856  -0.235
  177XTH    CL419751  25.752   4.974  -0.139
  177XTH    CO319752  25.606   4.969  -0.097
  177XTH    OA319753  25.607   5.043   0.024
  177XTH    CO419754  25.621   5.180   0.002
  177XTH    CT119755  25.642   5.259   0.141
  177XTH    CL519756  25.513   5.247   0.233
  177XTH    CL619757  25.384   5.314   0.180
  177XTH    OA419758  24.688   4.402  -0.643
  177XTH    CO519759  24.598   4.453  -0.745
  177XTH    CL719760  24.612   4.606  -0.756
  177XTH    CL819761  24.581   4.648  -0.895
  177XTH    CL919762  24.563   4.808  -0.901
  177XTH   CL1019763  24.566   4.852  -1.051
  177XTH    CO619764  24.710   4.857  -1.103
  177XTH    OA519765  24.724   4.847  -1.241
  177XTH    CO719766  24.864   4.822  -1.272
  177XTH    CT219767  24.916   4.830  -1.413
  177XTH   CL1119768  25.064   4.844  -1.418
  177XTH   CL1219769  25.139   4.844  -1.553
  177XTH    HL119770  25.422   3.618  -0.890
  177XTH    HL219771  25.252   3.644  -0.898
  177XTH    HL319772  25.344   3.573  -1.031
  177XTH    HL419773  25.624   4.664  -0.631
  177XTH    HL519774  25.519   4.752  -0.533
  177XTH    HL619775  25.792   4.786  -0.513
  177XTH    HL719776  25.784   4.653  -0.413
  177XTH    HL819777  25.591   4.795  -0.302
  177XTH    HL919778  25.667   4.925  -0.402
  177XTH   HL1019779  25.803   4.763  -0.184
  177XTH   HL1119780  25.874   4.896  -0.277
  177XTH   HL1219781  25.766   5.065  -0.188
  177XTH   HL1319782  25.817   4.988  -0.050
  177XTH   HL1419783  25.530   5.012  -0.166
  177XTH   HL1519784  25.578   4.860  -0.080
  177XTH   HL1619785  25.697   5.212  -0.060
  177XTH   HL1719786  25.526   5.202  -0.052
  177XTH   HL1819787  25.540   5.303   0.322
  177XTH   HL1919788  25.492   5.149   0.264
  177XTH   HL2019789  25.291   5.295   0.239
  177XTH   HL2119790  25.359   5.285   0.076
  177XTH   HL2219791  25.393   5.418   0.169
  177XTH   HL2319792  24.508   4.424  -0.700
  177XTH   HL2419793  24.617   4.407  -0.838
  177XTH   HL2519794  24.534   4.647  -0.692
  177XTH   HL2619795  24.705   4.642  -0.724
  177XTH   HL2719796  24.660   4.611  -0.960
  177XTH   HL2819797  24.482   4.601  -0.917
  177XTH   HL2919798  24.460   4.821  -0.861
  177XTH   HL3019799  24.633   4.865  -0.839
  177XTH   HL3119800  24.497   4.783  -1.107
  177XTH   HL3219801  24.518   4.950  -1.067
  177XTH   HL3319802  24.759   4.947  -1.060
  177XTH   HL3419803  24.772   4.771  -1.064
  177XTH   HL3519804  24.892   4.719  -1.230
  177XTH   HL3619805  24.918   4.903  -1.227
  177XTH   HL3719806  25.111   4.756  -1.373
  177XTH   HL3819807  25.086   4.930  -1.359
  177XTH   HL3919808  25.248   4.847  -1.521
  177XTH   HL4019809  25.136   4.937  -1.607
  177XTH   HL4119810  25.125   4.768  -1.628
  177XTH    CO819811  25.672   5.404   0.107
  177XTH    CO919812  25.759   5.198   0.220
  177XTH    OA619813  25.728   5.490   0.206
  177XTH   HL4219814  25.587   5.439   0.059
  177XTH   HL4319815  25.759   5.406   0.035
  177XTH   HL4419816  24.866   4.914  -1.612
  177XTH   HL4519817  24.746   4.924  -1.475
  177XTH   CO1019818  24.851   4.936  -1.501
  177XTH   CO1119819  24.886   4.704  -1.483
  177XTH    OA719820  24.748   4.662  -1.480
  177XTH   HL4619821  24.913   4.693  -1.586
  177XTH   HL4719822  24.927   4.627  -1.431
  177XTH   HL4819823  25.764   5.246   0.317
  177XTH   HL4919824  25.748   5.089   0.208
  178XTA     NT19825  28.673   6.424   0.982
  178XTA    CN119826  28.731   6.511   1.066
  178XTA     C119827  28.781   6.628   1.015
  178XTA     C219828  28.862   6.714   1.096
  178XTA     C319829  28.880   6.693   1.232
  178XTA     C419830  28.825   6.574   1.289
  178XTA     C519831  28.752   6.485   1.206
  178XTA    CN219832  28.742   6.340   0.899
  178XTA     C619833  28.843   6.260   0.959
  178XTA     C719834  28.911   6.159   0.879
  178XTA     C819835  28.878   6.146   0.744
  178XTA     C919836  28.783   6.225   0.677
  178XTA    C1019837  28.717   6.322   0.760
  178XTA    CN319838  28.538   6.406   0.991
  178XTA    C1119839  28.451   6.500   0.951
  178XTA    C1219840  28.311   6.486   0.969
  178XTA    C1319841  28.257   6.377   1.039
  178XTA    C1419842  28.349   6.278   1.079
  178XTA    C1519843  28.488   6.285   1.050
  178XTA     H119844  28.781   6.641   0.905
  178XTA     H219845  28.913   6.790   1.049
  178XTA     H319846  28.845   6.543   1.390
  178XTA     H419847  28.703   6.398   1.246
  178XTA     H519848  28.861   6.264   1.068
  178XTA     H619849  28.981   6.096   0.914
  178XTA     H719850  28.755   6.212   0.575
  178XTA     H819851  28.637   6.375   0.717
  178XTA     H919852  28.486   6.590   0.895
  178XTA    H1019853  28.233   6.542   0.920
  178XTA    H1119854  28.299   6.194   1.117
  178XTA    H1219855  28.549   6.206   1.092
  178XTA    OA119856  28.938   6.786   1.309
  178XTA    CO119857  28.932   6.923   1.277
  178XTA    OA219858  28.927   6.045   0.666
  178XTA    CO219859  28.917   5.908   0.715
  178XTA    CL119860  28.773   5.863   0.724
  178XTA    CL219861  28.762   5.712   0.754
  178XTA    CL319862  28.628   5.680   0.819
  178XTA    CL419863  28.621   5.537   0.872
  178XTA    CO319864  28.633   5.421   0.765
  178XTA    OA319865  28.592   5.295   0.823
  178XTA    CO419866  28.535   5.206   0.731
  178XTA    CT119867  28.528   5.059   0.779
  178XTA    CL519868  28.667   5.001   0.810
  178XTA    CL619869  28.769   5.030   0.699
  178XTA    OA419870  28.119   6.361   1.055
  178XTA    CO519871  28.049   6.351   0.930
  178XTA    CL719872  27.897   6.324   0.950
  178XTA    CL819873  27.868   6.191   1.024
  178XTA    CL919874  27.718   6.162   1.009
  178XTA   CL1019875  27.675   6.031   1.069
  178XTA    CO619876  27.530   6.011   1.038
  178XTA    OA519877  27.439   6.113   1.086
  178XTA    CO719878  27.378   6.080   1.204
  178XTA    CT219879  27.288   6.194   1.258
  178XTA   CL1119880  27.222   6.156   1.392
  178XTA   CL1219881  27.161   6.270   1.477
  178XTA    HL119882  28.820   6.949   1.289
  178XTA    HL219883  28.983   6.989   1.346
  178XTA    HL319884  28.954   6.947   1.174
  178XTA    HL419885  28.960   5.851   0.636
  178XTA    HL519886  28.971   5.882   0.808
  178XTA    HL619887  28.718   5.879   0.627
  178XTA    HL719888  28.736   5.920   0.811
  178XTA    HL819889  28.845   5.677   0.821
  178XTA    HL919890  28.781   5.661   0.661
  178XTA   HL1019891  28.603   5.743   0.907
  178XTA   HL1119892  28.548   5.684   0.747
  178XTA   HL1219893  28.530   5.549   0.938
  178XTA   HL1319894  28.702   5.520   0.945
  178XTA   HL1419895  28.582   5.449   0.669
  178XTA   HL1519896  28.743   5.422   0.748
  178XTA   HL1619897  28.439   5.250   0.703
  178XTA   HL1719898  28.607   5.213   0.647
  178XTA   HL1819899  28.650   4.895   0.829
  178XTA   HL1919900  28.703   5.040   0.904
  178XTA   HL2019901  28.796   5.137   0.705
  178XTA   HL2119902  28.722   4.995   0.604
  178XTA   HL2219903  28.857   4.975   0.726
  178XTA   HL2319904  28.095   6.272   0.874
  178XTA   HL2419905  28.055   6.442   0.872
  178XTA   HL2519906  27.858   6.410   1.004
  178XTA   HL2619907  27.852   6.329   0.851
  178XTA   HL2719908  27.916   6.118   0.958
  178XTA   HL2819909  27.902   6.190   1.124
  178XTA   HL2919910  27.660   6.237   1.057
  178XTA   HL3019911  27.691   6.172   0.909
  178XTA   HL3119912  27.735   5.949   1.023
  178XTA   HL3219913  27.694   6.039   1.174
  178XTA   HL3319914  27.512   6.007   0.927
  178XTA   HL3419915  27.491   5.917   1.078
  178XTA   HL3519916  27.460   6.053   1.268
  178XTA   HL3619917  27.315   5.995   1.188
  178XTA   HL3719918  27.303   6.125   1.453
  178XTA   HL3819919  27.158   6.069   1.373
  178XTA   HL3919920  27.239   6.339   1.510
  178XTA   HL4019921  27.127   6.231   1.574
  178XTA   HL4119922  27.080   6.338   1.428
  178XTA    CO819923  28.447   4.974   0.692
  178XTA    CO919924  28.422   5.037   0.881
  178XTA    OA619925  28.403   4.918   0.785
  178XTA   HL4219926  28.503   4.922   0.615
  178XTA   HL4319927  28.374   5.026   0.635
  178XTA   HL4419928  27.145   6.324   1.156
  178XTA   HL4519929  27.252   6.254   1.049
  178XTA   CO1019930  27.192   6.232   1.143
  178XTA   CO1119931  27.389   6.311   1.282
  178XTA    OA719932  27.091   6.134   1.120
  178XTA   HL4619933  27.463   6.318   1.200
  178XTA   HL4719934  27.449   6.303   1.370
  178XTA   HL4819935  28.310   5.130   0.870
  178XTA   HL4919936  28.456   5.008   0.977
  179XTA     NT19937  29.407   5.059   0.858
  179XTA    CN119938  29.299   4.977   0.865
  179XTA     C119939  29.251   4.936   0.991
  179XTA     C219940  29.145   4.841   0.997
  179XTA     C319941  29.098   4.774   0.879
  179XTA     C419942  29.155   4.819   0.758
  179XTA     C519943  29.257   4.909   0.752
  179XTA    CN219944  29.394   5.186   0.807
  179XTA     C619945  29.382   5.297   0.895
  179XTA     C719946  29.360   5.428   0.841
  179XTA     C819947  29.351   5.453   0.701
  179XTA     C919948  29.371   5.341   0.620
  179XTA    C1019949  29.393   5.214   0.672
  179XTA    CN319950  29.532   5.011   0.882
  179XTA    C1119951  29.581   5.032   1.011
  179XTA    C1219952  29.704   4.979   1.049
  179XTA    C1319953  29.770   4.887   0.965
  179XTA    C1419954  29.717   4.858   0.833
  179XTA    C1519955  29.597   4.916   0.790
  179XTA     H119956  29.283   4.975   1.084
  179XTA     H219957  29.103   4.806   1.086
  179XTA     H319958  29.128   4.768   0.669
  179XTA     H419959  29.304   4.929   0.651
  179XTA     H519960  29.359   5.286   1.006
  179XTA     H619961  29.331   5.506   0.913
  179XTA     H719962  29.357   5.338   0.510
  179XTA     H819963  29.406   5.145   0.587
  179XTA     H919964  29.516   5.085   1.081
  179XTA    H1019965  29.741   5.006   1.148
  179XTA    H1119966  29.760   4.791   0.762
  179XTA    H1219967  29.544   4.893   0.700
  179XTA    OA119968  29.031   4.664   0.876
  179XTA    CO119969  28.928   4.657   0.976
  179XTA    OA219970  29.310   5.571   0.649
  179XTA    CO219971  29.348   5.688   0.720
  179XTA    CL119972  29.305   5.805   0.625
  179XTA    CL219973  29.364   5.938   0.687
  179XTA    CL319974  29.297   6.058   0.627
  179XTA    CL419975  29.322   6.082   0.483
  179XTA    CO319976  29.211   6.139   0.401
  179XTA    OA319977  29.238   6.116   0.266
  179XTA    CO419978  29.120   6.082   0.198
  179XTA    CT119979  29.152   6.053   0.049
  179XTA    CL519980  29.024   6.042  -0.040
  179XTA    CL619981  28.950   5.913  -0.026
  179XTA    OA419982  29.889   4.832   1.011
  179XTA    CO519983  29.932   4.849   1.152
  179XTA    CL719984  30.019   4.975   1.183
  179XTA    CL819985  29.966   5.113   1.150
  179XTA    CL919986  30.077   5.220   1.156
  179XTA   CL1019987  30.021   5.358   1.113
  179XTA    CO619988  30.131   5.469   1.099
  179XTA    OA519989  30.208   5.436   0.991
  179XTA    CO719990  30.322   5.524   0.970
  179XTA    CT219991  30.351   5.530   0.823
  179XTA   CL1119992  30.476   5.622   0.791
  179XTA   CL1219993  30.441   5.772   0.819
  179XTA    HL119994  28.954   4.674   1.080
  179XTA    HL219995  28.846   4.726   0.950
  179XTA    HL319996  28.882   4.555   0.974
  179XTA    HL419997  29.298   5.708   0.818
  179XTA    HL519998  29.450   5.680   0.743
  179XTA    HL619999  29.197   5.819   0.613
  179XTA    HL720000  29.350   5.790   0.525
  179XTA    HL820001  29.472   5.946   0.681
  179XTA    HL920002  29.343   5.939   0.796
  179XTA   HL1020003  29.192   6.045   0.634
  179XTA   HL1120004  29.318   6.164   0.668
  179XTA   HL1220005  29.378   5.992   0.441
  179XTA   HL1320006  29.413   6.146   0.476
  179XTA   HL1420007  29.119   6.085   0.414
  179XTA   HL1520008  29.186   6.238   0.425
  179XTA   HL1620009  29.066   6.002   0.246
  179XTA   HL1720010  29.054   6.163   0.202
  179XTA   HL1820011  29.042   6.045  -0.145
  179XTA   HL1920012  28.962   6.127  -0.006
  179XTA   HL2020013  28.909   5.887   0.071
  179XTA   HL2120014  29.013   5.831  -0.063
  179XTA   HL2220015  28.883   5.918  -0.117
  179XTA   HL2320016  29.993   4.754   1.166
  179XTA   HL2420017  29.843   4.840   1.219
  179XTA   HL2520018  30.041   4.967   1.289
  179XTA   HL2620019  30.106   4.958   1.127
  179XTA   HL2720020  29.922   5.117   1.059
  179XTA   HL2820021  29.888   5.124   1.220
  179XTA   HL2920022  30.130   5.224   1.250
  179XTA   HL3020023  30.151   5.191   1.081
  179XTA   HL3120024  29.981   5.328   1.017
  179XTA   HL3220025  29.941   5.382   1.175
  179XTA   HL3320026  30.098   5.570   1.104
  179XTA   HL3420027  30.190   5.455   1.196
  179XTA   HL3520028  30.412   5.505   1.034
  179XTA   HL3620029  30.302   5.627   1.006
  179XTA   HL3720030  30.496   5.601   0.685
  179XTA   HL3820031  30.553   5.586   0.853
  179XTA   HL3920032  30.406   5.785   0.917
  179XTA   HL4020033  30.369   5.809   0.741
  179XTA   HL4120034  30.538   5.815   0.812
  179XTA    CO820035  29.237   5.924   0.045
  179XTA    CO920036  29.236   6.169  -0.003
  179XTA    OA620037  29.202   5.823   0.132
  179XTA   HL4220038  29.340   5.947   0.071
  179XTA   HL4320039  29.242   5.885  -0.055
  179XTA   HL4420040  30.149   5.483   0.761
  179XTA   HL4520041  30.186   5.659   0.802
  179XTA   CO1020042  30.219   5.571   0.753
  179XTA   CO1120043  30.369   5.385   0.773
  179XTA    OA720044  30.231   5.596   0.616
  179XTA   HL4620045  30.409   5.371   0.676
  179XTA   HL4720046  30.266   5.334   0.777
  179XTA   HL4820047  29.183   6.253   0.037
  179XTA   HL4920048  29.333   6.179   0.046
  180XTA     NT20049  26.810   3.213   1.785
  180XTA    CN120050  26.821   3.147   1.901
  180XTA     C120051  26.781   3.204   2.023
  180XTA     C220052  26.809   3.145   2.149
  180XTA     C320053  26.882   3.024   2.144
  180XTA     C420054  26.912   2.958   2.025
  180XTA     C520055  26.888   3.026   1.904
  180XTA    CN220056  26.905   3.306   1.761
  180XTA     C620057  26.916   3.425   1.837
  180XTA     C720058  27.014   3.526   1.811
  180XTA     C820059  27.111   3.504   1.712
  180XTA     C920060  27.103   3.384   1.642
  180XTA    C1020061  27.000   3.286   1.656
  180XTA    CN320062  26.687   3.217   1.733
  180XTA    C1120063  26.601   3.325   1.752
  180XTA    C1220064  26.475   3.339   1.687
  180XTA    C1320065  26.433   3.230   1.603
  180XTA    C1420066  26.521   3.113   1.586
  180XTA    C1520067  26.648   3.111   1.650
  180XTA     H120068  26.740   3.306   2.020
  180XTA     H220069  26.785   3.195   2.239
  180XTA     H320070  26.951   2.859   2.019
  180XTA     H420071  26.906   2.964   1.819
  180XTA     H520072  26.849   3.456   1.922
  180XTA     H620073  27.035   3.605   1.878
  180XTA     H720074  27.184   3.376   1.565
  180XTA     H820075  26.995   3.194   1.599
  180XTA     H920076  26.626   3.415   1.809
  180XTA    H1020077  26.416   3.426   1.693
  180XTA    H1120078  26.491   3.034   1.519
  180XTA    H1220079  26.719   3.033   1.647
  180XTA    OA120080  26.912   2.962   2.266
  180XTA    CO120081  26.952   2.829   2.261
  180XTA    OA220082  27.214   3.596   1.691
  180XTA    CO220083  27.234   3.695   1.798
  180XTA    CL120084  27.152   3.822   1.779
  180XTA    CL220085  27.200   3.952   1.845
  180XTA    CL320086  27.337   3.999   1.792
  180XTA    CL420087  27.410   4.078   1.896
  180XTA    CO320088  27.476   3.992   2.011
  180XTA    OA320089  27.377   3.942   2.097
  180XTA    CO420090  27.446   3.863   2.199
  180XTA    CT120091  27.344   3.795   2.301
  180XTA    CL520092  27.250   3.903   2.366
  180XTA    CL620093  27.126   3.844   2.435
  180XTA    OA420094  26.307   3.250   1.543
  180XTA    CO520095  26.270   3.153   1.449
  180XTA    CL720096  26.128   3.195   1.402
  180XTA    CL820097  26.120   3.324   1.325
  180XTA    CL920098  26.146   3.298   1.174
  180XTA   CL1020099  26.170   3.428   1.094
  180XTA    CO620100  26.053   3.528   1.079
  180XTA    OA520101  26.091   3.660   1.029
  180XTA    CO720102  26.185   3.723   1.113
  180XTA    CT220103  26.178   3.878   1.110
  180XTA   CL1120104  26.301   3.930   1.190
  180XTA   CL1220105  26.309   3.880   1.337
  180XTA    HL120106  26.871   2.776   2.218
  180XTA    HL220107  27.044   2.809   2.197
  180XTA    HL320108  26.967   2.789   2.369
  180XTA    HL420109  27.233   3.636   1.893
  180XTA    HL520110  27.340   3.712   1.777
  180XTA    HL620111  27.047   3.811   1.807
  180XTA    HL720112  27.149   3.842   1.672
  180XTA    HL820113  27.204   3.940   1.950
  180XTA    HL920114  27.141   4.037   1.840
  180XTA   HL1020115  27.403   3.915   1.774
  180XTA   HL1120116  27.310   4.055   1.702
  180XTA   HL1220117  27.350   4.156   1.949
  180XTA   HL1320118  27.495   4.132   1.855
  180XTA   HL1420119  27.536   3.910   1.970
  180XTA   HL1520120  27.552   4.050   2.066
  180XTA   HL1620121  27.499   3.787   2.150
  180XTA   HL1720122  27.520   3.909   2.256
  180XTA   HL1820123  27.208   3.970   2.290
  180XTA   HL1920124  27.305   3.968   2.442
  180XTA   HL2020125  27.142   3.759   2.493
  180XTA   HL2120126  27.048   3.829   2.361
  180XTA   HL2220127  27.086   3.919   2.503
  180XTA   HL2320128  26.261   3.059   1.502
  180XTA   HL2420129  26.338   3.148   1.367
  180XTA   HL2520130  26.068   3.114   1.351
  180XTA   HL2620131  26.076   3.196   1.496
  180XTA   HL2720132  26.013   3.349   1.332
  180XTA   HL2820133  26.183   3.401   1.371
  180XTA   HL2920134  26.233   3.232   1.167
  180XTA   HL3020135  26.072   3.238   1.129
  180XTA   HL3120136  26.249   3.476   1.142
  180XTA   HL3220137  26.202   3.387   0.999
  180XTA   HL3320138  25.974   3.492   1.009
  180XTA   HL3420139  26.007   3.547   1.176
  180XTA   HL3520140  26.282   3.679   1.098
  180XTA   HL3620141  26.163   3.686   1.217
  180XTA   HL3720142  26.307   4.039   1.186
  180XTA   HL3820143  26.385   3.883   1.149
  180XTA   HL3920144  26.326   3.776   1.335
  180XTA   HL4020145  26.230   3.913   1.404
  180XTA   HL4120146  26.397   3.917   1.380
  180XTA    CO820147  27.432   3.714   2.399
  180XTA    CO920148  27.262   3.700   2.214
  180XTA    OA620149  27.205   3.589   2.282
  180XTA   HL4220150  27.367   3.675   2.478
  180XTA   HL4320151  27.492   3.647   2.336
  180XTA   HL4420152  25.952   3.883   1.135
  180XTA   HL4520153  26.050   3.906   1.283
  180XTA   CO1020154  26.044   3.928   1.178
  180XTA   CO1120155  26.177   3.924   0.963
  180XTA    OA720156  26.027   4.064   1.160
  180XTA   HL4620157  26.072   3.929   0.941
  180XTA   HL4720158  26.223   3.858   0.897
  180XTA   HL4820159  27.311   3.662   2.128
  180XTA   HL4920160  27.183   3.749   2.171
  181XTA     NT20161  29.467   1.876   4.713
  181XTA    CN120162  29.382   1.901   4.809
  181XTA     C120163  29.310   2.021   4.826
  181XTA     C220164  29.209   2.041   4.924
  181XTA     C320165  29.174   1.938   5.011
  181XTA     C420166  29.258   1.824   5.007
  181XTA     C520167  29.359   1.809   4.910
  181XTA    CN220168  29.602   1.906   4.727
  181XTA     C620169  29.691   1.803   4.694
  181XTA     C720170  29.828   1.820   4.725
  181XTA     C820171  29.870   1.947   4.781
  181XTA     C920172  29.774   2.051   4.803
  181XTA    C1020173  29.636   2.028   4.781
  181XTA    CN320174  29.417   1.880   4.589
  181XTA    C1120175  29.347   1.764   4.546
  181XTA    C1220176  29.285   1.755   4.417
  181XTA    C1320177  29.283   1.870   4.333
  181XTA    C1420178  29.348   1.986   4.383
  181XTA    C1520179  29.425   1.989   4.502
  181XTA     H120180  29.339   2.106   4.772
  181XTA     H220181  29.157   2.132   4.918
  181XTA     H320182  29.236   1.741   5.067
  181XTA     H420183  29.404   1.711   4.904
  181XTA     H520184  29.638   1.711   4.656
  181XTA     H620185  29.895   1.736   4.708
  181XTA     H720186  29.812   2.143   4.855
  181XTA     H820187  29.570   2.112   4.811
  181XTA     H920188  29.327   1.681   4.617
  181XTA    H1020189  29.230   1.668   4.394
  181XTA    H1120190  29.338   2.077   4.322
  181XTA    H1220191  29.476   2.080   4.536
  181XTA    OA120192  29.076   1.961   5.106
  181XTA    CO120193  29.001   1.847   5.143
  181XTA    OA220194  30.006   1.968   4.792
  181XTA    CO220195  30.080   1.858   4.842
  181XTA    CL120196  30.229   1.900   4.848
  181XTA    CL220197  30.319   1.809   4.941
  181XTA    CL320198  30.470   1.848   4.949
  181XTA    CL420199  30.496   1.985   5.005
  181XTA    CO320200  30.644   2.038   4.987
  181XTA    OA320201  30.674   2.116   4.870
  181XTA    CO420202  30.668   2.044   4.737
  181XTA    CT120203  30.728   2.131   4.626
  181XTA    CL520204  30.697   2.063   4.485
  181XTA    CL620205  30.726   1.916   4.463
  181XTA    OA420206  29.217   1.868   4.207
  181XTA    CO520207  29.223   1.747   4.134
  181XTA    CL720208  29.365   1.703   4.084
  181XTA    CL820209  29.356   1.571   4.004
  181XTA    CL920210  29.377   1.591   3.856
  181XTA   CL1020211  29.412   1.472   3.763
  181XTA    CO620212  29.420   1.512   3.611
  181XTA    OA520213  29.507   1.617   3.573
  181XTA    CO720214  29.647   1.580   3.583
  181XTA    CT220215  29.725   1.714   3.609
  181XTA   CL1120216  29.672   1.783   3.737
  181XTA   CL1220217  29.734   1.915   3.792
  181XTA    HL120218  28.929   1.874   5.220
  181XTA    HL220219  28.954   1.797   5.058
  181XTA    HL320220  29.065   1.777   5.197
  181XTA    HL420221  30.040   1.845   4.943
  181XTA    HL520222  30.065   1.765   4.787
  181XTA    HL620223  30.241   1.999   4.889
  181XTA    HL720224  30.265   1.900   4.745
  181XTA    HL820225  30.316   1.711   4.896
  181XTA    HL920226  30.274   1.804   5.036
  181XTA   HL1020227  30.524   1.784   5.021
  181XTA   HL1120228  30.508   1.845   4.848
  181XTA   HL1220229  30.473   1.989   5.111
  181XTA   HL1320230  30.429   2.051   4.955
  181XTA   HL1420231  30.661   2.103   5.078
  181XTA   HL1520232  30.712   1.956   4.986
  181XTA   HL1620233  30.716   1.947   4.747
  181XTA   HL1720234  30.556   2.035   4.728
  181XTA   HL1820235  30.754   2.123   4.410
  181XTA   HL1920236  30.587   2.079   4.480
  181XTA   HL2020237  30.832   1.904   4.467
  181XTA   HL2120238  30.697   1.885   4.366
  181XTA   HL2220239  30.683   1.857   4.535
  181XTA   HL2320240  29.153   1.751   4.046
  181XTA   HL2420241  29.193   1.668   4.200
  181XTA   HL2520242  29.434   1.777   4.039
  181XTA   HL2620243  29.416   1.690   4.169
  181XTA   HL2720244  29.433   1.509   4.048
  181XTA   HL2820245  29.264   1.521   4.027
  181XTA   HL2920246  29.282   1.631   3.816
  181XTA   HL3020247  29.438   1.686   3.838
  181XTA   HL3120248  29.518   1.444   3.788
  181XTA   HL3220249  29.343   1.386   3.777
  181XTA   HL3320250  29.451   1.424   3.550
  181XTA   HL3420251  29.319   1.537   3.565
  181XTA   HL3520252  29.676   1.540   3.487
  181XTA   HL3620253  29.682   1.511   3.655
  181XTA   HL3720254  29.679   1.708   3.818
  181XTA   HL3820255  29.566   1.802   3.718
  181XTA   HL3920256  29.730   1.988   3.719
  181XTA   HL4020257  29.840   1.911   3.816
  181XTA   HL4120258  29.688   1.955   3.882
  181XTA    CO820259  30.876   2.170   4.631
  181XTA    CO920260  30.660   2.267   4.623
  181XTA    OA620261  30.548   2.268   4.604
  181XTA   HL4220262  30.898   2.240   4.720
  181XTA   HL4320263  30.955   2.056   4.658
  181XTA   HL4420264  29.565   1.829   3.457
  181XTA   HL4520265  29.751   1.897   3.513
  181XTA   CO1020266  29.703   1.808   3.490
  181XTA   CO1120267  29.876   1.683   3.619
  181XTA    OA720268  29.898   1.605   3.692
  181XTA   HL4620269  29.911   1.647   3.518
  181XTA   HL4720270  29.936   1.778   3.632
  181XTA   HL4820271  30.701   2.333   4.550
  181XTA   HL4920272  30.674   2.329   4.711
  182XTA     NT20273  29.038   7.248   4.040
  182XTA    CN120274  29.142   7.160   4.029
  182XTA     C120275  29.260   7.181   4.098
  182XTA     C220276  29.363   7.083   4.112
  182XTA     C320277  29.350   6.962   4.043
  182XTA     C420278  29.235   6.939   3.963
  182XTA     C520279  29.124   7.033   3.966
  182XTA    CN220280  28.930   7.216   4.121
  182XTA     C620281  28.814   7.154   4.065
  182XTA     C720282  28.707   7.108   4.136
  182XTA     C820283  28.701   7.141   4.278
  182XTA     C920284  28.814   7.196   4.338
  182XTA    C1020285  28.926   7.239   4.263
  182XTA    CN320286  29.025   7.348   3.952
  182XTA    C1120287  29.030   7.479   3.988
  182XTA    C1220288  29.002   7.584   3.900
  182XTA    C1320289  28.990   7.558   3.762
  182XTA    C1420290  28.960   7.425   3.724
  182XTA    C1520291  28.975   7.322   3.822
  182XTA     H120292  29.263   7.271   4.159
  182XTA     H220293  29.447   7.094   4.175
  182XTA     H320294  29.219   6.850   3.895
  182XTA     H420295  29.045   7.007   3.894
  182XTA     H520296  28.814   7.143   3.958
  182XTA     H620297  28.631   7.041   4.093
  182XTA     H720298  28.813   7.230   4.436
  182XTA     H820299  29.017   7.273   4.316
  182XTA     H920300  29.049   7.499   4.093
  182XTA    H1020301  29.003   7.685   3.935
  182XTA    H1120302  28.933   7.392   3.625
  182XTA    H1220303  28.939   7.220   3.801
  182XTA    OA120304  29.449   6.869   4.052
  182XTA    CO120305  29.552   6.904   3.961
  182XTA    OA220306  28.601   7.101   4.365
  182XTA    CO220307  28.481   7.048   4.311
  182XTA    CL120308  28.376   7.032   4.423
  182XTA    CL220309  28.230   6.999   4.379
  182XTA    CL320310  28.197   6.853   4.379
  182XTA    CL420311  28.255   6.785   4.264
  182XTA    CO320312  28.241   6.640   4.291
  182XTA    OA320313  28.326   6.569   4.200
  182XTA    CO420314  28.351   6.435   4.247
  182XTA    CT120315  28.418   6.344   4.138
  182XTA    CL520316  28.462   6.218   4.216
  182XTA    CL620317  28.378   6.154   4.325
  182XTA    OA420318  28.985   7.664   3.679
  182XTA    CO520319  28.946   7.636   3.540
  182XTA    CL720320  28.926   7.764   3.456
  182XTA    CL820321  28.789   7.825   3.505
  182XTA    CL920322  28.771   7.978   3.487
  182XTA   CL1020323  28.651   8.023   3.560
  182XTA    CO620324  28.639   8.179   3.555
  182XTA    OA520325  28.720   8.223   3.667
  182XTA    CO720326  28.739   8.363   3.690
  182XTA    CT220327  28.846   8.438   3.597
  182XTA   CL1120328  28.788   8.472   3.456
  182XTA   CL1220329  28.653   8.544   3.456
  182XTA    HL120330  29.584   7.005   3.979
  182XTA    HL220331  29.636   6.847   3.975
  182XTA    HL320332  29.527   6.892   3.858
  182XTA    HL420333  28.443   7.116   4.237
  182XTA    HL520334  28.503   6.968   4.244
  182XTA    HL620335  28.374   7.130   4.481
  182XTA    HL720336  28.408   6.967   4.507
  182XTA    HL820337  28.214   7.057   4.287
  182XTA    HL920338  28.160   7.052   4.446
  182XTA   HL1020339  28.249   6.811   4.469
  182XTA   HL1120340  28.102   6.824   4.383
  182XTA   HL1220341  28.358   6.812   4.251
  182XTA   HL1320342  28.210   6.815   4.166
  182XTA   HL1420343  28.280   6.618   4.393
  182XTA   HL1520344  28.136   6.605   4.275
  182XTA   HL1620345  28.411   6.435   4.338
  182XTA   HL1720346  28.258   6.391   4.284
  182XTA   HL1820347  28.557   6.228   4.264
  182XTA   HL1920348  28.503   6.146   4.145
  182XTA   HL2020349  28.275   6.157   4.297
  182XTA   HL2120350  28.383   6.204   4.420
  182XTA   HL2220351  28.413   6.054   4.331
  182XTA   HL2320352  28.847   7.586   3.555
  182XTA   HL2420353  29.018   7.567   3.494
  182XTA   HL2520354  29.006   7.835   3.480
  182XTA   HL2620355  28.919   7.748   3.353
  182XTA   HL2720356  28.714   7.763   3.458
  182XTA   HL2820357  28.787   7.803   3.610
  182XTA   HL2920358  28.863   8.035   3.529
  182XTA   HL3020359  28.763   7.991   3.375
  182XTA   HL3120360  28.569   7.983   3.502
  182XTA   HL3220361  28.638   7.981   3.664
  182XTA   HL3320362  28.687   8.217   3.463
  182XTA   HL3420363  28.541   8.218   3.576
  182XTA   HL3520364  28.769   8.370   3.790
  182XTA   HL3620365  28.647   8.416   3.692
  182XTA   HL3720366  28.788   8.375   3.412
  182XTA   HL3820367  28.857   8.536   3.405
  182XTA   HL3920368  28.620   8.551   3.352
  182XTA   HL4020369  28.660   8.654   3.467
  182XTA   HL4120370  28.567   8.499   3.506
  182XTA    CO820371  28.542   6.406   4.065
  182XTA    CO920372  28.328   6.298   4.033
  182XTA    OA620373  28.241   6.246   4.072
  182XTA   HL4220374  28.547   6.376   3.964
  182XTA   HL4320375  28.529   6.545   4.056
  182XTA   HL4420376  28.940   8.251   3.568
  182XTA   HL4520377  29.018   8.338   3.687
  182XTA   CO1020378  28.974   8.352   3.589
  182XTA   CO1120379  28.886   8.575   3.667
  182XTA    OA720380  28.764   8.634   3.713
  182XTA   HL4620381  28.949   8.573   3.756
  182XTA   HL4720382  28.941   8.641   3.603
  182XTA   HL4820383  28.372   6.237   3.948
  182XTA   HL4920384  28.308   6.382   3.973
  183XTA     NT20385  27.838   4.572   6.315
  183XTA    CN120386  27.727   4.525   6.371
  183XTA     C120387  27.627   4.472   6.286
  183XTA     C220388  27.517   4.403   6.344
  183XTA     C320389  27.492   4.403   6.485
  183XTA     C420390  27.589   4.462   6.565
  183XTA     C520391  27.702   4.531   6.511
  183XTA    CN220392  27.879   4.695   6.338
  183XTA     C620393  27.809   4.812   6.291
  183XTA     C720394  27.864   4.942   6.304
  183XTA     C820395  27.981   4.951   6.378
  183XTA     C920396  28.043   4.836   6.439
  183XTA    C1020397  27.994   4.708   6.421
  183XTA    CN320398  27.914   4.501   6.227
  183XTA    C1120399  27.890   4.514   6.089
  183XTA    C1220400  27.978   4.448   5.998
  183XTA    C1320401  28.077   4.361   6.043
  183XTA    C1420402  28.101   4.348   6.181
  183XTA    C1520403  28.018   4.419   6.273
  183XTA     H120404  27.643   4.477   6.178
  183XTA     H220405  27.435   4.369   6.276
  183XTA     H320406  27.579   4.450   6.675
  183XTA     H420407  27.782   4.577   6.578
  183XTA     H520408  27.718   4.795   6.236
  183XTA     H620409  27.817   5.022   6.255
  183XTA     H720410  28.130   4.850   6.497
  183XTA     H820411  28.042   4.629   6.465
  183XTA     H920412  27.808   4.575   6.055
  183XTA    H1020413  27.962   4.465   5.893
  183XTA    H1120414  28.186   4.295   6.212
  183XTA    H1220415  28.045   4.417   6.378
  183XTA    OA120416  27.381   4.345   6.534
  183XTA    CO120417  27.349   4.363   6.670
  183XTA    OA220418  28.038   5.073   6.411
  183XTA    CO220419  27.982   5.195   6.364
  183XTA    CL120420  27.854   5.244   6.435
  183XTA    CL220421  27.771   5.351   6.359
  183XTA    CL320422  27.693   5.278   6.242
  183XTA    CL420423  27.589   5.354   6.159
  183XTA    CO320424  27.487   5.420   6.261
  183XTA    OA320425  27.543   5.530   6.322
  183XTA    CO420426  27.456   5.590   6.414
  183XTA    CT120427  27.502   5.744   6.427
  183XTA    CL520428  27.533   5.820   6.299
  183XTA    CL620429  27.433   5.793   6.195
  183XTA    OA420430  28.162   4.310   5.951
  183XTA    CO520431  28.214   4.177   5.976
  183XTA    CL720432  28.109   4.078   5.936
  183XTA    CL820433  28.118   3.935   5.997
  183XTA    CL920434  27.984   3.854   6.004
  183XTA   CL1020435  27.998   3.714   6.066
  183XTA    CO620436  27.863   3.634   6.065
  183XTA    OA520437  27.889   3.495   6.084
  183XTA    CO720438  27.901   3.480   6.225
  183XTA    CT220439  27.914   3.334   6.267
  183XTA   CL1120440  27.780   3.265   6.247
  183XTA   CL1220441  27.769   3.113   6.289
  183XTA    HL120442  27.255   4.311   6.700
  183XTA    HL220443  27.429   4.323   6.739
  183XTA    HL320444  27.323   4.466   6.689
  183XTA    HL420445  28.063   5.268   6.362
  183XTA    HL520446  27.978   5.188   6.256
  183XTA    HL620447  27.877   5.279   6.532
  183XTA    HL720448  27.793   5.153   6.460
  183XTA    HL820449  27.823   5.441   6.331
  183XTA    HL920450  27.697   5.383   6.435
  183XTA   HL1020451  27.762   5.227   6.180
  183XTA   HL1120452  27.633   5.197   6.295
  183XTA   HL1220453  27.531   5.287   6.106
  183XTA   HL1320454  27.629   5.419   6.082
  183XTA   HL1420455  27.392   5.454   6.220
  183XTA   HL1520456  27.452   5.343   6.331
  183XTA   HL1620457  27.346   5.588   6.399
  183XTA   HL1720458  27.469   5.537   6.510
  183XTA   HL1820459  27.626   5.799   6.247
  183XTA   HL1920460  27.521   5.924   6.298
  183XTA   HL2020461  27.421   5.684   6.192
  183XTA   HL2120462  27.475   5.817   6.100
  183XTA   HL2220463  27.327   5.829   6.206
  183XTA   HL2320464  28.256   4.164   6.077
  183XTA   HL2420465  28.297   4.167   5.914
  183XTA   HL2520466  28.013   4.125   5.951
  183XTA   HL2620467  28.109   4.083   5.827
  183XTA   HL2720468  28.187   3.885   5.932
  183XTA   HL2820469  28.160   3.943   6.092
  183XTA   HL2920470  27.912   3.916   6.063
  183XTA   HL3020471  27.947   3.852   5.902
  183XTA   HL3120472  28.066   3.652   6.008
  183XTA   HL3220473  28.029   3.723   6.167
  183XTA   HL3320474  27.780   3.676   6.119
  183XTA   HL3420475  27.820   3.627   5.961
  183XTA   HL3520476  27.822   3.531   6.275
  183XTA   HL3620477  27.992   3.534   6.259
  183XTA   HL3720478  27.740   3.275   6.143
  183XTA   HL3820479  27.711   3.324   6.306
  183XTA   HL3920480  27.837   3.045   6.249
  183XTA   HL4020481  27.668   3.070   6.271
  183XTA   HL4120482  27.784   3.110   6.398
  183XTA    CO820483  27.633   5.743   6.506
  183XTA    CO920484  27.386   5.816   6.500
  183XTA    OA620485  27.415   5.915   6.544
  183XTA   HL4220486  27.670   5.840   6.513
  183XTA   HL4320487  27.736   5.669   6.436
  183XTA   HL4420488  28.048   3.394   6.409
  183XTA   HL4520489  27.983   3.232   6.448
  183XTA   CO1020490  27.964   3.328   6.407
  183XTA   CO1120491  28.016   3.279   6.168
  183XTA    OA720492  28.077   3.148   6.199
  183XTA   HL4620493  27.978   3.274   6.067
  183XTA   HL4720494  28.103   3.348   6.163
  183XTA   HL4820495  27.365   5.748   6.584
  183XTA   HL4920496  27.300   5.823   6.431
  184XTA     NT20497  27.486   3.309   5.912
  184XTA    CN120498  27.542   3.184   5.917
  184XTA     C120499  27.462   3.067   5.928
  184XTA     C220500  27.521   2.938   5.943
  184XTA     C320501  27.660   2.923   5.925
  184XTA     C420502  27.736   3.043   5.904
  184XTA     C520503  27.677   3.172   5.902
  184XTA    CN220504  27.436   3.371   6.022
  184XTA     C620505  27.508   3.454   6.110
  184XTA     C720506  27.448   3.499   6.225
  184XTA     C820507  27.310   3.472   6.248
  184XTA     C920508  27.235   3.399   6.155
  184XTA    C1020509  27.300   3.346   6.043
  184XTA    CN320510  27.482   3.379   5.792
  184XTA    C1120511  27.377   3.354   5.707
  184XTA    C1220512  27.374   3.425   5.583
  184XTA    C1320513  27.463   3.531   5.554
  184XTA    C1420514  27.568   3.548   5.643
  184XTA    C1520515  27.579   3.479   5.764
  184XTA     H120516  27.354   3.075   5.925
  184XTA     H220517  27.465   2.847   5.962
  184XTA     H320518  27.842   3.036   5.899
  184XTA     H420519  27.748   3.258   5.897
  184XTA     H520520  27.612   3.476   6.093
  184XTA     H620521  27.503   3.554   6.297
  184XTA     H720522  27.129   3.383   6.164
  184XTA     H820523  27.243   3.285   5.971
  184XTA     H920524  27.304   3.278   5.725
  184XTA    H1020525  27.286   3.397   5.518
  184XTA    H1120526  27.637   3.627   5.626
  184XTA    H1220527  27.659   3.503   5.832
  184XTA    OA120528  27.714   2.795   5.936
  184XTA    CO120529  27.816   2.764   5.835
  184XTA    OA220530  27.255   3.524   6.367
  184XTA    CO220531  27.123   3.482   6.393
  184XTA    CL120532  27.106   3.529   6.541
  184XTA    CL220533  27.153   3.427   6.645
  184XTA    CL320534  27.302   3.386   6.639
  184XTA    CL420535  27.326   3.300   6.765
  184XTA    CO320536  27.476   3.258   6.757
  184XTA    OA320537  27.563   3.364   6.752
  184XTA    CO420538  27.673   3.340   6.667
  184XTA    CT120539  27.745   3.468   6.635
  184XTA    CL520540  27.665   3.564   6.541
  184XTA    CL620541  27.730   3.697   6.512
  184XTA    OA420542  27.455   3.613   5.442
  184XTA    CO520543  27.355   3.601   5.342
  184XTA    CL720544  27.369   3.722   5.262
  184XTA    CL820545  27.354   3.862   5.325
  184XTA    CL920546  27.227   3.882   5.395
  184XTA   CL1020547  27.230   3.894   5.555
  184XTA    CO620548  27.221   3.764   5.629
  184XTA    OA520549  27.152   3.787   5.743
  184XTA    CO720550  27.240   3.831   5.854
  184XTA    CT220551  27.148   3.886   5.965
  184XTA   CL1120552  27.028   3.785   5.991
  184XTA   CL1220553  27.077   3.641   6.021
  184XTA    HL120554  27.896   2.838   5.822
  184XTA    HL220555  27.863   2.667   5.848
  184XTA    HL320556  27.774   2.767   5.736
  184XTA    HL420557  27.043   3.524   6.329
  184XTA    HL520558  27.114   3.368   6.384
  184XTA    HL620559  27.007   3.560   6.573
  184XTA    HL720560  27.166   3.615   6.555
  184XTA    HL820561  27.108   3.331   6.641
  184XTA    HL920562  27.137   3.483   6.738
  184XTA   HL1020563  27.325   3.339   6.542
  184XTA   HL1120564  27.357   3.475   6.646
  184XTA   HL1220565  27.272   3.206   6.750
  184XTA   HL1320566  27.308   3.352   6.862
  184XTA   HL1420567  27.496   3.193   6.833
  184XTA   HL1520568  27.486   3.187   6.674
  184XTA   HL1620569  27.743   3.268   6.716
  184XTA   HL1720570  27.643   3.287   6.574
  184XTA   HL1820571  27.562   3.561   6.577
  184XTA   HL1920572  27.652   3.509   6.441
  184XTA   HL2020573  27.743   3.745   6.605
  184XTA   HL2120574  27.666   3.757   6.452
  184XTA   HL2220575  27.820   3.678   6.462
  184XTA   HL2320576  27.269   3.592   5.397
  184XTA   HL2420577  27.369   3.512   5.287
  184XTA   HL2520578  27.464   3.711   5.211
  184XTA   HL2620579  27.289   3.719   5.195
  184XTA   HL2720580  27.433   3.875   5.399
  184XTA   HL2820581  27.356   3.937   5.250
  184XTA   HL2920582  27.184   3.978   5.361
  184XTA   HL3020583  27.162   3.807   5.353
  184XTA   HL3120584  27.310   3.954   5.598
  184XTA   HL3220585  27.136   3.957   5.581
  184XTA   HL3320586  27.174   3.694   5.552
  184XTA   HL3420587  27.318   3.724   5.648
  184XTA   HL3520588  27.302   3.911   5.820
  184XTA   HL3620589  27.302   3.744   5.887
  184XTA   HL3720590  26.966   3.796   5.901
  184XTA   HL3820591  26.971   3.829   6.066
  184XTA   HL3920592  27.157   3.640   6.103
  184XTA   HL4020593  27.125   3.575   5.942
  184XTA   HL4120594  27.007   3.568   6.061
  184XTA    CO820595  27.880   3.435   6.575
  184XTA    CO920596  27.769   3.536   6.772
  184XTA    OA620597  27.860   3.384   6.480
  184XTA   HL4220598  27.931   3.363   6.644
  184XTA   HL4320599  27.943   3.515   6.558
  184XTA   HL4420600  27.031   4.000   5.824
  184XTA   HL4520601  27.002   4.041   5.993
  184XTA   CO1020602  27.077   4.010   5.914
  184XTA   CO1120603  27.232   3.921   6.086
  184XTA    OA720604  27.148   4.091   5.896
  184XTA   HL4620605  27.314   4.039   6.055
  184XTA   HL4720606  27.302   3.840   6.097
  184XTA   HL4820607  27.646   3.592   6.822
  184XTA   HL4920608  27.799   3.456   6.841
  185XTA     NT20609  27.400   7.041   5.864
  185XTA    CN120610  27.448   6.922   5.821
  185XTA     C120611  27.558   6.911   5.734
  185XTA     C220612  27.623   6.791   5.707
  185XTA     C320613  27.569   6.671   5.754
  185XTA     C420614  27.454   6.676   5.835
  185XTA     C520615  27.396   6.800   5.875
  185XTA    CN220616  27.279   7.086   5.831
  185XTA     C620617  27.164   7.032   5.892
  185XTA     C720618  27.041   7.084   5.847
  185XTA     C820619  27.026   7.164   5.732
  185XTA     C920620  27.144   7.213   5.669
  185XTA    C1020621  27.268   7.185   5.730
  185XTA    CN320622  27.471   7.110   5.953
  185XTA    C1120623  27.582   7.192   5.909
  185XTA    C1220624  27.655   7.259   6.006
  185XTA    C1320625  27.618   7.258   6.144
  185XTA    C1420626  27.513   7.177   6.184
  185XTA    C1520627  27.431   7.111   6.087
  185XTA     H120628  27.602   7.001   5.694
  185XTA     H220629  27.709   6.779   5.646
  185XTA     H320630  27.402   6.589   5.863
  185XTA     H420631  27.308   6.791   5.938
  185XTA     H520632  27.164   6.964   5.969
  185XTA     H620633  26.948   7.062   5.910
  185XTA     H720634  27.127   7.259   5.568
  185XTA     H820635  27.358   7.219   5.691
  185XTA     H920636  27.615   7.203   5.811
  185XTA    H1020637  27.745   7.311   5.976
  185XTA    H1120638  27.486   7.173   6.292
  185XTA    H1220639  27.347   7.055   6.113
  185XTA    OA120640  27.619   6.547   5.722
  185XTA    CO120641  27.762   6.525   5.763
  185XTA    OA220642  26.898   7.199   5.684
  185XTA    CO220643  26.895   7.244   5.548
  185XTA    CL120644  26.744   7.269   5.510
  185XTA    CL220645  26.670   7.139   5.539
  185XTA    CL320646  26.525   7.136   5.469
  185XTA    CL420647  26.484   6.986   5.456
  185XTA    CO320648  26.509   6.926   5.311
  185XTA    OA320649  26.414   6.830   5.272
  185XTA    CO420650  26.387   6.720   5.366
  185XTA    CT120651  26.251   6.650   5.340
  185XTA    CL520652  26.253   6.524   5.425
  185XTA    CL620653  26.369   6.425   5.409
  185XTA    OA420654  27.686   7.332   6.239
  185XTA    CO520655  27.720   7.253   6.352
  185XTA    CL720656  27.866   7.292   6.396
  185XTA    CL820657  27.903   7.210   6.516
  185XTA    CL920658  27.857   7.268   6.648
  185XTA   CL1020659  27.939   7.398   6.671
  185XTA    CO620660  27.858   7.531   6.656
  185XTA    OA520661  27.779   7.567   6.768
  185XTA    CO720662  27.678   7.667   6.738
  185XTA    CT220663  27.576   7.688   6.852
  185XTA   CL1120664  27.527   7.552   6.913
  185XTA   CL1220665  27.435   7.479   6.822
  185XTA    HL120666  27.826   6.602   5.729
  185XTA    HL220667  27.769   6.537   5.871
  185XTA    HL320668  27.793   6.425   5.733
  185XTA    HL420669  26.933   7.344   5.534
  185XTA    HL520670  26.948   7.176   5.474
  185XTA    HL620671  26.730   7.300   5.409
  185XTA    HL720672  26.702   7.355   5.568
  185XTA    HL820673  26.652   7.119   5.645
  185XTA    HL920674  26.738   7.060   5.502
  185XTA   HL1020675  26.460   7.196   5.536
  185XTA   HL1120676  26.526   7.192   5.372
  185XTA   HL1220677  26.377   6.988   5.474
  185XTA   HL1320678  26.539   6.932   5.534
  185XTA   HL1420679  26.499   6.998   5.235
  185XTA   HL1520680  26.616   6.894   5.298
  185XTA   HL1620681  26.466   6.646   5.350
  185XTA   HL1720682  26.391   6.740   5.474
  185XTA   HL1820683  26.165   6.464   5.416
  185XTA   HL1920684  26.249   6.557   5.523
  185XTA   HL2020685  26.346   6.333   5.457
  185XTA   HL2120686  26.473   6.449   5.445
  185XTA   HL2220687  26.385   6.382   5.309
  185XTA   HL2320688  27.698   7.149   6.331
  185XTA   HL2420689  27.645   7.276   6.434
  185XTA   HL2520690  27.936   7.256   6.311
  185XTA   HL2620691  27.879   7.395   6.405
  185XTA   HL2720692  27.864   7.110   6.514
  185XTA   HL2820693  28.014   7.191   6.521
  185XTA   HL2920694  27.750   7.283   6.649
  185XTA   HL3020695  27.896   7.190   6.717
  185XTA   HL3120696  27.986   7.400   6.770
  185XTA   HL3220697  28.030   7.409   6.602
  185XTA   HL3320698  27.930   7.613   6.648
  185XTA   HL3420699  27.775   7.522   6.578
  185XTA   HL3520700  27.625   7.634   6.650
  185XTA   HL3620701  27.723   7.764   6.717
  185XTA   HL3720702  27.475   7.581   7.003
  185XTA   HL3820703  27.603   7.486   6.938
  185XTA   HL3920704  27.499   7.447   6.737
  185XTA   HL4020705  27.348   7.528   6.797
  185XTA   HL4120706  27.404   7.385   6.868
  185XTA    CO820707  26.238   6.610   5.185
  185XTA    CO920708  26.143   6.738   5.379
  185XTA    OA620709  26.210   6.698   5.130
  185XTA   HL4220710  26.165   6.529   5.173
  185XTA   HL4320711  26.330   6.562   5.145
  185XTA   HL4420712  27.392   7.741   6.743
  185XTA   HL4520713  27.402   7.807   6.901
  185XTA   CO1020714  27.466   7.783   6.817
  185XTA   CO1120715  27.645   7.760   6.965
  185XTA    OA720716  27.505   7.873   6.764
  185XTA   HL4620717  27.687   7.887   6.915
  185XTA   HL4720718  27.733   7.704   6.983
  185XTA   HL4820719  26.183   6.811   5.490
  185XTA   HL4920720  26.135   6.812   5.305
  186XTA     NT20721  31.542   7.136   2.529
  186XTA    CN120722  31.542   7.256   2.586
  186XTA     C120723  31.665   7.324   2.597
  186XTA     C220724  31.668   7.450   2.658
  186XTA     C320725  31.551   7.513   2.710
  186XTA     C420726  31.427   7.444   2.700
  186XTA     C520727  31.422   7.319   2.633
  186XTA    CN220728  31.634   7.036   2.564
  186XTA     C620729  31.605   6.942   2.671
  186XTA     C720730  31.705   6.864   2.730
  186XTA     C820731  31.823   6.841   2.666
  186XTA     C920732  31.848   6.918   2.551
  186XTA    C1020733  31.760   7.020   2.502
  186XTA    CN320734  31.480   7.123   2.412
  186XTA    C1120735  31.347   7.074   2.409
  186XTA    C1220736  31.272   7.042   2.297
  186XTA    C1320737  31.325   7.073   2.168
  186XTA    C1420738  31.452   7.139   2.167
  186XTA    C1520739  31.529   7.166   2.286
  186XTA     H120740  31.752   7.283   2.555
  186XTA     H220741  31.759   7.499   2.658
  186XTA     H320742  31.339   7.479   2.736
  186XTA     H420743  31.322   7.269   2.626
  186XTA     H520744  31.509   6.957   2.706
  186XTA     H620745  31.660   6.798   2.806
  186XTA     H720746  31.946   6.906   2.507
  186XTA     H820747  31.787   7.078   2.414
  186XTA     H920748  31.312   7.060   2.512
  186XTA    H1020749  31.173   7.009   2.310
  186XTA    H1120750  31.497   7.163   2.074
  186XTA    H1220751  31.627   7.210   2.285
  186XTA    OA120752  31.565   7.629   2.780
  186XTA    CO120753  31.448   7.706   2.793
  186XTA    OA220754  31.918   6.758   2.715
  186XTA    CO220755  31.872   6.625   2.718
  186XTA    CL120756  31.981   6.523   2.746
  186XTA    CL220757  31.941   6.440   2.870
  186XTA    CL320758  31.950   6.526   2.992
  186XTA    CL420759  31.939   6.441   3.127
  186XTA    CO320760  31.801   6.374   3.136
  186XTA    OA320761  31.696   6.469   3.154
  186XTA    CO420762  31.573   6.401   3.121
  186XTA    CT120763  31.455   6.466   3.193
  186XTA    CL520764  31.407   6.589   3.113
  186XTA    CL620765  31.525   6.683   3.073
  186XTA    OA420766  31.268   7.063   2.049
  186XTA    CO520767  31.164   6.967   2.039
  186XTA    CL720768  31.127   6.963   1.889
  186XTA    CL820769  31.072   7.101   1.854
  186XTA    CL920770  31.045   7.117   1.707
  186XTA   CL1020771  31.159   7.161   1.608
  186XTA    CO620772  31.235   7.037   1.549
  186XTA    OA520773  31.367   7.072   1.526
  186XTA    CO720774  31.450   7.065   1.640
  186XTA    CT220775  31.592   7.057   1.585
  186XTA   CL1120776  31.686   7.041   1.701
  186XTA   CL1220777  31.653   7.120   1.830
  186XTA    HL120778  31.475   7.800   2.829
  186XTA    HL220779  31.391   7.720   2.704
  186XTA    HL320780  31.391   7.663   2.873
  186XTA    HL420781  31.790   6.621   2.798
  186XTA    HL520782  31.825   6.600   2.624
  186XTA    HL620783  32.069   6.575   2.753
  186XTA    HL720784  32.000   6.456   2.665
  186XTA    HL820785  32.009   6.351   2.877
  186XTA    HL920786  31.846   6.389   2.851
  186XTA   HL1020787  32.046   6.578   2.993
  186XTA   HL1120788  31.868   6.603   2.996
  186XTA   HL1220789  31.958   6.494   3.221
  186XTA   HL1320790  32.013   6.358   3.124
  186XTA   HL1420791  31.779   6.323   3.042
  186XTA   HL1520792  31.796   6.303   3.212
  186XTA   HL1620793  31.565   6.388   3.014
  186XTA   HL1720794  31.570   6.298   3.161
  186XTA   HL1820795  31.340   6.648   3.180
  186XTA   HL1920796  31.348   6.560   3.019
  186XTA   HL2020797  31.569   6.712   3.163
  186XTA   HL2120798  31.494   6.782   3.035
  186XTA   HL2220799  31.597   6.623   3.006
  186XTA   HL2320800  31.072   7.003   2.088
  186XTA   HL2420801  31.187   6.869   2.084
  186XTA   HL2520802  31.214   6.921   1.832
  186XTA   HL2620803  31.047   6.891   1.882
  186XTA   HL2720804  30.972   7.114   1.898
  186XTA   HL2820805  31.144   7.179   1.881
  186XTA   HL2920806  30.999   7.028   1.663
  186XTA   HL3020807  30.959   7.188   1.710
  186XTA   HL3120808  31.116   7.205   1.516
  186XTA   HL3220809  31.222   7.228   1.660
  186XTA   HL3320810  31.238   6.947   1.605
  186XTA   HL3420811  31.186   7.017   1.452
  186XTA   HL3520812  31.432   6.974   1.699
  186XTA   HL3620813  31.424   7.157   1.693
  186XTA   HL3720814  31.779   7.084   1.669
  186XTA   HL3820815  31.687   6.937   1.732
  186XTA   HL3920816  31.729   7.107   1.908
  186XTA   HL4020817  31.556   7.102   1.866
  186XTA   HL4120818  31.658   7.232   1.810
  186XTA    CO820819  31.489   6.489   3.339
  186XTA    CO920820  31.339   6.368   3.194
  186XTA    OA620821  31.303   6.344   3.091
  186XTA   HL4220822  31.536   6.592   3.361
  186XTA   HL4320823  31.575   6.390   3.378
  186XTA   HL4420824  31.557   7.205   1.439
  186XTA   HL4520825  31.605   7.277   1.578
  186XTA   CO1020826  31.626   7.187   1.516
  186XTA   CO1120827  31.598   6.945   1.482
  186XTA    OA720828  31.759   7.189   1.462
  186XTA   HL4620829  31.509   6.879   1.477
  186XTA   HL4720830  31.596   6.988   1.387
  186XTA   HL4820831  31.256   6.410   3.245
  186XTA   HL4920832  31.374   6.290   3.247
  187XTA     NT20833  25.516  -0.662   1.298
  187XTA    CN120834  25.617  -0.755   1.291
  187XTA     C120835  25.686  -0.768   1.170
  187XTA     C220836  25.766  -0.882   1.152
  187XTA     C320837  25.792  -0.973   1.257
  187XTA     C420838  25.726  -0.955   1.384
  187XTA     C520839  25.632  -0.855   1.394
  187XTA    CN220840  25.540  -0.532   1.327
  187XTA     C620841  25.530  -0.436   1.223
  187XTA     C720842  25.550  -0.301   1.247
  187XTA     C820843  25.546  -0.253   1.380
  187XTA     C920844  25.547  -0.353   1.486
  187XTA    C1020845  25.553  -0.488   1.458
  187XTA    CN320846  25.391  -0.702   1.271
  187XTA    C1120847  25.288  -0.693   1.365
  187XTA    C1220848  25.155  -0.713   1.331
  187XTA    C1320849  25.125  -0.760   1.203
  187XTA    C1420850  25.226  -0.773   1.108
  187XTA    C1520851  25.363  -0.752   1.142
  187XTA     H120852  25.671  -0.700   1.081
  187XTA     H220853  25.799  -0.896   1.051
  187XTA     H320854  25.739  -1.018   1.472
  187XTA     H420855  25.575  -0.840   1.485
  187XTA     H520856  25.524  -0.471   1.122
  187XTA     H620857  25.548  -0.223   1.168
  187XTA     H720858  25.534  -0.320   1.585
  187XTA     H820859  25.560  -0.568   1.531
  187XTA     H920860  25.315  -0.671   1.465
  187XTA    H1020861  25.081  -0.702   1.405
  187XTA    H1120862  25.208  -0.795   1.003
  187XTA    H1220863  25.433  -0.752   1.061
  187XTA    OA120864  25.876  -1.080   1.230
  187XTA    CO120865  25.888  -1.185   1.326
  187XTA    OA220866  25.572  -0.124   1.421
  187XTA    CO220867  25.547  -0.018   1.317
  187XTA    CL120868  25.595   0.115   1.375
  187XTA    CL220869  25.581   0.225   1.273
  187XTA    CL320870  25.628   0.360   1.322
  187XTA    CL420871  25.586   0.389   1.463
  187XTA    CO320872  25.586   0.538   1.489
  187XTA    OA320873  25.535   0.565   1.620
  187XTA    CO420874  25.627   0.526   1.727
  187XTA    CT120875  25.714   0.638   1.790
  187XTA    CL520876  25.653   0.782   1.779
  187XTA    CL620877  25.521   0.811   1.840
  187XTA    OA420878  24.999  -0.759   1.159
  187XTA    CO520879  24.906  -0.666   1.223
  187XTA    CL720880  24.793  -0.628   1.122
  187XTA    CL820881  24.842  -0.528   1.016
  187XTA    CL920882  24.737  -0.494   0.919
  187XTA   CL1020883  24.795  -0.401   0.816
  187XTA    CO620884  24.744  -0.426   0.673
  187XTA    OA520885  24.812  -0.354   0.575
  187XTA    CO720886  24.742  -0.232   0.535
  187XTA    CT220887  24.843  -0.148   0.444
  187XTA   CL1120888  24.976  -0.123   0.523
  187XTA   CL1220889  25.084  -0.046   0.448
  187XTA    HL120890  25.789  -1.222   1.357
  187XTA    HL220891  25.947  -1.266   1.289
  187XTA    HL320892  25.939  -1.144   1.413
  187XTA    HL420893  25.600  -0.038   1.224
  187XTA    HL520894  25.444  -0.018   1.288
  187XTA    HL620895  25.703   0.099   1.387
  187XTA    HL720896  25.540   0.147   1.465
  187XTA    HL820897  25.475   0.230   1.249
  187XTA    HL920898  25.637   0.204   1.182
  187XTA   HL1020899  25.734   0.368   1.315
  187XTA   HL1120900  25.591   0.427   1.245
  187XTA   HL1220901  25.648   0.333   1.530
  187XTA   HL1320902  25.491   0.342   1.475
  187XTA   HL1420903  25.694   0.570   1.486
  187XTA   HL1520904  25.527   0.599   1.424
  187XTA   HL1620905  25.573   0.472   1.801
  187XTA   HL1720906  25.685   0.446   1.681
  187XTA   HL1820907  25.621   0.791   1.676
  187XTA   HL1920908  25.721   0.861   1.801
  187XTA   HL2020909  25.520   0.806   1.949
  187XTA   HL2120910  25.446   0.737   1.803
  187XTA   HL2220911  25.491   0.913   1.828
  187XTA   HL2320912  24.959  -0.578   1.243
  187XTA   HL2420913  24.881  -0.726   1.314
  187XTA   HL2520914  24.739  -0.716   1.080
  187XTA   HL2620915  24.724  -0.563   1.173
  187XTA   HL2720916  24.882  -0.435   1.061
  187XTA   HL2820917  24.916  -0.580   0.968
  187XTA   HL2920918  24.714  -0.587   0.863
  187XTA   HL3020919  24.643  -0.459   0.965
  187XTA   HL3120920  24.776  -0.294   0.845
  187XTA   HL3220921  24.904  -0.416   0.810
  187XTA   HL3320922  24.761  -0.531   0.656
  187XTA   HL3420923  24.641  -0.411   0.657
  187XTA   HL3520924  24.705  -0.165   0.615
  187XTA   HL3620925  24.656  -0.267   0.475
  187XTA   HL3720926  25.005  -0.219   0.561
  187XTA   HL3820927  24.964  -0.065   0.614
  187XTA   HL3920928  25.170  -0.037   0.507
  187XTA   HL4020929  25.036   0.052   0.435
  187XTA   HL4120930  25.106  -0.082   0.350
  187XTA    CO820931  25.849   0.645   1.722
  187XTA    CO920932  25.735   0.600   1.945
  187XTA    OA620933  25.672   0.518   1.984
  187XTA   HL4220934  25.837   0.665   1.611
  187XTA   HL4320935  25.917   0.754   1.772
  187XTA   HL4420936  24.849   0.031   0.341
  187XTA   HL4520937  24.694  -0.044   0.322
  187XTA   CO1020938  24.771  -0.020   0.395
  187XTA   CO1120939  24.868  -0.225   0.314
  187XTA    OA720940  24.708   0.040   0.501
  187XTA   HL4620941  24.901  -0.151   0.244
  187XTA   HL4720942  24.779  -0.275   0.266
  187XTA   HL4820943  25.742   0.693   2.006
  187XTA   HL4920944  25.841   0.567   1.943
  188XTA     NT20945  28.826   5.569   2.362
  188XTA    CN120946  28.772   5.685   2.394
  188XTA     C120947  28.635   5.706   2.368
  188XTA     C220948  28.573   5.827   2.401
  188XTA     C320949  28.636   5.923   2.478
  188XTA     C420950  28.771   5.897   2.504
  188XTA     C520951  28.842   5.784   2.463
  188XTA    CN220952  28.920   5.562   2.268
  188XTA     C620953  29.050   5.530   2.310
  188XTA     C720954  29.151   5.502   2.216
  188XTA     C820955  29.122   5.508   2.077
  188XTA     C920956  28.989   5.553   2.038
  188XTA    C1020957  28.894   5.583   2.137
  188XTA    CN320958  28.772   5.457   2.419
  188XTA    C1120959  28.668   5.376   2.372
  188XTA    C1220960  28.626   5.265   2.444
  188XTA    C1320961  28.669   5.244   2.575
  188XTA    C1420962  28.768   5.329   2.626
  188XTA    C1520963  28.820   5.430   2.547
  188XTA     H120964  28.573   5.638   2.302
  188XTA     H220965  28.464   5.830   2.376
  188XTA     H320966  28.841   5.966   2.554
  188XTA     H420967  28.942   5.769   2.489
  188XTA     H520968  29.077   5.506   2.408
  188XTA     H620969  29.251   5.470   2.251
  188XTA     H720970  28.964   5.577   1.933
  188XTA     H820971  28.797   5.621   2.116
  188XTA     H920972  28.631   5.392   2.276
  188XTA    H1020973  28.556   5.195   2.399
  188XTA    H1120974  28.790   5.310   2.736
  188XTA    H1220975  28.882   5.505   2.597
  188XTA    OA120976  28.581   6.045   2.517
  188XTA    CO120977  28.449   6.075   2.483
  188XTA    OA220978  29.221   5.479   1.989
  188XTA    CO220979  29.202   5.526   1.856
  188XTA    CL120980  29.144   5.414   1.770
  188XTA    CL220981  29.064   5.463   1.652
  188XTA    CL320982  28.973   5.353   1.595
  188XTA    CL420983  28.842   5.338   1.668
  188XTA    CO320984  28.758   5.222   1.604
  188XTA    OA320985  28.645   5.201   1.689
  188XTA    CO420986  28.560   5.109   1.619
  188XTA    CT120987  28.424   5.093   1.697
  188XTA    CL520988  28.347   4.988   1.615
  188XTA    CL620989  28.207   4.950   1.662
  188XTA    OA420990  28.597   5.153   2.652
  188XTA    CO520991  28.641   5.116   2.779
  188XTA    CL720992  28.541   5.013   2.833
  188XTA    CL820993  28.559   4.871   2.770
  188XTA    CL920994  28.437   4.781   2.804
  188XTA   CL1020995  28.464   4.633   2.784
  188XTA    CO620996  28.339   4.542   2.793
  188XTA    OA520997  28.230   4.586   2.714
  188XTA    CO720998  28.116   4.504   2.731
  188XTA    CT220999  27.983   4.574   2.686
  188XTA   CL1121000  28.003   4.623   2.547
  188XTA   CL1221001  27.877   4.674   2.477
  188XTA    HL121002  28.423   6.038   2.379
  188XTA    HL221003  28.384   6.030   2.551
  188XTA    HL321004  28.422   6.180   2.478
  188XTA    HL421005  29.133   5.606   1.855
  188XTA    HL521006  29.298   5.555   1.817
  188XTA    HL621007  29.086   5.350   1.833
  188XTA    HL721008  29.229   5.360   1.729
  188XTA    HL821009  29.128   5.507   1.575
  188XTA    HL921010  28.998   5.533   1.694
  188XTA   HL1021011  28.953   5.387   1.494
  188XTA   HL1121012  29.024   5.257   1.581
  188XTA   HL1221013  28.779   5.431   1.655
  188XTA   HL1321014  28.851   5.315   1.775
  188XTA   HL1421015  28.726   5.251   1.503
  188XTA   HL1521016  28.811   5.132   1.607
  188XTA   HL1621017  28.547   5.163   1.526
  188XTA   HL1721018  28.607   5.008   1.595
  188XTA   HL1821019  28.405   4.899   1.596
  188XTA   HL1921020  28.325   5.022   1.518
  188XTA   HL2021021  28.208   4.895   1.749
  188XTA   HL2121022  28.158   4.897   1.578
  188XTA   HL2221023  28.150   5.039   1.687
  188XTA   HL2321024  28.651   5.198   2.850
  188XTA   HL2421025  28.743   5.069   2.770
  188XTA   HL2521026  28.540   5.022   2.941
  188XTA   HL2621027  28.434   5.048   2.814
  188XTA   HL2721028  28.588   4.869   2.668
  188XTA   HL2821029  28.652   4.831   2.816
  188XTA   HL2921030  28.414   4.795   2.911
  188XTA   HL3021031  28.352   4.818   2.758
  188XTA   HL3121032  28.494   4.625   2.680
  188XTA   HL3221033  28.552   4.600   2.849
  188XTA   HL3321034  28.358   4.438   2.773
  188XTA   HL3421035  28.308   4.552   2.895
  188XTA   HL3521036  28.102   4.481   2.834
  188XTA   HL3621037  28.131   4.412   2.672
  188XTA   HL3721038  28.059   4.544   2.484
  188XTA   HL3821039  28.079   4.701   2.547
  188XTA   HL3921040  27.885   4.739   2.391
  188XTA   HL4021041  27.802   4.727   2.540
  188XTA   HL4121042  27.811   4.591   2.438
  188XTA    CO821043  28.359   5.234   1.694
  188XTA    CO921044  28.451   5.047   1.849
  188XTA    OA621045  28.247   5.246   1.786
  188XTA   HL4221046  28.313   5.261   1.597
  188XTA   HL4321047  28.426   5.308   1.730
  188XTA   HL4421048  27.857   4.738   2.761
  188XTA   HL4521049  28.056   4.786   2.750
  188XTA   CO1021050  27.958   4.694   2.783
  188XTA   CO1121051  27.860   4.482   2.700
  188XTA    OA721052  27.853   4.433   2.800
  188XTA   HL4621053  27.761   4.531   2.692
  188XTA   HL4721054  27.854   4.413   2.618
  188XTA   HL4821055  28.532   5.113   1.894
  188XTA   HL4921056  28.356   5.061   1.906
  189XTA     NT21057  25.688   4.577   0.225
  189XTA    CN121058  25.652   4.480   0.144
  189XTA     C121059  25.625   4.348   0.190
  189XTA     C221060  25.584   4.252   0.098
  189XTA     C321061  25.578   4.271  -0.039
  189XTA     C421062  25.600   4.402  -0.085
  189XTA     C521063  25.628   4.506   0.004
  189XTA    CN221064  25.605   4.606   0.327
  189XTA     C621065  25.618   4.540   0.446
  189XTA     C721066  25.516   4.545   0.547
  189XTA     C821067  25.399   4.618   0.520
  189XTA     C921068  25.377   4.671   0.391
  189XTA    C1021069  25.480   4.667   0.296
  189XTA    CN321070  25.804   4.637   0.202
  189XTA    C1121071  25.921   4.560   0.208
  189XTA    C1221072  26.045   4.611   0.177
  189XTA    C1321073  26.053   4.747   0.141
  189XTA    C1421074  25.938   4.826   0.136
  189XTA    C1521075  25.809   4.771   0.161
  189XTA     H121076  25.633   4.321   0.289
  189XTA     H221077  25.573   4.149   0.142
  189XTA     H321078  25.578   4.418  -0.188
  189XTA     H421079  25.640   4.612  -0.025
  189XTA     H521080  25.701   4.467   0.447
  189XTA     H621081  25.529   4.493   0.632
  189XTA     H721082  25.284   4.715   0.355
  189XTA     H821083  25.468   4.717   0.198
  189XTA     H921084  25.919   4.448   0.233
  189XTA    H1021085  26.127   4.546   0.194
  189XTA    H1121086  25.938   4.933   0.114
  189XTA    H1221087  25.711   4.825   0.152
  189XTA    OA121088  25.580   4.168  -0.125
  189XTA    CO121089  25.691   4.175  -0.208
  189XTA    OA221090  25.302   4.641   0.609
  189XTA    CO221091  25.285   4.545   0.719
  189XTA    CL121092  25.370   4.606   0.832
  189XTA    CL221093  25.359   4.546   0.978
  189XTA    CL321094  25.351   4.390   0.979
  189XTA    CL421095  25.347   4.334   1.118
  189XTA    CO321096  25.313   4.188   1.126
  189XTA    OA321097  25.317   4.142   1.262
  189XTA    CO421098  25.305   4.009   1.268
  189XTA    CT121099  25.285   3.962   1.410
  189XTA    CL521100  25.410   4.025   1.488
  189XTA    CL621101  25.437   3.962   1.628
  189XTA    OA421102  26.179   4.798   0.120
  189XTA    CO521103  26.279   4.712   0.067
  189XTA    CL721104  26.405   4.803   0.052
  189XTA    CL821105  26.503   4.741  -0.050
  189XTA    CL921106  26.627   4.829  -0.054
  189XTA   CL1021107  26.716   4.823   0.075
  189XTA    CO621108  26.815   4.941   0.088
  189XTA    OA521109  26.887   4.919   0.210
  189XTA    CO721110  27.010   4.852   0.201
  189XTA    CT221111  27.079   4.829   0.338
  189XTA   CL1121112  27.020   4.713   0.417
  189XTA   CL1221113  26.873   4.719   0.440
  189XTA    HL121114  25.693   4.262  -0.271
  189XTA    HL221115  25.784   4.161  -0.145
  189XTA    HL321116  25.669   4.092  -0.274
  189XTA    HL421117  25.179   4.554   0.753
  189XTA    HL521118  25.304   4.439   0.690
  189XTA    HL621119  25.353   4.717   0.840
  189XTA    HL721120  25.472   4.602   0.803
  189XTA    HL821121  25.275   4.592   1.028
  189XTA    HL921122  25.447   4.572   1.035
  189XTA   HL1021123  25.261   4.368   0.920
  189XTA   HL1121124  25.436   4.355   0.926
  189XTA   HL1221125  25.269   4.392   1.179
  189XTA   HL1321126  25.447   4.351   1.162
  189XTA   HL1421127  25.220   4.162   1.071
  189XTA   HL1521128  25.384   4.136   1.064
  189XTA   HL1621129  25.210   3.972   1.225
  189XTA   HL1721130  25.385   3.966   1.211
  189XTA   HL1821131  25.387   4.131   1.509
  189XTA   HL1921132  25.497   4.028   1.417
  189XTA   HL2021133  25.537   3.983   1.665
  189XTA   HL2121134  25.423   3.858   1.632
  189XTA   HL2221135  25.364   4.005   1.690
  189XTA   HL2321136  26.243   4.675  -0.025
  189XTA   HL2421137  26.296   4.628   0.121
  189XTA   HL2521138  26.377   4.897   0.012
  189XTA   HL2621139  26.449   4.816   0.152
  189XTA   HL2721140  26.514   4.642  -0.007
  189XTA   HL2821141  26.458   4.731  -0.153
  189XTA   HL2921142  26.700   4.795  -0.128
  189XTA   HL3021143  26.596   4.934  -0.074
  189XTA   HL3121144  26.658   4.847   0.160
  189XTA   HL3221145  26.755   4.727   0.089
  189XTA   HL3321146  26.872   4.963  -0.009
  189XTA   HL3421147  26.744   5.027   0.101
  189XTA   HL3521148  27.076   4.893   0.122
  189XTA   HL3621149  26.992   4.755   0.161
  189XTA   HL3721150  27.067   4.692   0.512
  189XTA   HL3821151  27.040   4.616   0.365
  189XTA   HL3921152  26.835   4.817   0.493
  189XTA   HL4021153  26.831   4.641   0.498
  189XTA   HL4121154  26.820   4.715   0.341
  189XTA    CO821155  25.274   3.802   1.418
  189XTA    CO921156  25.151   4.022   1.466
  189XTA    OA621157  25.126   3.981   1.601
  189XTA   HL4221158  25.377   3.767   1.411
  189XTA   HL4321159  25.243   3.775   1.512
  189XTA   HL4421160  26.982   4.999   0.415
  189XTA   HL4521161  27.154   5.029   0.368
  189XTA   CO1021162  27.084   4.962   0.421
  189XTA   CO1121163  27.232   4.798   0.310
  189XTA    OA721164  27.276   4.881   0.207
  189XTA   HL4621165  27.294   4.805   0.398
  189XTA   HL4721166  27.240   4.690   0.277
  189XTA   HL4821167  25.060   3.985   1.419
  189XTA   HL4921168  25.145   4.127   1.457
  190XTA     NT21169  25.418   5.587   3.670
  190XTA    CN121170  25.376   5.715   3.638
  190XTA     C121171  25.358   5.801   3.744
  190XTA     C221172  25.330   5.937   3.719
  190XTA     C321173  25.323   5.979   3.584
  190XTA     C421174  25.355   5.894   3.480
  190XTA     C521175  25.380   5.759   3.508
  190XTA    CN221176  25.339   5.499   3.733
  190XTA     C621177  25.228   5.453   3.662
  190XTA     C721178  25.131   5.364   3.714
  190XTA     C821179  25.162   5.317   3.843
  190XTA     C921180  25.264   5.366   3.922
  190XTA    C1021181  25.356   5.457   3.866
  190XTA    CN321182  25.540   5.546   3.627
  190XTA    C1121183  25.558   5.429   3.545
  190XTA    C1221184  25.685   5.402   3.490
  190XTA    C1321185  25.796   5.478   3.514
  190XTA    C1421186  25.780   5.593   3.590
  190XTA    C1521187  25.655   5.621   3.650
  190XTA     H121188  25.361   5.774   3.850
  190XTA     H221189  25.331   6.002   3.807
  190XTA     H321190  25.361   5.930   3.378
  190XTA     H421191  25.394   5.691   3.419
  190XTA     H521192  25.217   5.493   3.565
  190XTA     H621193  25.049   5.337   3.648
  190XTA     H721194  25.280   5.330   4.024
  190XTA     H821195  25.446   5.481   3.918
  190XTA     H921196  25.471   5.371   3.527
  190XTA    H1021197  25.703   5.314   3.423
  190XTA    H1121198  25.864   5.654   3.611
  190XTA    H1221199  25.627   5.699   3.725
  190XTA    OA121200  25.278   6.105   3.547
  190XTA    CO121201  25.237   6.192   3.654
  190XTA    OA221202  25.073   5.228   3.904
  190XTA    CO221203  24.966   5.284   3.972
  190XTA    CL121204  24.849   5.343   3.886
  190XTA    CL221205  24.801   5.249   3.772
  190XTA    CL321206  24.727   5.316   3.654
  190XTA    CL421207  24.714   5.229   3.530
  190XTA    CO321208  24.619   5.109   3.563
  190XTA    OA321209  24.483   5.149   3.578
  190XTA    CO421210  24.415   5.035   3.633
  190XTA    CT121211  24.259   5.057   3.630
  190XTA    CL521212  24.226   5.186   3.712
  190XTA    CL621213  24.243   5.175   3.864
  190XTA    OA421214  25.911   5.445   3.453
  190XTA    CO521215  26.037   5.510   3.491
  190XTA    CL721216  26.094   5.452   3.624
  190XTA    CL821217  26.126   5.551   3.731
  190XTA    CL921218  26.269   5.597   3.720
  190XTA   CL1021219  26.295   5.731   3.791
  190XTA    CO621220  26.256   5.851   3.698
  190XTA    OA521221  26.331   5.848   3.577
  190XTA    CO721222  26.469   5.874   3.593
  190XTA    CT221223  26.545   5.846   3.462
  190XTA   CL1121224  26.463   5.896   3.338
  190XTA   CL1221225  26.424   6.040   3.329
  190XTA    HL121226  25.173   6.133   3.713
  190XTA    HL221227  25.316   6.231   3.718
  190XTA    HL321228  25.180   6.280   3.617
  190XTA    HL421229  24.916   5.203   4.031
  190XTA    HL521230  24.996   5.351   4.053
  190XTA    HL621231  24.893   5.425   3.824
  190XTA    HL721232  24.780   5.396   3.947
  190XTA    HL821233  24.736   5.184   3.817
  190XTA    HL921234  24.892   5.196   3.749
  190XTA   HL1021235  24.620   5.341   3.668
  190XTA   HL1121236  24.765   5.417   3.639
  190XTA   HL1221237  24.817   5.199   3.503
  190XTA   HL1321238  24.672   5.293   3.449
  190XTA   HL1421239  24.617   5.032   3.483
  190XTA   HL1521240  24.661   5.057   3.649
  190XTA   HL1621241  24.444   4.949   3.571
  190XTA   HL1721242  24.455   5.017   3.729
  190XTA   HL1821243  24.113   5.202   3.709
  190XTA   HL1921244  24.279   5.274   3.663
  190XTA   HL2021245  24.234   5.265   3.925
  190XTA   HL2121246  24.349   5.158   3.896
  190XTA   HL2221247  24.174   5.104   3.912
  190XTA   HL2321248  26.025   5.619   3.503
  190XTA   HL2421249  26.105   5.506   3.407
  190XTA   HL2521250  26.005   5.404   3.673
  190XTA   HL2621251  26.166   5.374   3.599
  190XTA   HL2721252  26.068   5.638   3.717
  190XTA   HL2821253  26.102   5.516   3.833
  190XTA   HL2921254  26.325   5.510   3.766
  190XTA   HL3021255  26.321   5.594   3.629
  190XTA   HL3121256  26.247   5.732   3.891
  190XTA   HL3221257  26.392   5.743   3.825
  190XTA   HL3321258  26.148   5.854   3.674
  190XTA   HL3421259  26.262   5.946   3.756
  190XTA   HL3521260  26.510   5.817   3.677
  190XTA   HL3621261  26.482   5.975   3.625
  190XTA   HL3721262  26.368   5.840   3.336
  190XTA   HL3821263  26.506   5.862   3.240
  190XTA   HL3921264  26.518   6.106   3.327
  190XTA   HL4021265  26.370   6.068   3.419
  190XTA   HL4121266  26.363   6.066   3.246
  190XTA    CO821267  24.198   4.931   3.680
  190XTA    CO921268  24.203   5.064   3.485
  190XTA    OA621269  24.207   4.836   3.616
  190XTA   HL4221270  24.093   4.958   3.704
  190XTA   HL4321271  24.245   4.913   3.778
  190XTA   HL4421272  26.461   5.649   3.468
  190XTA   HL4521273  26.633   5.634   3.546
  190XTA   CO1021274  26.554   5.688   3.450
  190XTA   CO1121275  26.689   5.908   3.460
  190XTA    OA721276  26.722   5.944   3.557
  190XTA   HL4621277  26.762   5.832   3.434
  190XTA   HL4721278  26.685   5.991   3.388
  190XTA   HL4821279  24.261   5.177   3.422
  190XTA   HL4921280  24.243   4.974   3.437
  191XTA     NT21281  25.800   4.068   0.605
  191XTA    CN121282  25.811   4.163   0.698
  191XTA     C121283  25.715   4.266   0.706
  191XTA     C221284  25.715   4.369   0.804
  191XTA     C321285  25.818   4.380   0.896
  191XTA     C421286  25.922   4.273   0.894
  191XTA     C521287  25.911   4.168   0.806
  191XTA    CN221288  25.729   3.954   0.644
  191XTA     C621289  25.796   3.850   0.714
  191XTA     C721290  25.721   3.736   0.745
  191XTA     C821291  25.585   3.714   0.715
  191XTA     C921292  25.521   3.818   0.644
  191XTA    C1021293  25.589   3.938   0.619
  191XTA    CN321294  25.838   4.096   0.480
  191XTA    C1121295  25.948   4.165   0.442
  191XTA    C1221296  26.000   4.180   0.312
  191XTA    C1321297  25.938   4.117   0.206
  191XTA    C1421298  25.819   4.047   0.232
  191XTA    C1521299  25.770   4.033   0.364
  191XTA     H121300  25.635   4.271   0.632
  191XTA     H221301  25.649   4.453   0.803
  191XTA     H321302  26.008   4.278   0.961
  191XTA     H421303  25.988   4.094   0.796
  191XTA     H521304  25.901   3.853   0.718
  191XTA     H621305  25.777   3.644   0.771
  191XTA     H721306  25.414   3.804   0.615
  191XTA     H821307  25.531   4.016   0.572
  191XTA     H921308  26.002   4.220   0.522
  191XTA    H1021309  26.092   4.241   0.312
  191XTA    H1121310  25.777   3.994   0.145
  191XTA    H1221311  25.684   3.972   0.387
  191XTA    OA121312  25.824   4.478   0.990
  191XTA    CO121313  25.774   4.608   0.955
  191XTA    OA221314  25.513   3.597   0.733
  191XTA    CO221315  25.552   3.512   0.840
  191XTA    CL121316  25.463   3.386   0.834
  191XTA    CL221317  25.496   3.275   0.936
  191XTA    CL321318  25.420   3.289   1.068
  191XTA    CL421319  25.278   3.241   1.055
  191XTA    CO321320  25.201   3.265   1.189
  191XTA    OA321321  25.232   3.393   1.250
  191XTA    CO421322  25.178   3.503   1.177
  191XTA    CT121323  25.063   3.567   1.263
  191XTA    CL521324  24.966   3.651   1.170
  191XTA    CL621325  24.912   3.573   1.050
  191XTA    OA421326  25.986   4.128   0.079
  191XTA    CO521327  26.127   4.150   0.050
  191XTA    CL721328  26.169   4.293   0.040
  191XTA    CL821329  26.313   4.312   0.000
  191XTA    CL921330  26.410   4.290   0.120
  191XTA   CL1021331  26.377   4.371   0.253
  191XTA    CO621332  26.485   4.384   0.362
  191XTA    OA521333  26.518   4.259   0.406
  191XTA    CO721334  26.649   4.252   0.466
  191XTA    CT221335  26.696   4.113   0.516
  191XTA   CL1121336  26.849   4.115   0.506
  191XTA   CL1221337  26.932   4.200   0.602
  191XTA    HL121338  25.828   4.653   0.879
  191XTA    HL221339  25.666   4.612   0.929
  191XTA    HL321340  25.798   4.667   1.041
  191XTA    HL421341  25.669   3.489   0.843
  191XTA    HL521342  25.537   3.564   0.937
  191XTA    HL621343  25.483   3.352   0.737
  191XTA    HL721344  25.356   3.406   0.845
  191XTA    HL821345  25.603   3.272   0.951
  191XTA    HL921346  25.485   3.178   0.891
  191XTA   HL1021347  25.474   3.233   1.148
  191XTA   HL1121348  25.424   3.391   1.097
  191XTA   HL1221349  25.277   3.146   1.020
  191XTA   HL1321350  25.234   3.298   0.977
  191XTA   HL1421351  25.096   3.259   1.183
  191XTA   HL1521352  25.247   3.201   1.268
  191XTA   HL1621353  25.258   3.572   1.147
  191XTA   HL1721354  25.145   3.479   1.076
  191XTA   HL1821355  25.013   3.745   1.130
  191XTA   HL1921356  24.884   3.692   1.229
  191XTA   HL2021357  24.840   3.623   0.979
  191XTA   HL2121358  24.871   3.474   1.083
  191XTA   HL2221359  24.988   3.543   0.980
  191XTA   HL2321360  26.146   4.097  -0.051
  191XTA   HL2421361  26.196   4.104   0.119
  191XTA   HL2521362  26.103   4.340  -0.045
  191XTA   HL2621363  26.150   4.344   0.137
  191XTA   HL2721364  26.332   4.250  -0.081
  191XTA   HL2821365  26.334   4.409  -0.041
  191XTA   HL2921366  26.411   4.183   0.149
  191XTA   HL3021367  26.512   4.313   0.101
  191XTA   HL3121368  26.341   4.470   0.221
  191XTA   HL3221369  26.287   4.340   0.317
  191XTA   HL3321370  26.578   4.441   0.327
  191XTA   HL3421371  26.444   4.436   0.447
  191XTA   HL3521372  26.652   4.315   0.550
  191XTA   HL3621373  26.725   4.295   0.400
  191XTA   HL3721374  26.866   4.146   0.408
  191XTA   HL3821375  26.877   4.007   0.515
  191XTA   HL3921376  26.927   4.306   0.586
  191XTA   HL4021377  27.028   4.171   0.565
  191XTA   HL4121378  26.921   4.182   0.707
  191XTA    CO821379  25.122   3.668   1.361
  191XTA    CO921380  24.969   3.468   1.335
  191XTA    OA621381  25.193   3.744   1.311
  191XTA   HL4221382  25.170   3.608   1.437
  191XTA   HL4321383  25.046   3.728   1.409
  191XTA   HL4421384  26.498   4.024   0.431
  191XTA   HL4521385  26.639   3.902   0.492
  191XTA   CO1021386  26.635   3.994   0.430
  191XTA   CO1121387  26.653   4.081   0.662
  191XTA    OA721388  26.544   4.063   0.680
  191XTA   HL4621389  26.705   3.990   0.685
  191XTA   HL4721390  26.695   4.152   0.733
  191XTA   HL4821391  24.947   3.346   1.267
  191XTA   HL4921392  25.029   3.444   1.426
  192XTA     NT21393  25.081   2.030   2.878
  192XTA    CN121394  25.204   2.074   2.916
  192XTA     C121395  25.323   2.011   2.866
  192XTA     C221396  25.451   2.072   2.881
  192XTA     C321397  25.461   2.194   2.949
  192XTA     C421398  25.347   2.258   2.993
  192XTA     C521399  25.221   2.201   2.967
  192XTA    CN221400  25.062   1.979   2.759
  192XTA     C621401  25.048   1.844   2.726
  192XTA     C721402  25.020   1.807   2.590
  192XTA     C821403  25.024   1.901   2.484
  192XTA     C921404  25.043   2.035   2.513
  192XTA    C1021405  25.055   2.071   2.649
  192XTA    CN321406  24.977   2.037   2.964
  192XTA    C1121407  24.970   1.964   3.087
  192XTA    C1221408  24.859   1.978   3.176
  192XTA    C1321409  24.755   2.070   3.153
  192XTA    C1421410  24.768   2.146   3.035
  192XTA    C1521411  24.876   2.135   2.945
  192XTA     H121412  25.320   1.919   2.814
  192XTA     H221413  25.530   2.024   2.825
  192XTA     H321414  25.347   2.349   3.036
  192XTA     H421415  25.131   2.247   3.006
  192XTA     H521416  25.046   1.762   2.798
  192XTA     H621417  25.008   1.702   2.563
  192XTA     H721418  25.029   2.109   2.441
  192XTA     H821419  25.063   2.175   2.673
  192XTA     H921420  25.056   1.900   3.099
  192XTA    H1021421  24.850   1.912   3.258
  192XTA    H1121422  24.691   2.207   2.996
  192XTA    H1221423  24.884   2.199   2.860
  192XTA    OA121424  25.581   2.265   2.944
  192XTA    CO121425  25.668   2.242   2.828
  192XTA    OA221426  24.997   1.870   2.356
  192XTA    CO221427  25.071   1.761   2.293
  192XTA    CL121428  25.001   1.724   2.164
  192XTA    CL221429  24.872   1.662   2.192
  192XTA    CL321430  24.750   1.727   2.119
  192XTA    CL421431  24.701   1.872   2.153
  192XTA    CO321432  24.673   1.891   2.302
  192XTA    OA321433  24.674   2.026   2.333
  192XTA    CO421434  24.602   2.062   2.450
  192XTA    CT121435  24.607   2.214   2.470
  192XTA    CL521436  24.540   2.295   2.362
  192XTA    CL621437  24.534   2.445   2.383
  192XTA    OA421438  24.644   2.053   3.232
  192XTA    CO521439  24.521   2.125   3.194
  192XTA    CL721440  24.394   2.052   3.219
  192XTA    CL821441  24.378   1.928   3.125
  192XTA    CL921442  24.239   1.863   3.141
  192XTA   CL1021443  24.224   1.730   3.077
  192XTA    CO621444  24.293   1.612   3.148
  192XTA    OA521445  24.346   1.520   3.055
  192XTA    CO721446  24.255   1.423   3.008
  192XTA    CT221447  24.326   1.287   3.007
  192XTA   CL1121448  24.329   1.219   3.139
  192XTA   CL1221449  24.410   1.290   3.252
  192XTA    HL121450  25.721   2.148   2.837
  192XTA    HL221451  25.607   2.247   2.740
  192XTA    HL321452  25.750   2.319   2.824
  192XTA    HL421453  25.170   1.803   2.280
  192XTA    HL521454  25.079   1.676   2.365
  192XTA    HL621455  25.062   1.659   2.105
  192XTA    HL721456  24.988   1.804   2.098
  192XTA    HL821457  24.847   1.674   2.298
  192XTA    HL921458  24.877   1.555   2.167
  192XTA   HL1021459  24.761   1.719   2.013
  192XTA   HL1121460  24.674   1.656   2.129
  192XTA   HL1221461  24.619   1.899   2.089
  192XTA   HL1321462  24.785   1.941   2.137
  192XTA   HL1421463  24.577   1.842   2.325
  192XTA   HL1521464  24.758   1.847   2.352
  192XTA   HL1621465  24.498   2.029   2.440
  192XTA   HL1721466  24.648   2.004   2.536
  192XTA   HL1821467  24.435   2.265   2.347
  192XTA   HL1921468  24.583   2.272   2.267
  192XTA   HL2021469  24.629   2.493   2.386
  192XTA   HL2121470  24.489   2.472   2.475
  192XTA   HL2221471  24.472   2.500   2.309
  192XTA   HL2321472  24.522   2.171   3.096
  192XTA   HL2421473  24.498   2.213   3.249
  192XTA   HL2521474  24.400   2.019   3.319
  192XTA   HL2621475  24.309   2.118   3.205
  192XTA   HL2721476  24.393   1.968   3.024
  192XTA   HL2821477  24.464   1.861   3.151
  192XTA   HL2921478  24.227   1.849   3.250
  192XTA   HL3021479  24.169   1.931   3.100
  192XTA   HL3121480  24.114   1.715   3.077
  192XTA   HL3221481  24.253   1.737   2.971
  192XTA   HL3321482  24.375   1.654   3.203
  192XTA   HL3421483  24.219   1.565   3.210
  192XTA   HL3521484  24.229   1.451   2.905
  192XTA   HL3621485  24.163   1.416   3.064
  192XTA   HL3721486  24.380   1.130   3.114
  192XTA   HL3821487  24.226   1.192   3.174
  192XTA   HL3921488  24.368   1.383   3.283
  192XTA   HL4021489  24.512   1.319   3.221
  192XTA   HL4121490  24.402   1.219   3.336
  192XTA    CO821491  24.755   2.257   2.480
  192XTA    CO921492  24.552   2.242   2.607
  192XTA    OA621493  24.451   2.203   2.622
  192XTA   HL4221494  24.797   2.167   2.533
  192XTA   HL4321495  24.813   2.260   2.351
  192XTA   HL4421496  24.458   1.377   2.872
  192XTA   HL4521497  24.531   1.284   3.010
  192XTA   CO1021498  24.448   1.288   2.939
  192XTA   CO1121499  24.270   1.208   2.895
  192XTA    OA721500  24.422   1.194   2.880
  192XTA   HL4621501  24.185   1.099   2.930
  192XTA   HL4721502  24.229   1.266   2.817
  192XTA   HL4821503  24.565   2.348   2.633
  192XTA   HL4921504  24.612   2.188   2.670
  193XTH     NT21505  28.184   4.411   1.341
  193XTH    CN121506  28.234   4.363   1.454
  193XTH     C121507  28.366   4.399   1.491
  193XTH     C221508  28.422   4.345   1.608
  193XTH     C321509  28.348   4.262   1.698
  193XTH     C421510  28.213   4.234   1.655
  193XTH     C521511  28.158   4.275   1.534
  193XTH    CN221512  28.196   4.347   1.225
  193XTH     C621513  28.111   4.238   1.197
  193XTH     C721514  28.126   4.176   1.071
  193XTH     C821515  28.234   4.209   0.985
  193XTH     C921516  28.314   4.327   1.016
  193XTH    C1021517  28.305   4.386   1.142
  193XTH    CN321518  28.087   4.506   1.354
  193XTH    C1121519  28.093   4.601   1.452
  193XTH    C1221520  27.999   4.706   1.447
  193XTH    C1321521  27.902   4.721   1.339
  193XTH    C1421522  27.893   4.619   1.247
  193XTH    C1521523  27.991   4.514   1.251
  193XTH     H121524  28.418   4.468   1.427
  193XTH     H221525  28.530   4.362   1.629
  193XTH     H321526  28.151   4.174   1.720
  193XTH     H421527  28.052   4.247   1.518
  193XTH     H521528  28.021   4.202   1.255
  193XTH     H621529  28.061   4.090   1.046
  193XTH     H721530  28.385   4.363   0.934
  193XTH     H821531  28.370   4.468   1.163
  193XTH     H921532  28.168   4.594   1.533
  193XTH    H1021533  28.003   4.777   1.521
  193XTH    H1121534  27.824   4.606   1.160
  193XTH    H1221535  27.984   4.438   1.162
  193XTH    OA121536  28.402   4.217   1.810
  193XTH    CO121537  28.318   4.162   1.908
  193XTH    OA221538  28.262   4.139   0.866
  193XTH    CO221539  28.167   4.035   0.822
  193XTH    CL121540  28.231   3.978   0.700
  193XTH    CL221541  28.120   3.911   0.608
  193XTH    CL321542  28.169   3.884   0.464
  193XTH    CL421543  28.057   3.849   0.365
  193XTH    CO321544  28.105   3.825   0.218
  193XTH    OA321545  28.183   3.939   0.190
  193XTH    CO421546  28.244   3.926   0.067
  193XTH    CT121547  28.363   4.027   0.065
  193XTH    CL521548  28.448   4.013   0.193
  193XTH    CL621549  28.482   3.868   0.231
  193XTH    OA421550  27.823   4.834   1.336
  193XTH    CO521551  27.728   4.853   1.230
  193XTH    CL721552  27.654   4.986   1.246
  193XTH    CL821553  27.553   5.005   1.141
  193XTH    CL921554  27.625   5.068   1.021
  193XTH   CL1021555  27.529   5.103   0.908
  193XTH    CO621556  27.437   4.983   0.864
  193XTH    OA521557  27.319   5.045   0.819
  193XTH    CO721558  27.220   4.946   0.818
  193XTH    CT221559  27.086   5.010   0.779
  193XTH   CL1121560  26.973   4.907   0.785
  193XTH   CL1221561  26.832   4.945   0.748
  193XTH    HL121562  28.376   4.134   1.998
  193XTH    HL221563  28.244   4.236   1.944
  193XTH    HL321564  28.275   4.069   1.886
  193XTH    HL421565  28.154   3.957   0.896
  193XTH    HL521566  28.077   4.080   0.801
  193XTH    HL621567  28.300   3.907   0.741
  193XTH    HL721568  28.293   4.045   0.647
  193XTH    HL821569  28.030   3.979   0.603
  193XTH    HL921570  28.076   3.821   0.653
  193XTH   HL1021571  28.204   3.976   0.428
  193XTH   HL1121572  28.264   3.822   0.473
  193XTH   HL1221573  27.971   3.912   0.373
  193XTH   HL1321574  28.006   3.764   0.401
  193XTH   HL1421575  28.173   3.742   0.206
  193XTH   HL1521576  28.027   3.820   0.144
  193XTH   HL1621577  28.272   3.817   0.040
  193XTH   HL1721578  28.170   3.947  -0.012
  193XTH   HL1821579  28.399   4.052   0.279
  193XTH   HL1921580  28.533   4.082   0.180
  193XTH   HL2021581  28.549   3.827   0.153
  193XTH   HL2121582  28.395   3.807   0.242
  193XTH   HL2221583  28.523   3.861   0.329
  193XTH   HL2321584  27.658   4.766   1.226
  193XTH   HL2421585  27.785   4.847   1.136
  193XTH   HL2521586  27.611   4.986   1.345
  193XTH   HL2621587  27.722   5.077   1.247
  193XTH   HL2721588  27.527   4.905   1.107
  193XTH   HL2821589  27.458   5.053   1.170
  193XTH   HL2921590  27.675   5.163   1.039
  193XTH   HL3021591  27.708   5.004   0.990
  193XTH   HL3121592  27.468   5.187   0.949
  193XTH   HL3221593  27.578   5.140   0.822
  193XTH   HL3321594  27.485   4.931   0.784
  193XTH   HL3421595  27.416   4.903   0.939
  193XTH   HL3521596  27.199   4.908   0.916
  193XTH   HL3621597  27.249   4.863   0.752
  193XTH   HL3721598  26.988   4.876   0.894
  193XTH   HL3821599  27.004   4.823   0.725
  193XTH   HL3921600  26.819   4.987   0.652
  193XTH   HL4021601  26.781   5.009   0.823
  193XTH   HL4121602  26.774   4.851   0.753
  193XTH    CO821603  28.319   4.172   0.057
  193XTH    CO921604  28.446   3.999  -0.061
  193XTH    OA621605  28.577   4.059  -0.060
  193XTH   HL4221606  28.340   4.217  -0.039
  193XTH   HL4321607  28.207   4.179   0.053
  193XTH   HL4421608  27.018   5.124   0.597
  193XTH   HL4521609  27.192   5.121   0.641
  193XTH   CO1021610  27.102   5.064   0.639
  193XTH   CO1121611  27.060   5.118   0.882
  193XTH    OA721612  27.130   4.950   0.554
  193XTH   HL4621613  26.967   5.166   0.854
  193XTH   HL4721614  27.130   5.195   0.867
  193XTH   HL4821615  28.385   4.026  -0.144
  193XTH   HL4921616  28.454   3.889  -0.066
  194XTA     NT21617  27.732   0.354  -1.369
  194XTA    CN121618  27.703   0.483  -1.403
  194XTA     C121619  27.761   0.590  -1.333
  194XTA     C221620  27.732   0.722  -1.377
  194XTA     C321621  27.641   0.747  -1.478
  194XTA     C421622  27.572   0.642  -1.532
  194XTA     C521623  27.604   0.509  -1.495
  194XTA    CN221624  27.662   0.290  -1.269
  194XTA     C621625  27.553   0.205  -1.295
  194XTA     C721626  27.487   0.139  -1.186
  194XTA     C821627  27.531   0.151  -1.051
  194XTA     C921628  27.639   0.242  -1.026
  194XTA    C1021629  27.702   0.302  -1.132
  194XTA    CN321630  27.803   0.285  -1.459
  194XTA    C1121631  27.751   0.202  -1.559
  194XTA    C1221632  27.835   0.138  -1.654
  194XTA    C1321633  27.977   0.163  -1.650
  194XTA    C1421634  28.029   0.247  -1.550
  194XTA    C1521635  27.945   0.296  -1.449
  194XTA     H121636  27.841   0.582  -1.259
  194XTA     H221637  27.784   0.802  -1.339
  194XTA     H321638  27.499   0.668  -1.614
  194XTA     H421639  27.561   0.428  -1.544
  194XTA     H521640  27.513   0.189  -1.390
  194XTA     H621641  27.403   0.079  -1.199
  194XTA     H721642  27.667   0.256  -0.925
  194XTA     H821643  27.776   0.376  -1.106
  194XTA     H921644  27.648   0.169  -1.566
  194XTA    H1021645  27.784   0.066  -1.718
  194XTA    H1121646  28.135   0.271  -1.539
  194XTA    H1221647  27.975   0.346  -1.356
  194XTA    OA121648  27.619   0.869  -1.537
  194XTA    CO121649  27.725   0.966  -1.543
  194XTA    OA221650  27.460   0.098  -0.948
  194XTA    CO221651  27.335   0.165  -0.941
  194XTA    CL121652  27.220   0.085  -0.879
  194XTA    CL221653  27.184  -0.048  -0.947
  194XTA    CL321654  27.123  -0.027  -1.087
  194XTA    CL421655  27.113  -0.158  -1.172
  194XTA    CO321656  27.024  -0.151  -1.292
  194XTA    OA321657  27.099  -0.072  -1.383
  194XTA    CO421658  27.007  -0.007  -1.468
  194XTA    CT121659  27.084   0.075  -1.578
  194XTA    CL521660  26.983   0.160  -1.657
  194XTA    CL621661  26.886   0.253  -1.572
  194XTA    OA421662  28.056   0.106  -1.749
  194XTA    CO521663  28.197   0.122  -1.739
  194XTA    CL721664  28.277   0.015  -1.663
  194XTA    CL821665  28.234  -0.124  -1.701
  194XTA    CL921666  28.297  -0.169  -1.831
  194XTA   CL1021667  28.253  -0.313  -1.868
  194XTA    CO621668  28.289  -0.367  -2.009
  194XTA    OA521669  28.217  -0.485  -2.025
  194XTA    CO721670  28.178  -0.513  -2.162
  194XTA    CT221671  28.060  -0.606  -2.175
  194XTA   CL1121672  28.080  -0.751  -2.123
  194XTA   CL1221673  28.220  -0.816  -2.147
  194XTA    HL121674  27.716   1.019  -1.450
  194XTA    HL221675  27.819   0.904  -1.551
  194XTA    HL321676  27.722   1.032  -1.623
  194XTA    HL421677  27.357   0.257  -0.889
  194XTA    HL521678  27.300   0.197  -1.039
  194XTA    HL621679  27.139   0.150  -0.870
  194XTA    HL721680  27.257   0.052  -0.782
  194XTA    HL821681  27.116  -0.090  -0.875
  194XTA    HL921682  27.274  -0.111  -0.954
  194XTA   HL1021683  27.017   0.004  -1.064
  194XTA   HL1121684  27.177   0.050  -1.147
  194XTA   HL1221685  27.071  -0.230  -1.105
  194XTA   HL1321686  27.214  -0.195  -1.194
  194XTA   HL1421687  27.003  -0.245  -1.326
  194XTA   HL1521688  26.928  -0.102  -1.265
  194XTA   HL1621689  26.945  -0.081  -1.518
  194XTA   HL1721690  26.939   0.058  -1.404
  194XTA   HL1821691  26.929   0.085  -1.713
  194XTA   HL1921692  27.047   0.218  -1.721
  194XTA   HL2021693  26.942   0.326  -1.526
  194XTA   HL2121694  26.822   0.197  -1.514
  194XTA   HL2221695  26.829   0.319  -1.636
  194XTA   HL2321696  28.226   0.222  -1.703
  194XTA   HL2421697  28.239   0.121  -1.841
  194XTA   HL2521698  28.389   0.031  -1.677
  194XTA   HL2621699  28.257   0.028  -1.556
  194XTA   HL2721700  28.270  -0.196  -1.624
  194XTA   HL2821701  28.129  -0.131  -1.708
  194XTA   HL2921702  28.281  -0.092  -1.904
  194XTA   HL3021703  28.402  -0.167  -1.808
  194XTA   HL3121704  28.305  -0.377  -1.795
  194XTA   HL3221705  28.145  -0.331  -1.846
  194XTA   HL3321706  28.262  -0.290  -2.082
  194XTA   HL3421707  28.394  -0.395  -2.016
  194XTA   HL3521708  28.279  -0.546  -2.199
  194XTA   HL3621709  28.168  -0.420  -2.216
  194XTA   HL3721710  28.005  -0.824  -2.164
  194XTA   HL3821711  28.066  -0.744  -2.020
  194XTA   HL3921712  28.300  -0.746  -2.145
  194XTA   HL4021713  28.225  -0.850  -2.246
  194XTA   HL4121714  28.236  -0.900  -2.077
  194XTA    CO821715  27.150  -0.022  -1.677
  194XTA    CO921716  27.191   0.165  -1.522
  194XTA    OA621717  27.152   0.252  -1.464
  194XTA   HL4221718  27.068  -0.093  -1.705
  194XTA   HL4321719  27.199   0.049  -1.791
  194XTA   HL4421720  27.953  -0.681  -2.340
  194XTA   HL4521721  27.989  -0.526  -2.364
  194XTA   CO1021722  28.031  -0.609  -2.319
  194XTA   CO1121723  27.946  -0.538  -2.096
  194XTA    OA721724  28.150  -0.638  -2.391
  194XTA   HL4621725  27.864  -0.612  -2.097
  194XTA   HL4721726  27.977  -0.517  -1.997
  194XTA   HL4821727  27.247   0.215  -1.596
  194XTA   HL4921728  27.258   0.097  -1.467
  195XTA     NT21729  26.451  -1.590   2.061
  195XTA    CN121730  26.494  -1.656   2.169
  195XTA     C121731  26.436  -1.783   2.192
  195XTA     C221732  26.479  -1.859   2.300
  195XTA     C321733  26.577  -1.814   2.388
  195XTA     C421734  26.626  -1.682   2.370
  195XTA     C521735  26.585  -1.609   2.263
  195XTA    CN221736  26.541  -1.537   1.979
  195XTA     C621737  26.575  -1.601   1.862
  195XTA     C721738  26.695  -1.563   1.795
  195XTA     C821739  26.758  -1.444   1.833
  195XTA     C921740  26.711  -1.366   1.942
  195XTA    C1021741  26.603  -1.416   2.009
  195XTA    CN321742  26.323  -1.548   2.046
  195XTA    C1121743  26.243  -1.593   1.945
  195XTA    C1221744  26.124  -1.535   1.903
  195XTA    C1321745  26.077  -1.413   1.965
  195XTA    C1421746  26.160  -1.360   2.061
  195XTA    C1521747  26.272  -1.428   2.108
  195XTA     H121748  26.360  -1.825   2.125
  195XTA     H221749  26.440  -1.954   2.321
  195XTA     H321750  26.696  -1.627   2.436
  195XTA     H421751  26.611  -1.507   2.252
  195XTA     H521752  26.524  -1.688   1.824
  195XTA     H621753  26.737  -1.626   1.722
  195XTA     H721754  26.757  -1.280   1.977
  195XTA     H821755  26.585  -1.357   2.092
  195XTA     H921756  26.282  -1.668   1.870
  195XTA    H1021757  26.066  -1.575   1.817
  195XTA    H1121758  26.130  -1.272   2.116
  195XTA    H1221759  26.334  -1.379   2.186
  195XTA    OA121760  26.619  -1.894   2.490
  195XTA    CO121761  26.723  -1.843   2.575
  195XTA    OA221762  26.870  -1.400   1.773
  195XTA    CO221763  26.986  -1.472   1.805
  195XTA    CL121764  27.106  -1.388   1.775
  195XTA    CL221765  27.227  -1.480   1.788
  195XTA    CL321766  27.349  -1.416   1.841
  195XTA    CL421767  27.342  -1.389   1.992
  195XTA    CO321768  27.450  -1.308   2.041
  195XTA    OA321769  27.430  -1.180   1.998
  195XTA    CO421770  27.537  -1.100   2.020
  195XTA    CT121771  27.512  -0.965   1.956
  195XTA    CL521772  27.619  -0.864   2.021
  195XTA    CL621773  27.607  -0.717   1.977
  195XTA    OA421774  25.968  -1.338   1.922
  195XTA    CO521775  25.869  -1.411   1.853
  195XTA    CL721776  25.741  -1.314   1.839
  195XTA    CL821777  25.693  -1.261   1.978
  195XTA    CL921778  25.642  -1.377   2.067
  195XTA   CL1021779  25.608  -1.330   2.211
  195XTA    CO621780  25.518  -1.427   2.296
  195XTA    OA521781  25.399  -1.447   2.229
  195XTA    CO721782  25.315  -1.530   2.306
  195XTA    CT221783  25.174  -1.527   2.249
  195XTA   CL1121784  25.154  -1.598   2.108
  195XTA   CL1221785  25.261  -1.553   2.003
  195XTA    HL121786  26.815  -1.829   2.516
  195XTA    HL221787  26.700  -1.749   2.612
  195XTA    HL321788  26.738  -1.913   2.657
  195XTA    HL421789  26.986  -1.494   1.909
  195XTA    HL521790  26.979  -1.566   1.744
  195XTA    HL621791  27.114  -1.313   1.846
  195XTA    HL721792  27.090  -1.343   1.677
  195XTA    HL821793  27.256  -1.527   1.698
  195XTA    HL921794  27.203  -1.557   1.856
  195XTA   HL1021795  27.432  -1.464   1.808
  195XTA   HL1121796  27.364  -1.315   1.793
  195XTA   HL1221797  27.337  -1.476   2.054
  195XTA   HL1321798  27.246  -1.345   2.010
  195XTA   HL1421799  27.458  -1.295   2.154
  195XTA   HL1521800  27.549  -1.343   2.008
  195XTA   HL1621801  27.538  -1.087   2.125
  195XTA   HL1721802  27.631  -1.145   1.988
  195XTA   HL1821803  27.718  -0.908   2.005
  195XTA   HL1921804  27.606  -0.864   2.133
  195XTA   HL2021805  27.505  -0.690   1.983
  195XTA   HL2121806  27.636  -0.708   1.872
  195XTA   HL2221807  27.668  -0.647   2.025
  195XTA   HL2321808  25.854  -1.501   1.915
  195XTA   HL2421809  25.906  -1.449   1.756
  195XTA   HL2521810  25.775  -1.215   1.788
  195XTA   HL2621811  25.661  -1.370   1.791
  195XTA   HL2721812  25.777  -1.219   2.030
  195XTA   HL2821813  25.621  -1.180   1.965
  195XTA   HL2921814  25.547  -1.402   2.017
  195XTA   HL3021815  25.706  -1.460   2.071
  195XTA   HL3121816  25.702  -1.323   2.266
  195XTA   HL3221817  25.566  -1.232   2.201
  195XTA   HL3321818  25.568  -1.527   2.302
  195XTA   HL3421819  25.509  -1.397   2.398
  195XTA   HL3521820  25.315  -1.509   2.413
  195XTA   HL3621821  25.339  -1.634   2.297
  195XTA   HL3721822  25.048  -1.581   2.071
  195XTA   HL3821823  25.154  -1.704   2.131
  195XTA   HL3921824  25.271  -1.449   2.030
  195XTA   HL4021825  25.230  -1.560   1.900
  195XTA   HL4121826  25.359  -1.607   2.014
  195XTA    CO821827  27.360  -0.919   1.994
  195XTA    CO921828  27.514  -0.972   1.798
  195XTA    OA621829  27.361  -0.887   2.097
  195XTA   HL4221830  27.292  -1.004   1.984
  195XTA   HL4321831  27.339  -0.852   1.919
  195XTA   HL4421832  25.165  -1.322   2.305
  195XTA   HL4521833  25.057  -1.369   2.166
  195XTA   CO1021834  25.103  -1.402   2.261
  195XTA   CO1121835  25.079  -1.582   2.345
  195XTA    OA721836  25.018  -1.445   2.324
  195XTA   HL4621837  24.970  -1.665   2.310
  195XTA   HL4721838  25.121  -1.585   2.446
  195XTA   HL4821839  27.504  -0.838   1.743
  195XTA   HL4921840  27.416  -1.013   1.773
  196XTA     NT21841  28.127  -2.653   2.474
  196XTA    CN121842  28.172  -2.620   2.598
  196XTA     C121843  28.076  -2.604   2.706
  196XTA     C221844  28.118  -2.566   2.836
  196XTA     C321845  28.253  -2.538   2.859
  196XTA     C421846  28.351  -2.539   2.752
  196XTA     C521847  28.310  -2.584   2.631
  196XTA    CN221848  28.142  -2.586   2.362
  196XTA     C621849  28.245  -2.614   2.270
  196XTA     C721850  28.265  -2.529   2.160
  196XTA     C821851  28.166  -2.431   2.130
  196XTA     C921852  28.055  -2.423   2.216
  196XTA    C1021853  28.046  -2.493   2.335
  196XTA    CN321854  28.096  -2.781   2.462
  196XTA    C1121855  28.197  -2.880   2.472
  196XTA    C1221856  28.160  -3.020   2.472
  196XTA    C1321857  28.024  -3.058   2.458
  196XTA    C1421858  27.929  -2.955   2.443
  196XTA    C1521859  27.965  -2.819   2.441
  196XTA     H121860  27.969  -2.630   2.689
  196XTA     H221861  28.038  -2.568   2.911
  196XTA     H321862  28.461  -2.507   2.772
  196XTA     H421863  28.382  -2.594   2.551
  196XTA     H521864  28.315  -2.685   2.295
  196XTA     H621865  28.367  -2.541   2.116
  196XTA     H721866  27.979  -2.353   2.182
  196XTA     H821867  27.960  -2.485   2.396
  196XTA     H921868  28.304  -2.853   2.489
  196XTA    H1021869  28.226  -3.095   2.504
  196XTA    H1121870  27.830  -2.991   2.430
  196XTA    H1221871  27.889  -2.737   2.431
  196XTA    OA121872  28.294  -2.501   2.986
  196XTA    CO121873  28.218  -2.407   3.044
  196XTA    OA221874  28.172  -2.339   2.028
  196XTA    CO221875  28.294  -2.329   1.956
  196XTA    CL121876  28.257  -2.236   1.835
  196XTA    CL221877  28.369  -2.192   1.745
  196XTA    CL321878  28.332  -2.068   1.666
  196XTA    CL421879  28.428  -2.060   1.544
  196XTA    CO321880  28.413  -1.933   1.452
  196XTA    OA321881  28.403  -1.807   1.518
  196XTA    CO421882  28.517  -1.784   1.594
  196XTA    CT121883  28.520  -1.636   1.634
  196XTA    CL521884  28.641  -1.598   1.722
  196XTA    CL621885  28.785  -1.612   1.665
  196XTA    OA421886  27.977  -3.188   2.454
  196XTA    CO521887  28.074  -3.293   2.453
  196XTA    CL721888  28.155  -3.297   2.329
  196XTA    CL821889  28.244  -3.428   2.327
  196XTA    CL921890  28.382  -3.408   2.394
  196XTA   CL1021891  28.501  -3.382   2.296
  196XTA    CO621892  28.642  -3.389   2.365
  196XTA    OA521893  28.743  -3.385   2.261
  196XTA    CO721894  28.776  -3.259   2.210
  196XTA    CT221895  28.919  -3.260   2.152
  196XTA   CL1121896  28.926  -3.331   2.017
  196XTA   CL1221897  28.883  -3.255   1.894
  196XTA    HL121898  28.176  -2.334   2.973
  196XTA    HL221899  28.125  -2.452   3.095
  196XTA    HL321900  28.274  -2.352   3.119
  196XTA    HL421901  28.368  -2.272   2.014
  196XTA    HL521902  28.337  -2.426   1.925
  196XTA    HL621903  28.211  -2.150   1.871
  196XTA    HL721904  28.186  -2.289   1.772
  196XTA    HL821905  28.386  -2.278   1.680
  196XTA    HL921906  28.456  -2.181   1.808
  196XTA   HL1021907  28.235  -2.067   1.616
  196XTA   HL1121908  28.329  -1.973   1.721
  196XTA   HL1221909  28.410  -2.147   1.481
  196XTA   HL1321910  28.533  -2.052   1.583
  196XTA   HL1421911  28.500  -1.924   1.381
  196XTA   HL1521912  28.321  -1.950   1.396
  196XTA   HL1621913  28.503  -1.836   1.690
  196XTA   HL1721914  28.608  -1.813   1.546
  196XTA   HL1821915  28.628  -1.660   1.814
  196XTA   HL1921916  28.625  -1.502   1.762
  196XTA   HL2021917  28.822  -1.712   1.644
  196XTA   HL2121918  28.852  -1.584   1.751
  196XTA   HL2221919  28.809  -1.543   1.588
  196XTA   HL2321920  28.025  -3.387   2.470
  196XTA   HL2421921  28.132  -3.281   2.540
  196XTA   HL2521922  28.081  -3.308   2.254
  196XTA   HL2621923  28.211  -3.204   2.308
  196XTA   HL2721924  28.186  -3.505   2.361
  196XTA   HL2821925  28.252  -3.466   2.219
  196XTA   HL2921926  28.369  -3.335   2.476
  196XTA   HL3021927  28.401  -3.497   2.450
  196XTA   HL3121928  28.496  -3.472   2.234
  196XTA   HL3221929  28.483  -3.288   2.240
  196XTA   HL3321930  28.653  -3.315   2.446
  196XTA   HL3421931  28.652  -3.482   2.416
  196XTA   HL3521932  28.771  -3.179   2.281
  196XTA   HL3621933  28.709  -3.232   2.129
  196XTA   HL3721934  28.873  -3.424   2.010
  196XTA   HL3821935  29.032  -3.364   2.009
  196XTA   HL3921936  28.969  -3.192   1.869
  196XTA   HL4021937  28.793  -3.195   1.913
  196XTA   HL4121938  28.862  -3.312   1.802
  196XTA    CO821939  28.394  -1.601   1.708
  196XTA    CO921940  28.521  -1.562   1.505
  196XTA    OA621941  28.355  -1.701   1.799
  196XTA   HL4221942  28.310  -1.607   1.635
  196XTA   HL4321943  28.404  -1.499   1.750
  196XTA   HL4421944  28.963  -3.345   2.340
  196XTA   HL4521945  29.080  -3.387   2.225
  196XTA   CO1021946  29.013  -3.306   2.251
  196XTA   CO1121947  28.992  -3.126   2.162
  196XTA    OA721948  29.068  -3.209   2.265
  196XTA   HL4621949  29.076  -3.105   2.054
  196XTA   HL4721950  28.927  -3.040   2.184
  196XTA   HL4821951  28.612  -1.574   1.440
  196XTA   HL4921952  28.430  -1.585   1.447
  197XTA     NT21953  27.734  -0.585   5.029
  197XTA    CN121954  27.628  -0.517   5.073
  197XTA     C121955  27.559  -0.431   4.989
  197XTA     C221956  27.432  -0.375   5.021
  197XTA     C321957  27.372  -0.401   5.141
  197XTA     C421958  27.446  -0.488   5.229
  197XTA     C521959  27.565  -0.552   5.199
  197XTA    CN221960  27.719  -0.713   4.989
  197XTA     C621961  27.690  -0.735   4.856
  197XTA     C721962  27.659  -0.869   4.826
  197XTA     C821963  27.684  -0.971   4.922
  197XTA     C921964  27.736  -0.942   5.046
  197XTA    C1021965  27.752  -0.813   5.084
  197XTA    CN321966  27.855  -0.533   5.056
  197XTA    C1121967  27.890  -0.510   5.188
  197XTA    C1221968  28.022  -0.466   5.221
  197XTA    C1321969  28.111  -0.433   5.118
  197XTA    C1421970  28.077  -0.462   4.986
  197XTA    C1521971  27.946  -0.511   4.954
  197XTA     H121972  27.599  -0.404   4.889
  197XTA     H221973  27.377  -0.319   4.951
  197XTA     H321974  27.412  -0.506   5.329
  197XTA     H421975  27.614  -0.618   5.275
  197XTA     H521976  27.661  -0.658   4.783
  197XTA     H621977  27.626  -0.890   4.727
  197XTA     H721978  27.774  -1.020   5.105
  197XTA     H821979  27.785  -0.784   5.178
  197XTA     H921980  27.821  -0.533   5.274
  197XTA    H1021981  28.042  -0.439   5.322
  197XTA    H1121982  28.152  -0.445   4.911
  197XTA    H1221983  27.924  -0.541   4.848
  197XTA    OA121984  27.262  -0.331   5.176
  197XTA    CO121985  27.177  -0.399   5.264
  197XTA    OA221986  27.671  -1.102   4.890
  197XTA    CO221987  27.605  -1.134   4.770
  197XTA    CL121988  27.556  -1.286   4.762
  197XTA    CL221989  27.677  -1.386   4.789
  197XTA    CL321990  27.767  -1.394   4.662
  197XTA    CL421991  27.906  -1.450   4.686
  197XTA    CO321992  27.986  -1.344   4.751
  197XTA    OA321993  28.125  -1.375   4.769
  197XTA    CO421994  28.142  -1.458   4.882
  197XTA    CT121995  28.292  -1.461   4.915
  197XTA    CL521996  28.315  -1.563   5.025
  197XTA    CL621997  28.204  -1.565   5.139
  197XTA    OA421998  28.227  -0.367   5.153
  197XTA    CO521999  28.262  -0.353   5.290
  197XTA    CL722000  28.383  -0.269   5.307
  197XTA    CL822001  28.460  -0.285   5.435
  197XTA    CL922002  28.537  -0.160   5.480
  197XTA   CL1022003  28.451  -0.077   5.582
  197XTA    CO622004  28.495   0.067   5.590
  197XTA    OA522005  28.446   0.139   5.476
  197XTA    CO722006  28.307   0.161   5.479
  197XTA    CT222007  28.273   0.264   5.363
  197XTA   CL1122008  28.359   0.392   5.388
  197XTA   CL1222009  28.313   0.515   5.318
  197XTA    HL122010  27.140  -0.487   5.220
  197XTA    HL222011  27.227  -0.416   5.366
  197XTA    HL322012  27.098  -0.325   5.282
  197XTA    HL422013  27.512  -1.077   4.762
  197XTA    HL522014  27.666  -1.114   4.686
  197XTA    HL622015  27.509  -1.302   4.666
  197XTA    HL722016  27.470  -1.295   4.836
  197XTA    HL822017  27.640  -1.482   4.807
  197XTA    HL922018  27.744  -1.369   4.872
  197XTA   HL1022019  27.716  -1.456   4.584
  197XTA   HL1122020  27.773  -1.288   4.626
  197XTA   HL1222021  27.962  -1.474   4.591
  197XTA   HL1322022  27.892  -1.546   4.742
  197XTA   HL1422023  27.969  -1.248   4.703
  197XTA   HL1522024  27.944  -1.322   4.853
  197XTA   HL1622025  28.091  -1.412   4.964
  197XTA   HL1722026  28.090  -1.551   4.867
  197XTA   HL1822027  28.417  -1.543   5.071
  197XTA   HL1922028  28.317  -1.662   4.984
  197XTA   HL2022029  28.196  -1.468   5.190
  197XTA   HL2122030  28.227  -1.638   5.216
  197XTA   HL2222031  28.110  -1.591   5.101
  197XTA   HL2322032  28.262  -0.446   5.349
  197XTA   HL2422033  28.186  -0.287   5.338
  197XTA   HL2522034  28.442  -0.309   5.230
  197XTA   HL2622035  28.357  -0.168   5.281
  197XTA   HL2722036  28.393  -0.322   5.511
  197XTA   HL2822037  28.530  -0.368   5.420
  197XTA   HL2922038  28.633  -0.194   5.525
  197XTA   HL3022039  28.574  -0.099   5.396
  197XTA   HL3122040  28.350  -0.084   5.572
  197XTA   HL3222041  28.455  -0.106   5.691
  197XTA   HL3322042  28.447   0.101   5.683
  197XTA   HL3422043  28.600   0.065   5.608
  197XTA   HL3522044  28.277   0.198   5.579
  197XTA   HL3622045  28.254   0.074   5.465
  197XTA   HL3722046  28.467   0.374   5.374
  197XTA   HL3822047  28.344   0.409   5.504
  197XTA   HL3922048  28.220   0.548   5.354
  197XTA   HL4022049  28.308   0.515   5.203
  197XTA   HL4122050  28.390   0.593   5.349
  197XTA    CO822051  28.349  -1.322   4.964
  197XTA    CO922052  28.365  -1.503   4.792
  197XTA    OA622053  28.505  -1.532   4.802
  197XTA   HL4222054  28.448  -1.350   5.008
  197XTA   HL4322055  28.366  -1.268   4.873
  197XTA   HL4422056  28.065   0.234   5.318
  197XTA   HL4522057  28.101   0.397   5.318
  197XTA   CO1022058  28.126   0.308   5.376
  197XTA   CO1122059  28.294   0.200   5.229
  197XTA    OA722060  28.216   0.084   5.226
  197XTA   HL4622061  28.267   0.258   5.148
  197XTA   HL4722062  28.400   0.189   5.223
  197XTA   HL4822063  28.355  -1.424   4.713
  197XTA   HL4922064  28.326  -1.593   4.746
  198XTA     NT22065  28.161  -1.651   0.501
  198XTA    CN122066  28.245  -1.543   0.505
  198XTA     C122067  28.310  -1.496   0.390
  198XTA     C222068  28.389  -1.380   0.398
  198XTA     C322069  28.416  -1.313   0.517
  198XTA     C422070  28.352  -1.359   0.636
  198XTA     C522071  28.266  -1.470   0.629
  198XTA    CN222072  28.211  -1.772   0.522
  198XTA     C622073  28.314  -1.792   0.612
  198XTA     C722074  28.366  -1.923   0.644
  198XTA     C822075  28.311  -2.038   0.581
  198XTA     C922076  28.201  -2.018   0.494
  198XTA    C1022077  28.154  -1.888   0.464
  198XTA    CN322078  28.025  -1.624   0.509
  198XTA    C1122079  27.952  -1.692   0.609
  198XTA    C1222080  27.818  -1.679   0.623
  198XTA    C1322081  27.746  -1.621   0.518
  198XTA    C1422082  27.817  -1.550   0.421
  198XTA    C1522083  27.955  -1.544   0.420
  198XTA     H122084  28.304  -1.544   0.297
  198XTA     H222085  28.422  -1.329   0.308
  198XTA     H322086  28.365  -1.320   0.730
  198XTA     H422087  28.219  -1.513   0.712
  198XTA     H522088  28.346  -1.711   0.666
  198XTA     H622089  28.442  -1.931   0.725
  198XTA     H722090  28.142  -2.104   0.458
  198XTA     H822091  28.069  -1.878   0.401
  198XTA     H922092  28.004  -1.743   0.687
  198XTA    H1022093  27.774  -1.722   0.709
  198XTA    H1122094  27.755  -1.499   0.353
  198XTA    H1222095  28.001  -1.485   0.351
  198XTA    OA122096  28.493  -1.201   0.511
  198XTA    CO122097  28.524  -1.134   0.628
  198XTA    OA222098  28.336  -2.174   0.610
  198XTA    CO222099  28.440  -2.195   0.698
  198XTA    CL122100  28.443  -2.349   0.730
  198XTA    CL222101  28.302  -2.413   0.756
  198XTA    CL322102  28.257  -2.481   0.630
  198XTA    CL422103  28.110  -2.529   0.644
  198XTA    CO322104  28.066  -2.603   0.517
  198XTA    OA322105  28.043  -2.500   0.416
  198XTA    CO422106  28.083  -2.537   0.287
  198XTA    CT122107  28.090  -2.404   0.212
  198XTA    CL522108  28.116  -2.434   0.060
  198XTA    CL622109  28.245  -2.503   0.018
  198XTA    OA422110  27.610  -1.629   0.535
  198XTA    CO522111  27.546  -1.685   0.415
  198XTA    CL722112  27.527  -1.833   0.442
  198XTA    CL822113  27.522  -1.912   0.305
  198XTA    CL922114  27.510  -2.064   0.330
  198XTA   CL1022115  27.493  -2.139   0.203
  198XTA    CO622116  27.541  -2.287   0.215
  198XTA    OA522117  27.491  -2.359   0.104
  198XTA    CO722118  27.589  -2.392   0.007
  198XTA    CT222119  27.523  -2.478  -0.100
  198XTA   CL1122120  27.472  -2.605  -0.024
  198XTA   CL1222121  27.584  -2.698   0.028
  198XTA    HL122122  28.571  -1.205   0.689
  198XTA    HL222123  28.589  -1.055   0.608
  198XTA    HL322124  28.442  -1.090   0.682
  198XTA    HL422125  28.542  -2.163   0.663
  198XTA    HL522126  28.412  -2.153   0.794
  198XTA    HL622127  28.495  -2.362   0.823
  198XTA    HL722128  28.499  -2.399   0.653
  198XTA    HL822129  28.247  -2.332   0.805
  198XTA    HL922130  28.309  -2.493   0.824
  198XTA   HL1022131  28.264  -2.409   0.545
  198XTA   HL1122132  28.332  -2.557   0.611
  198XTA   HL1222133  28.039  -2.447   0.669
  198XTA   HL1322134  28.096  -2.591   0.726
  198XTA   HL1422135  28.132  -2.684   0.479
  198XTA   HL1522136  27.971  -2.654   0.544
  198XTA   HL1622137  28.187  -2.579   0.287
  198XTA   HL1722138  28.019  -2.611   0.244
  198XTA   HL1822139  28.103  -2.349  -0.002
  198XTA   HL1922140  28.048  -2.512   0.029
  198XTA   HL2022141  28.239  -2.524  -0.094
  198XTA   HL2122142  28.241  -2.601   0.065
  198XTA   HL2222143  28.336  -2.455   0.046
  198XTA   HL2322144  27.611  -1.677   0.322
  198XTA   HL2422145  27.447  -1.643   0.390
  198XTA   HL2522146  27.615  -1.864   0.505
  198XTA   HL2622147  27.433  -1.839   0.500
  198XTA   HL2722148  27.441  -1.878   0.252
  198XTA   HL2822149  27.612  -1.897   0.246
  198XTA   HL2922150  27.589  -2.106   0.385
  198XTA   HL3022151  27.423  -2.081   0.388
  198XTA   HL3122152  27.387  -2.129   0.178
  198XTA   HL3222153  27.540  -2.094   0.124
  198XTA   HL3322154  27.652  -2.296   0.226
  198XTA   HL3422155  27.512  -2.327   0.312
  198XTA   HL3522156  27.682  -2.443   0.045
  198XTA   HL3622157  27.610  -2.301  -0.039
  198XTA   HL3722158  27.412  -2.668  -0.090
  198XTA   HL3822159  27.412  -2.583   0.066
  198XTA   HL3922160  27.538  -2.774   0.087
  198XTA   HL4022161  27.652  -2.647   0.099
  198XTA   HL4122162  27.653  -2.733  -0.045
  198XTA    CO822163  28.189  -2.307   0.282
  198XTA    CO922164  27.946  -2.337   0.213
  198XTA    OA622165  28.323  -2.340   0.267
  198XTA   HL4222166  28.166  -2.293   0.393
  198XTA   HL4322167  28.171  -2.207   0.243
  198XTA   HL4422168  27.724  -2.555  -0.147
  198XTA   HL4522169  27.598  -2.611  -0.264
  198XTA   CO1022170  27.632  -2.526  -0.204
  198XTA   CO1122171  27.410  -2.415  -0.180
  198XTA    OA722172  27.671  -2.417  -0.285
  198XTA   HL4622173  27.345  -2.366  -0.112
  198XTA   HL4722174  27.455  -2.337  -0.238
  198XTA   HL4822175  27.925  -2.318   0.322
  198XTA   HL4922176  27.869  -2.393   0.155
  199XTA     NT22177  27.708  -0.300   7.927
  199XTA    CN122178  27.614  -0.310   8.025
  199XTA     C122179  27.479  -0.339   7.993
  199XTA     C222180  27.398  -0.374   8.100
  199XTA     C322181  27.438  -0.381   8.229
  199XTA     C422182  27.572  -0.344   8.253
  199XTA     C522183  27.663  -0.312   8.156
  199XTA    CN222184  27.692  -0.181   7.862
  199XTA     C622185  27.632  -0.170   7.736
  199XTA     C722186  27.635  -0.049   7.664
  199XTA     C822187  27.688   0.068   7.721
  199XTA     C922188  27.764   0.053   7.838
  199XTA    C1022189  27.752  -0.065   7.915
  199XTA    CN322190  27.779  -0.404   7.876
  199XTA    C1122191  27.712  -0.498   7.796
  199XTA    C1222192  27.777  -0.614   7.744
  199XTA    C1322193  27.910  -0.639   7.782
  199XTA    C1422194  27.974  -0.547   7.865
  199XTA    C1522195  27.907  -0.433   7.916
  199XTA     H122196  27.447  -0.331   7.888
  199XTA     H222197  27.293  -0.402   8.086
  199XTA     H322198  27.612  -0.354   8.356
  199XTA     H422199  27.765  -0.294   8.177
  199XTA     H522200  27.577  -0.253   7.694
  199XTA     H622201  27.580  -0.039   7.565
  199XTA     H722202  27.825   0.132   7.875
  199XTA     H822203  27.792  -0.067   8.017
  199XTA     H922204  27.604  -0.481   7.773
  199XTA    H1022205  27.734  -0.686   7.681
  199XTA    H1122206  28.075  -0.562   7.898
  199XTA    H1222207  27.962  -0.370   7.991
  199XTA    OA122208  27.351  -0.427   8.327
  199XTA    CO122209  27.395  -0.548   8.382
  199XTA    OA222210  27.677   0.181   7.641
  199XTA    CO222211  27.730   0.300   7.699
  199XTA    CL122212  27.713   0.420   7.613
  199XTA    CL222213  27.566   0.447   7.577
  199XTA    CL322214  27.549   0.558   7.474
  199XTA    CL422215  27.421   0.544   7.396
  199XTA    CO322216  27.406   0.634   7.274
  199XTA    OA322217  27.300   0.592   7.186
  199XTA    CO422218  27.322   0.473   7.112
  199XTA    CT122219  27.212   0.460   7.007
  199XTA    CL522220  27.071   0.445   7.075
  199XTA    CL622221  27.045   0.325   7.166
  199XTA    OA422222  27.988  -0.744   7.745
  199XTA    CO522223  27.950  -0.824   7.635
  199XTA    CL722224  27.831  -0.918   7.662
  199XTA    CL822225  27.747  -0.935   7.539
  199XTA    CL922226  27.777  -1.069   7.463
  199XTA   CL1022227  27.692  -1.176   7.516
  199XTA    CO622228  27.701  -1.304   7.432
  199XTA    OA522229  27.825  -1.360   7.407
  199XTA    CO722230  27.812  -1.471   7.319
  199XTA    CT222231  27.926  -1.565   7.352
  199XTA   CL1122232  28.053  -1.499   7.299
  199XTA   CL1222233  28.194  -1.555   7.334
  199XTA    HL122234  27.317  -0.583   8.448
  199XTA    HL222235  27.404  -0.615   8.292
  199XTA    HL322236  27.485  -0.546   8.435
  199XTA    HL422237  27.685   0.326   7.795
  199XTA    HL522238  27.838   0.295   7.722
  199XTA    HL622239  27.786   0.414   7.530
  199XTA    HL722240  27.751   0.507   7.668
  199XTA    HL822241  27.504   0.455   7.670
  199XTA    HL922242  27.526   0.357   7.536
  199XTA   HL1022243  27.561   0.650   7.536
  199XTA   HL1122244  27.639   0.551   7.414
  199XTA   HL1222245  27.342   0.571   7.469
  199XTA   HL1322246  27.404   0.447   7.374
  199XTA   HL1422247  27.369   0.735   7.313
  199XTA   HL1522248  27.489   0.641   7.206
  199XTA   HL1622249  27.419   0.475   7.078
  199XTA   HL1722250  27.313   0.391   7.184
  199XTA   HL1822251  26.999   0.440   6.991
  199XTA   HL1922252  27.042   0.541   7.116
  199XTA   HL2022253  27.097   0.234   7.127
  199XTA   HL2122254  26.936   0.303   7.165
  199XTA   HL2222255  27.071   0.354   7.267
  199XTA   HL2322256  28.037  -0.880   7.605
  199XTA   HL2422257  27.924  -0.752   7.553
  199XTA   HL2522258  27.856  -1.011   7.703
  199XTA   HL2622259  27.771  -0.888   7.748
  199XTA   HL2722260  27.640  -0.920   7.557
  199XTA   HL2822261  27.765  -0.853   7.478
  199XTA   HL2922262  27.748  -1.057   7.354
  199XTA   HL3022263  27.881  -1.103   7.462
  199XTA   HL3122264  27.708  -1.186   7.626
  199XTA   HL3222265  27.592  -1.143   7.493
  199XTA   HL3322266  27.636  -1.373   7.487
  199XTA   HL3422267  27.647  -1.281   7.342
  199XTA   HL3522268  27.824  -1.428   7.219
  199XTA   HL3622269  27.710  -1.519   7.322
  199XTA   HL3722270  28.063  -1.393   7.332
  199XTA   HL3822271  28.042  -1.501   7.190
  199XTA   HL3922272  28.196  -1.612   7.425
  199XTA   HL4022273  28.279  -1.478   7.328
  199XTA   HL4122274  28.225  -1.626   7.259
  199XTA    CO822275  27.243   0.328   6.935
  199XTA    CO922276  27.226   0.570   6.900
  199XTA    OA622277  27.181   0.544   6.800
  199XTA   HL4222278  27.292   0.256   7.013
  199XTA   HL4322279  27.357   0.349   6.848
  199XTA   HL4422280  27.923  -1.699   7.188
  199XTA   HL4522281  27.804  -1.716   7.296
  199XTA   CO1022282  27.909  -1.703   7.296
  199XTA   CO1122283  27.938  -1.575   7.508
  199XTA    OA722284  27.805  -1.585   7.556
  199XTA   HL4622285  27.992  -1.660   7.546
  199XTA   HL4722286  27.982  -1.491   7.555
  199XTA   HL4822287  27.333   0.598   6.902
  199XTA   HL4922288  27.170   0.653   6.949
  200XTA     NT22289  28.244   0.188   5.945
  200XTA    CN122290  28.208   0.068   5.904
  200XTA     C122291  28.160   0.048   5.778
  200XTA     C222292  28.114  -0.082   5.732
  200XTA     C322293  28.123  -0.189   5.822
  200XTA     C422294  28.163  -0.161   5.956
  200XTA     C522295  28.207  -0.034   5.994
  200XTA    CN222296  28.350   0.255   5.893
  200XTA     C622297  28.334   0.358   5.801
  200XTA     C722298  28.445   0.420   5.736
  200XTA     C822299  28.573   0.376   5.774
  200XTA     C922300  28.594   0.281   5.874
  200XTA    C1022301  28.480   0.218   5.935
  200XTA    CN322302  28.153   0.266   6.015
  200XTA    C1122303  28.023   0.282   5.964
  200XTA    C1222304  27.924   0.357   6.034
  200XTA    C1322305  27.952   0.398   6.168
  200XTA    C1422306  28.081   0.369   6.226
  200XTA    C1522307  28.182   0.309   6.149
  200XTA     H122308  28.161   0.135   5.715
  200XTA     H222309  28.063  -0.083   5.636
  200XTA     H322310  28.169  -0.236   6.032
  200XTA     H422311  28.248  -0.005   6.092
  200XTA     H522312  28.242   0.396   5.784
  200XTA     H622313  28.426   0.500   5.672
  200XTA     H722314  28.690   0.247   5.908
  200XTA     H822315  28.483   0.142   6.013
  200XTA     H922316  27.995   0.242   5.869
  200XTA    H1022317  27.823   0.347   5.995
  200XTA    H1122318  28.104   0.409   6.323
  200XTA    H1222319  28.282   0.285   6.182
  200XTA    OA122320  28.073  -0.315   5.795
  200XTA    CO122321  28.026  -0.322   5.666
  200XTA    OA222322  28.687   0.418   5.717
  200XTA    CO222323  28.677   0.491   5.594
  200XTA    CL122324  28.807   0.534   5.524
  200XTA    CL222325  28.892   0.414   5.464
  200XTA    CL322326  28.945   0.445   5.318
  200XTA    CL422327  29.093   0.471   5.323
  200XTA    CO322328  29.135   0.613   5.358
  200XTA    OA322329  29.247   0.616   5.452
  200XTA    CO422330  29.210   0.542   5.575
  200XTA    CT122331  29.276   0.593   5.704
  200XTA    CL522332  29.266   0.748   5.709
  200XTA    CL622333  29.121   0.804   5.718
  200XTA    OA422334  27.850   0.454   6.240
  200XTA    CO522335  27.857   0.470   6.381
  200XTA    CL722336  27.713   0.483   6.435
  200XTA    CL822337  27.620   0.358   6.419
  200XTA    CL922338  27.468   0.365   6.451
  200XTA   CL1022339  27.385   0.416   6.330
  200XTA    CO622340  27.242   0.430   6.354
  200XTA    OA522341  27.233   0.497   6.476
  200XTA    CO722342  27.093   0.514   6.523
  200XTA    CT222343  27.076   0.649   6.595
  200XTA   CL1122344  26.941   0.655   6.674
  200XTA   CL1222345  26.808   0.639   6.606
  200XTA    HL122346  27.938  -0.255   5.656
  200XTA    HL222347  28.091  -0.295   5.587
  200XTA    HL322348  27.986  -0.418   5.641
  200XTA    HL422349  28.616   0.418   5.535
  200XTA    HL522350  28.609   0.575   5.617
  200XTA    HL622351  28.858   0.597   5.591
  200XTA    HL722352  28.786   0.607   5.442
  200XTA    HL822353  28.824   0.324   5.462
  200XTA    HL922354  28.973   0.394   5.537
  200XTA   HL1022355  28.922   0.368   5.246
  200XTA   HL1122356  28.897   0.528   5.272
  200XTA   HL1222357  29.124   0.436   5.226
  200XTA   HL1322358  29.139   0.405   5.382
  200XTA   HL1422359  29.160   0.667   5.268
  200XTA   HL1522360  29.047   0.663   5.391
  200XTA   HL1622361  29.101   0.550   5.594
  200XTA   HL1722362  29.241   0.439   5.553
  200XTA   HL1822363  29.320   0.786   5.627
  200XTA   HL1922364  29.315   0.789   5.802
  200XTA   HL2022365  29.066   0.776   5.625
  200XTA   HL2122366  29.123   0.912   5.720
  200XTA   HL2222367  29.064   0.773   5.806
  200XTA   HL2322368  27.915   0.557   6.402
  200XTA   HL2422369  27.907   0.387   6.441
  200XTA   HL2522370  27.731   0.502   6.539
  200XTA   HL2622371  27.673   0.574   6.394
  200XTA   HL2722372  27.630   0.326   6.314
  200XTA   HL2822373  27.667   0.282   6.473
  200XTA   HL2922374  27.428   0.266   6.479
  200XTA   HL3022375  27.449   0.424   6.539
  200XTA   HL3122376  27.424   0.517   6.303
  200XTA   HL3222377  27.399   0.342   6.248
  200XTA   HL3322378  27.207   0.476   6.260
  200XTA   HL3422379  27.194   0.336   6.362
  200XTA   HL3522380  27.069   0.427   6.587
  200XTA   HL3622381  27.020   0.508   6.438
  200XTA   HL3722382  26.936   0.753   6.728
  200XTA   HL3822383  26.945   0.577   6.746
  200XTA   HL3922384  26.803   0.550   6.543
  200XTA   HL4022385  26.794   0.724   6.541
  200XTA   HL4122386  26.720   0.633   6.672
  200XTA    CO822387  29.428   0.544   5.704
  200XTA    CO922388  29.221   0.525   5.835
  200XTA    OA622389  29.294   0.551   5.951
  200XTA   HL4222390  29.475   0.575   5.801
  200XTA   HL4322391  29.439   0.437   5.707
  200XTA   HL4422392  27.214   0.752   6.468
  200XTA   HL4522393  27.047   0.757   6.425
  200XTA   CO1022394  27.111   0.769   6.506
  200XTA   CO1122395  27.189   0.653   6.705
  200XTA    OA722396  27.086   0.872   6.542
  200XTA   HL4622397  27.208   0.779   6.760
  200XTA   HL4722398  27.285   0.647   6.655
  200XTA   HL4822399  29.208   0.415   5.830
  200XTA   HL4922400  29.116   0.562   5.846
  201XTA     NT22401  30.098  -1.424   0.557
  201XTA    CN122402  29.973  -1.404   0.500
  201XTA     C122403  29.857  -1.416   0.583
  201XTA     C222404  29.727  -1.394   0.537
  201XTA     C322405  29.710  -1.367   0.402
  201XTA     C422406  29.823  -1.363   0.314
  201XTA     C522407  29.953  -1.375   0.364
  201XTA    CN222408  30.186  -1.507   0.499
  201XTA     C622409  30.326  -1.466   0.495
  201XTA     C722410  30.420  -1.557   0.444
  201XTA     C822411  30.380  -1.689   0.409
  201XTA     C922412  30.251  -1.732   0.432
  201XTA    C1022413  30.151  -1.642   0.477
  201XTA    CN322414  30.138  -1.345   0.651
  201XTA    C1122415  30.169  -1.209   0.629
  201XTA    C1222416  30.212  -1.128   0.736
  201XTA    C1322417  30.244  -1.189   0.866
  201XTA    C1422418  30.225  -1.329   0.882
  201XTA    C1522419  30.169  -1.405   0.774
  201XTA     H122420  29.868  -1.431   0.698
  201XTA     H222421  29.646  -1.396   0.612
  201XTA     H322422  29.815  -1.345   0.210
  201XTA     H422423  30.038  -1.355   0.301
  201XTA     H522424  30.351  -1.366   0.524
  201XTA     H622425  30.518  -1.520   0.428
  201XTA     H722426  30.232  -1.836   0.407
  201XTA     H822427  30.046  -1.669   0.482
  201XTA     H922428  30.145  -1.170   0.537
  201XTA    H1022429  30.213  -1.021   0.712
  201XTA    H1122430  30.244  -1.380   0.980
  201XTA    H1222431  30.148  -1.508   0.786
  201XTA    OA122432  29.581  -1.355   0.354
  201XTA    CO122433  29.561  -1.325   0.217
  201XTA    OA222434  30.470  -1.780   0.360
  201XTA    CO222435  30.593  -1.764   0.421
  201XTA    CL122436  30.671  -1.896   0.409
  201XTA    CL222437  30.817  -1.884   0.460
  201XTA    CL322438  30.846  -1.785   0.575
  201XTA    CL422439  30.819  -1.846   0.713
  201XTA    CO322440  30.890  -1.764   0.819
  201XTA    OA322441  30.870  -1.840   0.937
  201XTA    CO422442  30.924  -1.772   1.049
  201XTA    CT122443  30.927  -1.853   1.179
  201XTA    CL522444  30.997  -1.984   1.171
  201XTA    CL622445  30.940  -2.102   1.075
  201XTA    OA422446  30.262  -1.112   0.982
  201XTA    CO522447  30.283  -0.979   0.968
  201XTA    CL722448  30.327  -0.928   1.109
  201XTA    CL822449  30.460  -0.990   1.164
  201XTA    CL922450  30.441  -1.139   1.211
  201XTA   CL1022451  30.552  -1.194   1.312
  201XTA    CO622452  30.557  -1.345   1.313
  201XTA    OA522453  30.441  -1.395   1.384
  201XTA    CO722454  30.409  -1.518   1.335
  201XTA    CT222455  30.308  -1.591   1.424
  201XTA   CL1122456  30.274  -1.723   1.355
  201XTA   CL1222457  30.168  -1.805   1.421
  201XTA    HL122458  29.458  -1.310   0.191
  201XTA    HL222459  29.612  -1.231   0.174
  201XTA    HL322460  29.598  -1.404   0.146
  201XTA    HL422461  30.644  -1.675   0.374
  201XTA    HL522462  30.586  -1.745   0.525
  201XTA    HL622463  30.662  -1.940   0.305
  201XTA    HL722464  30.620  -1.963   0.475
  201XTA    HL822465  30.879  -1.844   0.381
  201XTA    HL922466  30.857  -1.983   0.479
  201XTA   HL1022467  30.949  -1.757   0.558
  201XTA   HL1122468  30.791  -1.690   0.573
  201XTA   HL1222469  30.868  -1.945   0.714
  201XTA   HL1322470  30.717  -1.875   0.733
  201XTA   HL1422471  30.988  -1.731   0.787
  201XTA   HL1522472  30.840  -1.668   0.827
  201XTA   HL1622473  31.029  -1.747   1.029
  201XTA   HL1722474  30.875  -1.677   1.067
  201XTA   HL1822475  31.017  -2.027   1.269
  201XTA   HL1922476  31.097  -1.961   1.148
  201XTA   HL2022477  30.922  -2.062   0.980
  201XTA   HL2122478  30.843  -2.140   1.120
  201XTA   HL2222479  31.010  -2.189   1.053
  201XTA   HL2322480  30.198  -0.918   0.939
  201XTA   HL2422481  30.366  -0.957   0.898
  201XTA   HL2522482  30.345  -0.821   1.102
  201XTA   HL2622483  30.250  -0.942   1.191
  201XTA   HL2722484  30.541  -0.979   1.089
  201XTA   HL2822485  30.498  -0.943   1.254
  201XTA   HL2922486  30.348  -1.149   1.265
  201XTA   HL3022487  30.442  -1.201   1.124
  201XTA   HL3122488  30.644  -1.162   1.277
  201XTA   HL3222489  30.543  -1.156   1.406
  201XTA   HL3322490  30.565  -1.386   1.216
  201XTA   HL3422491  30.646  -1.384   1.367
  201XTA   HL3522492  30.496  -1.580   1.326
  201XTA   HL3622493  30.364  -1.498   1.236
  201XTA   HL3722494  30.369  -1.780   1.345
  201XTA   HL3822495  30.245  -1.692   1.248
  201XTA   HL3922496  30.177  -1.906   1.390
  201XTA   HL4022497  30.065  -1.775   1.412
  201XTA   HL4122498  30.194  -1.818   1.528
  201XTA    CO822499  30.798  -1.857   1.259
  201XTA    CO922500  30.975  -1.752   1.284
  201XTA    OA622501  30.843  -1.749   1.335
  201XTA   HL4222502  30.788  -1.949   1.319
  201XTA   HL4322503  30.710  -1.833   1.201
  201XTA   HL4422504  30.122  -1.585   1.527
  201XTA   HL4522505  30.205  -1.438   1.530
  201XTA   CO1022506  30.180  -1.515   1.465
  201XTA   CO1122507  30.377  -1.627   1.561
  201XTA    OA722508  30.091  -1.497   1.346
  201XTA   HL4622509  30.299  -1.650   1.644
  201XTA   HL4722510  30.442  -1.547   1.586
  201XTA   HL4822511  31.006  -1.658   1.241
  201XTA   HL4922512  31.048  -1.800   1.345
  202XTA     NT22513  31.292   0.496  -1.073
  202XTA    CN122514  31.423   0.481  -1.112
  202XTA     C122515  31.507   0.385  -1.056
  202XTA     C222516  31.640   0.376  -1.091
  202XTA     C322517  31.701   0.470  -1.180
  202XTA     C422518  31.614   0.561  -1.243
  202XTA     C522519  31.478   0.569  -1.213
  202XTA    CN222520  31.205   0.393  -1.060
  202XTA     C622521  31.194   0.324  -0.938
  202XTA     C722522  31.101   0.214  -0.914
  202XTA     C822523  31.001   0.183  -1.007
  202XTA     C922524  31.016   0.251  -1.129
  202XTA    C1022525  31.108   0.354  -1.154
  202XTA    CN322526  31.260   0.617  -1.017
  202XTA    C1122527  31.355   0.676  -0.933
  202XTA    C1222528  31.327   0.801  -0.878
  202XTA    C1322529  31.206   0.869  -0.910
  202XTA    C1422530  31.113   0.811  -0.994
  202XTA    C1522531  31.146   0.687  -1.052
  202XTA     H122532  31.473   0.319  -0.982
  202XTA     H222533  31.692   0.309  -1.021
  202XTA     H322534  31.657   0.632  -1.310
  202XTA     H422535  31.421   0.645  -1.274
  202XTA     H522536  31.258   0.354  -0.847
  202XTA     H622537  31.096   0.164  -0.820
  202XTA     H722538  30.948   0.244  -1.216
  202XTA     H822539  31.108   0.401  -1.247
  202XTA     H922540  31.446   0.627  -0.903
  202XTA    H1022541  31.398   0.843  -0.811
  202XTA    H1122542  31.029   0.872  -1.020
  202XTA    H1222543  31.089   0.628  -1.132
  202XTA    OA122544  31.835   0.473  -1.200
  202XTA    CO122545  31.913   0.380  -1.125
  202XTA    OA222546  30.900   0.092  -0.983
  202XTA    CO222547  30.878   0.030  -0.865
  202XTA    CL122548  30.756  -0.053  -0.902
  202XTA    CL222549  30.630   0.032  -0.949
  202XTA    CL322550  30.513  -0.068  -0.975
  202XTA    CL422551  30.515  -0.125  -1.116
  202XTA    CO322552  30.400  -0.224  -1.132
  202XTA    OA322553  30.420  -0.326  -1.033
  202XTA    CO422554  30.508  -0.423  -1.080
  202XTA    CT122555  30.551  -0.530  -0.973
  202XTA    CL522556  30.601  -0.457  -0.843
  202XTA    CL622557  30.695  -0.538  -0.750
  202XTA    OA422558  31.179   0.994  -0.863
  202XTA    CO522559  31.106   0.994  -0.744
  202XTA    CL722560  31.032   1.127  -0.740
  202XTA    CL822561  30.958   1.147  -0.605
  202XTA    CL922562  30.864   1.270  -0.607
  202XTA   CL1022563  30.798   1.302  -0.468
  202XTA    CO622564  30.680   1.408  -0.472
  202XTA    OA522565  30.588   1.358  -0.572
  202XTA    CO722566  30.500   1.257  -0.534
  202XTA    CT222567  30.416   1.213  -0.658
  202XTA   CL1122568  30.302   1.122  -0.593
  202XTA   CL1222569  30.219   1.042  -0.695
  202XTA    HL122570  32.013   0.390  -1.133
  202XTA    HL222571  31.894   0.388  -1.023
  202XTA    HL322572  31.885   0.289  -1.160
  202XTA    HL422573  30.965  -0.034  -0.838
  202XTA    HL522574  30.867   0.108  -0.786
  202XTA    HL622575  30.740  -0.128  -0.820
  202XTA    HL722576  30.780  -0.095  -0.995
  202XTA    HL822577  30.656   0.090  -1.034
  202XTA    HL922578  30.608   0.098  -0.861
  202XTA   HL1022579  30.502  -0.152  -0.902
  202XTA   HL1122580  30.422  -0.005  -0.960
  202XTA   HL1222581  30.615  -0.158  -1.130
  202XTA   HL1322582  30.501  -0.042  -1.182
  202XTA   HL1422583  30.306  -0.174  -1.114
  202XTA   HL1522584  30.401  -0.258  -1.235
  202XTA   HL1622585  30.468  -0.468  -1.172
  202XTA   HL1722586  30.607  -0.377  -1.109
  202XTA   HL1822587  30.511  -0.424  -0.784
  202XTA   HL1922588  30.663  -0.373  -0.867
  202XTA   HL2022589  30.707  -0.486  -0.653
  202XTA   HL2122590  30.792  -0.556  -0.797
  202XTA   HL2222591  30.646  -0.635  -0.726
  202XTA   HL2322592  31.172   0.970  -0.656
  202XTA   HL2422593  31.033   0.915  -0.744
  202XTA   HL2522594  31.100   1.209  -0.753
  202XTA   HL2622595  30.963   1.137  -0.823
  202XTA   HL2722596  30.888   1.068  -0.598
  202XTA   HL2822597  31.025   1.148  -0.520
  202XTA   HL2922598  30.924   1.357  -0.635
  202XTA   HL3022599  30.797   1.266  -0.690
  202XTA   HL3122600  30.761   1.210  -0.422
  202XTA   HL3222601  30.861   1.361  -0.399
  202XTA   HL3322602  30.640   1.407  -0.362
  202XTA   HL3422603  30.716   1.504  -0.504
  202XTA   HL3522604  30.432   1.299  -0.457
  202XTA   HL3622605  30.566   1.169  -0.507
  202XTA   HL3722606  30.239   1.180  -0.525
  202XTA   HL3822607  30.358   1.047  -0.535
  202XTA   HL3922608  30.267   0.969  -0.749
  202XTA   HL4022609  30.161   1.107  -0.748
  202XTA   HL4122610  30.139   0.987  -0.646
  202XTA    CO822611  30.649  -0.627  -1.033
  202XTA    CO922612  30.422  -0.612  -0.935
  202XTA    OA622613  30.755  -0.538  -1.043
  202XTA   HL4222614  30.595  -0.653  -1.127
  202XTA   HL4322615  30.673  -0.712  -0.973
  202XTA   HL4422616  30.436   1.129  -0.862
  202XTA   HL4522617  30.568   1.237  -0.792
  202XTA   CO1022618  30.496   1.152  -0.769
  202XTA   CO1122619  30.338   1.336  -0.716
  202XTA    OA722620  30.547   1.068  -0.738
  202XTA   HL4622621  30.260   1.380  -0.621
  202XTA   HL4722622  30.273   1.301  -0.789
  202XTA   HL4822623  30.357  -0.538  -0.903
  202XTA   HL4922624  30.444  -0.671  -0.850
  203XTA     NT22625  27.873  -1.501   1.224
  203XTA    CN122626  27.796  -1.454   1.129
  203XTA     C122627  27.816  -1.497   1.000
  203XTA     C222628  27.729  -1.456   0.904
  203XTA     C322629  27.627  -1.362   0.932
  203XTA     C422630  27.605  -1.315   1.065
  203XTA     C522631  27.691  -1.366   1.165
  203XTA    CN222632  27.821  -1.580   1.325
  203XTA     C622633  27.820  -1.529   1.456
  203XTA     C722634  27.741  -1.589   1.553
  203XTA     C822635  27.685  -1.714   1.535
  203XTA     C922636  27.704  -1.779   1.413
  203XTA    C1022637  27.774  -1.712   1.306
  203XTA    CN322638  28.005  -1.483   1.218
  203XTA    C1122639  28.092  -1.597   1.215
  203XTA    C1222640  28.232  -1.579   1.215
  203XTA    C1322641  28.282  -1.451   1.205
  203XTA    C1422642  28.194  -1.339   1.208
  203XTA    C1522643  28.056  -1.354   1.200
  203XTA     H122644  27.900  -1.554   0.977
  203XTA     H222645  27.737  -1.489   0.802
  203XTA     H322646  27.531  -1.248   1.098
  203XTA     H422647  27.670  -1.337   1.262
  203XTA     H522648  27.870  -1.434   1.475
  203XTA     H622649  27.738  -1.533   1.650
  203XTA     H722650  27.670  -1.875   1.382
  203XTA     H822651  27.788  -1.757   1.210
  203XTA     H922652  28.048  -1.696   1.200
  203XTA    H1022653  28.298  -1.666   1.221
  203XTA    H1122654  28.235  -1.241   1.221
  203XTA    H1222655  27.993  -1.268   1.192
  203XTA    OA122656  27.560  -1.308   0.824
  203XTA    CO122657  27.531  -1.171   0.831
  203XTA    OA222658  27.608  -1.771   1.631
  203XTA    CO222659  27.532  -1.696   1.720
  203XTA    CL122660  27.443  -1.792   1.805
  203XTA    CL222661  27.519  -1.854   1.922
  203XTA    CL322662  27.662  -1.901   1.884
  203XTA    CL422663  27.743  -1.963   2.003
  203XTA    CO322664  27.886  -1.984   1.955
  203XTA    OA322665  27.942  -1.858   1.941
  203XTA    CO422666  28.083  -1.850   1.936
  203XTA    CT122667  28.111  -1.698   1.910
  203XTA    CL522668  28.047  -1.660   1.776
  203XTA    CL622669  28.069  -1.756   1.656
  203XTA    OA422670  28.414  -1.418   1.196
  203XTA    CO522671  28.496  -1.490   1.102
  203XTA    CL722672  28.484  -1.427   0.959
  203XTA    CL822673  28.486  -1.273   0.964
  203XTA    CL922674  28.620  -1.222   1.010
  203XTA   CL1022675  28.611  -1.074   1.039
  203XTA    CO622676  28.543  -1.043   1.173
  203XTA    OA522677  28.586  -1.131   1.287
  203XTA    CO722678  28.495  -1.115   1.396
  203XTA    CT222679  28.534  -1.206   1.515
  203XTA   CL1122680  28.445  -1.162   1.629
  203XTA   CL1222681  28.296  -1.180   1.609
  203XTA    HL122682  27.434  -1.165   0.877
  203XTA    HL222683  27.607  -1.112   0.883
  203XTA    HL322684  27.517  -1.123   0.739
  203XTA    HL422685  27.591  -1.635   1.792
  203XTA    HL522686  27.474  -1.625   1.660
  203XTA    HL622687  27.411  -1.879   1.744
  203XTA    HL722688  27.348  -1.744   1.847
  203XTA    HL822689  27.460  -1.937   1.967
  203XTA    HL922690  27.541  -1.782   2.003
  203XTA   HL1022691  27.652  -1.971   1.799
  203XTA   HL1122692  27.726  -1.820   1.846
  203XTA   HL1222693  27.702  -2.053   2.055
  203XTA   HL1322694  27.747  -1.891   2.083
  203XTA   HL1422695  27.943  -2.039   2.025
  203XTA   HL1522696  27.901  -2.034   1.859
  203XTA   HL1622697  28.121  -1.876   2.039
  203XTA   HL1722698  28.128  -1.917   1.865
  203XTA   HL1822699  28.081  -1.559   1.740
  203XTA   HL1922700  27.940  -1.645   1.791
  203XTA   HL2022701  28.167  -1.797   1.645
  203XTA   HL2122702  28.059  -1.695   1.570
  203XTA   HL2222703  28.003  -1.846   1.643
  203XTA   HL2322704  28.487  -1.602   1.101
  203XTA   HL2422705  28.596  -1.476   1.135
  203XTA   HL2522706  28.561  -1.458   0.892
  203XTA   HL2622707  28.385  -1.438   0.910
  203XTA   HL2722708  28.453  -1.227   0.873
  203XTA   HL2822709  28.409  -1.239   1.028
  203XTA   HL2922710  28.655  -1.281   1.093
  203XTA   HL3022711  28.704  -1.245   0.936
  203XTA   HL3122712  28.708  -1.040   1.059
  203XTA   HL3222713  28.569  -1.015   0.955
  203XTA   HL3322714  28.556  -0.942   1.208
  203XTA   HL3422715  28.435  -1.036   1.160
  203XTA   HL3522716  28.397  -1.137   1.361
  203XTA   HL3622717  28.506  -1.013   1.423
  203XTA   HL3722718  28.458  -1.057   1.649
  203XTA   HL3822719  28.482  -1.219   1.716
  203XTA   HL3922720  28.286  -1.287   1.594
  203XTA   HL4022721  28.247  -1.135   1.520
  203XTA   HL4122722  28.232  -1.151   1.691
  203XTA    CO822723  28.268  -1.669   1.905
  203XTA    CO922724  28.056  -1.617   2.032
  203XTA    OA622725  28.067  -1.507   2.011
  203XTA   HL4222726  28.289  -1.569   1.941
  203XTA   HL4322727  28.317  -1.737   2.020
  203XTA   HL4422728  28.756  -1.307   1.508
  203XTA   HL4522729  28.700  -1.206   1.658
  203XTA   CO1022730  28.679  -1.200   1.553
  203XTA   CO1122731  28.500  -1.355   1.476
  203XTA    OA722732  28.509  -1.427   1.554
  203XTA   HL4622733  28.402  -1.363   1.424
  203XTA   HL4722734  28.564  -1.370   1.389
  203XTA   HL4822735  28.110  -1.642   2.118
  203XTA   HL4922736  27.950  -1.630   2.040
  204XTA     NT22737  30.754   0.232   6.231
  204XTA    CN122738  30.760   0.266   6.359
  204XTA     C122739  30.884   0.302   6.418
  204XTA     C222740  30.879   0.346   6.553
  204XTA     C322741  30.760   0.381   6.620
  204XTA     C422742  30.644   0.339   6.555
  204XTA     C522743  30.636   0.281   6.427
  204XTA    CN222744  30.652   0.268   6.148
  204XTA     C622745  30.653   0.389   6.077
  204XTA     C722746  30.543   0.415   5.985
  204XTA     C822747  30.433   0.323   5.969
  204XTA     C922748  30.444   0.204   6.037
  204XTA    C1022749  30.545   0.173   6.127
  204XTA    CN322750  30.859   0.169   6.169
  204XTA    C1122751  30.940   0.253   6.082
  204XTA    C1222752  31.054   0.204   6.015
  204XTA    C1322753  31.077   0.071   6.024
  204XTA    C1422754  30.989  -0.011   6.094
  204XTA    C1522755  30.880   0.032   6.166
  204XTA     H122756  30.975   0.286   6.365
  204XTA     H222757  30.972   0.377   6.597
  204XTA     H322758  30.553   0.358   6.603
  204XTA     H422759  30.543   0.252   6.377
  204XTA     H522760  30.736   0.462   6.098
  204XTA     H622761  30.547   0.505   5.931
  204XTA     H722762  30.364   0.136   6.015
  204XTA     H822763  30.547   0.078   6.180
  204XTA     H922764  30.916   0.356   6.078
  204XTA    H1022765  31.112   0.278   5.960
  204XTA    H1122766  31.005  -0.116   6.095
  204XTA    H1222767  30.810  -0.036   6.216
  204XTA    OA122768  30.762   0.443   6.738
  204XTA    CO122769  30.879   0.423   6.825
  204XTA    OA222770  30.316   0.344   5.901
  204XTA    CO222771  30.276   0.479   5.891
  204XTA    CL122772  30.126   0.483   5.862
  204XTA    CL222773  30.073   0.629   5.868
  204XTA    CL322774  29.930   0.637   5.917
  204XTA    CL422775  29.858   0.772   5.908
  204XTA    CO322776  29.703   0.759   5.914
  204XTA    OA322777  29.624   0.871   5.952
  204XTA    CO422778  29.582   0.955   5.848
  204XTA    CT122779  29.541   1.092   5.909
  204XTA    CL522780  29.441   1.081   6.020
  204XTA    CL622781  29.322   0.991   5.985
  204XTA    OA422782  31.182   0.004   5.961
  204XTA    CO522783  31.260   0.075   5.873
  204XTA    CL722784  31.388   0.010   5.830
  204XTA    CL822785  31.472   0.081   5.723
  204XTA    CL922786  31.584  -0.005   5.671
  204XTA   CL1022787  31.661  -0.072   5.784
  204XTA    CO622788  31.728   0.027   5.873
  204XTA    OA522789  31.830   0.089   5.781
  204XTA    CO722790  31.905   0.194   5.833
  204XTA    CT222791  32.044   0.219   5.763
  204XTA   CL1122792  32.023   0.214   5.610
  204XTA   CL1222793  32.149   0.224   5.538
  204XTA    HL122794  30.868   0.420   6.932
  204XTA    HL222795  30.920   0.314   6.815
  204XTA    HL322796  30.956   0.481   6.789
  204XTA    HL422797  30.299   0.534   5.983
  204XTA    HL522798  30.335   0.523   5.808
  204XTA    HL622799  30.080   0.429   5.950
  204XTA    HL722800  30.109   0.428   5.772
  204XTA    HL822801  30.093   0.680   5.776
  204XTA    HL922802  30.137   0.673   5.942
  204XTA   HL1022803  29.888   0.552   5.864
  204XTA   HL1122804  29.923   0.599   6.022
  204XTA   HL1222805  29.890   0.835   5.818
  204XTA   HL1322806  29.893   0.829   6.004
  204XTA   HL1422807  29.669   0.720   5.816
  204XTA   HL1522808  29.682   0.692   5.990
  204XTA   HL1622809  29.668   0.969   5.768
  204XTA   HL1722810  29.502   0.906   5.792
  204XTA   HL1822811  29.403   1.186   6.037
  204XTA   HL1922812  29.485   1.035   6.101
  204XTA   HL2022813  29.245   0.998   6.066
  204XTA   HL2122814  29.367   0.892   5.986
  204XTA   HL2222815  29.273   1.016   5.893
  204XTA   HL2322816  31.281   0.171   5.915
  204XTA   HL2422817  31.210   0.093   5.778
  204XTA   HL2522818  31.444  -0.018   5.918
  204XTA   HL2622819  31.352  -0.085   5.791
  204XTA   HL2722820  31.410   0.100   5.635
  204XTA   HL2822821  31.506   0.177   5.762
  204XTA   HL2922822  31.537  -0.086   5.608
  204XTA   HL3022823  31.657   0.050   5.607
  204XTA   HL3122824  31.603  -0.153   5.831
  204XTA   HL3222825  31.743  -0.127   5.733
  204XTA   HL3322826  31.660   0.103   5.915
  204XTA   HL3422827  31.770  -0.021   5.954
  204XTA   HL3522828  31.911   0.182   5.945
  204XTA   HL3622829  31.848   0.289   5.818
  204XTA   HL3722830  31.958   0.294   5.582
  204XTA   HL3822831  31.969   0.124   5.573
  204XTA   HL3922832  32.206   0.314   5.574
  204XTA   HL4022833  32.136   0.243   5.434
  204XTA   HL4122834  32.217   0.139   5.555
  204XTA    CO822835  29.482   1.186   5.793
  204XTA    CO922836  29.669   1.163   5.959
  204XTA    OA622837  29.545   1.177   5.704
  204XTA   HL4222838  29.487   1.289   5.826
  204XTA   HL4322839  29.378   1.155   5.759
  204XTA   HL4422840  32.241   0.140   5.773
  204XTA   HL4522841  32.168   0.136   5.915
  204XTA   CO1022842  32.145   0.113   5.814
  204XTA   CO1122843  32.095   0.360   5.803
  204XTA    OA722844  32.122   0.003   5.783
  204XTA   HL4622845  31.994   0.447   5.767
  204XTA   HL4722846  32.090   0.351   5.915
  204XTA   HL4822847  29.743   1.210   5.843
  204XTA   HL4922848  29.733   1.106   6.022
  205XTA     NT22849  24.524   3.821   2.897
  205XTA    CN122850  24.392   3.858   2.878
  205XTA     C122851  24.293   3.758   2.895
  205XTA     C222852  24.157   3.803   2.890
  205XTA     C322853  24.119   3.932   2.849
  205XTA     C422854  24.224   4.023   2.827
  205XTA     C522855  24.358   3.990   2.850
  205XTA    CN222856  24.552   3.757   3.009
  205XTA     C622857  24.510   3.810   3.137
  205XTA     C722858  24.522   3.736   3.255
  205XTA     C822859  24.576   3.605   3.247
  205XTA     C922860  24.621   3.554   3.130
  205XTA    C1022861  24.602   3.620   3.009
  205XTA    CN322862  24.614   3.826   2.790
  205XTA    C1122863  24.748   3.884   2.812
  205XTA    C1222864  24.833   3.916   2.709
  205XTA    C1322865  24.805   3.884   2.575
  205XTA    C1422866  24.684   3.816   2.559
  205XTA    C1522867  24.587   3.794   2.656
  205XTA     H122868  24.318   3.655   2.917
  205XTA     H222869  24.081   3.731   2.910
  205XTA     H322870  24.177   4.121   2.811
  205XTA     H422871  24.435   4.066   2.836
  205XTA     H522872  24.466   3.904   3.128
  205XTA     H622873  24.487   3.775   3.349
  205XTA     H722874  24.672   3.456   3.128
  205XTA     H822875  24.640   3.586   2.916
  205XTA     H922876  24.769   3.921   2.908
  205XTA    H1022877  24.924   3.967   2.726
  205XTA    H1122878  24.664   3.761   2.468
  205XTA    H1222879  24.489   3.745   2.626
  205XTA    OA122880  23.985   3.976   2.828
  205XTA    CO122881  23.883   3.883   2.859
  205XTA    OA222882  24.602   3.523   3.356
  205XTA    CO222883  24.546   3.573   3.483
  205XTA    CL122884  24.634   3.678   3.552
  205XTA    CL222885  24.588   3.712   3.695
  205XTA    CL322886  24.704   3.775   3.786
  205XTA    CL422887  24.656   3.815   3.926
  205XTA    CO322888  24.624   3.964   3.942
  205XTA    OA322889  24.535   4.013   3.844
  205XTA    CO422890  24.512   4.153   3.866
  205XTA    CT122891  24.456   4.226   3.744
  205XTA    CL522892  24.551   4.211   3.624
  205XTA    CL622893  24.681   4.298   3.627
  205XTA    OA422894  24.893   3.901   2.470
  205XTA    CO522895  25.021   3.960   2.504
  205XTA    CL722896  25.111   3.955   2.375
  205XTA    CL822897  25.242   4.024   2.419
  205XTA    CL922898  25.231   4.173   2.412
  205XTA   CL1022899  25.369   4.230   2.410
  205XTA    CO622900  25.379   4.383   2.421
  205XTA    OA522901  25.299   4.436   2.529
  205XTA    CO722902  25.311   4.579   2.530
  205XTA    CT222903  25.203   4.647   2.619
  205XTA   CL1122904  25.074   4.593   2.557
  205XTA   CL1222905  24.955   4.673   2.603
  205XTA    HL122906  23.787   3.917   2.829
  205XTA    HL222907  23.902   3.787   2.814
  205XTA    HL322908  23.884   3.856   2.969
  205XTA    HL422909  24.436   3.586   3.479
  205XTA    HL522910  24.549   3.485   3.550
  205XTA    HL622911  24.676   3.769   3.488
  205XTA    HL722912  24.730   3.630   3.574
  205XTA    HL822913  24.562   3.627   3.750
  205XTA    HL922914  24.508   3.790   3.706
  205XTA   HL1022915  24.791   3.709   3.790
  205XTA   HL1122916  24.756   3.861   3.734
  205XTA   HL1222917  24.722   3.777   4.001
  205XTA   HL1322918  24.566   3.757   3.950
  205XTA   HL1422919  24.580   3.974   4.040
  205XTA   HL1522920  24.720   4.019   3.939
  205XTA   HL1622921  24.447   4.166   3.956
  205XTA   HL1722922  24.611   4.199   3.894
  205XTA   HL1822923  24.490   4.239   3.538
  205XTA   HL1922924  24.587   4.110   3.619
  205XTA   HL2022925  24.663   4.409   3.634
  205XTA   HL2122926  24.742   4.275   3.546
  205XTA   HL2222927  24.729   4.265   3.723
  205XTA   HL2322928  25.073   3.923   2.594
  205XTA   HL2422929  25.005   4.066   2.526
  205XTA   HL2522930  25.134   3.849   2.338
  205XTA   HL2622931  25.064   3.996   2.290
  205XTA   HL2722932  25.273   3.982   2.513
  205XTA   HL2822933  25.320   3.992   2.357
  205XTA   HL2922934  25.185   4.202   2.322
  205XTA   HL3022935  25.179   4.209   2.494
  205XTA   HL3122936  25.429   4.189   2.489
  205XTA   HL3222937  25.420   4.199   2.316
  205XTA   HL3322938  25.481   4.415   2.435
  205XTA   HL3422939  25.358   4.439   2.330
  205XTA   HL3522940  25.300   4.621   2.431
  205XTA   HL3622941  25.410   4.608   2.567
  205XTA   HL3722942  25.059   4.488   2.580
  205XTA   HL3822943  25.087   4.609   2.448
  205XTA   HL3922944  24.973   4.704   2.709
  205XTA   HL4022945  24.859   4.633   2.588
  205XTA   HL4122946  24.950   4.764   2.550
  205XTA    CO822947  24.444   4.375   3.784
  205XTA    CO922948  24.315   4.163   3.724
  205XTA    OA622949  24.219   4.211   3.815
  205XTA   HL4222950  24.539   4.400   3.837
  205XTA   HL4322951  24.376   4.387   3.869
  205XTA   HL4422952  25.139   4.853   2.681
  205XTA   HL4522953  25.313   4.815   2.652
  205XTA   CO1022954  25.214   4.803   2.619
  205XTA   CO1122955  25.212   4.591   2.761
  205XTA    OA722956  25.156   4.679   2.862
  205XTA   HL4622957  25.170   4.498   2.769
  205XTA   HL4722958  25.311   4.581   2.782
  205XTA   HL4822959  24.302   4.052   3.735
  205XTA   HL4922960  24.273   4.191   3.629
  206XTA     NT22961  28.300  -2.570   4.917
  206XTA    CN122962  28.267  -2.696   4.901
  206XTA     C122963  28.167  -2.750   4.979
  206XTA     C222964  28.130  -2.882   4.969
  206XTA     C322965  28.202  -2.973   4.892
  206XTA     C422966  28.306  -2.929   4.812
  206XTA     C522967  28.332  -2.790   4.809
  206XTA    CN222968  28.408  -2.544   4.997
  206XTA     C622969  28.392  -2.456   5.110
  206XTA     C722970  28.500  -2.420   5.189
  206XTA     C822971  28.622  -2.476   5.168
  206XTA     C922972  28.645  -2.560   5.056
  206XTA    C1022973  28.537  -2.595   4.973
  206XTA    CN322974  28.261  -2.474   4.833
  206XTA    C1122975  28.123  -2.462   4.794
  206XTA    C1222976  28.085  -2.360   4.702
  206XTA    C1322977  28.182  -2.271   4.646
  206XTA    C1422978  28.319  -2.284   4.684
  206XTA    C1522979  28.352  -2.373   4.788
  206XTA     H122980  28.105  -2.683   5.032
  206XTA     H222981  28.051  -2.917   5.032
  206XTA     H322982  28.372  -2.997   4.765
  206XTA     H422983  28.420  -2.770   4.741
  206XTA     H522984  28.294  -2.413   5.125
  206XTA     H622985  28.479  -2.347   5.270
  206XTA     H722986  28.746  -2.594   5.040
  206XTA     H822987  28.552  -2.670   4.893
  206XTA     H922988  28.058  -2.540   4.833
  206XTA    H1022989  27.982  -2.358   4.672
  206XTA    H1122990  28.398  -2.224   4.643
  206XTA    H1222991  28.454  -2.369   4.824
  206XTA    OA122992  28.174  -3.103   4.913
  206XTA    CO122993  28.246  -3.197   4.836
  206XTA    OA222994  28.729  -2.457   5.249
  206XTA    CO222995  28.712  -2.359   5.348
  206XTA    CL122996  28.847  -2.341   5.424
  206XTA    CL222997  28.872  -2.464   5.519
  206XTA    CL322998  29.000  -2.473   5.589
  206XTA    CL422999  29.120  -2.472   5.491
  206XTA    CO323000  29.254  -2.485   5.554
  206XTA    OA323001  29.241  -2.617   5.599
  206XTA    CO423002  29.355  -2.652   5.679
  206XTA    CT123003  29.349  -2.791   5.730
  206XTA    CL523004  29.467  -2.813   5.830
  206XTA    CL623005  29.613  -2.796   5.774
  206XTA    OA423006  28.144  -2.172   4.557
  206XTA    CO523007  28.006  -2.150   4.550
  206XTA    CL723008  27.966  -2.027   4.473
  206XTA    CL823009  27.932  -1.903   4.559
  206XTA    CL923010  28.023  -1.864   4.665
  206XTA   CL1023011  28.152  -1.800   4.617
  206XTA    CO623012  28.278  -1.844   4.686
  206XTA    OA523013  28.374  -1.773   4.612
  206XTA    CO723014  28.501  -1.798   4.671
  206XTA    CT223015  28.611  -1.701   4.619
  206XTA   CL1123016  28.588  -1.681   4.469
  206XTA   CL1223017  28.675  -1.577   4.389
  206XTA    HL123018  28.212  -3.298   4.846
  206XTA    HL223019  28.240  -3.171   4.734
  206XTA    HL323020  28.355  -3.189   4.870
  206XTA    HL423021  28.682  -2.264   5.295
  206XTA    HL523022  28.633  -2.386   5.423
  206XTA    HL623023  28.858  -2.248   5.472
  206XTA    HL723024  28.925  -2.352   5.345
  206XTA    HL823025  28.860  -2.559   5.461
  206XTA    HL923026  28.805  -2.458   5.599
  206XTA   HL1023027  29.007  -2.383   5.651
  206XTA   HL1123028  29.010  -2.564   5.645
  206XTA   HL1223029  29.124  -2.379   5.435
  206XTA   HL1323030  29.107  -2.547   5.415
  206XTA   HL1423031  29.329  -2.468   5.491
  206XTA   HL1523032  29.273  -2.415   5.632
  206XTA   HL1623033  29.446  -2.644   5.617
  206XTA   HL1723034  29.350  -2.591   5.770
  206XTA   HL1823035  29.454  -2.912   5.864
  206XTA   HL1923036  29.461  -2.738   5.910
  206XTA   HL2023037  29.636  -2.884   5.718
  206XTA   HL2123038  29.697  -2.763   5.840
  206XTA   HL2223039  29.608  -2.715   5.705
  206XTA   HL2323040  27.967  -2.130   4.652
  206XTA   HL2423041  27.945  -2.231   4.507
  206XTA   HL2523042  28.039  -1.990   4.397
  206XTA   HL2623043  27.876  -2.057   4.422
  206XTA   HL2723044  27.912  -1.817   4.497
  206XTA   HL2823045  27.833  -1.933   4.603
  206XTA   HL2923046  27.963  -1.801   4.723
  206XTA   HL3023047  28.041  -1.952   4.734
  206XTA   HL3123048  28.166  -1.832   4.512
  206XTA   HL3223049  28.140  -1.690   4.610
  206XTA   HL3323050  28.284  -1.827   4.796
  206XTA   HL3423051  28.294  -1.957   4.690
  206XTA   HL3523052  28.527  -1.903   4.664
  206XTA   HL3623053  28.497  -1.792   4.783
  206XTA   HL3723054  28.488  -1.653   4.459
  206XTA   HL3823055  28.601  -1.772   4.414
  206XTA   HL3923056  28.783  -1.588   4.389
  206XTA   HL4023057  28.656  -1.465   4.408
  206XTA   HL4123058  28.648  -1.593   4.281
  206XTA    CO823059  29.354  -2.894   5.613
  206XTA    CO923060  29.220  -2.810   5.810
  206XTA    OA623061  29.267  -2.880   5.544
  206XTA   HL4223062  29.363  -2.997   5.646
  206XTA   HL4323063  29.455  -2.883   5.559
  206XTA   HL4423064  28.817  -1.658   4.623
  206XTA   HL4523065  28.760  -1.756   4.764
  206XTA   CO1023066  28.757  -1.743   4.655
  206XTA   CO1123067  28.589  -1.565   4.694
  206XTA    OA723068  28.793  -1.858   4.587
  206XTA   HL4623069  28.559  -1.500   4.608
  206XTA   HL4723070  28.687  -1.525   4.716
  206XTA   HL4823071  29.110  -2.809   5.731
  206XTA   HL4923072  29.224  -2.911   5.842
  207XTA     NT23073  26.339  -0.135   6.561
  207XTA    CN123074  26.228  -0.073   6.609
  207XTA     C123075  26.225  -0.040   6.749
  207XTA     C223076  26.110   0.034   6.801
  207XTA     C323077  26.015   0.080   6.706
  207XTA     C423078  26.022   0.043   6.569
  207XTA     C523079  26.128  -0.034   6.518
  207XTA    CN223080  26.435  -0.057   6.505
  207XTA     C623081  26.509   0.029   6.593
  207XTA     C723082  26.623   0.094   6.554
  207XTA     C823083  26.673   0.083   6.427
  207XTA     C923084  26.601  -0.005   6.340
  207XTA    C1023085  26.481  -0.077   6.375
  207XTA    CN323086  26.379  -0.262   6.596
  207XTA    C1123087  26.280  -0.358   6.639
  207XTA    C1223088  26.324  -0.488   6.668
  207XTA    C1323089  26.462  -0.525   6.671
  207XTA    C1423090  26.557  -0.433   6.629
  207XTA    C1523091  26.517  -0.304   6.587
  207XTA     H123092  26.302  -0.087   6.810
  207XTA     H223093  26.106   0.052   6.904
  207XTA     H323094  25.941   0.078   6.504
  207XTA     H423095  26.142  -0.065   6.417
  207XTA     H523096  26.471   0.055   6.690
  207XTA     H623097  26.672   0.164   6.621
  207XTA     H723098  26.644  -0.030   6.244
  207XTA     H823099  26.439  -0.153   6.310
  207XTA     H923100  26.169  -0.345   6.640
  207XTA    H1023101  26.247  -0.561   6.682
  207XTA    H1123102  26.665  -0.443   6.629
  207XTA    H1223103  26.597  -0.235   6.573
  207XTA    OA123104  25.915   0.172   6.740
  207XTA    CO123105  25.868   0.162   6.874
  207XTA    OA223106  26.802   0.133   6.395
  207XTA    CO223107  26.883   0.053   6.312
  207XTA    CL123108  27.030   0.108   6.310
  207XTA    CL223109  27.122   0.030   6.218
  207XTA    CL323110  27.273   0.074   6.234
  207XTA    CL423111  27.368  -0.041   6.195
  207XTA    CO323112  27.508  -0.008   6.244
  207XTA    OA323113  27.591  -0.118   6.221
  207XTA    CO423114  27.722  -0.086   6.259
  207XTA    CT123115  27.830  -0.181   6.196
  207XTA    CL523116  27.969  -0.145   6.250
  207XTA    CL623117  28.001   0.009   6.247
  207XTA    OA423118  26.506  -0.652   6.706
  207XTA    CO523119  26.641  -0.671   6.744
  207XTA    CL723120  26.646  -0.799   6.825
  207XTA    CL823121  26.557  -0.805   6.947
  207XTA    CL923122  26.421  -0.857   6.921
  207XTA   CL1023123  26.306  -0.794   7.003
  207XTA    CO623124  26.249  -0.671   6.930
  207XTA    OA523125  26.145  -0.610   7.002
  207XTA    CO723126  26.092  -0.501   6.931
  207XTA    CT223127  25.980  -0.425   7.006
  207XTA   CL1123128  26.032  -0.365   7.132
  207XTA   CL1223129  26.162  -0.282   7.123
  207XTA    HL123130  25.905   0.242   6.931
  207XTA    HL223131  25.770   0.201   6.871
  207XTA    HL323132  25.889   0.070   6.924
  207XTA    HL423133  26.886  -0.049   6.338
  207XTA    HL523134  26.831   0.052   6.214
  207XTA    HL623135  27.073   0.116   6.411
  207XTA    HL723136  27.027   0.210   6.281
  207XTA    HL823137  27.089   0.035   6.120
  207XTA    HL923138  27.117  -0.070   6.234
  207XTA   HL1023139  27.297   0.151   6.162
  207XTA   HL1123140  27.298   0.108   6.335
  207XTA   HL1223141  27.358  -0.063   6.090
  207XTA   HL1323142  27.331  -0.131   6.245
  207XTA   HL1423143  27.553   0.070   6.189
  207XTA   HL1523144  27.527   0.014   6.357
  207XTA   HL1623145  27.746   0.017   6.232
  207XTA   HL1723146  27.724  -0.080   6.367
  207XTA   HL1823147  28.040  -0.193   6.188
  207XTA   HL1923148  27.992  -0.186   6.346
  207XTA   HL2023149  27.959   0.064   6.167
  207XTA   HL2123150  28.110   0.041   6.241
  207XTA   HL2223151  27.960   0.052   6.344
  207XTA   HL2323152  26.687  -0.589   6.816
  207XTA   HL2423153  26.704  -0.679   6.662
  207XTA   HL2523154  26.619  -0.872   6.754
  207XTA   HL2623155  26.748  -0.808   6.860
  207XTA   HL2723156  26.609  -0.864   7.027
  207XTA   HL2823157  26.539  -0.704   6.978
  207XTA   HL2923158  26.390  -0.870   6.817
  207XTA   HL3023159  26.431  -0.956   6.956
  207XTA   HL3123160  26.231  -0.867   7.014
  207XTA   HL3223161  26.345  -0.764   7.100
  207XTA   HL3323162  26.326  -0.594   6.909
  207XTA   HL3423163  26.208  -0.715   6.842
  207XTA   HL3523164  26.045  -0.544   6.841
  207XTA   HL3623165  26.162  -0.424   6.890
  207XTA   HL3723166  26.049  -0.444   7.207
  207XTA   HL3823167  25.955  -0.316   7.188
  207XTA   HL3923168  26.148  -0.192   7.065
  207XTA   HL4023169  26.238  -0.334   7.067
  207XTA   HL4123170  26.196  -0.255   7.217
  207XTA    CO823171  27.813  -0.171   6.046
  207XTA    CO923172  27.802  -0.330   6.227
  207XTA    OA623173  27.900  -0.415   6.156
  207XTA   HL4223174  27.795  -0.065   6.022
  207XTA   HL4323175  27.911  -0.184   6.006
  207XTA   HL4423176  25.810  -0.565   6.957
  207XTA   HL4523177  25.862  -0.588   7.123
  207XTA   CO1023178  25.856  -0.516   7.045
  207XTA   CO1123179  25.929  -0.302   6.931
  207XTA    OA723180  25.781  -0.455   7.100
  207XTA   HL4623181  25.860  -0.207   7.009
  207XTA   HL4723182  26.011  -0.243   6.898
  207XTA   HL4823183  27.703  -0.366   6.193
  207XTA   HL4923184  27.807  -0.359   6.334
  208XTA     NT23185  27.810   0.759   8.287
  208XTA    CN123186  27.678   0.775   8.279
  208XTA     C123187  27.600   0.674   8.328
  208XTA     C223188  27.462   0.677   8.323
  208XTA     C323189  27.398   0.783   8.251
  208XTA     C423190  27.475   0.891   8.205
  208XTA     C523191  27.617   0.891   8.220
  208XTA    CN223192  27.870   0.713   8.175
  208XTA     C623193  27.859   0.579   8.134
  208XTA     C723194  27.907   0.543   8.005
  208XTA     C823195  27.975   0.638   7.925
  208XTA     C923196  27.981   0.770   7.970
  208XTA    C1023197  27.932   0.809   8.093
  208XTA    CN323198  27.866   0.768   8.407
  208XTA    C1123199  27.891   0.651   8.479
  208XTA    C1223200  27.934   0.663   8.610
  208XTA    C1323201  27.955   0.788   8.668
  208XTA    C1423202  27.926   0.904   8.595
  208XTA    C1523203  27.879   0.894   8.467
  208XTA     H123204  27.655   0.587   8.373
  208XTA     H223205  27.409   0.598   8.374
  208XTA     H323206  27.426   0.973   8.167
  208XTA     H423207  27.680   0.967   8.178
  208XTA     H523208  27.810   0.506   8.195
  208XTA     H623209  27.913   0.437   7.990
  208XTA     H723210  28.017   0.843   7.904
  208XTA     H823211  27.927   0.916   8.119
  208XTA     H923212  27.878   0.558   8.433
  208XTA    H1023213  27.950   0.577   8.679
  208XTA    H1123214  27.945   1.003   8.640
  208XTA    H1223215  27.856   0.988   8.419
  208XTA    OA123216  27.262   0.796   8.236
  208XTA    CO123217  27.187   0.673   8.238
  208XTA    OA223218  28.042   0.605   7.807
  208XTA    CO223219  28.034   0.476   7.768
  208XTA    CL123220  28.071   0.444   7.627
  208XTA    CL223221  28.213   0.481   7.599
  208XTA    CL323222  28.245   0.429   7.459
  208XTA    CL423223  28.395   0.462   7.431
  208XTA    CO323224  28.424   0.613   7.417
  208XTA    OA323225  28.319   0.663   7.336
  208XTA    CO423226  28.338   0.797   7.302
  208XTA    CT123227  28.189   0.858   7.307
  208XTA    CL523228  28.117   0.809   7.175
  208XTA    CL623229  28.077   0.670   7.175
  208XTA    OA423230  28.007   0.805   8.794
  208XTA    CO523231  28.017   0.694   8.879
  208XTA    CL723232  28.036   0.758   9.021
  208XTA    CL823233  28.145   0.855   9.035
  208XTA    CL923234  28.181   0.880   9.180
  208XTA   CL1023235  28.203   1.034   9.214
  208XTA    CO623236  28.294   1.122   9.123
  208XTA    OA523237  28.427   1.065   9.128
  208XTA    CO723238  28.505   1.109   9.239
  208XTA    CT223239  28.639   1.026   9.236
  208XTA   CL1123240  28.610   0.875   9.254
  208XTA   CL1223241  28.523   0.823   9.370
  208XTA    HL123242  27.086   0.696   8.203
  208XTA    HL223243  27.245   0.598   8.178
  208XTA    HL323244  27.174   0.644   8.339
  208XTA    HL423245  28.097   0.417   7.836
  208XTA    HL523246  27.924   0.452   7.775
  208XTA    HL623247  27.998   0.496   7.561
  208XTA    HL723248  28.071   0.333   7.607
  208XTA    HL823249  28.281   0.421   7.662
  208XTA    HL923250  28.229   0.589   7.623
  208XTA   HL1023251  28.234   0.324   7.459
  208XTA   HL1123252  28.184   0.477   7.387
  208XTA   HL1223253  28.422   0.414   7.339
  208XTA   HL1323254  28.456   0.411   7.498
  208XTA   HL1423255  28.426   0.673   7.514
  208XTA   HL1523256  28.525   0.620   7.386
  208XTA   HL1623257  28.410   0.854   7.370
  208XTA   HL1723258  28.392   0.796   7.210
  208XTA   HL1823259  28.192   0.820   7.093
  208XTA   HL1923260  28.031   0.865   7.154
  208XTA   HL2023261  28.026   0.629   7.079
  208XTA   HL2123262  27.994   0.664   7.256
  208XTA   HL2223263  28.145   0.594   7.202
  208XTA   HL2323264  28.094   0.618   8.850
  208XTA   HL2423265  27.917   0.651   8.883
  208XTA   HL2523266  27.945   0.817   9.051
  208XTA   HL2623267  28.057   0.683   9.103
  208XTA   HL2723268  28.231   0.794   8.995
  208XTA   HL2823269  28.133   0.941   8.972
  208XTA   HL2923270  28.090   0.859   9.232
  208XTA   HL3023271  28.255   0.811   9.225
  208XTA   HL3123272  28.104   1.082   9.201
  208XTA   HL3223273  28.236   1.035   9.320
  208XTA   HL3323274  28.253   1.115   9.020
  208XTA   HL3423275  28.292   1.229   9.160
  208XTA   HL3523276  28.441   1.095   9.332
  208XTA   HL3623277  28.525   1.216   9.231
  208XTA   HL3723278  28.702   0.820   9.249
  208XTA   HL3823279  28.560   0.847   9.163
  208XTA   HL3923280  28.524   0.893   9.457
  208XTA   HL4023281  28.560   0.719   9.404
  208XTA   HL4123282  28.421   0.797   9.345
  208XTA    CO823283  28.198   1.014   7.300
  208XTA    CO923284  28.113   0.827   7.434
  208XTA    OA623285  27.975   0.875   7.423
  208XTA   HL4223286  28.232   1.043   7.197
  208XTA   HL4323287  28.097   1.060   7.306
  208XTA   HL4423288  28.717   1.041   9.444
  208XTA   HL4523289  28.831   1.067   9.316
  208XTA   CO1023290  28.730   1.083   9.345
  208XTA   CO1123291  28.719   1.053   9.104
  208XTA    OA723292  28.727   1.230   9.352
  208XTA   HL4623293  28.649   1.030   9.021
  208XTA   HL4723294  28.748   1.160   9.095
  208XTA   HL4823295  28.153   0.870   7.526
  208XTA   HL4923296  28.107   0.718   7.451
  209XTA     NT23297  28.260  -1.086  -0.363
  209XTA    CN123298  28.368  -1.038  -0.435
  209XTA     C123299  28.345  -0.993  -0.563
  209XTA     C223300  28.455  -0.953  -0.643
  209XTA     C323301  28.586  -0.948  -0.586
  209XTA     C423302  28.607  -0.994  -0.456
  209XTA     C523303  28.498  -1.035  -0.378
  209XTA    CN223304  28.209  -1.210  -0.386
  209XTA     C623305  28.104  -1.233  -0.480
  209XTA     C723306  28.051  -1.365  -0.498
  209XTA     C823307  28.102  -1.470  -0.423
  209XTA     C923308  28.211  -1.447  -0.336
  209XTA    C1023309  28.266  -1.322  -0.316
  209XTA    CN323310  28.184  -1.006  -0.282
  209XTA    C1123311  28.119  -0.894  -0.328
  209XTA    C1223312  28.045  -0.811  -0.241
  209XTA    C1323313  28.019  -0.846  -0.109
  209XTA    C1423314  28.083  -0.962  -0.064
  209XTA    C1523315  28.169  -1.035  -0.150
  209XTA     H123316  28.238  -1.002  -0.606
  209XTA     H223317  28.439  -0.931  -0.748
  209XTA     H323318  28.702  -0.981  -0.415
  209XTA     H423319  28.525  -1.072  -0.279
  209XTA     H523320  28.063  -1.146  -0.539
  209XTA     H623321  27.976  -1.370  -0.578
  209XTA     H723322  28.250  -1.529  -0.272
  209XTA     H823323  28.343  -1.296  -0.237
  209XTA     H923324  28.128  -0.876  -0.428
  209XTA    H1023325  28.009  -0.725  -0.283
  209XTA    H1123326  28.080  -0.974   0.043
  209XTA    H1223327  28.244  -1.101  -0.103
  209XTA    OA123328  28.698  -0.909  -0.662
  209XTA    CO123329  28.696  -0.945  -0.800
  209XTA    OA223330  28.044  -1.592  -0.452
  209XTA    CO223331  28.105  -1.706  -0.398
  209XTA    CL123332  28.033  -1.832  -0.452
  209XTA    CL223333  28.125  -1.952  -0.420
  209XTA    CL323334  28.059  -2.097  -0.447
  209XTA    CL423335  28.151  -2.212  -0.398
  209XTA    CO323336  28.179  -2.207  -0.249
  209XTA    OA323337  28.056  -2.190  -0.183
  209XTA    CO423338  28.075  -2.096  -0.076
  209XTA    CT123339  27.946  -2.042  -0.012
  209XTA    CL523340  27.973  -1.919   0.085
  209XTA    CL623341  28.072  -1.810   0.017
  209XTA    OA423342  27.936  -0.769  -0.027
  209XTA    CO523343  27.834  -0.693  -0.087
  209XTA    CL723344  27.736  -0.791  -0.158
  209XTA    CL823345  27.622  -0.718  -0.225
  209XTA    CL923346  27.540  -0.821  -0.297
  209XTA   CL1023347  27.407  -0.763  -0.333
  209XTA    CO623348  27.304  -0.869  -0.383
  209XTA    OA523349  27.280  -0.977  -0.294
  209XTA    CO723350  27.158  -0.954  -0.226
  209XTA    CT223351  27.158  -1.048  -0.097
  209XTA   CL1123352  27.155  -0.971   0.037
  209XTA   CL1223353  27.286  -0.907   0.090
  209XTA    HL123354  28.787  -0.906  -0.838
  209XTA    HL223355  28.704  -1.049  -0.809
  209XTA    HL323356  28.608  -0.895  -0.846
  209XTA    HL423357  28.211  -1.708  -0.441
  209XTA    HL523358  28.104  -1.707  -0.287
  209XTA    HL623359  28.017  -1.834  -0.558
  209XTA    HL723360  27.939  -1.860  -0.414
  209XTA    HL823361  28.168  -1.952  -0.319
  209XTA    HL923362  28.214  -1.951  -0.485
  209XTA   HL1023363  27.965  -2.095  -0.391
  209XTA   HL1123364  28.024  -2.109  -0.551
  209XTA   HL1223365  28.239  -2.222  -0.451
  209XTA   HL1323366  28.097  -2.306  -0.423
  209XTA   HL1423367  28.236  -2.288  -0.217
  209XTA   HL1523368  28.247  -2.124  -0.237
  209XTA   HL1623369  28.133  -2.144   0.007
  209XTA   HL1723370  28.145  -2.021  -0.112
  209XTA   HL1823371  28.028  -1.953   0.171
  209XTA   HL1923372  27.883  -1.870   0.122
  209XTA   HL2023373  28.046  -1.799  -0.089
  209XTA   HL2123374  28.175  -1.849   0.023
  209XTA   HL2223375  28.075  -1.715   0.077
  209XTA   HL2323376  27.870  -0.610  -0.149
  209XTA   HL2423377  27.780  -0.646  -0.004
  209XTA   HL2523378  27.782  -0.841  -0.240
  209XTA   HL2623379  27.697  -0.861  -0.089
  209XTA   HL2723380  27.552  -0.666  -0.155
  209XTA   HL2823381  27.657  -0.636  -0.295
  209XTA   HL2923382  27.590  -0.851  -0.385
  209XTA   HL3023383  27.532  -0.912  -0.245
  209XTA   HL3123384  27.350  -0.713  -0.255
  209XTA   HL3223385  27.429  -0.694  -0.422
  209XTA   HL3323386  27.216  -0.818  -0.434
  209XTA   HL3423387  27.358  -0.917  -0.459
  209XTA   HL3523388  27.075  -0.975  -0.299
  209XTA   HL3623389  27.151  -0.852  -0.204
  209XTA   HL3723390  27.128  -1.061   0.105
  209XTA   HL3823391  27.078  -0.889   0.030
  209XTA   HL3923392  27.314  -0.810   0.033
  209XTA   HL4023393  27.361  -0.975   0.089
  209XTA   HL4123394  27.278  -0.882   0.199
  209XTA    CO823395  27.877  -2.151   0.078
  209XTA    CO923396  27.844  -1.995  -0.124
  209XTA    OA623397  27.969  -2.210   0.161
  209XTA   HL4223398  27.837  -2.235   0.011
  209XTA   HL4323399  27.785  -2.121   0.117
  209XTA   HL4423400  27.260  -1.213  -0.183
  209XTA   HL4523401  27.362  -1.093  -0.111
  209XTA   CO1023402  27.275  -1.149  -0.099
  209XTA   CO1123403  27.030  -1.128  -0.111
  209XTA    OA723404  27.284  -1.245   0.007
  209XTA   HL4623405  27.049  -1.196  -0.195
  209XTA   HL4723406  27.020  -1.194  -0.026
  209XTA   HL4823407  27.911  -1.949  -0.197
  209XTA   HL4923408  27.791  -2.082  -0.165
  210XTA     NT23409  31.681   1.275   2.804
  210XTA    CN123410  31.610   1.389   2.801
  210XTA     C123411  31.474   1.402   2.835
  210XTA     C223412  31.410   1.528   2.832
  210XTA     C323413  31.488   1.644   2.804
  210XTA     C423414  31.619   1.635   2.764
  210XTA     C523415  31.679   1.503   2.757
  210XTA    CN223416  31.675   1.205   2.692
  210XTA     C623417  31.793   1.153   2.638
  210XTA     C723418  31.787   1.073   2.519
  210XTA     C823419  31.664   1.038   2.465
  210XTA     C923420  31.542   1.078   2.529
  210XTA    C1023421  31.552   1.159   2.642
  210XTA    CN323422  31.731   1.228   2.923
  210XTA    C1123423  31.782   1.327   3.010
  210XTA    C1223424  31.836   1.294   3.135
  210XTA    C1323425  31.843   1.158   3.170
  210XTA    C1423426  31.792   1.057   3.084
  210XTA    C1523427  31.740   1.088   2.964
  210XTA     H123428  31.416   1.322   2.882
  210XTA     H223429  31.306   1.533   2.864
  210XTA     H323430  31.661   1.723   2.723
  210XTA     H423431  31.783   1.511   2.726
  210XTA     H523432  31.895   1.174   2.673
  210XTA     H623433  31.872   1.034   2.470
  210XTA     H723434  31.442   1.051   2.494
  210XTA     H823435  31.459   1.184   2.682
  210XTA     H923436  31.768   1.432   2.971
  210XTA    H1023437  31.883   1.375   3.188
  210XTA    H1123438  31.794   0.954   3.104
  210XTA    H1223439  31.721   1.017   2.884
  210XTA    OA123440  31.427   1.769   2.803
  210XTA    CO123441  31.291   1.778   2.788
  210XTA    OA223442  31.674   0.960   2.352
  210XTA    CO223443  31.556   0.905   2.283
  210XTA    CL123444  31.596   0.824   2.156
  210XTA    CL223445  31.693   0.712   2.187
  210XTA    CL323446  31.759   0.668   2.048
  210XTA    CL423447  31.839   0.531   2.057
  210XTA    CO323448  31.972   0.542   2.140
  210XTA    OA323449  32.042   0.416   2.144
  210XTA    CO423450  31.988   0.330   2.236
  210XTA    CT123451  32.028   0.184   2.204
  210XTA    CL523452  32.176   0.162   2.238
  210XTA    CL623453  32.280   0.221   2.144
  210XTA    OA423454  31.885   1.119   3.293
  210XTA    CO523455  31.973   1.204   3.365
  210XTA    CL723456  31.884   1.306   3.439
  210XTA    CL823457  31.967   1.421   3.482
  210XTA    CL923458  31.889   1.520   3.564
  210XTA   CL1023459  31.887   1.658   3.493
  210XTA    CO623460  31.791   1.656   3.372
  210XTA    OA523461  31.794   1.775   3.301
  210XTA    CO723462  31.697   1.790   3.195
  210XTA    CT223463  31.688   1.927   3.129
  210XTA   CL1123464  31.812   1.934   3.029
  210XTA   CL1223465  31.801   1.858   2.896
  210XTA    HL123466  31.271   1.885   2.797
  210XTA    HL223467  31.245   1.729   2.698
  210XTA    HL323468  31.248   1.744   2.880
  210XTA    HL423469  31.508   0.832   2.350
  210XTA    HL523470  31.481   0.974   2.258
  210XTA    HL623471  31.651   0.892   2.095
  210XTA    HL723472  31.506   0.800   2.100
  210XTA    HL823473  31.649   0.623   2.226
  210XTA    HL923474  31.773   0.746   2.260
  210XTA   HL1023475  31.677   0.629   1.989
  210XTA   HL1123476  31.811   0.747   2.006
  210XTA   HL1223477  31.866   0.498   1.957
  210XTA   HL1323478  31.776   0.455   2.101
  210XTA   HL1423479  32.026   0.631   2.099
  210XTA   HL1523480  31.941   0.571   2.243
  210XTA   HL1623481  32.026   0.361   2.337
  210XTA   HL1723482  31.882   0.333   2.247
  210XTA   HL1823483  32.194   0.052   2.247
  210XTA   HL1923484  32.197   0.190   2.342
  210XTA   HL2023485  32.373   0.204   2.191
  210XTA   HL2123486  32.270   0.333   2.111
  210XTA   HL2223487  32.282   0.168   2.046
  210XTA   HL2323488  32.046   1.261   3.306
  210XTA   HL2423489  32.026   1.143   3.439
  210XTA   HL2523490  31.796   1.337   3.377
  210XTA   HL2623491  31.858   1.252   3.526
  210XTA   HL2723492  32.051   1.389   3.542
  210XTA   HL2823493  32.031   1.458   3.404
  210XTA   HL2923494  31.786   1.491   3.575
  210XTA   HL3023495  31.940   1.532   3.658
  210XTA   HL3123496  31.856   1.735   3.558
  210XTA   HL3223497  31.988   1.696   3.478
  210XTA   HL3323498  31.812   1.568   3.315
  210XTA   HL3423499  31.694   1.655   3.419
  210XTA   HL3523500  31.599   1.763   3.221
  210XTA   HL3623501  31.710   1.716   3.116
  210XTA   HL3723502  31.905   1.897   3.081
  210XTA   HL3823503  31.853   2.036   3.005
  210XTA   HL3923504  31.897   1.841   2.852
  210XTA   HL4023505  31.726   1.905   2.829
  210XTA   HL4123506  31.763   1.758   2.912
  210XTA    CO823507  31.997   0.161   2.061
  210XTA    CO923508  31.941   0.085   2.288
  210XTA    OA623509  31.857   0.183   2.041
  210XTA   HL4223510  32.028   0.061   2.043
  210XTA   HL4323511  32.045   0.238   1.993
  210XTA   HL4423512  31.743   2.154   3.186
  210XTA   HL4523513  31.818   2.007   3.277
  210XTA   CO1023514  31.719   2.030   3.240
  210XTA   CO1123515  31.554   1.964   3.060
  210XTA    OA723516  31.554   2.061   3.014
  210XTA   HL4623517  31.536   1.902   2.972
  210XTA   HL4723518  31.473   1.939   3.137
  210XTA   HL4823519  31.843   0.086   2.249
  210XTA   HL4923520  31.983  -0.014   2.285
  211XTA     NT23521  29.725  -0.907   2.516
  211XTA    CN123522  29.707  -0.992   2.615
  211XTA     C123523  29.607  -0.966   2.713
  211XTA     C223524  29.587  -1.053   2.820
  211XTA     C323525  29.665  -1.169   2.837
  211XTA     C423526  29.767  -1.199   2.735
  211XTA     C523527  29.787  -1.102   2.635
  211XTA    CN223528  29.666  -0.945   2.399
  211XTA     C623529  29.534  -0.907   2.365
  211XTA     C723530  29.472  -0.954   2.247
  211XTA     C823531  29.547  -1.041   2.157
  211XTA     C923532  29.679  -1.075   2.192
  211XTA    C1023533  29.740  -1.023   2.308
  211XTA    CN323534  29.825  -0.817   2.524
  211XTA    C1123535  29.850  -0.744   2.650
  211XTA    C1223536  29.957  -0.653   2.660
  211XTA    C1323537  30.031  -0.615   2.547
  211XTA    C1423538  30.009  -0.682   2.423
  211XTA    C1523539  29.906  -0.780   2.411
  211XTA     H123540  29.536  -0.882   2.710
  211XTA     H223541  29.518  -1.030   2.901
  211XTA     H323542  29.826  -1.293   2.742
  211XTA     H423543  29.859  -1.129   2.551
  211XTA     H523544  29.477  -0.837   2.430
  211XTA     H623545  29.370  -0.927   2.233
  211XTA     H723546  29.727  -1.150   2.132
  211XTA     H823547  29.845  -1.044   2.333
  211XTA     H923548  29.804  -0.774   2.751
  211XTA    H1023549  29.986  -0.617   2.750
  211XTA    H1123550  30.073  -0.652   2.345
  211XTA    H1223551  29.891  -0.818   2.316
  211XTA    OA123552  29.640  -1.260   2.935
  211XTA    CO123553  29.578  -1.212   3.052
  211XTA    OA223554  29.495  -1.100   2.043
  211XTA    CO223555  29.360  -1.138   2.059
  211XTA    CL123556  29.315  -1.231   1.934
  211XTA    CL223557  29.161  -1.239   1.916
  211XTA    CL323558  29.071  -1.247   2.043
  211XTA    CL423559  29.085  -1.389   2.116
  211XTA    CO323560  29.037  -1.378   2.261
  211XTA    OA323561  29.095  -1.262   2.322
  211XTA    CO423562  29.082  -1.252   2.459
  211XTA    CT123563  29.161  -1.132   2.511
  211XTA    CL523564  29.129  -1.003   2.426
  211XTA    CL623565  28.986  -0.943   2.439
  211XTA    OA423566  30.125  -0.516   2.566
  211XTA    CO523567  30.208  -0.489   2.455
  211XTA    CL723568  30.319  -0.389   2.487
  211XTA    CL823569  30.403  -0.445   2.608
  211XTA    CL923570  30.477  -0.334   2.682
  211XTA   CL1023571  30.582  -0.257   2.598
  211XTA    CO623572  30.682  -0.350   2.528
  211XTA    OA523573  30.791  -0.277   2.472
  211XTA    CO723574  30.751  -0.224   2.349
  211XTA    CT223575  30.866  -0.219   2.243
  211XTA   CL1123576  30.953  -0.352   2.247
  211XTA   CL1223577  30.874  -0.483   2.226
  211XTA    HL123578  29.577  -1.282   3.140
  211XTA    HL223579  29.626  -1.122   3.089
  211XTA    HL323580  29.471  -1.195   3.035
  211XTA    HL423581  29.344  -1.181   2.156
  211XTA    HL523582  29.295  -1.049   2.064
  211XTA    HL623583  29.351  -1.326   1.964
  211XTA    HL723584  29.354  -1.196   1.841
  211XTA    HL823585  29.135  -1.304   1.839
  211XTA    HL923586  29.129  -1.138   1.889
  211XTA   HL1023587  29.111  -1.168   2.107
  211XTA   HL1123588  28.964  -1.221   2.026
  211XTA   HL1223589  29.194  -1.412   2.118
  211XTA   HL1323590  29.028  -1.471   2.066
  211XTA   HL1423591  28.928  -1.373   2.252
  211XTA   HL1523592  29.060  -1.471   2.313
  211XTA   HL1623593  28.978  -1.233   2.479
  211XTA   HL1723594  29.119  -1.350   2.499
  211XTA   HL1823595  29.149  -1.000   2.321
  211XTA   HL1923596  29.186  -0.926   2.460
  211XTA   HL2023597  28.946  -0.917   2.533
  211XTA   HL2123598  28.914  -1.009   2.392
  211XTA   HL2223599  28.967  -0.850   2.384
  211XTA   HL2323600  30.149  -0.450   2.370
  211XTA   HL2423601  30.240  -0.582   2.425
  211XTA   HL2523602  30.381  -0.365   2.402
  211XTA   HL2623603  30.268  -0.302   2.528
  211XTA   HL2723604  30.334  -0.496   2.678
  211XTA   HL2823605  30.471  -0.522   2.578
  211XTA   HL2923606  30.410  -0.264   2.731
  211XTA   HL3023607  30.520  -0.386   2.762
  211XTA   HL3123608  30.549  -0.177   2.533
  211XTA   HL3223609  30.648  -0.204   2.668
  211XTA   HL3323610  30.735  -0.413   2.605
  211XTA   HL3423611  30.627  -0.429   2.466
  211XTA   HL3523612  30.710  -0.123   2.354
  211XTA   HL3623613  30.672  -0.279   2.302
  211XTA   HL3723614  31.001  -0.359   2.344
  211XTA   HL3823615  31.030  -0.348   2.170
  211XTA   HL3923616  30.948  -0.561   2.261
  211XTA   HL4023617  30.859  -0.511   2.120
  211XTA   HL4123618  30.778  -0.501   2.282
  211XTA    CO823619  29.317  -1.164   2.497
  211XTA    CO923620  29.133  -1.115   2.660
  211XTA    OA623621  29.351  -1.261   2.533
  211XTA   HL4223622  29.363  -1.085   2.553
  211XTA   HL4323623  29.343  -1.140   2.396
  211XTA   HL4423624  30.908  -0.006   2.243
  211XTA   HL4523625  31.011  -0.100   2.401
  211XTA   CO1023626  30.963  -0.098   2.266
  211XTA   CO1123627  30.797  -0.192   2.099
  211XTA    OA723628  30.744  -0.095   2.101
  211XTA   HL4623629  30.876  -0.197   2.021
  211XTA   HL4723630  30.719  -0.266   2.081
  211XTA   HL4823631  29.201  -1.022   2.729
  211XTA   HL4923632  29.026  -1.076   2.654
  212XTA     NT23633  26.970  -0.559   1.099
  212XTA    CN123634  26.975  -0.501   0.979
  212XTA     C123635  27.058  -0.382   0.953
  212XTA     C223636  27.061  -0.318   0.826
  212XTA     C323637  26.987  -0.378   0.722
  212XTA     C423638  26.911  -0.493   0.749
  212XTA     C523639  26.894  -0.544   0.875
  212XTA    CN223640  26.865  -0.540   1.181
  212XTA     C623641  26.842  -0.417   1.249
  212XTA     C723642  26.727  -0.400   1.324
  212XTA     C823643  26.640  -0.509   1.346
  212XTA     C923644  26.673  -0.633   1.287
  212XTA    C1023645  26.780  -0.649   1.204
  212XTA    CN323646  27.077  -0.633   1.135
  212XTA    C1123647  27.074  -0.773   1.104
  212XTA    C1223648  27.185  -0.855   1.140
  212XTA    C1323649  27.298  -0.803   1.204
  212XTA    C1423650  27.298  -0.661   1.223
  212XTA    C1523651  27.187  -0.580   1.197
  212XTA     H123652  27.114  -0.336   1.029
  212XTA     H223653  27.130  -0.238   0.799
  212XTA     H323654  26.842  -0.536   0.677
  212XTA     H423655  26.818  -0.626   0.893
  212XTA     H523656  26.911  -0.340   1.247
  212XTA     H623657  26.709  -0.303   1.382
  212XTA     H723658  26.609  -0.717   1.303
  212XTA     H823659  26.796  -0.742   1.155
  212XTA     H923660  26.984  -0.817   1.065
  212XTA    H1023661  27.181  -0.964   1.132
  212XTA    H1123662  27.373  -0.610   1.286
  212XTA    H1223663  27.188  -0.476   1.223
  212XTA    OA123664  26.991  -0.337   0.587
  212XTA    CO123665  27.127  -0.313   0.556
  212XTA    OA223666  26.528  -0.501   1.428
  212XTA    CO223667  26.496  -0.375   1.490
  212XTA    CL123668  26.577  -0.364   1.624
  212XTA    CL223669  26.574  -0.502   1.693
  212XTA    CL323670  26.629  -0.499   1.829
  212XTA    CL423671  26.623  -0.637   1.911
  212XTA    CO323672  26.679  -0.625   2.054
  212XTA    OA323673  26.670  -0.757   2.114
  212XTA    CO423674  26.538  -0.788   2.166
  212XTA    CT123675  26.525  -0.938   2.179
  212XTA    CL523676  26.630  -0.991   2.273
  212XTA    CL623677  26.630  -1.143   2.290
  212XTA    OA423678  27.396  -0.889   1.240
  212XTA    CO523679  27.501  -0.827   1.322
  212XTA    CL723680  27.476  -0.794   1.469
  212XTA    CL823681  27.555  -0.672   1.513
  212XTA    CL923682  27.480  -0.571   1.590
  212XTA   CL1023683  27.565  -0.456   1.648
  212XTA    CO623684  27.486  -0.327   1.674
  212XTA    OA523685  27.539  -0.248   1.777
  212XTA    CO723686  27.508  -0.289   1.905
  212XTA    CT223687  27.559  -0.215   2.035
  212XTA   CL1123688  27.692  -0.142   2.005
  212XTA   CL1223689  27.808  -0.236   1.953
  212XTA    HL123690  27.144  -0.204   0.565
  212XTA    HL223691  27.197  -0.362   0.625
  212XTA    HL323692  27.145  -0.361   0.457
  212XTA    HL423693  26.512  -0.284   1.428
  212XTA    HL523694  26.390  -0.378   1.518
  212XTA    HL623695  26.525  -0.294   1.686
  212XTA    HL723696  26.678  -0.320   1.601
  212XTA    HL823697  26.612  -0.586   1.638
  212XTA    HL923698  26.469  -0.523   1.699
  212XTA   HL1023699  26.729  -0.457   1.815
  212XTA   HL1123700  26.576  -0.423   1.885
  212XTA   HL1223701  26.681  -0.705   1.859
  212XTA   HL1323702  26.522  -0.670   1.923
  212XTA   HL1423703  26.785  -0.595   2.042
  212XTA   HL1523704  26.630  -0.557   2.125
  212XTA   HL1623705  26.529  -0.732   2.254
  212XTA   HL1723706  26.464  -0.749   2.104
  212XTA   HL1823707  26.618  -0.939   2.369
  212XTA   HL1923708  26.724  -0.959   2.222
  212XTA   HL2023709  26.556  -1.185   2.356
  212XTA   HL2123710  26.720  -1.174   2.342
  212XTA   HL2223711  26.615  -1.199   2.199
  212XTA   HL2323712  27.528  -0.734   1.267
  212XTA   HL2423713  27.588  -0.881   1.317
  212XTA   HL2523714  27.368  -0.762   1.484
  212XTA   HL2623715  27.505  -0.886   1.529
  212XTA   HL2723716  27.645  -0.712   1.569
  212XTA   HL2823717  27.597  -0.625   1.418
  212XTA   HL2923718  27.416  -0.532   1.520
  212XTA   HL3023719  27.427  -0.616   1.678
  212XTA   HL3123720  27.614  -0.490   1.740
  212XTA   HL3223721  27.646  -0.419   1.579
  212XTA   HL3323722  27.476  -0.265   1.581
  212XTA   HL3423723  27.384  -0.348   1.697
  212XTA   HL3523724  27.553  -0.385   1.907
  212XTA   HL3623725  27.402  -0.314   1.923
  212XTA   HL3723726  27.721  -0.096   2.104
  212XTA   HL3823727  27.674  -0.055   1.943
  212XTA   HL3923728  27.895  -0.187   1.914
  212XTA   HL4023729  27.763  -0.301   1.875
  212XTA   HL4123730  27.842  -0.304   2.027
  212XTA    CO823731  26.525  -0.992   2.038
  212XTA    CO923732  26.378  -0.953   2.228
  212XTA    OA623733  26.462  -0.906   1.940
  212XTA   HL4223734  26.471  -1.088   2.033
  212XTA   HL4323735  26.628  -0.992   2.009
  212XTA   HL4423736  27.616  -0.251   2.241
  212XTA   HL4523737  27.672  -0.371   2.141
  212XTA   CO1023738  27.580  -0.311   2.159
  212XTA   CO1123739  27.454  -0.108   2.077
  212XTA    OA723740  27.401  -0.036   1.964
  212XTA   HL4623741  27.367  -0.152   2.125
  212XTA   HL4723742  27.501  -0.052   2.162
  212XTA   HL4823743  26.300  -0.910   2.156
  212XTA   HL4923744  26.361  -1.061   2.233
  213XTA     NT23745  28.910   0.109  10.138
  213XTA    CN123746  28.785   0.059  10.170
  213XTA     C123747  28.686   0.138  10.232
  213XTA     C223748  28.554   0.089  10.250
  213XTA     C323749  28.522  -0.043  10.210
  213XTA     C423750  28.615  -0.115  10.136
  213XTA     C523751  28.743  -0.065  10.115
  213XTA    CN223752  28.901   0.232  10.088
  213XTA     C623753  28.916   0.346  10.170
  213XTA     C723754  28.892   0.475  10.119
  213XTA     C823755  28.873   0.495   9.981
  213XTA     C923756  28.865   0.382   9.900
  213XTA    C1023757  28.884   0.256   9.958
  213XTA    CN323758  29.021   0.064  10.200
  213XTA    C1123759  29.137   0.040  10.120
  213XTA    C1223760  29.248  -0.009  10.190
  213XTA    C1323761  29.250  -0.032  10.323
  213XTA    C1423762  29.140   0.003  10.407
  213XTA    C1523763  29.023   0.039  10.341
  213XTA     H123764  28.706   0.232  10.265
  213XTA     H223765  28.479   0.143  10.318
  213XTA     H323766  28.591  -0.213  10.095
  213XTA     H423767  28.807  -0.134  10.070
  213XTA     H523768  28.943   0.322  10.279
  213XTA     H623769  28.925   0.560  10.180
  213XTA     H723770  28.856   0.389   9.792
  213XTA     H823771  28.865   0.162   9.902
  213XTA     H923772  29.144   0.056  10.014
  213XTA    H1023773  29.339  -0.033  10.140
  213XTA    H1123774  29.159  -0.008  10.512
  213XTA    H1223775  28.931   0.061  10.391
  213XTA    OA123776  28.401  -0.104  10.233
  213XTA    CO123777  28.301  -0.023  10.293
  213XTA    OA223778  28.857   0.610   9.909
  213XTA    CO223779  28.845   0.725   9.998
  213XTA    CL123780  28.833   0.847   9.906
  213XTA    CL223781  28.795   0.969   9.978
  213XTA    CL323782  28.790   1.089   9.886
  213XTA    CL423783  28.743   1.220   9.956
  213XTA    CO323784  28.786   1.342   9.876
  213XTA    OA323785  28.757   1.325   9.744
  213XTA    CO423786  28.796   1.434   9.663
  213XTA    CT123787  28.724   1.409   9.525
  213XTA    CL523788  28.572   1.378   9.532
  213XTA    CL623789  28.495   1.447   9.644
  213XTA    OA423790  29.362  -0.075  10.389
  213XTA    CO523791  29.353  -0.203  10.438
  213XTA    CL723792  29.453  -0.221  10.553
  213XTA    CL823793  29.407  -0.128  10.664
  213XTA    CL923794  29.480  -0.156  10.794
  213XTA   CL1023795  29.403  -0.113  10.918
  213XTA    CO623796  29.377   0.038  10.934
  213XTA    OA523797  29.492   0.117  10.971
  213XTA    CO723798  29.562   0.174  10.855
  213XTA    CT223799  29.677   0.271  10.902
  213XTA   CL1123800  29.798   0.196  10.941
  213XTA   CL1223801  29.867   0.118  10.834
  213XTA    HL123802  28.326   0.010  10.400
  213XTA    HL223803  28.286   0.065  10.237
  213XTA    HL323804  28.199  -0.071  10.298
  213XTA    HL423805  28.747   0.720  10.047
  213XTA    HL523806  28.931   0.731  10.068
  213XTA    HL623807  28.768   0.823   9.820
  213XTA    HL723808  28.927   0.872   9.870
  213XTA    HL823809  28.868   0.979  10.060
  213XTA    HL923810  28.700   0.957  10.023
  213XTA   HL1023811  28.884   1.091   9.836
  213XTA   HL1123812  28.706   1.070   9.821
  213XTA   HL1223813  28.773   1.231  10.063
  213XTA   HL1323814  28.632   1.237   9.955
  213XTA   HL1423815  28.747   1.436   9.920
  213XTA   HL1523816  28.896   1.363   9.882
  213XTA   HL1623817  28.770   1.532   9.695
  213XTA   HL1723818  28.903   1.442   9.646
  213XTA   HL1823819  28.566   1.273   9.543
  213XTA   HL1923820  28.530   1.424   9.442
  213XTA   HL2023821  28.522   1.547   9.638
  213XTA   HL2123822  28.532   1.420   9.743
  213XTA   HL2223823  28.388   1.427   9.634
  213XTA   HL2323824  29.372  -0.271  10.354
  213XTA   HL2423825  29.248  -0.225  10.459
  213XTA   HL2523826  29.461  -0.329  10.569
  213XTA   HL2623827  29.552  -0.188  10.523
  213XTA   HL2723828  29.415  -0.026  10.632
  213XTA   HL2823829  29.302  -0.161  10.673
  213XTA   HL2923830  29.494  -0.262  10.804
  213XTA   HL3023831  29.576  -0.106  10.791
  213XTA   HL3123832  29.304  -0.159  10.928
  213XTA   HL3223833  29.458  -0.142  11.013
  213XTA   HL3323834  29.323   0.081  10.846
  213XTA   HL3423835  29.319   0.046  11.027
  213XTA   HL3523836  29.495   0.228  10.798
  213XTA   HL3623837  29.615   0.094  10.792
  213XTA   HL3723838  29.759   0.125  11.018
  213XTA   HL3823839  29.864   0.261  10.997
  213XTA   HL3923840  29.822   0.027  10.809
  213XTA   HL4023841  29.969   0.097  10.855
  213XTA   HL4123842  29.863   0.172  10.736
  213XTA    CO823843  28.799   1.289   9.453
  213XTA    CO923844  28.762   1.527   9.445
  213XTA    OA623845  28.870   1.544   9.433
  213XTA   HL4223846  28.812   1.223   9.540
  213XTA   HL4323847  28.932   1.308   9.420
  213XTA   HL4423848  29.527   0.378  11.007
  213XTA   HL4523849  29.685   0.366  11.087
  213XTA   CO1023850  29.636   0.368  10.992
  213XTA   CO1123851  29.706   0.383  10.809
  213XTA    OA723852  29.687   0.455  10.940
  213XTA   HL4623853  29.833   0.395  10.767
  213XTA   HL4723854  29.638   0.390  10.730
  213XTA   HL4823855  28.707   1.600   9.502
  213XTA   HL4923856  28.717   1.512   9.347
  214XTA     NT23857  32.304   1.706   5.586
  214XTA    CN123858  32.314   1.587   5.539
  214XTA     C123859  32.236   1.483   5.579
  214XTA     C223860  32.264   1.355   5.533
  214XTA     C323861  32.374   1.324   5.444
  214XTA     C423862  32.454   1.433   5.406
  214XTA     C523863  32.422   1.564   5.449
  214XTA    CN223864  32.187   1.776   5.587
  214XTA     C623865  32.156   1.862   5.481
  214XTA     C723866  32.045   1.944   5.483
  214XTA     C823867  31.967   1.941   5.599
  214XTA     C923868  31.987   1.849   5.706
  214XTA    C1023869  32.103   1.767   5.704
  214XTA    CN323870  32.407   1.737   5.664
  214XTA    C1123871  32.480   1.849   5.625
  214XTA    C1223872  32.602   1.882   5.702
  214XTA    C1323873  32.637   1.807   5.821
  214XTA    C1423874  32.555   1.696   5.851
  214XTA    C1523875  32.439   1.665   5.777
  214XTA     H123876  32.146   1.514   5.640
  214XTA     H223877  32.211   1.267   5.573
  214XTA     H323878  32.543   1.414   5.343
  214XTA     H423879  32.480   1.641   5.411
  214XTA     H523880  32.226   1.869   5.401
  214XTA     H623881  32.043   2.010   5.396
  214XTA     H723882  31.920   1.855   5.795
  214XTA     H823883  32.126   1.702   5.784
  214XTA     H923884  32.450   1.914   5.549
  214XTA    H1023885  32.654   1.978   5.698
  214XTA    H1123886  32.590   1.645   5.943
  214XTA    H1223887  32.376   1.576   5.800
  214XTA    OA123888  32.385   1.192   5.413
  214XTA    CO123889  32.511   1.147   5.363
  214XTA    OA223890  31.861   2.026   5.614
  214XTA    CO223891  31.780   2.046   5.498
  214XTA    CL123892  31.634   2.062   5.543
  214XTA    CL223893  31.584   1.963   5.638
  214XTA    CL323894  31.449   1.983   5.692
  214XTA    CL423895  31.416   1.880   5.795
  214XTA    CO323896  31.275   1.911   5.850
  214XTA    OA323897  31.267   2.039   5.913
  214XTA    CO423898  31.324   2.034   6.037
  214XTA    CT123899  31.312   2.175   6.103
  214XTA    CL523900  31.345   2.169   6.250
  214XTA    CL623901  31.275   2.056   6.340
  214XTA    OA423902  32.748   1.831   5.896
  214XTA    CO523903  32.845   1.735   5.867
  214XTA    CL723904  32.935   1.728   5.984
  214XTA    CL823905  32.855   1.710   6.119
  214XTA    CL923906  32.785   1.577   6.135
  214XTA   CL1023907  32.715   1.568   6.267
  214XTA    CO623908  32.605   1.682   6.288
  214XTA    OA523909  32.513   1.643   6.385
  214XTA    CO723910  32.420   1.742   6.429
  214XTA    CT223911  32.341   1.679   6.543
  214XTA   CL1123912  32.224   1.776   6.570
  214XTA   CL1223913  32.138   1.752   6.697
  214XTA    HL123914  32.598   1.164   5.424
  214XTA    HL223915  32.508   1.043   5.333
  214XTA    HL323916  32.533   1.198   5.269
  214XTA    HL423917  31.820   2.141   5.449
  214XTA    HL523918  31.806   1.969   5.431
  214XTA    HL623919  31.576   2.041   5.460
  214XTA    HL723920  31.606   2.157   5.583
  214XTA    HL823921  31.655   1.958   5.714
  214XTA    HL923922  31.581   1.866   5.593
  214XTA   HL1023923  31.455   2.076   5.749
  214XTA   HL1123924  31.378   1.986   5.612
  214XTA   HL1223925  31.491   1.903   5.876
  214XTA   HL1323926  31.422   1.781   5.756
  214XTA   HL1423927  31.208   1.920   5.761
  214XTA   HL1523928  31.238   1.840   5.920
  214XTA   HL1623929  31.264   1.968   6.091
  214XTA   HL1723930  31.426   1.997   6.029
  214XTA   HL1823931  31.336   2.260   6.302
  214XTA   HL1923932  31.458   2.144   6.252
  214XTA   HL2023933  31.168   2.071   6.346
  214XTA   HL2123934  31.324   2.049   6.435
  214XTA   HL2223935  31.282   1.955   6.302
  214XTA   HL2323936  32.900   1.770   5.788
  214XTA   HL2423937  32.805   1.636   5.857
  214XTA   HL2523938  32.999   1.642   5.982
  214XTA   HL2623939  32.994   1.815   5.990
  214XTA   HL2723940  32.932   1.728   6.198
  214XTA   HL2823941  32.785   1.791   6.122
  214XTA   HL2923942  32.729   1.562   6.046
  214XTA   HL3023943  32.850   1.494   6.125
  214XTA   HL3123944  32.670   1.473   6.290
  214XTA   HL3223945  32.786   1.583   6.343
  214XTA   HL3323946  32.643   1.789   6.309
  214XTA   HL3423947  32.558   1.699   6.194
  214XTA   HL3523948  32.352   1.757   6.347
  214XTA   HL3623949  32.471   1.838   6.454
  214XTA   HL3723950  32.153   1.761   6.491
  214XTA   HL3823951  32.243   1.882   6.563
  214XTA   HL3923952  32.091   1.652   6.693
  214XTA   HL4023953  32.047   1.817   6.681
  214XTA   HL4123954  32.180   1.768   6.793
  214XTA    CO823955  31.164   2.227   6.091
  214XTA    CO923956  31.398   2.273   6.015
  214XTA    OA623957  31.155   2.356   6.150
  214XTA   HL4223958  31.095   2.155   6.143
  214XTA   HL4323959  31.139   2.230   5.983
  214XTA   HL4423960  32.364   1.635   6.746
  214XTA   HL4523961  32.501   1.575   6.656
  214XTA   CO1023962  32.434   1.660   6.665
  214XTA   CO1123963  32.280   1.535   6.509
  214XTA    OA723964  32.493   1.785   6.701
  214XTA   HL4623965  32.356   1.462   6.501
  214XTA   HL4723966  32.222   1.513   6.598
  214XTA   HL4823967  31.347   2.261   5.916
  214XTA   HL4923968  31.391   2.380   6.057
  215XTA     NT23969  25.936   2.049   5.105
  215XTA    CN123970  25.901   2.167   5.151
  215XTA     C123971  25.803   2.179   5.253
  215XTA     C223972  25.764   2.304   5.295
  215XTA     C323973  25.798   2.416   5.223
  215XTA     C423974  25.897   2.413   5.124
  215XTA     C523975  25.944   2.285   5.087
  215XTA    CN223976  25.836   1.974   5.055
  215XTA     C623977  25.812   1.986   4.917
  215XTA     C723978  25.704   1.914   4.861
  215XTA     C823979  25.620   1.831   4.944
  215XTA     C923980  25.639   1.827   5.078
  215XTA    C1023981  25.756   1.885   5.135
  215XTA    CN323982  26.056   1.990   5.138
  215XTA    C1123983  26.076   1.947   5.270
  215XTA    C1223984  26.192   1.878   5.308
  215XTA    C1323985  26.292   1.855   5.209
  215XTA    C1423986  26.271   1.906   5.070
  215XTA    C1523987  26.153   1.975   5.040
  215XTA     H123988  25.774   2.096   5.311
  215XTA     H223989  25.695   2.307   5.386
  215XTA     H323990  25.924   2.510   5.085
  215XTA     H423991  26.023   2.270   5.017
  215XTA     H523992  25.883   2.051   4.857
  215XTA     H623993  25.694   1.914   4.758
  215XTA     H723994  25.580   1.755   5.142
  215XTA     H823995  25.772   1.873   5.243
  215XTA     H923996  25.999   1.960   5.342
  215XTA    H1023997  26.204   1.833   5.401
  215XTA    H1123998  26.329   1.875   4.984
  215XTA    H1223999  26.133   1.999   4.941
  215XTA    OA124000  25.750   2.532   5.263
  215XTA    CO124001  25.811   2.584   5.384
  215XTA    OA224002  25.520   1.757   4.890
  215XTA    CO224003  25.499   1.757   4.753
  215XTA    CL124004  25.376   1.676   4.717
  215XTA    CL224005  25.386   1.540   4.766
  215XTA    CL324006  25.269   1.447   4.728
  215XTA    CL424007  25.134   1.505   4.782
  215XTA    CO324008  25.124   1.555   4.926
  215XTA    OA324009  25.151   1.452   5.019
  215XTA    CO424010  25.148   1.486   5.153
  215XTA    CT124011  25.147   1.368   5.251
  215XTA    CL524012  25.256   1.267   5.215
  215XTA    CL624013  25.403   1.312   5.238
  215XTA    OA424014  26.408   1.786   5.240
  215XTA    CO524015  26.454   1.759   5.376
  215XTA    CL724016  26.476   1.886   5.458
  215XTA    CL824017  26.550   2.002   5.391
  215XTA    CL924018  26.602   2.102   5.503
  215XTA   CL1024019  26.480   2.172   5.571
  215XTA    CO624020  26.517   2.316   5.621
  215XTA    OA524021  26.612   2.292   5.726
  215XTA    CO724022  26.685   2.411   5.763
  215XTA    CT224023  26.779   2.373   5.877
  215XTA   CL1124024  26.703   2.316   5.999
  215XTA   CL1224025  26.616   2.409   6.079
  215XTA    HL124026  25.917   2.593   5.376
  215XTA    HL224027  25.780   2.692   5.397
  215XTA    HL324028  25.789   2.529   5.474
  215XTA    HL424029  25.486   1.862   4.730
  215XTA    HL524030  25.589   1.726   4.696
  215XTA    HL624031  25.369   1.688   4.608
  215XTA    HL724032  25.282   1.725   4.755
  215XTA    HL824033  25.390   1.550   4.874
  215XTA    HL924034  25.480   1.499   4.734
  215XTA   HL1024035  25.269   1.429   4.613
  215XTA   HL1124036  25.290   1.343   4.766
  215XTA   HL1224037  25.050   1.437   4.770
  215XTA   HL1324038  25.102   1.582   4.714
  215XTA   HL1424039  25.195   1.627   4.947
  215XTA   HL1524040  25.019   1.593   4.944
  215XTA   HL1624041  25.227   1.548   5.178
  215XTA   HL1724042  25.070   1.556   5.168
  215XTA   HL1824043  25.246   1.238   5.111
  215XTA   HL1924044  25.231   1.186   5.273
  215XTA   HL2024045  25.421   1.394   5.164
  215XTA   HL2124046  25.479   1.231   5.209
  215XTA   HL2224047  25.432   1.337   5.334
  215XTA   HL2324048  26.552   1.711   5.387
  215XTA   HL2424049  26.383   1.696   5.427
  215XTA   HL2524050  26.379   1.936   5.484
  215XTA   HL2624051  26.522   1.851   5.547
  215XTA   HL2724052  26.635   1.957   5.336
  215XTA   HL2824053  26.499   2.055   5.310
  215XTA   HL2924054  26.670   2.049   5.576
  215XTA   HL3024055  26.668   2.174   5.453
  215XTA   HL3124056  26.408   2.176   5.490
  215XTA   HL3224057  26.439   2.108   5.641
  215XTA   HL3324058  26.559   2.383   5.544
  215XTA   HL3424059  26.426   2.364   5.662
  215XTA   HL3524060  26.615   2.489   5.801
  215XTA   HL3624061  26.742   2.444   5.683
  215XTA   HL3724062  26.777   2.278   6.058
  215XTA   HL3824063  26.648   2.226   5.960
  215XTA   HL3924064  26.677   2.496   6.103
  215XTA   HL4024065  26.575   2.363   6.174
  215XTA   HL4124066  26.538   2.456   6.014
  215XTA    CO824067  25.006   1.304   5.240
  215XTA    CO924068  25.164   1.428   5.394
  215XTA    OA624069  25.001   1.246   5.145
  215XTA   HL4224070  24.945   1.393   5.260
  215XTA   HL4324071  24.993   1.241   5.328
  215XTA   HL4424072  26.892   2.495   6.033
  215XTA   HL4524073  26.956   2.490   5.868
  215XTA   CO1024074  26.864   2.494   5.928
  215XTA   CO1124075  26.886   2.270   5.835
  215XTA    OA724076  26.818   2.596   5.918
  215XTA   HL4624077  26.962   2.246   5.953
  215XTA   HL4724078  26.838   2.181   5.803
  215XTA   HL4824079  25.279   1.513   5.395
  215XTA   HL4924080  25.084   1.492   5.432
  216XTA     NT24081  28.765   3.059   4.268
  216XTA    CN124082  28.768   3.179   4.209
  216XTA     C124083  28.755   3.299   4.279
  216XTA     C224084  28.755   3.422   4.213
  216XTA     C324085  28.786   3.430   4.076
  216XTA     C424086  28.802   3.306   4.008
  216XTA     C524087  28.787   3.185   4.073
  216XTA    CN224088  28.888   2.994   4.271
  216XTA     C624089  28.911   2.900   4.176
  216XTA     C724090  29.027   2.827   4.174
  216XTA     C824091  29.129   2.852   4.265
  216XTA     C924092  29.097   2.941   4.366
  216XTA    C1024093  28.981   3.014   4.368
  216XTA    CN324094  28.653   3.011   4.334
  216XTA    C1124095  28.527   3.029   4.272
  216XTA    C1224096  28.408   2.983   4.342
  216XTA    C1324097  28.416   2.912   4.467
  216XTA    C1424098  28.546   2.893   4.524
  216XTA    C1524099  28.661   2.949   4.459
  216XTA     H124100  28.746   3.297   4.385
  216XTA     H224101  28.752   3.511   4.271
  216XTA     H324102  28.816   3.312   3.899
  216XTA     H424103  28.801   3.087   4.028
  216XTA     H524104  28.828   2.885   4.115
  216XTA     H624105  29.031   2.750   4.091
  216XTA     H724106  29.180   2.962   4.431
  216XTA     H824107  28.972   3.094   4.444
  216XTA     H924108  28.519   3.078   4.175
  216XTA    H1024109  28.309   3.011   4.305
  216XTA    H1124110  28.561   2.835   4.617
  216XTA    H1224111  28.751   2.927   4.509
  216XTA    OA124112  28.815   3.549   4.008
  216XTA    CO124113  28.811   3.664   4.084
  216XTA    OA224114  29.257   2.808   4.284
  216XTA    CO224115  29.312   2.745   4.175
  216XTA    CL124116  29.458   2.701   4.193
  216XTA    CL224117  29.526   2.610   4.090
  216XTA    CL324118  29.656   2.541   4.136
  216XTA    CL424119  29.622   2.419   4.222
  216XTA    CO324120  29.723   2.401   4.326
  216XTA    OA324121  29.854   2.435   4.275
  216XTA    CO424122  29.943   2.474   4.378
  216XTA    CT124123  30.078   2.520   4.318
  216XTA    CL524124  30.119   2.419   4.205
  216XTA    CL624125  30.268   2.422   4.163
  216XTA    OA424126  28.301   2.886   4.532
  216XTA    CO524127  28.306   2.876   4.671
  216XTA    CL724128  28.300   2.720   4.702
  216XTA    CL824129  28.358   2.670   4.831
  216XTA    CL924130  28.358   2.517   4.867
  216XTA   CL1024131  28.421   2.426   4.751
  216XTA    CO624132  28.570   2.456   4.711
  216XTA    OA524133  28.662   2.439   4.819
  216XTA    CO724134  28.658   2.314   4.882
  216XTA    CT224135  28.807   2.297   4.925
  216XTA   CL1124136  28.817   2.164   4.996
  216XTA   CL1224137  28.730   2.149   5.122
  216XTA    HL124138  28.708   3.683   4.099
  216XTA    HL224139  28.876   3.658   4.170
  216XTA    HL324140  28.836   3.748   4.024
  216XTA    HL424141  29.260   2.646   4.168
  216XTA    HL524142  29.308   2.799   4.088
  216XTA    HL624143  29.478   2.652   4.288
  216XTA    HL724144  29.515   2.794   4.190
  216XTA    HL824145  29.558   2.667   3.995
  216XTA    HL924146  29.459   2.529   4.052
  216XTA   HL1024147  29.714   2.517   4.044
  216XTA   HL1124148  29.732   2.604   4.188
  216XTA   HL1224149  29.619   2.322   4.158
  216XTA   HL1324150  29.528   2.431   4.270
  216XTA   HL1424151  29.690   2.461   4.414
  216XTA   HL1524152  29.721   2.300   4.374
  216XTA   HL1624153  29.895   2.544   4.449
  216XTA   HL1724154  29.955   2.388   4.436
  216XTA   HL1824155  30.054   2.443   4.118
  216XTA   HL1924156  30.098   2.315   4.246
  216XTA   HL2024157  30.279   2.372   4.066
  216XTA   HL2124158  30.338   2.376   4.230
  216XTA   HL2224159  30.310   2.522   4.161
  216XTA   HL2324160  28.231   2.942   4.709
  216XTA   HL2424161  28.399   2.921   4.717
  216XTA   HL2524162  28.195   2.678   4.702
  216XTA   HL2624163  28.348   2.659   4.624
  216XTA   HL2724164  28.462   2.715   4.847
  216XTA   HL2824165  28.294   2.719   4.893
  216XTA   HL2924166  28.408   2.502   4.961
  216XTA   HL3024167  28.250   2.493   4.885
  216XTA   HL3124168  28.414   2.320   4.785
  216XTA   HL3224169  28.363   2.441   4.664
  216XTA   HL3324170  28.602   2.389   4.628
  216XTA   HL3424171  28.588   2.553   4.675
  216XTA   HL3524172  28.638   2.240   4.813
  216XTA   HL3624173  28.588   2.303   4.960
  216XTA   HL3724174  28.925   2.149   5.028
  216XTA   HL3824175  28.795   2.085   4.922
  216XTA   HL3924176  28.625   2.152   5.115
  216XTA   HL4024177  28.763   2.226   5.193
  216XTA   HL4124178  28.743   2.049   5.171
  216XTA    CO824179  30.187   2.534   4.425
  216XTA    CO924180  30.067   2.660   4.244
  216XTA    OA624181  30.058   2.743   4.315
  216XTA   HL4224182  30.282   2.570   4.371
  216XTA   HL4324183  30.149   2.621   4.526
  216XTA   HL4424184  28.944   2.369   5.083
  216XTA   HL4524185  28.777   2.413   5.102
  216XTA   CO1024186  28.857   2.399   5.024
  216XTA   CO1124187  28.899   2.307   4.801
  216XTA    OA724188  28.878   2.202   4.707
  216XTA   HL4624189  28.877   2.389   4.741
  216XTA   HL4724190  29.003   2.326   4.828
  216XTA   HL4824191  29.974   2.660   4.183
  216XTA   HL4924192  30.151   2.686   4.180
  217XTA     NT24193  28.156   3.326   0.111
  217XTA    CN124194  28.235   3.307  -0.000
  217XTA     C124195  28.333   3.208  -0.009
  217XTA     C224196  28.415   3.199  -0.126
  217XTA     C324197  28.387   3.278  -0.237
  217XTA     C424198  28.269   3.357  -0.236
  217XTA     C524199  28.202   3.376  -0.118
  217XTA    CN224200  28.213   3.331   0.230
  217XTA     C624201  28.249   3.215   0.299
  217XTA     C724202  28.295   3.220   0.434
  217XTA     C824203  28.320   3.346   0.496
  217XTA     C924204  28.287   3.460   0.432
  217XTA    C1024205  28.232   3.460   0.300
  217XTA    CN324206  28.026   3.296   0.106
  217XTA    C1124207  27.932   3.401   0.098
  217XTA    C1224208  27.796   3.373   0.082
  217XTA    C1324209  27.750   3.241   0.079
  217XTA    C1424210  27.849   3.134   0.082
  217XTA    C1524211  27.982   3.166   0.088
  217XTA     H124212  28.361   3.151   0.081
  217XTA     H224213  28.504   3.136  -0.115
  217XTA     H324214  28.236   3.409  -0.324
  217XTA     H424215  28.111   3.439  -0.111
  217XTA     H524216  28.231   3.110   0.269
  217XTA     H624217  28.317   3.133   0.490
  217XTA     H724218  28.296   3.554   0.481
  217XTA     H824219  28.196   3.559   0.261
  217XTA     H924220  27.959   3.502   0.089
  217XTA    H1024221  27.725   3.452   0.086
  217XTA    H1124222  27.817   3.027   0.077
  217XTA    H1224223  28.055   3.087   0.096
  217XTA    OA124224  28.455   3.273  -0.358
  217XTA    CO124225  28.586   3.212  -0.341
  217XTA    OA224226  28.369   3.337   0.626
  217XTA    CO224227  28.373   3.456   0.698
  217XTA    CL124228  28.481   3.557   0.678
  217XTA    CL224229  28.483   3.686   0.769
  217XTA    CL324230  28.611   3.767   0.755
  217XTA    CL424231  28.579   3.883   0.661
  217XTA    CO324232  28.717   3.944   0.610
  217XTA    OA324233  28.782   3.835   0.548
  217XTA    CO424234  28.921   3.863   0.514
  217XTA    CT124235  28.971   3.737   0.453
  217XTA    CL524236  28.945   3.746   0.296
  217XTA    CL624237  28.802   3.740   0.252
  217XTA    OA424238  27.613   3.213   0.077
  217XTA    CO524239  27.548   3.226   0.204
  217XTA    CL724240  27.524   3.364   0.255
  217XTA    CL824241  27.413   3.372   0.361
  217XTA    CL924242  27.356   3.514   0.394
  217XTA   CL1024243  27.214   3.513   0.455
  217XTA    CO624244  27.206   3.472   0.608
  217XTA    OA524245  27.108   3.374   0.624
  217XTA    CO724246  27.161   3.243   0.621
  217XTA    CT224247  27.055   3.138   0.637
  217XTA   CL1124248  27.001   3.137   0.786
  217XTA   CL1224249  26.911   3.260   0.830
  217XTA    HL124250  28.589   3.102  -0.318
  217XTA    HL224251  28.638   3.214  -0.435
  217XTA    HL324252  28.648   3.266  -0.270
  217XTA    HL424253  28.271   3.505   0.716
  217XTA    HL524254  28.389   3.426   0.803
  217XTA    HL624255  28.481   3.599   0.575
  217XTA    HL724256  28.577   3.504   0.688
  217XTA    HL824257  28.496   3.649   0.871
  217XTA    HL924258  28.389   3.735   0.767
  217XTA   HL1024259  28.640   3.809   0.852
  217XTA   HL1124260  28.689   3.705   0.722
  217XTA   HL1224261  28.522   3.956   0.712
  217XTA   HL1324262  28.527   3.854   0.575
  217XTA   HL1424263  28.708   4.029   0.540
  217XTA   HL1524264  28.764   3.977   0.702
  217XTA   HL1624265  28.941   3.952   0.447
  217XTA   HL1724266  28.971   3.876   0.608
  217XTA   HL1824267  28.992   3.655   0.257
  217XTA   HL1924268  29.001   3.830   0.255
  217XTA   HL2024269  28.750   3.661   0.306
  217XTA   HL2124270  28.794   3.730   0.142
  217XTA   HL2224271  28.744   3.830   0.274
  217XTA   HL2324272  27.604   3.164   0.277
  217XTA   HL2424273  27.454   3.171   0.195
  217XTA   HL2524274  27.610   3.404   0.305
  217XTA   HL2624275  27.501   3.429   0.166
  217XTA   HL2724276  27.324   3.306   0.330
  217XTA   HL2824277  27.445   3.336   0.460
  217XTA   HL2924278  27.429   3.583   0.432
  217XTA   HL3024279  27.342   3.563   0.298
  217XTA   HL3124280  27.173   3.607   0.427
  217XTA   HL3224281  27.151   3.438   0.405
  217XTA   HL3324282  27.311   3.444   0.632
  217XTA   HL3424283  27.185   3.561   0.661
  217XTA   HL3524284  27.239   3.229   0.697
  217XTA   HL3624285  27.204   3.232   0.521
  217XTA   HL3724286  27.097   3.129   0.831
  217XTA   HL3824287  26.943   3.046   0.791
  217XTA   HL3924288  26.878   3.267   0.936
  217XTA   HL4024289  26.822   3.283   0.768
  217XTA   HL4124290  26.974   3.352   0.814
  217XTA    CO824291  28.923   3.602   0.509
  217XTA    CO924292  29.121   3.744   0.471
  217XTA    OA624293  28.978   3.494   0.433
  217XTA   HL4224294  28.813   3.606   0.508
  217XTA   HL4324295  28.937   3.594   0.618
  217XTA   HL4424296  27.197   2.984   0.685
  217XTA   HL4524297  27.033   2.923   0.627
  217XTA   CO1024298  27.115   3.004   0.613
  217XTA   CO1124299  26.927   3.152   0.543
  217XTA    OA724300  27.177   2.988   0.488
  217XTA   HL4624301  26.973   3.197   0.449
  217XTA   HL4724302  26.864   3.244   0.565
  217XTA   HL4824303  29.140   3.762   0.582
  217XTA   HL4924304  29.161   3.642   0.466
  218XTA     NT24305  29.157   0.758   0.131
  218XTA    CN124306  29.250   0.753   0.231
  218XTA     C124307  29.340   0.856   0.256
  218XTA     C224308  29.434   0.850   0.355
  218XTA     C324309  29.436   0.743   0.452
  218XTA     C424310  29.337   0.637   0.432
  218XTA     C524311  29.245   0.650   0.326
  218XTA    CN224312  29.187   0.701   0.016
  218XTA     C624313  29.257   0.769  -0.082
  218XTA     C724314  29.313   0.705  -0.191
  218XTA     C824315  29.292   0.565  -0.210
  218XTA     C924316  29.226   0.494  -0.110
  218XTA    C1024317  29.175   0.560   0.005
  218XTA    CN324318  29.026   0.780   0.174
  218XTA    C1124319  28.937   0.674   0.175
  218XTA    C1224320  28.818   0.681   0.245
  218XTA    C1324321  28.775   0.800   0.302
  218XTA    C1424322  28.858   0.914   0.287
  218XTA    C1524323  28.983   0.905   0.218
  218XTA     H124324  29.338   0.941   0.190
  218XTA     H224325  29.501   0.928   0.366
  218XTA     H324326  29.331   0.550   0.492
  218XTA     H424327  29.166   0.576   0.307
  218XTA     H524328  29.265   0.879  -0.081
  218XTA     H624329  29.373   0.759  -0.265
  218XTA     H724330  29.212   0.389  -0.129
  218XTA     H824331  29.134   0.491   0.076
  218XTA     H924332  28.958   0.584   0.122
  218XTA    H1024333  28.748   0.601   0.251
  218XTA    H1124334  28.834   1.006   0.334
  218XTA    H1224335  29.051   0.986   0.220
  218XTA    OA124336  29.532   0.746   0.551
  218XTA    CO124337  29.520   0.644   0.649
  218XTA    OA224338  29.327   0.485  -0.313
  218XTA    CO224339  29.431   0.538  -0.396
  218XTA    CL124340  29.485   0.438  -0.497
  218XTA    CL224341  29.377   0.414  -0.605
  218XTA    CL324342  29.421   0.307  -0.707
  218XTA    CL424343  29.458   0.173  -0.657
  218XTA    CO324344  29.486   0.062  -0.762
  218XTA    OA324345  29.568  -0.043  -0.716
  218XTA    CO424346  29.523  -0.109  -0.602
  218XTA    CT124347  29.609  -0.233  -0.566
  218XTA    CL524348  29.623  -0.317  -0.705
  218XTA    CL624349  29.706  -0.444  -0.699
  218XTA    OA424350  28.657   0.816   0.367
  218XTA    CO524351  28.556   0.717   0.355
  218XTA    CL724352  28.475   0.740   0.226
  218XTA    CL824353  28.416   0.609   0.166
  218XTA    CL924354  28.288   0.637   0.079
  218XTA   CL1024355  28.229   0.515   0.004
  218XTA    CO624356  28.319   0.472  -0.115
  218XTA    OA524357  28.318   0.581  -0.207
  218XTA    CO724358  28.370   0.561  -0.339
  218XTA    CT224359  28.425   0.687  -0.408
  218XTA   CL1124360  28.312   0.781  -0.452
  218XTA   CL1224361  28.345   0.908  -0.528
  218XTA    HL124362  29.548   0.541   0.625
  218XTA    HL224363  29.587   0.673   0.729
  218XTA    HL324364  29.420   0.643   0.688
  218XTA    HL424365  29.394   0.621  -0.442
  218XTA    HL524366  29.510   0.580  -0.334
  218XTA    HL624367  29.508   0.342  -0.448
  218XTA    HL724368  29.570   0.479  -0.545
  218XTA    HL824369  29.356   0.509  -0.665
  218XTA    HL924370  29.289   0.393  -0.547
  218XTA   HL1024371  29.331   0.293  -0.771
  218XTA   HL1124372  29.515   0.346  -0.760
  218XTA   HL1224373  29.371   0.140  -0.599
  218XTA   HL1324374  29.536   0.186  -0.576
  218XTA   HL1424375  29.403   0.022  -0.811
  218XTA   HL1524376  29.542   0.116  -0.838
  218XTA   HL1624377  29.532  -0.029  -0.528
  218XTA   HL1724378  29.412  -0.118  -0.609
  218XTA   HL1824379  29.681  -0.252  -0.772
  218XTA   HL1924380  29.518  -0.337  -0.745
  218XTA   HL2024381  29.714  -0.471  -0.800
  218XTA   HL2124382  29.647  -0.524  -0.651
  218XTA   HL2224383  29.800  -0.420  -0.652
  218XTA   HL2324384  28.487   0.740   0.446
  218XTA   HL2424385  28.595   0.613   0.366
  218XTA   HL2524386  28.402   0.816   0.250
  218XTA   HL2624387  28.540   0.772   0.149
  218XTA   HL2724388  28.485   0.560   0.095
  218XTA   HL2824389  28.393   0.528   0.244
  218XTA   HL2924390  28.210   0.682   0.133
  218XTA   HL3024391  28.319   0.715   0.005
  218XTA   HL3124392  28.213   0.436   0.078
  218XTA   HL3224393  28.133   0.543  -0.023
  218XTA   HL3324394  28.426   0.459  -0.081
  218XTA   HL3424395  28.292   0.378  -0.150
  218XTA   HL3524396  28.299   0.511  -0.406
  218XTA   HL3624397  28.462   0.498  -0.344
  218XTA   HL3724398  28.268   0.832  -0.362
  218XTA   HL3824399  28.245   0.719  -0.513
  218XTA   HL3924400  28.422   0.966  -0.480
  218XTA   HL4024401  28.254   0.957  -0.532
  218XTA   HL4124402  28.359   0.898  -0.632
  218XTA    CO824403  29.544  -0.323  -0.460
  218XTA    CO924404  29.750  -0.188  -0.513
  218XTA    OA624405  29.398  -0.330  -0.475
  218XTA   HL4224406  29.556  -0.290  -0.354
  218XTA   HL4324407  29.582  -0.424  -0.460
  218XTA   HL4424408  28.576   0.762  -0.581
  218XTA   HL4524409  28.427   0.625  -0.607
  218XTA   CO1024410  28.508   0.649  -0.535
  218XTA   CO1124411  28.512   0.762  -0.308
  218XTA    OA724412  28.597   0.813  -0.359
  218XTA   HL4624413  28.463   0.838  -0.239
  218XTA   HL4724414  28.564   0.691  -0.246
  218XTA   HL4824415  29.752  -0.133  -0.424
  218XTA   HL4924416  29.795  -0.285  -0.470
  219XTA     NT24417  28.991  -0.400   2.424
  219XTA    CN124418  29.089  -0.479   2.480
  219XTA     C124419  29.073  -0.601   2.549
  219XTA     C224420  29.185  -0.670   2.595
  219XTA     C324421  29.315  -0.620   2.572
  219XTA     C424422  29.330  -0.504   2.500
  219XTA     C524423  29.216  -0.435   2.454
  219XTA    CN224424  28.911  -0.442   2.318
  219XTA     C624425  28.932  -0.385   2.191
  219XTA     C724426  28.841  -0.416   2.089
  219XTA     C824427  28.741  -0.507   2.110
  219XTA     C924428  28.725  -0.570   2.237
  219XTA    C1024429  28.804  -0.527   2.345
  219XTA    CN324430  28.961  -0.283   2.486
  219XTA    C1124431  29.020  -0.166   2.435
  219XTA    C1224432  28.989  -0.046   2.494
  219XTA    C1324433  28.896  -0.034   2.593
  219XTA    C1424434  28.830  -0.147   2.644
  219XTA    C1524435  28.875  -0.271   2.598
  219XTA     H124436  28.979  -0.659   2.561
  219XTA     H224437  29.161  -0.771   2.638
  219XTA     H324438  29.428  -0.466   2.480
  219XTA     H424439  29.230  -0.353   2.385
  219XTA     H524440  28.999  -0.302   2.181
  219XTA     H624441  28.857  -0.369   1.994
  219XTA     H724442  28.650  -0.639   2.256
  219XTA     H824443  28.788  -0.573   2.441
  219XTA     H924444  29.085  -0.182   2.350
  219XTA    H1024445  29.039   0.045   2.477
  219XTA    H1124446  28.744  -0.149   2.711
  219XTA    H1224447  28.839  -0.368   2.633
  219XTA    OA124448  29.423  -0.684   2.622
  219XTA    CO124449  29.474  -0.629   2.738
  219XTA    OA224450  28.656  -0.539   2.001
  219XTA    CO224451  28.559  -0.635   2.021
  219XTA    CL124452  28.493  -0.656   1.886
  219XTA    CL224453  28.380  -0.757   1.888
  219XTA    CL324454  28.302  -0.782   1.763
  219XTA    CL424455  28.188  -0.872   1.793
  219XTA    CO324456  28.100  -0.890   1.672
  219XTA    OA324457  27.995  -0.980   1.703
  219XTA    CO424458  27.934  -1.029   1.585
  219XTA    CT124459  27.797  -1.094   1.624
  219XTA    CL524460  27.727  -1.149   1.493
  219XTA    CL624461  27.773  -1.083   1.358
  219XTA    OA424462  28.881   0.091   2.646
  219XTA    CO524463  28.898   0.093   2.784
  219XTA    CL724464  28.866   0.229   2.839
  219XTA    CL824465  28.915   0.244   2.988
  219XTA    CL924466  28.835   0.186   3.103
  219XTA   CL1024467  28.843   0.033   3.111
  219XTA    CO624468  28.987  -0.021   3.116
  219XTA    OA524469  29.059   0.056   3.217
  219XTA    CO724470  29.184  -0.004   3.244
  219XTA    CT224471  29.250   0.029   3.378
  219XTA   CL1124472  29.272   0.183   3.395
  219XTA   CL1224473  29.373   0.253   3.298
  219XTA    HL124474  29.571  -0.671   2.744
  219XTA    HL224475  29.476  -0.530   2.727
  219XTA    HL324476  29.417  -0.662   2.822
  219XTA    HL424477  28.600  -0.740   2.043
  219XTA    HL524478  28.494  -0.592   2.099
  219XTA    HL624479  28.564  -0.703   1.821
  219XTA    HL724480  28.464  -0.564   1.843
  219XTA    HL824481  28.313  -0.724   1.963
  219XTA    HL924482  28.421  -0.843   1.941
  219XTA   HL1024483  28.254  -0.692   1.720
  219XTA   HL1124484  28.372  -0.829   1.688
  219XTA   HL1224485  28.125  -0.827   1.866
  219XTA   HL1324486  28.234  -0.968   1.825
  219XTA   HL1424487  28.054  -0.794   1.635
  219XTA   HL1524488  28.157  -0.924   1.586
  219XTA   HL1624489  27.931  -0.960   1.510
  219XTA   HL1724490  27.991  -1.106   1.545
  219XTA   HL1824491  27.620  -1.120   1.492
  219XTA   HL1924492  27.724  -1.262   1.480
  219XTA   HL2024493  27.787  -0.986   1.379
  219XTA   HL2124494  27.703  -1.092   1.276
  219XTA   HL2224495  27.865  -1.129   1.331
  219XTA   HL2324496  29.008   0.071   2.794
  219XTA   HL2424497  28.836   0.018   2.835
  219XTA   HL2524498  28.917   0.300   2.777
  219XTA   HL2624499  28.758   0.239   2.836
  219XTA   HL2724500  29.022   0.226   3.002
  219XTA   HL2824501  28.913   0.355   3.004
  219XTA   HL2924502  28.867   0.239   3.190
  219XTA   HL3024503  28.726   0.207   3.086
  219XTA   HL3124504  28.795  -0.003   3.204
  219XTA   HL3224505  28.790  -0.014   3.021
  219XTA   HL3324506  28.976  -0.130   3.133
  219XTA   HL3424507  29.036  -0.003   3.021
  219XTA   HL3524508  29.262   0.020   3.169
  219XTA   HL3624509  29.177  -0.114   3.229
  219XTA   HL3724510  29.305   0.206   3.494
  219XTA   HL3824511  29.173   0.234   3.396
  219XTA   HL3924512  29.478   0.237   3.330
  219XTA   HL4024513  29.366   0.362   3.293
  219XTA   HL4124514  29.348   0.216   3.202
  219XTA    CO824515  27.708  -0.997   1.699
  219XTA    CO924516  27.820  -1.222   1.710
  219XTA    OA624517  27.609  -1.047   1.723
  219XTA   HL4224518  27.692  -0.906   1.639
  219XTA   HL4324519  27.761  -0.962   1.786
  219XTA   HL4424520  29.459   0.009   3.334
  219XTA   HL4524521  29.431   0.010   3.530
  219XTA   CO1024522  29.383  -0.037   3.404
  219XTA   CO1124523  29.157  -0.014   3.491
  219XTA    OA724524  29.073   0.061   3.495
  219XTA   HL4624525  29.115  -0.113   3.478
  219XTA   HL4724526  29.205  -0.014   3.586
  219XTA   HL4824527  27.700  -1.279   1.750
  219XTA   HL4924528  27.867  -1.291   1.653
  220XTH     NT24529  28.627   1.361   6.633
  220XTH    CN124530  28.629   1.463   6.551
  220XTH     C124531  28.746   1.489   6.477
  220XTH     C224532  28.756   1.600   6.392
  220XTH     C324533  28.646   1.688   6.383
  220XTH     C424534  28.530   1.659   6.459
  220XTH     C524535  28.521   1.550   6.539
  220XTH    CN224536  28.553   1.253   6.603
  220XTH     C624537  28.447   1.208   6.687
  220XTH     C724538  28.374   1.094   6.648
  220XTH     C824539  28.413   1.017   6.531
  220XTH     C924540  28.525   1.063   6.452
  220XTH    C1024541  28.588   1.183   6.482
  220XTH    CN324542  28.680   1.368   6.756
  220XTH    C1124543  28.758   1.263   6.809
  220XTH    C1224544  28.794   1.275   6.944
  220XTH    C1324545  28.761   1.386   7.023
  220XTH    C1424546  28.698   1.498   6.966
  220XTH    C1524547  28.644   1.484   6.833
  220XTH     H124548  28.822   1.412   6.476
  220XTH     H224549  28.842   1.610   6.324
  220XTH     H324550  28.437   1.722   6.451
  220XTH     H424551  28.429   1.518   6.588
  220XTH     H524552  28.421   1.260   6.776
  220XTH     H624553  28.297   1.056   6.718
  220XTH     H724554  28.559   1.001   6.370
  220XTH     H824555  28.679   1.210   6.432
  220XTH     H924556  28.780   1.175   6.752
  220XTH    H1024557  28.842   1.199   7.004
  220XTH    H1124558  28.677   1.584   7.024
  220XTH    H1224559  28.589   1.566   6.793
  220XTH    OA124560  28.658   1.787   6.294
  220XTH    CO124561  28.574   1.901   6.325
  220XTH    OA224562  28.363   0.897   6.488
  220XTH    CO224563  28.232   0.871   6.536
  220XTH    CL124564  28.130   0.938   6.441
  220XTH    CL224565  27.985   0.896   6.484
  220XTH    CL324566  27.891   0.918   6.365
  220XTH    CL424567  27.772   0.811   6.366
  220XTH    CO324568  27.639   0.881   6.328
  220XTH    OA324569  27.653   0.907   6.190
  220XTH    CO424570  27.535   0.956   6.129
  220XTH    CT124571  27.563   1.016   5.988
  220XTH    CL524572  27.633   1.159   6.009
  220XTH    CL624573  27.632   1.257   5.890
  220XTH    OA424574  28.792   1.387   7.153
  220XTH    CO524575  28.874   1.285   7.215
  220XTH    CL724576  28.900   1.335   7.352
  220XTH    CL824577  28.984   1.244   7.436
  220XTH    CL924578  29.139   1.261   7.422
  220XTH   CL1024579  29.227   1.145   7.471
  220XTH    CO624580  29.365   1.156   7.416
  220XTH    OA524581  29.448   1.042   7.431
  220XTH    CO724582  29.558   1.038   7.340
  220XTH    CT224583  29.653   0.922   7.356
  220XTH   CL1124584  29.588   0.783   7.323
  220XTH   CL1224585  29.459   0.737   7.399
  220XTH    HL124586  28.463   1.896   6.313
  220XTH    HL224587  28.608   1.963   6.411
  220XTH    HL324588  28.607   1.973   6.248
  220XTH    HL424589  28.223   0.756   6.528
  220XTH    HL524590  28.219   0.884   6.646
  220XTH    HL624591  28.149   0.898   6.342
  220XTH    HL724592  28.143   1.050   6.432
  220XTH    HL824593  27.951   0.967   6.562
  220XTH    HL924594  27.982   0.793   6.509
  220XTH   HL1024595  27.847   1.017   6.359
  220XTH   HL1124596  27.944   0.903   6.272
  220XTH   HL1224597  27.752   0.777   6.466
  220XTH   HL1324598  27.793   0.725   6.303
  220XTH   HL1424599  27.556   0.815   6.345
  220XTH   HL1524600  27.630   0.968   6.396
  220XTH   HL1624601  27.463   0.872   6.117
  220XTH   HL1724602  27.490   1.029   6.191
  220XTH   HL1824603  27.728   1.147   6.046
  220XTH   HL1924604  27.571   1.209   6.089
  220XTH   HL2024605  27.688   1.349   5.920
  220XTH   HL2124606  27.523   1.279   5.871
  220XTH   HL2224607  27.685   1.213   5.805
  220XTH   HL2324608  28.960   1.268   7.157
  220XTH   HL2424609  28.811   1.195   7.210
  220XTH   HL2524610  28.962   1.427   7.350
  220XTH   HL2624611  28.808   1.366   7.402
  220XTH   HL2724612  28.964   1.267   7.545
  220XTH   HL2824613  28.965   1.141   7.415
  220XTH   HL2924614  29.149   1.279   7.315
  220XTH   HL3024615  29.167   1.352   7.479
  220XTH   HL3124616  29.224   1.145   7.585
  220XTH   HL3224617  29.176   1.050   7.438
  220XTH   HL3324618  29.364   1.181   7.309
  220XTH   HL3424619  29.414   1.246   7.462
  220XTH   HL3524620  29.619   1.131   7.335
  220XTH   HL3624621  29.507   1.023   7.249
  220XTH   HL3724622  29.668   0.710   7.339
  220XTH   HL3824623  29.563   0.784   7.213
  220XTH   HL3924624  29.475   0.727   7.506
  220XTH   HL4024625  29.420   0.642   7.358
  220XTH   HL4124626  29.388   0.813   7.384
  220XTH    CO824627  27.430   1.038   5.913
  220XTH    CO924628  27.649   0.912   5.912
  220XTH    OA624629  27.667   0.945   5.809
  220XTH   HL4224630  27.455   1.077   5.816
  220XTH   HL4324631  27.363   0.924   5.870
  220XTH   HL4424632  29.626   0.895   7.568
  220XTH   HL4524633  29.756   1.005   7.526
  220XTH   CO1024634  29.711   0.910   7.500
  220XTH   CO1124635  29.767   0.950   7.259
  220XTH    OA724636  29.764   0.882   7.131
  220XTH   HL4624637  29.795   1.056   7.234
  220XTH   HL4724638  29.860   0.908   7.296
  220XTH   HL4824639  27.594   0.816   5.911
  220XTH   HL4924640  27.737   0.900   5.973
  221XTA     NT24641  30.860   0.908   5.470
  221XTA    CN124642  30.825   0.893   5.338
  221XTA     C124643  30.754   1.001   5.282
  221XTA     C224644  30.722   0.999   5.142
  221XTA     C324645  30.763   0.886   5.065
  221XTA     C424646  30.838   0.783   5.121
  221XTA     C524647  30.869   0.787   5.253
  221XTA    CN224648  30.764   0.913   5.568
  221XTA     C624649  30.714   1.036   5.611
  221XTA     C724650  30.613   1.053   5.703
  221XTA     C824651  30.548   0.936   5.747
  221XTA     C924652  30.598   0.812   5.709
  221XTA    C1024653  30.693   0.802   5.609
  221XTA    CN324654  30.982   0.962   5.500
  221XTA    C1124655  31.076   0.892   5.579
  221XTA    C1224656  31.196   0.948   5.617
  221XTA    C1324657  31.233   1.076   5.572
  221XTA    C1424658  31.146   1.151   5.486
  221XTA    C1524659  31.023   1.087   5.441
  221XTA     H124660  30.720   1.082   5.343
  221XTA     H224661  30.657   1.076   5.092
  221XTA     H324662  30.867   0.690   5.074
  221XTA     H424663  30.936   0.712   5.283
  221XTA     H524664  30.756   1.127   5.562
  221XTA     H624665  30.575   1.153   5.732
  221XTA     H724666  30.563   0.722   5.758
  221XTA     H824667  30.717   0.704   5.576
  221XTA     H924668  31.035   0.800   5.614
  221XTA    H1024669  31.274   0.894   5.670
  221XTA    H1124670  31.170   1.248   5.444
  221XTA    H1224671  30.970   1.140   5.370
  221XTA    OA124672  30.737   0.884   4.931
  221XTA    CO124673  30.698   0.756   4.882
  221XTA    OA224674  30.452   0.951   5.843
  221XTA    CO224675  30.343   0.862   5.831
  221XTA    CL124676  30.220   0.938   5.878
  221XTA    CL224677  30.200   1.073   5.815
  221XTA    CL324678  30.074   1.151   5.864
  221XTA    CL424679  30.085   1.295   5.815
  221XTA    CO324680  29.978   1.392   5.863
  221XTA    OA324681  30.033   1.520   5.841
  221XTA    CO424682  29.945   1.621   5.892
  221XTA    CT124683  30.007   1.755   5.886
  221XTA    CL524684  30.042   1.792   5.740
  221XTA    CL624685  30.116   1.922   5.714
  221XTA    OA424686  31.361   1.118   5.601
  221XTA    CO524687  31.447   1.142   5.491
  221XTA    CL724688  31.525   1.012   5.450
  221XTA    CL824689  31.442   0.884   5.406
  221XTA    CL924690  31.528   0.785   5.332
  221XTA   CL1024691  31.458   0.675   5.243
  221XTA    CO624692  31.553   0.621   5.135
  221XTA    OA524693  31.542   0.478   5.132
  221XTA    CO724694  31.654   0.406   5.082
  221XTA    CT224695  31.634   0.259   5.099
  221XTA   CL1124696  31.651   0.211   5.255
  221XTA   CL1224697  31.545   0.265   5.353
  221XTA    HL124698  30.789   0.693   4.859
  221XTA    HL224699  30.642   0.690   4.950
  221XTA    HL324700  30.646   0.759   4.780
  221XTA    HL424701  30.321   0.835   5.723
  221XTA    HL524702  30.373   0.776   5.898
  221XTA    HL624703  30.222   0.968   5.993
  221XTA    HL724704  30.127   0.874   5.864
  221XTA    HL824705  30.196   1.058   5.710
  221XTA    HL924706  30.296   1.128   5.829
  221XTA   HL1024707  29.973   1.111   5.833
  221XTA   HL1124708  30.071   1.148   5.974
  221XTA   HL1224709  30.090   1.305   5.699
  221XTA   HL1324710  30.187   1.331   5.848
  221XTA   HL1424711  29.894   1.378   5.800
  221XTA   HL1524712  29.951   1.364   5.964
  221XTA   HL1624713  29.844   1.611   5.841
  221XTA   HL1724714  29.929   1.603   5.996
  221XTA   HL1824715  29.948   1.777   5.690
  221XTA   HL1924716  30.103   1.715   5.702
  221XTA   HL2024717  30.064   2.014   5.751
  221XTA   HL2124718  30.144   1.940   5.605
  221XTA   HL2224719  30.220   1.930   5.754
  221XTA   HL2324720  31.517   1.215   5.529
  221XTA   HL2424721  31.399   1.191   5.412
  221XTA   HL2524722  31.589   1.037   5.368
  221XTA   HL2624723  31.585   0.972   5.534
  221XTA   HL2724724  31.390   0.822   5.487
  221XTA   HL2824725  31.371   0.933   5.343
  221XTA   HL2924726  31.592   0.833   5.252
  221XTA   HL3024727  31.594   0.741   5.400
  221XTA   HL3124728  31.418   0.594   5.306
  221XTA   HL3224729  31.365   0.715   5.202
  221XTA   HL3324730  31.530   0.675   5.040
  221XTA   HL3424731  31.653   0.644   5.159
  221XTA   HL3524732  31.755   0.432   5.120
  221XTA   HL3624733  31.655   0.429   4.978
  221XTA   HL3724734  31.748   0.252   5.289
  221XTA   HL3824735  31.667   0.107   5.276
  221XTA   HL3924736  31.523   0.368   5.349
  221XTA   HL4024737  31.575   0.228   5.457
  221XTA   HL4124738  31.452   0.216   5.335
  221XTA    CO824739  30.135   1.777   5.972
  221XTA    CO924740  29.904   1.863   5.942
  221XTA    OA624741  30.243   1.776   5.933
  221XTA   HL4224742  30.126   1.715   6.066
  221XTA   HL4324743  30.116   1.879   6.016
  221XTA   HL4424744  31.718   0.073   5.010
  221XTA   HL4524745  31.703   0.211   4.915
  221XTA   CO1024746  31.732   0.182   5.013
  221XTA   CO1124747  31.498   0.225   5.046
  221XTA    OA724748  31.840   0.217   5.038
  221XTA   HL4624749  31.474   0.243   4.901
  221XTA   HL4724750  31.423   0.291   5.100
  221XTA   HL4824751  29.772   1.812   5.936
  221XTA   HL4924752  29.918   1.867   6.056
  222XTA     NT24753  29.744   1.223   4.684
  222XTA    CN124754  29.673   1.230   4.573
  222XTA     C124755  29.550   1.158   4.562
  222XTA     C224756  29.486   1.154   4.435
  222XTA     C324757  29.537   1.228   4.325
  222XTA     C424758  29.654   1.306   4.335
  222XTA     C524759  29.714   1.308   4.462
  222XTA    CN224760  29.851   1.140   4.690
  222XTA     C624761  29.849   1.001   4.661
  222XTA     C724762  29.960   0.920   4.671
  222XTA     C824763  30.081   0.970   4.720
  222XTA     C924764  30.090   1.108   4.752
  222XTA    C1024765  29.977   1.194   4.731
  222XTA    CN324766  29.721   1.313   4.788
  222XTA    C1124767  29.643   1.274   4.900
  222XTA    C1224768  29.609   1.373   5.000
  222XTA    C1324769  29.665   1.503   4.992
  222XTA    C1424770  29.745   1.538   4.883
  222XTA    C1524771  29.769   1.446   4.780
  222XTA     H124772  29.512   1.105   4.649
  222XTA     H224773  29.392   1.105   4.427
  222XTA     H324774  29.692   1.355   4.242
  222XTA     H424775  29.813   1.353   4.467
  222XTA     H524776  29.764   0.961   4.627
  222XTA     H624777  29.936   0.813   4.664
  222XTA     H724778  30.186   1.142   4.786
  222XTA     H824779  30.000   1.299   4.752
  222XTA     H924780  29.607   1.172   4.904
  222XTA    H1024781  29.541   1.365   5.083
  222XTA    H1124782  29.792   1.630   4.874
  222XTA    H1224783  29.832   1.471   4.697
  222XTA    OA124784  29.492   1.221   4.197
  222XTA    CO124785  29.416   1.106   4.170
  222XTA    OA224786  30.182   0.875   4.739
  222XTA    CO224787  30.293   0.901   4.823
  222XTA    CL124788  30.246   0.884   4.970
  222XTA    CL224789  30.370   0.873   5.058
  222XTA    CL324790  30.318   0.877   5.209
  222XTA    CL424791  30.370   1.008   5.277
  222XTA    CO324792  30.301   1.026   5.416
  222XTA    OA324793  30.161   1.004   5.400
  222XTA    CO424794  30.102   1.094   5.306
  222XTA    CT124795  29.951   1.079   5.287
  222XTA    CL524796  29.897   1.208   5.223
  222XTA    CL624797  29.954   1.232   5.078
  222XTA    OA424798  29.630   1.597   5.092
  222XTA    CO524799  29.663   1.733   5.062
  222XTA    CL724800  29.614   1.836   5.163
  222XTA    CL824801  29.649   1.986   5.132
  222XTA    CL924802  29.663   2.075   5.263
  222XTA   CL1024803  29.535   2.069   5.348
  222XTA    CO624804  29.545   2.148   5.472
  222XTA    OA524805  29.639   2.112   5.562
  222XTA    CO724806  29.637   2.197   5.673
  222XTA    CT224807  29.763   2.179   5.766
  222XTA   CL1124808  29.901   2.233   5.710
  222XTA   CL1224809  29.945   2.194   5.568
  222XTA    HL124810  29.468   1.011   4.198
  222XTA    HL224811  29.321   1.109   4.231
  222XTA    HL324812  29.401   1.098   4.064
  222XTA    HL424813  30.373   0.820   4.800
  222XTA    HL524814  30.333   1.000   4.799
  222XTA    HL624815  30.193   0.792   4.962
  222XTA    HL724816  30.179   0.956   5.009
  222XTA    HL824817  30.425   0.959   5.034
  222XTA    HL924818  30.424   0.786   5.046
  222XTA   HL1024819  30.205   0.861   5.202
  222XTA   HL1124820  30.362   0.787   5.256
  222XTA   HL1224821  30.357   1.088   5.208
  222XTA   HL1324822  30.479   1.004   5.295
  222XTA   HL1424823  30.338   0.943   5.489
  222XTA   HL1524824  30.329   1.118   5.474
  222XTA   HL1624825  30.120   1.195   5.329
  222XTA   HL1724826  30.157   1.094   5.220
  222XTA   HL1824827  29.915   1.295   5.286
  222XTA   HL1924828  29.792   1.198   5.216
  222XTA   HL2024829  29.918   1.327   5.032
  222XTA   HL2124830  29.913   1.160   5.003
  222XTA   HL2224831  30.068   1.228   5.069
  222XTA   HL2324832  29.626   1.749   4.963
  222XTA   HL2424833  29.773   1.746   5.044
  222XTA   HL2524834  29.508   1.823   5.180
  222XTA   HL2624835  29.670   1.813   5.253
  222XTA   HL2724836  29.747   1.977   5.077
  222XTA   HL2824837  29.580   2.033   5.058
  222XTA   HL2924838  29.746   2.030   5.309
  222XTA   HL3024839  29.695   2.178   5.238
  222XTA   HL3124840  29.457   2.109   5.291
  222XTA   HL3224841  29.508   1.964   5.368
  222XTA   HL3324842  29.557   2.251   5.437
  222XTA   HL3424843  29.453   2.133   5.526
  222XTA   HL3524844  29.555   2.171   5.732
  222XTA   HL3624845  29.629   2.302   5.629
  222XTA   HL3724846  29.974   2.212   5.782
  222XTA   HL3824847  29.891   2.343   5.698
  222XTA   HL3924848  30.043   2.241   5.540
  222XTA   HL4024849  29.865   2.230   5.503
  222XTA   HL4124850  29.966   2.088   5.558
  222XTA    CO824851  29.884   1.060   5.426
  222XTA    CO924852  29.929   0.956   5.205
  222XTA    OA624853  29.789   0.942   5.169
  222XTA   HL4224854  29.870   0.952   5.453
  222XTA   HL4324855  29.953   1.096   5.505
  222XTA   HL4424856  29.680   1.996   5.878
  222XTA   HL4524857  29.770   1.966   5.726
  222XTA   CO1024858  29.766   2.029   5.816
  222XTA   CO1124859  29.739   2.256   5.895
  222XTA    OA724860  29.877   2.001   5.909
  222XTA   HL4624861  29.827   2.252   5.957
  222XTA   HL4724862  29.734   2.361   5.862
  222XTA   HL4824863  29.958   0.859   5.246
  222XTA   HL4924864  29.991   0.960   5.116
  223XTA     NT24865  28.953   1.460  10.519
  223XTA    CN124866  28.870   1.447  10.631
  223XTA     C124867  28.747   1.372  10.624
  223XTA     C224868  28.669   1.359  10.738
  223XTA     C324869  28.697   1.428  10.855
  223XTA     C424870  28.820   1.496  10.865
  223XTA     C524871  28.902   1.514  10.754
  223XTA    CN224872  28.908   1.542  10.422
  223XTA     C624873  28.965   1.671  10.418
  223XTA     C724874  28.911   1.768  10.334
  223XTA     C824875  28.798   1.740  10.254
  223XTA     C924876  28.750   1.608  10.252
  223XTA    C1024877  28.803   1.505  10.339
  223XTA    CN324878  29.061   1.386  10.497
  223XTA    C1124879  29.050   1.250  10.506
  223XTA    C1224880  29.149   1.162  10.473
  223XTA    C1324881  29.279   1.220  10.436
  223XTA    C1424882  29.294   1.363  10.443
  223XTA    C1524883  29.183   1.445  10.475
  223XTA     H124884  28.716   1.323  10.531
  223XTA     H224885  28.584   1.302  10.731
  223XTA     H324886  28.848   1.539  10.960
  223XTA     H424887  29.002   1.564  10.757
  223XTA     H524888  29.038   1.704  10.487
  223XTA     H624889  28.959   1.865  10.325
  223XTA     H724890  28.663   1.578  10.200
  223XTA     H824891  28.754   1.408  10.351
  223XTA     H924892  28.949   1.216  10.523
  223XTA    H1024893  29.136   1.051  10.475
  223XTA    H1124894  29.383   1.407  10.416
  223XTA    H1224895  29.189   1.550  10.488
  223XTA    OA124896  28.620   1.428  10.972
  223XTA    CO124897  28.481   1.395  10.958
  223XTA    OA224898  28.725   1.836  10.186
  223XTA    CO224899  28.593   1.804  10.161
  223XTA    CL124900  28.508   1.930  10.139
  223XTA    CL224901  28.465   1.993  10.275
  223XTA    CL324902  28.357   2.095  10.272
  223XTA    CL424903  28.402   2.218  10.196
  223XTA    CO324904  28.289   2.319  10.195
  223XTA    OA324905  28.342   2.452  10.187
  223XTA    CO424906  28.241   2.545  10.211
  223XTA    CT124907  28.149   2.581  10.088
  223XTA    CL524908  28.075   2.713  10.109
  223XTA    CL624909  28.153   2.828  10.164
  223XTA    OA424910  29.382   1.141  10.387
  223XTA    CO524911  29.385   1.002  10.411
  223XTA    CL724912  29.524   0.956  10.400
  223XTA    CL824913  29.629   1.032  10.481
  223XTA    CL924914  29.588   1.069  10.627
  223XTA   CL1024915  29.568   0.946  10.716
  223XTA    CO624916  29.523   0.974  10.857
  223XTA    OA524917  29.518   0.849  10.929
  223XTA    CO724918  29.640   0.823  11.002
  223XTA    CT224919  29.662   0.679  11.045
  223XTA   CL1124920  29.584   0.643  11.174
  223XTA   CL1224921  29.435   0.670  11.170
  223XTA    HL124922  28.426   1.439  10.883
  223XTA    HL224923  28.484   1.288  10.947
  223XTA    HL324924  28.440   1.430  11.052
  223XTA    HL424925  28.584   1.744  10.072
  223XTA    HL524926  28.546   1.746  10.238
  223XTA    HL624927  28.411   1.901  10.099
  223XTA    HL724928  28.549   2.000  10.061
  223XTA    HL824929  28.551   2.034  10.328
  223XTA    HL924930  28.413   1.914  10.331
  223XTA   HL1024931  28.274   2.058  10.220
  223XTA   HL1124932  28.319   2.116  10.372
  223XTA   HL1224933  28.432   2.202  10.085
  223XTA   HL1324934  28.492   2.256  10.244
  223XTA   HL1424935  28.220   2.300  10.116
  223XTA   HL1524936  28.236   2.309  10.292
  223XTA   HL1624937  28.183   2.531  10.299
  223XTA   HL1724938  28.300   2.637  10.218
  223XTA   HL1824939  27.997   2.693  10.182
  223XTA   HL1924940  28.024   2.748  10.011
  223XTA   HL2024941  28.080   2.914  10.182
  223XTA   HL2124942  28.237   2.874  10.103
  223XTA   HL2224943  28.196   2.805  10.260
  223XTA   HL2324944  29.318   0.960  10.337
  223XTA   HL2424945  29.338   0.980  10.507
  223XTA   HL2524946  29.537   0.853  10.415
  223XTA   HL2624947  29.551   0.957  10.295
  223XTA   HL2724948  29.723   0.979  10.493
  223XTA   HL2824949  29.651   1.122  10.420
  223XTA   HL2924950  29.660   1.140  10.664
  223XTA   HL3024951  29.487   1.117  10.627
  223XTA   HL3124952  29.494   0.881  10.676
  223XTA   HL3224953  29.659   0.884  10.718
  223XTA   HL3324954  29.589   1.048  10.904
  223XTA   HL3424955  29.418   1.020  10.846
  223XTA   HL3524956  29.645   0.884  11.093
  223XTA   HL3624957  29.717   0.843  10.936
  223XTA   HL3724958  29.620   0.702  11.258
  223XTA   HL3824959  29.598   0.535  11.186
  223XTA   HL3924960  29.391   0.658  11.268
  223XTA   HL4024961  29.384   0.619  11.091
  223XTA   HL4124962  29.430   0.772  11.141
  223XTA    CO824963  28.054   2.467  10.052
  223XTA    CO924964  28.233   2.607   9.957
  223XTA    OA624965  27.995   2.443  10.139
  223XTA   HL4224966  28.109   2.389   9.993
  223XTA   HL4324967  27.974   2.501   9.980
  223XTA   HL4424968  29.818   0.550  11.116
  223XTA   HL4524969  29.855   0.638  10.968
  223XTA   CO1024970  29.812   0.649  11.067
  223XTA   CO1124971  29.624   0.580  10.929
  223XTA    OA724972  29.859   0.734  11.121
  223XTA   HL4624973  29.666   0.644  10.803
  223XTA   HL4724974  29.510   0.571  10.924
  223XTA   HL4824975  28.146   2.633   9.846
  223XTA   HL4924976  28.301   2.692   9.975
  224XTA     NT24977  27.498   2.401   6.814
  224XTA    CN124978  27.390   2.415   6.729
  224XTA     C124979  27.387   2.506   6.626
  224XTA     C224980  27.277   2.521   6.541
  224XTA     C324981  27.171   2.429   6.543
  224XTA     C424982  27.178   2.321   6.635
  224XTA     C524983  27.276   2.323   6.735
  224XTA    CN224984  27.585   2.500   6.838
  224XTA     C624985  27.685   2.538   6.742
  224XTA     C724986  27.756   2.663   6.756
  224XTA     C824987  27.749   2.733   6.878
  224XTA     C924988  27.661   2.687   6.983
  224XTA    C1024989  27.577   2.574   6.955
  224XTA    CN324990  27.538   2.281   6.859
  224XTA    C1124991  27.625   2.211   6.778
  224XTA    C1224992  27.672   2.090   6.831
  224XTA    C1324993  27.622   2.037   6.954
  224XTA    C1424994  27.542   2.117   7.039
  224XTA    C1524995  27.499   2.233   6.986
  224XTA     H124996  27.468   2.574   6.611
  224XTA     H224997  27.283   2.610   6.472
  224XTA     H324998  27.111   2.236   6.638
  224XTA     H424999  27.282   2.254   6.811
  224XTA     H525000  27.703   2.474   6.654
  224XTA     H625001  27.826   2.690   6.680
  224XTA     H725002  27.644   2.748   7.064
  224XTA     H825003  27.506   2.556   7.031
  224XTA     H925004  27.662   2.242   6.677
  224XTA    H1025005  27.741   2.037   6.768
  224XTA    H1125006  27.506   2.095   7.141
  224XTA    H1225007  27.440   2.300   7.043
  224XTA    OA125008  27.062   2.437   6.462
  224XTA    CO125009  27.073   2.531   6.358
  224XTA    OA225010  27.837   2.834   6.891
  224XTA    CO225011  27.882   2.866   7.022
  224XTA    CL125012  28.034   2.907   7.021
  224XTA    CL225013  28.069   2.948   7.164
  224XTA    CL325014  28.223   2.965   7.173
  224XTA    CL425015  28.267   2.979   7.320
  224XTA    CO325016  28.244   2.852   7.397
  224XTA    OA325017  28.332   2.864   7.511
  224XTA    CO425018  28.276   2.789   7.614
  224XTA    CT125019  28.384   2.719   7.702
  224XTA    CL525020  28.463   2.829   7.774
  224XTA    CL625021  28.596   2.877   7.717
  224XTA    OA425022  27.654   1.914   7.002
  224XTA    CO525023  27.767   1.847   6.942
  224XTA    CL725024  27.836   1.745   7.040
  224XTA    CL825025  27.954   1.675   6.974
  224XTA    CL925026  28.079   1.760   6.931
  224XTA   CL1025027  28.212   1.676   6.961
  224XTA    CO625028  28.342   1.720   6.880
  224XTA    OA525029  28.380   1.842   6.930
  224XTA    CO725030  28.483   1.903   6.846
  224XTA    CT225031  28.519   2.047   6.898
  224XTA   CL1125032  28.588   2.033   7.029
  224XTA   CL1225033  28.640   2.162   7.093
  224XTA    HL125034  27.148   2.506   6.291
  224XTA    HL225035  26.985   2.516   6.302
  224XTA    HL325036  27.085   2.637   6.384
  224XTA    HL425037  27.812   2.941   7.050
  224XTA    HL525038  27.872   2.785   7.095
  224XTA    HL625039  28.052   2.984   6.951
  224XTA    HL725040  28.086   2.822   6.979
  224XTA    HL825041  28.048   2.866   7.227
  224XTA    HL925042  28.015   3.043   7.195
  224XTA   HL1025043  28.270   2.883   7.122
  224XTA   HL1125044  28.244   3.056   7.112
  224XTA   HL1225045  28.231   3.058   7.375
  224XTA   HL1325046  28.374   2.994   7.328
  224XTA   HL1425047  28.142   2.826   7.421
  224XTA   HL1525048  28.273   2.765   7.341
  224XTA   HL1625049  28.223   2.851   7.684
  224XTA   HL1725050  28.215   2.706   7.589
  224XTA   HL1825051  28.479   2.819   7.882
  224XTA   HL1925052  28.400   2.918   7.782
  224XTA   HL2025053  28.580   2.889   7.606
  224XTA   HL2125054  28.687   2.817   7.747
  224XTA   HL2225055  28.623   2.979   7.739
  224XTA   HL2325056  27.846   1.923   6.913
  224XTA   HL2425057  27.739   1.797   6.850
  224XTA   HL2525058  27.884   1.794   7.125
  224XTA   HL2625059  27.765   1.667   7.060
  224XTA   HL2725060  27.991   1.598   7.043
  224XTA   HL2825061  27.921   1.616   6.888
  224XTA   HL2925062  28.085   1.801   6.826
  224XTA   HL3025063  28.092   1.855   6.986
  224XTA   HL3125064  28.227   1.664   7.070
  224XTA   HL3225065  28.192   1.575   6.919
  224XTA   HL3325066  28.422   1.645   6.889
  224XTA   HL3425067  28.328   1.722   6.773
  224XTA   HL3525068  28.454   1.918   6.744
  224XTA   HL3625069  28.580   1.858   6.858
  224XTA   HL3725070  28.673   1.969   7.002
  224XTA   HL3825071  28.535   1.977   7.107
  224XTA   HL3925072  28.684   2.209   7.011
  224XTA   HL4025073  28.708   2.142   7.179
  224XTA   HL4125074  28.556   2.219   7.124
  224XTA    CO825075  28.486   2.636   7.619
  224XTA    CO925076  28.324   2.633   7.811
  224XTA    OA625077  28.430   2.542   7.587
  224XTA   HL4225078  28.563   2.616   7.692
  224XTA   HL4325079  28.530   2.694   7.545
  224XTA   HL4425080  28.333   2.093   7.011
  224XTA   HL4525081  28.323   2.106   6.807
  224XTA   CO1025082  28.389   2.131   6.922
  224XTA   CO1125083  28.595   2.123   6.781
  224XTA    OA725084  28.704   2.097   6.779
  224XTA   HL4625085  28.559   2.107   6.678
  224XTA   HL4725086  28.588   2.226   6.794
  224XTA   HL4825087  28.252   2.717   7.900
  224XTA   HL4925088  28.247   2.573   7.773
  225XTA     NT25089  25.674   5.135   1.057
  225XTA    CN125090  25.658   5.073   0.941
  225XTA     C125091  25.771   5.028   0.866
  225XTA     C225092  25.762   4.985   0.735
  225XTA     C325093  25.633   4.969   0.681
  225XTA     C425094  25.518   4.987   0.760
  225XTA     C525095  25.529   5.040   0.892
  225XTA    CN225096  25.639   5.068   1.168
  225XTA     C625097  25.736   4.990   1.233
  225XTA     C725098  25.704   4.901   1.344
  225XTA     C825099  25.569   4.905   1.394
  225XTA     C925100  25.478   4.987   1.335
  225XTA    C1025101  25.511   5.062   1.223
  225XTA    CN325102  25.669   5.271   1.049
  225XTA    C1125103  25.547   5.344   1.049
  225XTA    C1225104  25.544   5.485   1.033
  225XTA    C1325105  25.669   5.551   1.020
  225XTA    C1425106  25.793   5.476   1.017
  225XTA    C1525107  25.794   5.336   1.034
  225XTA     H125108  25.866   5.022   0.911
  225XTA     H225109  25.851   4.964   0.669
  225XTA     H325110  25.424   4.976   0.711
  225XTA     H425111  25.436   5.072   0.934
  225XTA     H525112  25.837   4.993   1.200
  225XTA     H625113  25.784   4.839   1.379
  225XTA     H725114  25.376   4.994   1.377
  225XTA     H825115  25.424   5.115   1.179
  225XTA     H925116  25.453   5.292   1.060
  225XTA    H1025117  25.459   5.548   1.016
  225XTA    H1125118  25.890   5.515   1.009
  225XTA    H1225119  25.884   5.273   1.044
  225XTA    OA125120  25.615   4.937   0.545
  225XTA    CO125121  25.722   4.946   0.461
  225XTA    OA225122  25.540   4.831   1.507
  225XTA    CO225123  25.623   4.722   1.538
  225XTA    CL125124  25.593   4.672   1.681
  225XTA    CL225125  25.683   4.555   1.723
  225XTA    CL325126  25.658   4.434   1.632
  225XTA    CL425127  25.732   4.310   1.681
  225XTA    CO325128  25.727   4.186   1.589
  225XTA    OA325129  25.839   4.167   1.505
  225XTA    CO425130  25.866   4.282   1.422
  225XTA    CT125131  25.974   4.250   1.325
  225XTA    CL525132  26.003   4.375   1.242
  225XTA    CL625133  26.038   4.501   1.321
  225XTA    OA425134  25.666   5.687   1.014
  225XTA    CO525135  25.758   5.736   0.918
  225XTA    CL725136  25.712   5.873   0.865
  225XTA    CL825137  25.572   5.871   0.811
  225XTA    CL925138  25.538   6.005   0.750
  225XTA   CL1025139  25.403   6.001   0.684
  225XTA    CO625140  25.328   6.127   0.698
  225XTA    OA525141  25.360   6.202   0.588
  225XTA    CO725142  25.282   6.316   0.589
  225XTA    CT225143  25.347   6.430   0.499
  225XTA   CL1125144  25.503   6.426   0.525
  225XTA   CL1225145  25.591   6.526   0.441
  225XTA    HL125146  25.778   5.038   0.460
  225XTA    HL225147  25.803   4.874   0.482
  225XTA    HL325148  25.684   4.928   0.361
  225XTA    HL425149  25.602   4.645   1.458
  225XTA    HL525150  25.734   4.726   1.531
  225XTA    HL625151  25.487   4.648   1.681
  225XTA    HL725152  25.614   4.754   1.751
  225XTA    HL825153  25.641   4.536   1.825
  225XTA    HL925154  25.781   4.589   1.733
  225XTA   HL1025155  25.557   4.409   1.632
  225XTA   HL1125156  25.686   4.458   1.533
  225XTA   HL1225157  25.685   4.281   1.770
  225XTA   HL1325158  25.839   4.325   1.708
  225XTA   HL1425159  25.723   4.094   1.645
  225XTA   HL1525160  25.640   4.183   1.518
  225XTA   HL1625161  25.772   4.295   1.362
  225XTA   HL1725162  25.888   4.373   1.480
  225XTA   HL1825163  25.930   4.389   1.166
  225XTA   HL1925164  26.098   4.355   1.180
  225XTA   HL2025165  26.081   4.571   1.257
  225XTA   HL2125166  26.106   4.499   1.403
  225XTA   HL2225167  25.946   4.538   1.364
  225XTA   HL2325168  25.757   5.668   0.832
  225XTA   HL2425169  25.866   5.731   0.948
  225XTA   HL2525170  25.720   5.941   0.949
  225XTA   HL2625171  25.773   5.900   0.778
  225XTA   HL2725172  25.555   5.782   0.750
  225XTA   HL2825173  25.513   5.851   0.906
  225XTA   HL2925174  25.547   6.080   0.833
  225XTA   HL3025175  25.599   6.039   0.666
  225XTA   HL3125176  25.410   5.964   0.577
  225XTA   HL3225177  25.352   5.913   0.731
  225XTA   HL3325178  25.223   6.097   0.690
  225XTA   HL3425179  25.325   6.173   0.799
  225XTA   HL3525180  25.280   6.361   0.683
  225XTA   HL3625181  25.179   6.298   0.548
  225XTA   HL3725182  25.544   6.328   0.492
  225XTA   HL3825183  25.519   6.437   0.633
  225XTA   HL3925184  25.576   6.510   0.337
  225XTA   HL4025185  25.695   6.538   0.458
  225XTA   HL4125186  25.555   6.621   0.477
  225XTA    CO825187  25.929   4.130   1.240
  225XTA    CO925188  26.093   4.196   1.412
  225XTA    OA625189  26.142   4.292   1.506
  225XTA   HL4225190  25.894   4.050   1.313
  225XTA   HL4325191  25.846   4.171   1.186
  225XTA   HL4425192  25.291   6.629   0.449
  225XTA   HL4525193  25.171   6.552   0.542
  225XTA   CO1025194  25.277   6.569   0.535
  225XTA   CO1125195  25.324   6.387   0.352
  225XTA    OA725196  25.324   6.620   0.625
  225XTA   HL4625197  25.376   6.483   0.262
  225XTA   HL4725198  25.217   6.370   0.330
  225XTA   HL4825199  26.175   4.172   1.351
  225XTA   HL4925200  26.055   4.107   1.463
  226XTA     NT25201  30.215   4.334   1.907
  226XTA    CN125202  30.335   4.396   1.929
  226XTA     C125203  30.418   4.372   2.036
  226XTA     C225204  30.527   4.448   2.071
  226XTA     C325205  30.564   4.553   1.984
  226XTA     C425206  30.477   4.588   1.873
  226XTA     C525207  30.366   4.506   1.849
  226XTA    CN225208  30.205   4.262   1.793
  226XTA     C625209  30.109   4.294   1.695
  226XTA     C725210  30.091   4.215   1.583
  226XTA     C825211  30.168   4.103   1.561
  226XTA     C925212  30.269   4.074   1.646
  226XTA    C1025213  30.288   4.146   1.765
  226XTA    CN325214  30.117   4.327   2.000
  226XTA    C1125215  30.071   4.198   2.039
  226XTA    C1225216  29.972   4.192   2.141
  226XTA    C1325217  29.916   4.306   2.195
  226XTA    C1425218  29.952   4.430   2.146
  226XTA    C1525219  30.054   4.438   2.051
  226XTA     H125220  30.394   4.290   2.104
  226XTA     H225221  30.578   4.425   2.160
  226XTA     H325222  30.503   4.668   1.809
  226XTA     H425223  30.309   4.521   1.762
  226XTA     H525224  30.042   4.382   1.708
  226XTA     H625225  30.009   4.244   1.518
  226XTA     H725226  30.329   3.991   1.630
  226XTA     H825227  30.367   4.109   1.835
  226XTA     H925228  30.124   4.106   2.014
  226XTA    H1025229  29.935   4.105   2.184
  226XTA    H1125230  29.913   4.511   2.198
  226XTA    H1225231  30.078   4.539   2.024
  226XTA    OA125232  30.682   4.624   1.999
  226XTA    CO125233  30.769   4.584   2.102
  226XTA    OA225234  30.137   4.022   1.455
  226XTA    CO225235  30.226   3.919   1.413
  226XTA    CL125236  30.159   3.791   1.449
  226XTA    CL225237  30.245   3.685   1.392
  226XTA    CL325238  30.178   3.548   1.387
  226XTA    CL425239  30.268   3.453   1.297
  226XTA    CO325240  30.234   3.309   1.333
  226XTA    OA325241  30.126   3.254   1.269
  226XTA    CO425242  30.075   3.143   1.347
  226XTA    CT125243  29.985   3.045   1.261
  226XTA    CL525244  29.905   2.956   1.368
  226XTA    CL625245  29.795   2.863   1.311
  226XTA    OA425246  29.827   4.295   2.302
  226XTA    CO525247  29.717   4.395   2.306
  226XTA    CL725248  29.616   4.348   2.410
  226XTA    CL825249  29.496   4.439   2.415
  226XTA    CL925250  29.529   4.578   2.462
  226XTA   CL1025251  29.446   4.690   2.388
  226XTA    CO625252  29.289   4.657   2.371
  226XTA    OA525253  29.231   4.668   2.496
  226XTA    CO725254  29.095   4.673   2.492
  226XTA    CT225255  29.042   4.740   2.621
  226XTA   CL1125256  28.895   4.788   2.603
  226XTA   CL1225257  28.794   4.679   2.598
  226XTA    HL125258  30.794   4.481   2.092
  226XTA    HL225259  30.866   4.635   2.082
  226XTA    HL325260  30.739   4.609   2.201
  226XTA    HL425261  30.229   3.922   1.294
  226XTA    HL525262  30.330   3.927   1.445
  226XTA    HL625263  30.074   3.786   1.381
  226XTA    HL725264  30.137   3.767   1.547
  226XTA    HL825265  30.335   3.671   1.455
  226XTA    HL925266  30.285   3.719   1.297
  226XTA   HL1025267  30.160   3.518   1.491
  226XTA   HL1125268  30.089   3.566   1.327
  226XTA   HL1225269  30.363   3.479   1.322
  226XTA   HL1325270  30.266   3.475   1.186
  226XTA   HL1425271  30.321   3.247   1.320
  226XTA   HL1525272  30.231   3.309   1.440
  226XTA   HL1625273  30.157   3.080   1.380
  226XTA   HL1725274  30.021   3.184   1.430
  226XTA   HL1825275  29.853   3.025   1.435
  226XTA   HL1925276  29.967   2.895   1.429
  226XTA   HL2025277  29.815   2.853   1.207
  226XTA   HL2125278  29.697   2.896   1.343
  226XTA   HL2225279  29.814   2.755   1.345
  226XTA   HL2325280  29.672   4.393   2.199
  226XTA   HL2425281  29.758   4.497   2.326
  226XTA   HL2525282  29.580   4.249   2.389
  226XTA   HL2625283  29.663   4.339   2.508
  226XTA   HL2725284  29.460   4.430   2.312
  226XTA   HL2825285  29.420   4.407   2.485
  226XTA   HL2925286  29.487   4.581   2.562
  226XTA   HL3025287  29.633   4.607   2.471
  226XTA   HL3125288  29.470   4.771   2.448
  226XTA   HL3225289  29.489   4.702   2.294
  226XTA   HL3325290  29.247   4.732   2.304
  226XTA   HL3425291  29.264   4.560   2.335
  226XTA   HL3525292  29.062   4.569   2.498
  226XTA   HL3625293  29.055   4.722   2.403
  226XTA   HL3725294  28.892   4.837   2.511
  226XTA   HL3825295  28.864   4.858   2.686
  226XTA   HL3925296  28.706   4.717   2.546
  226XTA   HL4025297  28.755   4.651   2.697
  226XTA   HL4125298  28.820   4.584   2.549
  226XTA    CO825299  30.077   2.972   1.170
  226XTA    CO925300  29.877   3.114   1.180
  226XTA    OA625301  29.905   3.184   1.100
  226XTA   HL4225302  30.015   2.917   1.096
  226XTA   HL4325303  30.170   3.055   1.098
  226XTA   HL4425304  29.260   4.800   2.694
  226XTA   HL4525305  29.101   4.901   2.758
  226XTA   CO1025306  29.133   4.860   2.666
  226XTA   CO1125307  29.047   4.649   2.743
  226XTA    OA725308  29.013   4.700   2.832
  226XTA   HL4625309  28.983   4.559   2.731
  226XTA   HL4725310  29.153   4.622   2.754
  226XTA   HL4825311  29.800   3.153   1.247
  226XTA   HL4925312  29.822   3.039   1.125
  227XTA     NT25313  28.064   2.467   0.588
  227XTA    CN125314  28.103   2.568   0.674
  227XTA     C125315  28.041   2.572   0.799
  227XTA     C225316  28.075   2.671   0.896
  227XTA     C325317  28.166   2.771   0.862
  227XTA     C425318  28.214   2.777   0.727
  227XTA     C525319  28.191   2.672   0.640
  227XTA    CN225320  28.127   2.346   0.594
  227XTA     C625321  28.052   2.228   0.579
  227XTA     C725322  28.106   2.097   0.580
  227XTA     C825323  28.247   2.082   0.567
  227XTA     C925324  28.323   2.198   0.579
  227XTA    C1025325  28.265   2.327   0.587
  227XTA    CN325326  28.016   2.512   0.471
  227XTA    C1125327  28.095   2.487   0.359
  227XTA    C1225328  28.046   2.511   0.229
  227XTA    C1325329  27.911   2.563   0.207
  227XTA    C1425330  27.835   2.591   0.322
  227XTA    C1525331  27.893   2.569   0.451
  227XTA     H125332  27.972   2.501   0.833
  227XTA     H225333  28.033   2.666   0.991
  227XTA     H325334  28.276   2.858   0.686
  227XTA     H425335  28.234   2.666   0.534
  227XTA     H525336  27.943   2.222   0.576
  227XTA     H625337  28.038   2.013   0.580
  227XTA     H725338  28.432   2.185   0.591
  227XTA     H825339  28.329   2.411   0.585
  227XTA     H925340  28.191   2.452   0.373
  227XTA    H1025341  28.127   2.491   0.151
  227XTA    H1125342  27.738   2.641   0.303
  227XTA    H1225343  27.834   2.592   0.533
  227XTA    OA125344  28.186   2.865   0.959
  227XTA    CO125345  28.262   2.980   0.920
  227XTA    OA225346  28.310   1.961   0.572
  227XTA    CO225347  28.224   1.863   0.517
  227XTA    CL125348  28.296   1.734   0.484
  227XTA    CL225349  28.194   1.617   0.451
  227XTA    CL325350  28.135   1.550   0.579
  227XTA    CL425351  28.018   1.462   0.540
  227XTA    CO325352  27.883   1.526   0.539
  227XTA    OA325353  27.849   1.587   0.668
  227XTA    CO425354  27.731   1.667   0.657
  227XTA    CT125355  27.699   1.740   0.793
  227XTA    CL525356  27.786   1.860   0.805
  227XTA    CL625357  27.938   1.853   0.795
  227XTA    OA425358  27.876   2.595   0.076
  227XTA    CO525359  27.949   2.519  -0.016
  227XTA    CL725360  27.854   2.494  -0.129
  227XTA    CL825361  27.747   2.399  -0.091
  227XTA    CL925362  27.620   2.399  -0.166
  227XTA   CL1025363  27.543   2.530  -0.158
  227XTA    CO625364  27.476   2.569  -0.023
  227XTA    OA525365  27.390   2.680  -0.039
  227XTA    CO725366  27.457   2.802  -0.057
  227XTA    CT225367  27.352   2.897  -0.114
  227XTA   CL1125368  27.296   2.841  -0.248
  227XTA   CL1225369  27.186   2.923  -0.330
  227XTA    HL125370  28.349   2.950   0.860
  227XTA    HL225371  28.194   3.040   0.864
  227XTA    HL325372  28.298   3.034   1.008
  227XTA    HL425373  28.165   1.841   0.602
  227XTA    HL525374  28.156   1.899   0.436
  227XTA    HL625375  28.361   1.710   0.568
  227XTA    HL725376  28.375   1.751   0.407
  227XTA    HL825377  28.253   1.534   0.405
  227XTA    HL925378  28.127   1.650   0.377
  227XTA   HL1025379  28.218   1.497   0.606
  227XTA   HL1125380  28.117   1.629   0.651
  227XTA   HL1225381  28.021   1.391   0.616
  227XTA   HL1325382  28.031   1.405   0.449
  227XTA   HL1425383  27.886   1.609   0.476
  227XTA   HL1525384  27.808   1.455   0.507
  227XTA   HL1625385  27.750   1.737   0.572
  227XTA   HL1725386  27.653   1.596   0.630
  227XTA   HL1825387  27.758   1.901   0.901
  227XTA   HL1925388  27.755   1.930   0.733
  227XTA   HL2025389  27.983   1.955   0.810
  227XTA   HL2125390  27.971   1.818   0.695
  227XTA   HL2225391  27.975   1.783   0.872
  227XTA   HL2325392  27.982   2.419   0.019
  227XTA   HL2425393  28.042   2.570  -0.056
  227XTA   HL2525394  27.828   2.597  -0.146
  227XTA   HL2625395  27.899   2.440  -0.211
  227XTA   HL2725396  27.792   2.299  -0.085
  227XTA   HL2825397  27.720   2.424   0.020
  227XTA   HL2925398  27.649   2.376  -0.270
  227XTA   HL3025399  27.551   2.320  -0.135
  227XTA   HL3125400  27.603   2.602  -0.208
  227XTA   HL3225401  27.455   2.516  -0.219
  227XTA   HL3325402  27.405   2.494   0.008
  227XTA   HL3425403  27.551   2.584   0.054
  227XTA   HL3525404  27.538   2.800  -0.124
  227XTA   HL3625405  27.499   2.841   0.032
  227XTA   HL3725406  27.261   2.742  -0.236
  227XTA   HL3825407  27.381   2.815  -0.320
  227XTA   HL3925408  27.108   2.951  -0.261
  227XTA   HL4025409  27.144   2.865  -0.410
  227XTA   HL4125410  27.222   3.011  -0.380
  227XTA    CO825411  27.731   1.654   0.922
  227XTA    CO925412  27.552   1.783   0.812
  227XTA    OA625413  27.693   1.520   0.897
  227XTA   HL4225414  27.674   1.685   1.007
  227XTA   HL4325415  27.833   1.648   0.953
  227XTA   HL4425416  27.457   3.060  -0.030
  227XTA   HL4525417  27.513   3.014  -0.178
  227XTA   CO1025418  27.418   3.033  -0.123
  227XTA   CO1125419  27.244   2.907   0.002
  227XTA    OA725420  27.351   3.114  -0.165
  227XTA   HL4625421  27.151   2.802  -0.004
  227XTA   HL4725422  27.185   2.995  -0.009
  227XTA   HL4825423  27.539   1.821   0.910
  227XTA   HL4925424  27.535   1.865   0.743
  228XTA     NT25425  30.105   6.474   4.394
  228XTA    CN125426  29.972   6.485   4.349
  228XTA     C125427  29.940   6.477   4.213
  228XTA     C225428  29.807   6.495   4.171
  228XTA     C325429  29.702   6.525   4.258
  228XTA     C425430  29.738   6.535   4.394
  228XTA     C525431  29.869   6.512   4.442
  228XTA    CN225432  30.187   6.572   4.430
  228XTA     C625433  30.240   6.658   4.334
  228XTA     C725434  30.310   6.771   4.379
  228XTA     C825435  30.344   6.787   4.515
  228XTA     C925436  30.295   6.697   4.606
  228XTA    C1025437  30.211   6.588   4.565
  228XTA    CN325438  30.160   6.351   4.407
  228XTA    C1125439  30.117   6.266   4.511
  228XTA    C1225440  30.168   6.137   4.523
  228XTA    C1325441  30.267   6.099   4.437
  228XTA    C1425442  30.300   6.176   4.329
  228XTA    C1525443  30.251   6.306   4.313
  228XTA     H125444  30.023   6.464   4.147
  228XTA     H225445  29.789   6.489   4.065
  228XTA     H325446  29.659   6.557   4.466
  228XTA     H425447  29.903   6.515   4.545
  228XTA     H525448  30.217   6.641   4.232
  228XTA     H625449  30.344   6.852   4.310
  228XTA     H725450  30.314   6.718   4.710
  228XTA     H825451  30.169   6.525   4.645
  228XTA     H925452  30.045   6.303   4.591
  228XTA    H1025453  30.135   6.078   4.610
  228XTA    H1125454  30.373   6.131   4.260
  228XTA    H1225455  30.277   6.365   4.233
  228XTA    OA125456  29.574   6.526   4.203
  228XTA    CO125457  29.469   6.556   4.293
  228XTA    OA225458  30.437   6.884   4.547
  228XTA    CO225459  30.441   6.932   4.676
  228XTA    CL125460  30.537   7.056   4.676
  228XTA    CL225461  30.682   7.027   4.649
  228XTA    CL325462  30.759   7.151   4.669
  228XTA    CL425463  30.909   7.138   4.625
  228XTA    CO325464  30.983   7.005   4.664
  228XTA    OA325465  31.114   7.024   4.619
  228XTA    CO425466  31.204   6.952   4.702
  228XTA    CT125467  31.347   7.008   4.662
  228XTA    CL525468  31.461   6.956   4.759
  228XTA    CL625469  31.591   7.034   4.760
  228XTA    OA425470  30.326   5.976   4.457
  228XTA    CO525471  30.308   5.898   4.579
  228XTA    CL725472  30.177   5.813   4.575
  228XTA    CL825473  30.201   5.715   4.455
  228XTA    CL925474  30.068   5.653   4.411
  228XTA   CL1025475  29.982   5.724   4.310
  228XTA    CO625476  29.848   5.656   4.291
  228XTA    OA525477  29.767   5.718   4.192
  228XTA    CO725478  29.801   5.672   4.065
  228XTA    CT225479  29.742   5.760   3.950
  228XTA   CL1125480  29.810   5.897   3.966
  228XTA   CL1225481  29.784   5.996   3.855
  228XTA    HL125482  29.369   6.542   4.251
  228XTA    HL225483  29.481   6.493   4.374
  228XTA    HL325484  29.479   6.660   4.325
  228XTA    HL425485  30.346   6.952   4.714
  228XTA    HL525486  30.495   6.857   4.736
  228XTA    HL625487  30.525   7.102   4.776
  228XTA    HL725488  30.495   7.118   4.598
  228XTA    HL825489  30.702   6.991   4.551
  228XTA    HL925490  30.723   6.948   4.713
  228XTA   HL1025491  30.710   7.226   4.606
  228XTA   HL1125492  30.741   7.191   4.767
  228XTA   HL1225493  30.950   7.226   4.665
  228XTA   HL1325494  30.916   7.154   4.515
  228XTA   HL1425495  30.979   6.978   4.772
  228XTA   HL1525496  30.943   6.925   4.615
  228XTA   HL1625497  31.182   6.981   4.807
  228XTA   HL1725498  31.183   6.847   4.680
  228XTA   HL1825499  31.491   6.857   4.713
  228XTA   HL1925500  31.434   6.940   4.861
  228XTA   HL2025501  31.633   7.043   4.657
  228XTA   HL2125502  31.674   6.991   4.825
  228XTA   HL2225503  31.575   7.141   4.799
  228XTA   HL2325504  30.313   5.963   4.659
  228XTA   HL2425505  30.395   5.841   4.574
  228XTA   HL2525506  30.164   5.749   4.665
  228XTA   HL2625507  30.091   5.880   4.567
  228XTA   HL2725508  30.242   5.766   4.368
  228XTA   HL2825509  30.266   5.630   4.482
  228XTA   HL2925510  30.090   5.549   4.381
  228XTA   HL3025511  30.022   5.645   4.507
  228XTA   HL3125512  29.958   5.831   4.339
  228XTA   HL3225513  30.039   5.736   4.219
  228XTA   HL3325514  29.849   5.552   4.288
  228XTA   HL3425515  29.783   5.667   4.379
  228XTA   HL3525516  29.784   5.569   4.044
  228XTA   HL3625517  29.912   5.681   4.060
  228XTA   HL3725518  29.916   5.890   3.986
  228XTA   HL3825519  29.759   5.939   4.052
  228XTA   HL3925520  29.687   6.029   3.877
  228XTA   HL4025521  29.806   5.966   3.749
  228XTA   HL4125522  29.841   6.090   3.873
  228XTA    CO825523  31.339   7.167   4.680
  228XTA    CO925524  31.382   6.980   4.515
  228XTA    OA625525  31.327   7.193   4.793
  228XTA   HL4225526  31.254   7.204   4.612
  228XTA   HL4325527  31.431   7.216   4.640
  228XTA   HL4425528  29.569   5.819   4.104
  228XTA   HL4525529  29.545   5.672   3.978
  228XTA   CO1025530  29.591   5.771   3.968
  228XTA   CO1125531  29.777   5.677   3.814
  228XTA    OA725532  29.709   5.591   3.804
  228XTA   HL4625533  29.774   5.744   3.727
  228XTA   HL4725534  29.883   5.646   3.835
  228XTA   HL4825535  31.292   7.058   4.434
  228XTA   HL4925536  31.363   6.874   4.501
  229XTA     NT25537  27.941   2.978   7.920
  229XTA    CN125538  27.930   2.910   7.811
  229XTA     C125539  27.889   2.777   7.806
  229XTA     C225540  27.883   2.709   7.684
  229XTA     C325541  27.912   2.773   7.562
  229XTA     C425542  27.955   2.904   7.571
  229XTA     C525543  27.972   2.975   7.691
  229XTA    CN225544  28.034   2.945   8.016
  229XTA     C625545  28.170   2.983   8.002
  229XTA     C725546  28.263   2.924   8.093
  229XTA     C825547  28.230   2.853   8.208
  229XTA     C925548  28.094   2.832   8.228
  229XTA    C1025549  28.001   2.871   8.134
  229XTA    CN325550  27.895   3.103   7.931
  229XTA    C1125551  27.755   3.116   7.931
  229XTA    C1225552  27.693   3.238   7.918
  229XTA    C1325553  27.764   3.357   7.904
  229XTA    C1425554  27.906   3.345   7.914
  229XTA    C1525555  27.973   3.222   7.923
  229XTA     H125556  27.868   2.732   7.901
  229XTA     H225557  27.862   2.599   7.691
  229XTA     H325558  27.981   2.954   7.479
  229XTA     H425559  28.010   3.081   7.698
  229XTA     H525560  28.205   3.031   7.915
  229XTA     H625561  28.369   2.949   8.089
  229XTA     H725562  28.059   2.776   8.312
  229XTA     H825563  27.897   2.847   8.164
  229XTA     H925564  27.685   3.028   7.929
  229XTA    H1025565  27.587   3.235   7.903
  229XTA    H1125566  27.970   3.433   7.902
  229XTA    H1225567  28.080   3.225   7.920
  229XTA    OA125568  27.913   2.714   7.440
  229XTA    CO125569  27.816   2.608   7.432
  229XTA    OA225570  28.335   2.809   8.289
  229XTA    CO225571  28.304   2.717   8.388
  229XTA    CL125572  28.433   2.699   8.467
  229XTA    CL225573  28.399   2.633   8.606
  229XTA    CL325574  28.521   2.600   8.688
  229XTA    CL425575  28.600   2.720   8.750
  229XTA    CO325576  28.717   2.679   8.848
  229XTA    OA325577  28.807   2.595   8.793
  229XTA    CO425578  28.923   2.562   8.876
  229XTA    CT125579  29.033   2.506   8.788
  229XTA    CL525580  29.142   2.437   8.880
  229XTA    CL625581  29.095   2.318   8.965
  229XTA    OA425582  27.698   3.480   7.902
  229XTA    CO525583  27.775   3.592   7.952
  229XTA    CL725584  27.770   3.588   8.105
  229XTA    CL825585  27.822   3.725   8.170
  229XTA    CL925586  27.975   3.738   8.205
  229XTA   CL1025587  28.065   3.706   8.087
  229XTA    CO625588  28.209   3.732   8.104
  229XTA    OA525589  28.281   3.671   7.995
  229XTA    CO725590  28.425   3.695   8.002
  229XTA    CT225591  28.478   3.705   7.863
  229XTA   CL1125592  28.382   3.785   7.773
  229XTA   CL1225593  28.357   3.922   7.832
  229XTA    HL125594  27.862   2.513   7.453
  229XTA    HL225595  27.732   2.629   7.497
  229XTA    HL325596  27.777   2.615   7.329
  229XTA    HL425597  28.232   2.748   8.460
  229XTA    HL525598  28.263   2.629   8.342
  229XTA    HL625599  28.488   2.790   8.489
  229XTA    HL725600  28.502   2.636   8.410
  229XTA    HL825601  28.350   2.536   8.573
  229XTA    HL925602  28.342   2.697   8.670
  229XTA   HL1025603  28.495   2.543   8.772
  229XTA   HL1125604  28.592   2.540   8.631
  229XTA   HL1225605  28.537   2.795   8.800
  229XTA   HL1325606  28.638   2.765   8.657
  229XTA   HL1425607  28.765   2.768   8.892
  229XTA   HL1525608  28.686   2.633   8.939
  229XTA   HL1625609  28.970   2.642   8.922
  229XTA   HL1725610  28.890   2.494   8.955
  229XTA   HL1825611  29.185   2.511   8.950
  229XTA   HL1925612  29.222   2.395   8.819
  229XTA   HL2025613  29.066   2.244   8.891
  229XTA   HL2125614  29.015   2.326   9.037
  229XTA   HL2225615  29.179   2.266   9.012
  229XTA   HL2325616  27.725   3.682   7.917
  229XTA   HL2425617  27.877   3.596   7.917
  229XTA   HL2525618  27.671   3.575   8.132
  229XTA   HL2625619  27.823   3.497   8.132
  229XTA   HL2725620  27.798   3.821   8.119
  229XTA   HL2825621  27.768   3.736   8.262
  229XTA   HL2925622  27.978   3.844   8.239
  229XTA   HL3025623  27.993   3.684   8.296
  229XTA   HL3125624  28.057   3.599   8.058
  229XTA   HL3225625  28.027   3.771   8.011
  229XTA   HL3325626  28.237   3.832   8.110
  229XTA   HL3425627  28.254   3.681   8.184
  229XTA   HL3525628  28.471   3.624   8.068
  229XTA   HL3625629  28.439   3.788   8.058
  229XTA   HL3725630  28.289   3.729   7.760
  229XTA   HL3825631  28.423   3.792   7.678
  229XTA   HL3925632  28.320   3.916   7.933
  229XTA   HL4025633  28.295   3.977   7.760
  229XTA   HL4125634  28.446   3.978   7.841
  229XTA    CO825635  29.096   2.621   8.716
  229XTA    CO925636  28.973   2.410   8.683
  229XTA    OA625637  29.064   2.335   8.611
  229XTA   HL4225638  29.021   2.674   8.650
  229XTA   HL4325639  29.167   2.578   8.646
  229XTA   HL4425640  28.556   3.509   7.888
  229XTA   HL4525641  28.395   3.526   7.818
  229XTA   CO1025642  28.492   3.566   7.820
  229XTA   CO1125643  28.624   3.765   7.855
  229XTA    OA725644  28.540   3.573   7.687
  229XTA   HL4625645  28.653   3.800   7.754
  229XTA   HL4725646  28.702   3.694   7.883
  229XTA   HL4825647  28.902   2.460   8.612
  229XTA   HL4925648  28.919   2.336   8.747
  230XTA     NT25649  30.525   4.746   5.308
  230XTA    CN125650  30.466   4.718   5.425
  230XTA     C125651  30.481   4.590   5.486
  230XTA     C225652  30.426   4.567   5.613
  230XTA     C325653  30.353   4.666   5.681
  230XTA     C425654  30.334   4.790   5.619
  230XTA     C525655  30.393   4.814   5.495
  230XTA    CN225656  30.661   4.752   5.312
  230XTA     C625657  30.720   4.878   5.343
  230XTA     C725658  30.858   4.889   5.342
  230XTA     C825659  30.939   4.778   5.311
  230XTA     C925660  30.875   4.658   5.273
  230XTA    C1025661  30.735   4.642   5.270
  230XTA    CN325662  30.454   4.752   5.196
  230XTA    C1125663  30.479   4.867   5.111
  230XTA    C1225664  30.408   4.874   4.997
  230XTA    C1325665  30.304   4.785   4.969
  230XTA    C1425666  30.282   4.671   5.055
  230XTA    C1525667  30.359   4.647   5.168
  230XTA     H125668  30.538   4.508   5.440
  230XTA     H225669  30.431   4.475   5.671
  230XTA     H325670  30.270   4.861   5.667
  230XTA     H425671  30.389   4.912   5.451
  230XTA     H525672  30.662   4.961   5.369
  230XTA     H625673  30.904   4.976   5.358
  230XTA     H725674  30.930   4.570   5.236
  230XTA     H825675  30.687   4.547   5.250
  230XTA     H925676  30.546   4.948   5.142
  230XTA    H1025677  30.433   4.954   4.932
  230XTA    H1125678  30.201   4.605   5.033
  230XTA    H1225679  30.352   4.552   5.221
  230XTA    OA125680  30.293   4.644   5.807
  230XTA    CO125681  30.275   4.513   5.847
  230XTA    OA225682  31.079   4.784   5.303
  230XTA    CO225683  31.145   4.894   5.378
  230XTA    CL125684  31.300   4.854   5.399
  230XTA    CL225685  31.385   4.953   5.487
  230XTA    CL325686  31.402   5.100   5.440
  230XTA    CL425687  31.418   5.116   5.290
  230XTA    CO325688  31.538   5.043   5.242
  230XTA    OA325689  31.556   5.066   5.103
  230XTA    CO425690  31.635   4.960   5.044
  230XTA    CT125691  31.648   4.985   4.890
  230XTA    CL525692  31.739   4.872   4.824
  230XTA    CL625693  31.778   4.902   4.677
  230XTA    OA425694  30.218   4.802   4.867
  230XTA    CO525695  30.277   4.805   4.736
  230XTA    CL725696  30.175   4.793   4.620
  230XTA    CL825697  30.122   4.649   4.604
  230XTA    CL925698  30.012   4.635   4.708
  230XTA   CL1025699  29.959   4.489   4.696
  230XTA    CO625700  29.880   4.441   4.812
  230XTA    OA525701  29.840   4.308   4.783
  230XTA    CO725702  29.758   4.253   4.888
  230XTA    CT225703  29.719   4.108   4.870
  230XTA   CL1125704  29.843   4.022   4.857
  230XTA   CL1225705  29.908   4.016   4.723
  230XTA    HL125706  30.208   4.507   5.929
  230XTA    HL225707  30.241   4.455   5.761
  230XTA    HL325708  30.366   4.471   5.872
  230XTA    HL425709  31.143   4.996   5.341
  230XTA    HL525710  31.095   4.906   5.478
  230XTA    HL625711  31.349   4.833   5.303
  230XTA    HL725712  31.295   4.757   5.441
  230XTA    HL825713  31.486   4.902   5.491
  230XTA    HL925714  31.362   4.949   5.589
  230XTA   HL1025715  31.329   5.163   5.482
  230XTA   HL1125716  31.496   5.135   5.489
  230XTA   HL1225717  31.409   5.222   5.273
  230XTA   HL1325718  31.322   5.077   5.249
  230XTA   HL1425719  31.630   5.063   5.299
  230XTA   HL1525720  31.514   4.938   5.256
  230XTA   HL1625721  31.728   4.958   5.091
  230XTA   HL1725722  31.588   4.862   5.059
  230XTA   HL1825723  31.677   4.779   4.825
  230XTA   HL1925724  31.827   4.877   4.882
  230XTA   HL2025725  31.687   4.922   4.614
  230XTA   HL2125726  31.834   4.818   4.635
  230XTA   HL2225727  31.852   4.990   4.665
  230XTA   HL2325728  30.365   4.740   4.726
  230XTA   HL2425729  30.320   4.904   4.727
  230XTA   HL2525730  30.093   4.871   4.627
  230XTA   HL2625731  30.232   4.822   4.526
  230XTA   HL2725732  30.077   4.631   4.504
  230XTA   HL2825733  30.197   4.577   4.619
  230XTA   HL2925734  30.058   4.639   4.808
  230XTA   HL3025735  29.935   4.708   4.699
  230XTA   HL3125736  29.902   4.484   4.606
  230XTA   HL3225737  30.047   4.424   4.680
  230XTA   HL3325738  29.940   4.447   4.902
  230XTA   HL3425739  29.798   4.506   4.839
  230XTA   HL3525740  29.667   4.311   4.910
  230XTA   HL3625741  29.811   4.261   4.984
  230XTA   HL3725742  29.830   3.919   4.891
  230XTA   HL3825743  29.905   4.047   4.942
  230XTA   HL3925744  30.008   3.978   4.715
  230XTA   HL4025745  29.924   4.114   4.684
  230XTA   HL4125746  29.839   3.969   4.652
  230XTA    CO825747  31.718   5.124   4.891
  230XTA    CO925748  31.510   4.998   4.825
  230XTA    OA625749  31.830   5.112   4.901
  230XTA   HL4225750  31.676   5.195   4.959
  230XTA   HL4325751  31.705   5.158   4.791
  230XTA   HL4425752  29.677   4.141   4.667
  230XTA   HL4525753  29.572   4.010   4.727
  230XTA   CO1025754  29.621   4.104   4.751
  230XTA   CO1125755  29.639   4.060   4.992
  230XTA    OA725756  29.516   4.198   4.774
  230XTA   HL4625757  29.708   4.068   5.072
  230XTA   HL4725758  29.554   4.127   4.995
  230XTA   HL4825759  31.441   5.102   4.887
  230XTA   HL4925760  31.538   5.042   4.721
  231XTA     NT25761  27.587   7.034   6.987
  231XTA    CN125762  27.573   7.004   6.859
  231XTA     C125763  27.630   6.889   6.802
  231XTA     C225764  27.621   6.884   6.663
  231XTA     C325765  27.558   6.989   6.585
  231XTA     C425766  27.498   7.099   6.640
  231XTA     C525767  27.501   7.099   6.782
  231XTA    CN225768  27.508   6.970   7.075
  231XTA     C625769  27.378   7.024   7.102
  231XTA     C725770  27.294   6.954   7.187
  231XTA     C825771  27.351   6.852   7.263
  231XTA     C925772  27.468   6.796   7.232
  231XTA    C1025773  27.543   6.849   7.128
  231XTA    CN325774  27.684   7.118   7.028
  231XTA    C1125775  27.823   7.087   7.005
  231XTA    C1225776  27.925   7.176   7.035
  231XTA    C1325777  27.894   7.298   7.093
  231XTA    C1425778  27.758   7.332   7.116
  231XTA    C1525779  27.653   7.241   7.082
  231XTA     H125780  27.682   6.828   6.868
  231XTA     H225781  27.660   6.799   6.611
  231XTA     H325782  27.448   7.176   6.590
  231XTA     H425783  27.467   7.179   6.845
  231XTA     H525784  27.351   7.126   7.061
  231XTA     H625785  27.186   6.983   7.203
  231XTA     H725786  27.498   6.711   7.287
  231XTA     H825787  27.641   6.814   7.100
  231XTA     H925788  27.852   6.998   6.963
  231XTA    H1025789  28.028   7.148   7.018
  231XTA    H1125790  27.724   7.426   7.162
  231XTA    H1225791  27.555   7.276   7.098
  231XTA    OA125792  27.545   6.987   6.448
  231XTA    CO125793  27.594   6.871   6.375
  231XTA    OA225794  27.277   6.814   7.362
  231XTA    CO225795  27.349   6.782   7.479
  231XTA    CL125796  27.344   6.633   7.517
  231XTA    CL225797  27.477   6.560   7.482
  231XTA    CL325798  27.499   6.434   7.571
  231XTA    CL425799  27.590   6.329   7.505
  231XTA    CO325800  27.738   6.358   7.526
  231XTA    OA325801  27.811   6.241   7.494
  231XTA    CO425802  27.953   6.265   7.488
  231XTA    CT125803  28.029   6.274   7.355
  231XTA    CL525804  28.036   6.134   7.288
  231XTA    CL625805  27.908   6.045   7.303
  231XTA    OA425806  27.992   7.388   7.119
  231XTA    CO525807  27.961   7.522   7.150
  231XTA    CL725808  28.092   7.592   7.178
  231XTA    CL825809  28.059   7.738   7.222
  231XTA    CL925810  28.052   7.744   7.375
  231XTA   CL1025811  28.076   7.886   7.435
  231XTA    CO625812  27.962   7.994   7.445
  231XTA    OA525813  27.857   7.933   7.371
  231XTA    CO725814  27.733   7.989   7.388
  231XTA    CT225815  27.626   7.907   7.313
  231XTA   CL1125816  27.495   7.993   7.294
  231XTA   CL1225817  27.507   8.107   7.194
  231XTA    HL125818  27.697   6.837   6.407
  231XTA    HL225819  27.524   6.784   6.394
  231XTA    HL325820  27.596   6.890   6.268
  231XTA    HL425821  27.446   6.829   7.467
  231XTA    HL525822  27.306   6.841   7.564
  231XTA    HL625823  27.254   6.582   7.470
  231XTA    HL725824  27.323   6.632   7.622
  231XTA    HL825825  27.568   6.623   7.478
  231XTA    HL925826  27.472   6.527   7.377
  231XTA   HL1025827  27.534   6.460   7.672
  231XTA   HL1125828  27.395   6.385   7.588
  231XTA   HL1225829  27.565   6.317   7.401
  231XTA   HL1325830  27.581   6.228   7.550
  231XTA   HL1425831  27.776   6.453   7.481
  231XTA   HL1525832  27.748   6.379   7.629
  231XTA   HL1625833  27.990   6.342   7.565
  231XTA   HL1725834  27.982   6.168   7.533
  231XTA   HL1825835  28.124   6.085   7.327
  231XTA   HL1925836  28.059   6.166   7.184
  231XTA   HL2025837  27.825   6.089   7.244
  231XTA   HL2125838  27.883   6.017   7.405
  231XTA   HL2225839  27.927   5.951   7.249
  231XTA   HL2325840  27.895   7.518   7.239
  231XTA   HL2425841  27.904   7.566   7.064
  231XTA   HL2525842  28.162   7.540   7.239
  231XTA   HL2625843  28.148   7.584   7.081
  231XTA   HL2725844  28.141   7.803   7.195
  231XTA   HL2825845  27.975   7.776   7.173
  231XTA   HL2925846  27.955   7.698   7.402
  231XTA   HL3025847  28.122   7.676   7.417
  231XTA   HL3125848  28.090   7.871   7.543
  231XTA   HL3225849  28.175   7.932   7.410
  231XTA   HL3325850  27.937   8.007   7.551
  231XTA   HL3425851  27.983   8.088   7.402
  231XTA   HL3525852  27.741   8.085   7.332
  231XTA   HL3625853  27.707   7.994   7.494
  231XTA   HL3725854  27.454   8.039   7.386
  231XTA   HL3825855  27.424   7.918   7.260
  231XTA   HL3925856  27.535   8.076   7.089
  231XTA   HL4025857  27.573   8.183   7.233
  231XTA   HL4125858  27.408   8.154   7.189
  231XTA    CO825859  28.171   6.325   7.389
  231XTA    CO925860  27.963   6.382   7.267
  231XTA    OA625861  27.960   6.496   7.347
  231XTA   HL4225862  28.206   6.255   7.464
  231XTA   HL4325863  28.154   6.417   7.438
  231XTA   HL4425864  27.633   7.793   7.480
  231XTA   HL4525865  27.661   7.700   7.334
  231XTA   CO1025866  27.596   7.780   7.383
  231XTA   CO1125867  27.679   7.867   7.171
  231XTA    OA725868  27.589   7.788   7.098
  231XTA   HL4625869  27.708   7.950   7.116
  231XTA   HL4725870  27.765   7.804   7.183
  231XTA   HL4825871  27.872   6.339   7.237
  231XTA   HL4925872  28.025   6.390   7.175
  232XTA     NT25873  27.097   3.825   7.033
  232XTA    CN125874  26.995   3.912   7.057
  232XTA     C125875  26.920   3.963   6.949
  232XTA     C225876  26.805   4.043   6.970
  232XTA     C325877  26.764   4.071   7.102
  232XTA     C425878  26.834   4.010   7.211
  232XTA     C525879  26.951   3.933   7.188
  232XTA    CN225880  27.201   3.880   6.959
  232XTA     C625881  27.245   4.012   6.991
  232XTA     C725882  27.336   4.079   6.909
  232XTA     C825883  27.394   4.017   6.801
  232XTA     C925884  27.357   3.882   6.774
  232XTA    C1025885  27.262   3.812   6.858
  232XTA    CN325886  27.083   3.695   7.042
  232XTA    C1125887  26.981   3.627   6.971
  232XTA    C1225888  26.961   3.491   6.999
  232XTA    C1325889  27.042   3.420   7.086
  232XTA    C1425890  27.152   3.485   7.147
  232XTA    C1525891  27.161   3.624   7.134
  232XTA     H125892  26.956   3.951   6.850
  232XTA     H225893  26.751   4.090   6.893
  232XTA     H325894  26.802   4.025   7.315
  232XTA     H425895  27.012   3.897   7.268
  232XTA     H525896  27.217   4.063   7.083
  232XTA     H625897  27.374   4.173   6.946
  232XTA     H725898  27.414   3.838   6.692
  232XTA     H825899  27.230   3.715   6.823
  232XTA     H925900  26.924   3.684   6.894
  232XTA    H1025901  26.879   3.437   6.949
  232XTA    H1125902  27.219   3.430   7.213
  232XTA    H1225903  27.248   3.663   7.177
  232XTA    OA125904  26.655   4.150   7.115
  232XTA    CO125905  26.619   4.197   7.241
  232XTA    OA225906  27.482   4.094   6.730
  232XTA    CO225907  27.577   4.022   6.653
  232XTA    CL125908  27.676   4.107   6.579
  232XTA    CL225909  27.801   4.026   6.517
  232XTA    CL325910  27.894   4.107   6.432
  232XTA    CL425911  27.877   4.068   6.287
  232XTA    CO325912  27.741   4.117   6.236
  232XTA    OA325913  27.720   4.060   6.108
  232XTA    CO425914  27.630   4.148   6.035
  232XTA    CT125915  27.633   4.098   5.891
  232XTA    CL525916  27.574   3.951   5.903
  232XTA    CL625917  27.575   3.868   5.773
  232XTA    OA425918  27.025   3.288   7.098
  232XTA    CO525919  27.119   3.223   7.186
  232XTA    CL725920  27.056   3.087   7.207
  232XTA    CL825921  27.065   3.015   7.074
  232XTA    CL925922  27.018   2.865   7.080
  232XTA   CL1025923  26.865   2.843   7.074
  232XTA    CO625924  26.819   2.698   7.082
  232XTA    OA525925  26.862   2.649   6.947
  232XTA    CO725926  26.762   2.649   6.845
  232XTA    CT225927  26.824   2.581   6.719
  232XTA   CL1125928  26.711   2.568   6.612
  232XTA   CL1225929  26.743   2.537   6.466
  232XTA    HL125930  26.586   4.123   7.314
  232XTA    HL225931  26.685   4.264   7.293
  232XTA    HL325932  26.521   4.252   7.220
  232XTA    HL425933  27.637   3.966   6.731
  232XTA    HL525934  27.531   3.959   6.576
  232XTA    HL625935  27.711   4.171   6.654
  232XTA    HL725936  27.627   4.167   6.499
  232XTA    HL825937  27.761   3.941   6.445
  232XTA    HL925938  27.847   3.966   6.594
  232XTA   HL1025939  27.886   4.210   6.434
  232XTA   HL1125940  27.998   4.085   6.455
  232XTA   HL1225941  27.889   3.954   6.282
  232XTA   HL1325942  27.960   4.099   6.223
  232XTA   HL1425943  27.652   4.079   6.293
  232XTA   HL1525944  27.736   4.224   6.242
  232XTA   HL1625945  27.526   4.152   6.080
  232XTA   HL1725946  27.665   4.246   6.031
  232XTA   HL1825947  27.470   3.954   5.939
  232XTA   HL1925948  27.630   3.894   5.972
  232XTA   HL2025949  27.515   3.905   5.685
  232XTA   HL2125950  27.532   3.772   5.807
  232XTA   HL2225951  27.676   3.850   5.732
  232XTA   HL2325952  27.119   3.273   7.281
  232XTA   HL2425953  27.223   3.225   7.148
  232XTA   HL2525954  27.117   3.033   7.282
  232XTA   HL2625955  26.946   3.097   7.236
  232XTA   HL2725956  26.997   3.070   7.003
  232XTA   HL2825957  27.162   3.022   7.031
  232XTA   HL2925958  27.057   2.821   6.985
  232XTA   HL3025959  27.060   2.800   7.154
  232XTA   HL3125960  26.815   2.890   7.155
  232XTA   HL3225961  26.835   2.909   6.992
  232XTA   HL3325962  26.869   2.640   7.161
  232XTA   HL3425963  26.708   2.684   7.097
  232XTA   HL3525964  26.721   2.751   6.834
  232XTA   HL3625965  26.680   2.596   6.885
  232XTA   HL3725966  26.653   2.662   6.609
  232XTA   HL3825967  26.632   2.501   6.641
  232XTA   HL3925968  26.650   2.515   6.404
  232XTA   HL4025969  26.799   2.444   6.471
  232XTA   HL4125970  26.800   2.627   6.423
  232XTA    CO825971  27.771   4.098   5.831
  232XTA    CO925972  27.547   4.183   5.797
  232XTA    OA625973  27.770   4.062   5.694
  232XTA   HL4225974  27.830   4.033   5.893
  232XTA   HL4325975  27.820   4.194   5.831
  232XTA   HL4425976  26.901   2.388   6.673
  232XTA   HL4525977  26.975   2.444   6.819
  232XTA   CO1025978  26.883   2.446   6.763
  232XTA   CO1125979  26.937   2.673   6.672
  232XTA    OA725980  26.779   2.385   6.838
  232XTA   HL4625981  27.031   2.639   6.723
  232XTA   HL4725982  26.957   2.653   6.568
  232XTA   HL4825983  27.536   4.137   5.694
  232XTA   HL4925984  27.611   4.270   5.789
  233XTA     NT25985  27.833   5.189   4.674
  233XTA    CN125986  27.879   5.119   4.565
  233XTA     C125987  27.977   5.020   4.579
  233XTA     C225988  28.018   4.947   4.471
  233XTA     C325989  27.966   4.969   4.342
  233XTA     C425990  27.860   5.063   4.331
  233XTA     C525991  27.825   5.149   4.435
  233XTA    CN225992  27.837   5.322   4.673
  233XTA     C625993  27.716   5.395   4.673
  233XTA     C725994  27.719   5.533   4.672
  233XTA     C825995  27.841   5.599   4.672
  233XTA     C925996  27.966   5.534   4.675
  233XTA    C1025997  27.963   5.391   4.677
  233XTA    CN325998  27.759   5.134   4.776
  233XTA    C1125999  27.791   5.134   4.914
  233XTA    C1226000  27.710   5.076   5.015
  233XTA    C1326001  27.596   5.004   4.969
  233XTA    C1426002  27.560   5.014   4.837
  233XTA    C1526003  27.635   5.077   4.739
  233XTA     H126004  28.018   4.986   4.673
  233XTA     H226005  28.095   4.874   4.485
  233XTA     H326006  27.812   5.076   4.234
  233XTA     H426007  27.760   5.236   4.408
  233XTA     H526008  27.621   5.351   4.678
  233XTA     H626009  27.627   5.587   4.683
  233XTA     H726010  28.061   5.590   4.690
  233XTA     H826011  28.055   5.335   4.705
  233XTA     H926012  27.883   5.183   4.945
  233XTA    H1026013  27.736   5.078   5.119
  233XTA    H1126014  27.475   4.951   4.796
  233XTA    H1226015  27.604   5.073   4.635
  233XTA    OA126016  28.027   4.901   4.243
  233XTA    CO126017  27.999   4.948   4.111
  233XTA    OA226018  27.842   5.734   4.670
  233XTA    CO226019  27.769   5.794   4.573
  233XTA    CL126020  27.709   5.931   4.623
  233XTA    CL226021  27.608   5.987   4.520
  233XTA    CL326022  27.553   6.111   4.563
  233XTA    CL426023  27.435   6.090   4.663
  233XTA    CO326024  27.368   6.221   4.691
  233XTA    OA326025  27.259   6.193   4.770
  233XTA    CO426026  27.185   6.316   4.801
  233XTA    CT126027  27.105   6.317   4.927
  233XTA    CL526028  27.183   6.255   5.047
  233XTA    CL626029  27.316   6.323   5.095
  233XTA    OA426030  27.519   4.931   5.061
  233XTA    CO526031  27.573   4.914   5.182
  233XTA    CL726032  27.472   4.826   5.263
  233XTA    CL826033  27.413   4.718   5.177
  233XTA    CL926034  27.328   4.612   5.260
  233XTA   CL1026035  27.245   4.530   5.164
  233XTA    CO626036  27.324   4.476   5.048
  233XTA    OA526037  27.348   4.569   4.941
  233XTA    CO726038  27.409   4.497   4.826
  233XTA    CT226039  27.439   4.603   4.713
  233XTA   CL1126040  27.311   4.685   4.692
  233XTA   CL1226041  27.318   4.797   4.586
  233XTA    HL126042  27.894   4.940   4.082
  233XTA    HL226043  28.028   5.054   4.095
  233XTA    HL326044  28.047   4.883   4.034
  233XTA    HL426045  27.827   5.809   4.482
  233XTA    HL526046  27.689   5.728   4.534
  233XTA    HL626047  27.777   6.012   4.650
  233XTA    HL726048  27.646   5.923   4.709
  233XTA    HL826049  27.536   5.911   4.483
  233XTA    HL926050  27.677   5.995   4.437
  233XTA   HL1026051  27.619   6.189   4.595
  233XTA   HL1126052  27.502   6.145   4.474
  233XTA   HL1226053  27.462   6.041   4.758
  233XTA   HL1326054  27.359   6.031   4.614
  233XTA   HL1426055  27.432   6.275   4.755
  233XTA   HL1526056  27.359   6.274   4.593
  233XTA   HL1626057  27.264   6.387   4.812
  233XTA   HL1726058  27.119   6.356   4.724
  233XTA   HL1826059  27.227   6.156   5.014
  233XTA   HL1926060  27.122   6.254   5.142
  233XTA   HL2026061  27.347   6.303   5.200
  233XTA   HL2126062  27.304   6.432   5.086
  233XTA   HL2226063  27.394   6.297   5.023
  233XTA   HL2326064  27.591   5.006   5.240
  233XTA   HL2426065  27.671   4.872   5.164
  233XTA   HL2526066  27.523   4.776   5.349
  233XTA   HL2626067  27.396   4.896   5.312
  233XTA   HL2726068  27.354   4.764   5.099
  233XTA   HL2826069  27.499   4.671   5.134
  233XTA   HL2926070  27.388   4.548   5.329
  233XTA   HL3026071  27.275   4.666   5.337
  233XTA   HL3126072  27.223   4.434   5.216
  233XTA   HL3226073  27.150   4.580   5.141
  233XTA   HL3326074  27.426   4.446   5.076
  233XTA   HL3426075  27.276   4.384   5.002
  233XTA   HL3526076  27.338   4.421   4.788
  233XTA   HL3626077  27.501   4.442   4.846
  233XTA   HL3726078  27.284   4.726   4.787
  233XTA   HL3826079  27.226   4.623   4.669
  233XTA   HL3926080  27.416   4.851   4.595
  233XTA   HL4026081  27.239   4.870   4.591
  233XTA   HL4126082  27.309   4.753   4.489
  233XTA    CO826083  26.976   6.222   4.909
  233XTA    CO926084  27.044   6.449   4.958
  233XTA    OA626085  27.111   6.533   4.981
  233XTA   HL4226086  27.004   6.127   4.954
  233XTA   HL4326087  26.864   6.273   4.990
  233XTA   HL4426088  27.497   4.610   4.501
  233XTA   HL4526089  27.570   4.471   4.594
  233XTA   CO1026090  27.482   4.536   4.581
  233XTA   CO1126091  27.555   4.699   4.755
  233XTA    OA726092  27.395   4.467   4.557
  233XTA   HL4626093  27.534   4.776   4.873
  233XTA   HL4726094  27.593   4.767   4.671
  233XTA   HL4826095  26.994   6.433   5.055
  233XTA   HL4926096  26.971   6.479   4.881
  234XTA     NT26097  25.048   4.908  -0.283
  234XTA    CN126098  25.087   4.782  -0.240
  234XTA     C126099  25.112   4.765  -0.104
  234XTA     C226100  25.157   4.638  -0.054
  234XTA     C326101  25.177   4.531  -0.149
  234XTA     C426102  25.166   4.555  -0.286
  234XTA     C526103  25.122   4.678  -0.335
  234XTA    CN226104  24.931   4.934  -0.339
  234XTA     C626105  24.817   4.952  -0.260
  234XTA     C726106  24.697   4.996  -0.317
  234XTA     C826107  24.685   5.002  -0.456
  234XTA     C926108  24.795   4.964  -0.536
  234XTA    C1026109  24.923   4.938  -0.479
  234XTA    CN326110  25.137   5.006  -0.268
  234XTA    C1126111  25.249   5.010  -0.355
  234XTA    C1226112  25.344   5.110  -0.340
  234XTA    C1326113  25.328   5.223  -0.255
  234XTA    C1426114  25.223   5.208  -0.163
  234XTA    C1526115  25.127   5.104  -0.169
  234XTA     H126116  25.094   4.852  -0.039
  234XTA     H226117  25.158   4.619   0.050
  234XTA     H326118  25.177   4.478  -0.364
  234XTA     H426119  25.114   4.699  -0.439
  234XTA     H526120  24.827   4.938  -0.153
  234XTA     H626121  24.618   5.033  -0.249
  234XTA     H726122  24.790   4.959  -0.647
  234XTA     H826123  25.009   4.923  -0.547
  234XTA     H926124  25.263   4.937  -0.432
  234XTA    H1026125  25.435   5.107  -0.393
  234XTA    H1126126  25.210   5.281  -0.087
  234XTA    H1226127  25.046   5.109  -0.097
  234XTA    OA126128  25.190   4.401  -0.104
  234XTA    CO126129  25.224   4.295  -0.191
  234XTA    OA226130  24.564   5.049  -0.499
  234XTA    CO226131  24.569   5.113  -0.625
  234XTA    CL126132  24.453   5.199  -0.653
  234XTA    CL226133  24.458   5.283  -0.783
  234XTA    CL326134  24.493   5.212  -0.916
  234XTA    CL426135  24.530   5.293  -1.035
  234XTA    CO326136  24.566   5.215  -1.156
  234XTA    OA326137  24.602   5.290  -1.263
  234XTA    CO426138  24.728   5.348  -1.268
  234XTA    CT126139  24.808   5.287  -1.382
  234XTA    CL526140  24.757   5.320  -1.514
  234XTA    CL626141  24.750   5.468  -1.546
  234XTA    OA426142  25.421   5.323  -0.248
  234XTA    CO526143  25.542   5.313  -0.328
  234XTA    CL726144  25.610   5.449  -0.314
  234XTA    CL826145  25.526   5.564  -0.356
  234XTA    CL926146  25.479   5.654  -0.240
  234XTA   CL1026147  25.391   5.584  -0.128
  234XTA    CO626148  25.302   5.689  -0.058
  234XTA    OA526149  25.198   5.625   0.021
  234XTA    CO726150  25.110   5.713   0.081
  234XTA    CT226151  24.983   5.640   0.129
  234XTA   CL1126152  24.915   5.575   0.012
  234XTA   CL1226153  24.894   5.671  -0.107
  234XTA    HL126154  25.271   4.323  -0.291
  234XTA    HL226155  25.290   4.224  -0.135
  234XTA    HL326156  25.124   4.248  -0.213
  234XTA    HL426157  24.663   5.164  -0.637
  234XTA    HL526158  24.574   5.039  -0.710
  234XTA    HL626159  24.441   5.268  -0.572
  234XTA    HL726160  24.358   5.144  -0.657
  234XTA    HL826161  24.549   5.354  -0.771
  234XTA    HL926162  24.376   5.344  -0.792
  234XTA   HL1026163  24.570   5.136  -0.903
  234XTA   HL1126164  24.399   5.158  -0.939
  234XTA   HL1226165  24.608   5.355  -0.996
  234XTA   HL1326166  24.444   5.353  -1.051
  234XTA   HL1426167  24.647   5.152  -1.128
  234XTA   HL1526168  24.493   5.143  -1.177
  234XTA   HL1626169  24.721   5.458  -1.277
  234XTA   HL1726170  24.776   5.328  -1.170
  234XTA   HL1826171  24.658   5.278  -1.521
  234XTA   HL1926172  24.820   5.271  -1.590
  234XTA   HL2026173  24.846   5.523  -1.543
  234XTA   HL2126174  24.683   5.523  -1.482
  234XTA   HL2226175  24.717   5.489  -1.655
  234XTA   HL2326176  25.520   5.283  -0.437
  234XTA   HL2426177  25.599   5.241  -0.275
  234XTA   HL2526178  25.629   5.460  -0.210
  234XTA   HL2626179  25.705   5.452  -0.362
  234XTA   HL2726180  25.593   5.627  -0.425
  234XTA   HL2826181  25.447   5.519  -0.415
  234XTA   HL2926182  25.575   5.704  -0.211
  234XTA   HL3026183  25.429   5.737  -0.298
  234XTA   HL3126184  25.323   5.515  -0.174
  234XTA   HL3226185  25.449   5.533  -0.057
  234XTA   HL3326186  25.358   5.743   0.014
  234XTA   HL3426187  25.258   5.764  -0.128
  234XTA   HL3526188  25.079   5.802   0.021
  234XTA   HL3626189  25.161   5.744   0.167
  234XTA   HL3726190  24.818   5.548   0.042
  234XTA   HL3826191  24.976   5.492  -0.022
  234XTA   HL3926192  24.809   5.634  -0.162
  234XTA   HL4026193  24.973   5.665  -0.179
  234XTA   HL4126194  24.873   5.773  -0.080
  234XTA    CO826195  24.810   5.134  -1.370
  234XTA    CO926196  24.958   5.329  -1.366
  234XTA    OA626197  24.869   5.076  -1.487
  234XTA   HL4226198  24.705   5.109  -1.362
  234XTA   HL4326199  24.865   5.099  -1.282
  234XTA   HL4426200  24.788   5.705   0.200
  234XTA   HL4526201  24.868   5.823   0.118
  234XTA   CO1026202  24.886   5.742   0.191
  234XTA   CO1126203  25.007   5.534   0.237
  234XTA    OA726204  24.896   5.490   0.308
  234XTA   HL4626205  25.063   5.447   0.190
  234XTA   HL4726206  25.083   5.561   0.306
  234XTA   HL4826207  24.992   5.294  -1.470
  234XTA   HL4926208  24.968   5.440  -1.363
  235XTA     NT26209  28.334   3.591   1.734
  235XTA    CN126210  28.361   3.463   1.754
  235XTA     C126211  28.497   3.423   1.780
  235XTA     C226212  28.515   3.280   1.799
  235XTA     C326213  28.407   3.188   1.796
  235XTA     C426214  28.276   3.232   1.776
  235XTA     C526215  28.255   3.370   1.763
  235XTA    CN226216  28.363   3.650   1.619
  235XTA     C626217  28.483   3.710   1.604
  235XTA     C726218  28.532   3.746   1.478
  235XTA     C826219  28.448   3.742   1.368
  235XTA     C926220  28.325   3.675   1.378
  235XTA    C1026221  28.288   3.625   1.502
  235XTA    CN326222  28.308   3.669   1.842
  235XTA    C1126223  28.420   3.706   1.921
  235XTA    C1226224  28.394   3.756   2.049
  235XTA    C1326225  28.258   3.772   2.103
  235XTA    C1426226  28.154   3.737   2.018
  235XTA    C1526227  28.177   3.692   1.888
  235XTA     H126228  28.577   3.498   1.783
  235XTA     H226229  28.616   3.243   1.817
  235XTA     H326230  28.203   3.153   1.771
  235XTA     H426231  28.157   3.408   1.752
  235XTA     H526232  28.546   3.725   1.694
  235XTA     H626233  28.624   3.791   1.467
  235XTA     H726234  28.268   3.672   1.286
  235XTA     H826235  28.198   3.557   1.506
  235XTA     H926236  28.524   3.702   1.896
  235XTA    H1026237  28.484   3.782   2.102
  235XTA    H1126238  28.052   3.734   2.055
  235XTA    H1226239  28.099   3.658   1.827
  235XTA    OA126240  28.431   3.053   1.808
  235XTA    CO126241  28.512   3.008   1.914
  235XTA    OA226242  28.517   3.777   1.255
  235XTA    CO226243  28.441   3.827   1.141
  235XTA    CL126244  28.460   3.975   1.170
  235XTA    CL226245  28.609   4.007   1.146
  235XTA    CL326246  28.636   4.157   1.146
  235XTA    CL426247  28.674   4.231   1.283
  235XTA    CO326248  28.710   4.379   1.257
  235XTA    OA326249  28.755   4.426   1.384
  235XTA    CO426250  28.814   4.545   1.375
  235XTA    CT126251  28.868   4.594   1.510
  235XTA    CL526252  28.929   4.738   1.501
  235XTA    CL626253  28.840   4.862   1.469
  235XTA    OA426254  28.233   3.823   2.228
  235XTA    CO526255  28.342   3.812   2.319
  235XTA    CL726256  28.289   3.864   2.449
  235XTA    CL826257  28.246   4.010   2.457
  235XTA    CL926258  28.135   4.042   2.551
  235XTA   CL1026259  28.155   3.986   2.698
  235XTA    CO626260  28.135   4.094   2.804
  235XTA    OA526261  27.994   4.117   2.813
  235XTA    CO726262  27.969   4.210   2.916
  235XTA    CT226263  27.820   4.243   2.932
  235XTA   CL1126264  27.731   4.116   2.951
  235XTA   CL1226265  27.582   4.149   2.988
  235XTA    HL126266  28.448   3.018   2.001
  235XTA    HL226267  28.533   2.897   1.909
  235XTA    HL326268  28.599   3.060   1.928
  235XTA    HL426269  28.473   3.777   1.054
  235XTA    HL526270  28.336   3.796   1.144
  235XTA    HL626271  28.422   4.013   1.262
  235XTA    HL726272  28.403   4.036   1.094
  235XTA    HL826273  28.650   3.947   1.058
  235XTA    HL926274  28.661   3.956   1.227
  235XTA   HL1026275  28.721   4.175   1.080
  235XTA   HL1126276  28.552   4.208   1.100
  235XTA   HL1226277  28.755   4.193   1.332
  235XTA   HL1326278  28.580   4.235   1.339
  235XTA   HL1426279  28.788   4.384   1.175
  235XTA   HL1526280  28.620   4.427   1.222
  235XTA   HL1626281  28.890   4.546   1.304
  235XTA   HL1726282  28.734   4.621   1.351
  235XTA   HL1826283  29.014   4.730   1.434
  235XTA   HL1926284  28.968   4.759   1.597
  235XTA   HL2026285  28.899   4.953   1.442
  235XTA   HL2126286  28.780   4.886   1.559
  235XTA   HL2226287  28.790   4.831   1.376
  235XTA   HL2326288  28.416   3.883   2.290
  235XTA   HL2426289  28.383   3.712   2.323
  235XTA   HL2526290  28.202   3.805   2.479
  235XTA   HL2626291  28.365   3.855   2.529
  235XTA   HL2726292  28.331   4.070   2.466
  235XTA   HL2826293  28.205   4.023   2.359
  235XTA   HL2926294  28.113   4.153   2.553
  235XTA   HL3026295  28.048   3.992   2.519
  235XTA   HL3126296  28.077   3.907   2.714
  235XTA   HL3226297  28.258   3.951   2.712
  235XTA   HL3326298  28.169   4.060   2.906
  235XTA   HL3426299  28.184   4.188   2.772
  235XTA   HL3526300  28.036   4.297   2.911
  235XTA   HL3626301  28.008   4.158   3.006
  235XTA   HL3726302  27.777   4.057   3.034
  235XTA   HL3826303  27.735   4.052   2.871
  235XTA   HL3926304  27.517   4.066   2.987
  235XTA   HL4026305  27.538   4.223   2.922
  235XTA   HL4126306  27.580   4.192   3.082
  235XTA    CO826307  28.974   4.500   1.561
  235XTA    CO926308  28.762   4.585   1.621
  235XTA    OA626309  28.804   4.649   1.742
  235XTA   HL4226310  29.010   4.519   1.664
  235XTA   HL4326311  28.922   4.402   1.572
  235XTA   HL4426312  27.633   4.377   2.822
  235XTA   HL4526313  27.766   4.268   2.729
  235XTA   CO1026314  27.764   4.322   2.814
  235XTA   CO1126315  27.810   4.331   3.058
  235XTA    OA726316  27.830   4.263   3.147
  235XTA   HL4626317  27.875   4.424   3.064
  235XTA   HL4726318  27.711   4.363   3.071
  235XTA   HL4826319  28.732   4.478   1.638
  235XTA   HL4926320  28.664   4.621   1.582
  236XTA     NT26321  33.481   3.280   2.975
  236XTA    CN126322  33.608   3.241   2.978
  236XTA     C126323  33.656   3.145   3.068
  236XTA     C226324  33.798   3.117   3.077
  236XTA     C326325  33.885   3.176   2.986
  236XTA     C426326  33.837   3.264   2.890
  236XTA     C526327  33.704   3.306   2.892
  236XTA    CN226328  33.388   3.182   2.966
  236XTA     C626329  33.316   3.142   3.080
  236XTA     C726330  33.229   3.033   3.076
  236XTA     C826331  33.208   2.965   2.949
  236XTA     C926332  33.281   3.008   2.835
  236XTA    C1026333  33.364   3.120   2.845
  236XTA    CN326334  33.440   3.399   3.013
  236XTA    C1126335  33.395   3.488   2.914
  236XTA    C1226336  33.354   3.615   2.947
  236XTA    C1326337  33.357   3.664   3.077
  236XTA    C1426338  33.391   3.573   3.179
  236XTA    C1526339  33.441   3.443   3.149
  236XTA     H126340  33.586   3.087   3.134
  236XTA     H226341  33.830   3.043   3.146
  236XTA     H326342  33.903   3.320   2.825
  236XTA     H426343  33.671   3.372   2.814
  236XTA     H526344  33.332   3.210   3.165
  236XTA     H626345  33.167   3.005   3.155
  236XTA     H726346  33.270   2.954   2.742
  236XTA     H826347  33.416   3.163   2.760
  236XTA     H926348  33.388   3.451   2.816
  236XTA    H1026349  33.316   3.682   2.867
  236XTA    H1126350  33.383   3.603   3.282
  236XTA    H1226351  33.486   3.387   3.226
  236XTA    OA126352  34.017   3.139   2.971
  236XTA    CO126353  34.069   3.040   3.057
  236XTA    OA226354  33.102   2.876   2.929
  236XTA    CO226355  33.024   2.838   3.035
  236XTA    CL126356  32.917   2.738   2.995
  236XTA    CL226357  32.826   2.690   3.112
  236XTA    CL326358  32.726   2.590   3.053
  236XTA    CL426359  32.681   2.491   3.164
  236XTA    CO326360  32.561   2.551   3.246
  236XTA    OA326361  32.505   2.448   3.324
  236XTA    CO426362  32.434   2.498   3.434
  236XTA    CT126363  32.337   2.396   3.505
  236XTA    CL526364  32.409   2.264   3.537
  236XTA    CL626365  32.461   2.184   3.420
  236XTA    OA426366  33.317   3.789   3.111
  236XTA    CO526367  33.216   3.795   3.213
  236XTA    CL726368  33.253   3.900   3.323
  236XTA    CL826369  33.371   3.840   3.393
  236XTA    CL926370  33.314   3.733   3.487
  236XTA   CL1026371  33.423   3.681   3.578
  236XTA    CO626372  33.395   3.555   3.664
  236XTA    OA526373  33.522   3.530   3.713
  236XTA    CO726374  33.548   3.394   3.754
  236XTA    CT226375  33.694   3.386   3.795
  236XTA   CL1126376  33.736   3.246   3.845
  236XTA   CL1226377  33.661   3.192   3.962
  236XTA    HL126378  34.056   3.066   3.162
  236XTA    HL226379  34.025   2.943   3.046
  236XTA    HL326380  34.166   3.046   3.022
  236XTA    HL426381  33.086   2.798   3.116
  236XTA    HL526382  32.979   2.925   3.080
  236XTA    HL626383  32.964   2.645   2.954
  236XTA    HL726384  32.845   2.782   2.921
  236XTA    HL826385  32.779   2.777   3.158
  236XTA    HL926386  32.883   2.633   3.188
  236XTA   HL1026387  32.640   2.638   3.006
  236XTA   HL1126388  32.786   2.528   2.986
  236XTA   HL1226389  32.771   2.471   3.228
  236XTA   HL1326390  32.650   2.397   3.107
  236XTA   HL1426391  32.596   2.633   3.304
  236XTA   HL1526392  32.484   2.599   3.184
  236XTA   HL1626393  32.526   2.523   3.495
  236XTA   HL1726394  32.381   2.587   3.429
  236XTA   HL1826395  32.357   2.204   3.614
  236XTA   HL1926396  32.495   2.290   3.596
  236XTA   HL2026397  32.384   2.130   3.363
  236XTA   HL2126398  32.527   2.111   3.468
  236XTA   HL2226399  32.524   2.237   3.349
  236XTA   HL2326400  33.178   3.699   3.255
  236XTA   HL2426401  33.124   3.840   3.163
  236XTA   HL2526402  33.286   3.995   3.274
  236XTA   HL2626403  33.165   3.911   3.383
  236XTA   HL2726404  33.448   3.789   3.338
  236XTA   HL2826405  33.411   3.920   3.457
  236XTA   HL2926406  33.242   3.781   3.555
  236XTA   HL3026407  33.253   3.660   3.437
  236XTA   HL3126408  33.499   3.650   3.508
  236XTA   HL3226409  33.463   3.758   3.638
  236XTA   HL3326410  33.324   3.558   3.747
  236XTA   HL3426411  33.357   3.475   3.600
  236XTA   HL3526412  33.534   3.313   3.682
  236XTA   HL3626413  33.479   3.382   3.836
  236XTA   HL3726414  33.845   3.242   3.861
  236XTA   HL3826415  33.720   3.180   3.770
  236XTA   HL3926416  33.558   3.232   3.964
  236XTA   HL4026417  33.711   3.236   4.053
  236XTA   HL4126418  33.664   3.081   3.973
  236XTA    CO826419  32.226   2.373   3.406
  236XTA    CO926420  32.277   2.459   3.634
  236XTA    OA626421  32.352   2.464   3.709
  236XTA   HL4226422  32.159   2.289   3.443
  236XTA   HL4326423  32.136   2.485   3.411
  236XTA   HL4426424  33.843   3.554   3.921
  236XTA   HL4526425  33.667   3.590   3.858
  236XTA   CO1026426  33.716   3.499   3.901
  236XTA   CO1126427  33.778   3.417   3.666
  236XTA    OA726428  33.881   3.436   3.676
  236XTA   HL4626429  33.773   3.327   3.594
  236XTA   HL4726430  33.738   3.507   3.609
  236XTA   HL4826431  32.202   2.392   3.667
  236XTA   HL4926432  32.244   2.554   3.607
  237XTA     NT26433  32.259   2.052   7.038
  237XTA    CN126434  32.369   2.101   7.102
  237XTA     C126435  32.475   2.146   7.017
  237XTA     C226436  32.589   2.216   7.072
  237XTA     C326437  32.606   2.218   7.210
  237XTA     C426438  32.508   2.159   7.298
  237XTA     C526439  32.388   2.107   7.238
  237XTA    CN226440  32.207   2.120   6.933
  237XTA     C626441  32.128   2.234   6.946
  237XTA     C726442  32.070   2.295   6.833
  237XTA     C826443  32.086   2.251   6.702
  237XTA     C926444  32.186   2.150   6.687
  237XTA    C1026445  32.245   2.085   6.804
  237XTA    CN326446  32.221   1.921   7.050
  237XTA    C1126447  32.088   1.882   7.047
  237XTA    C1226448  32.050   1.747   7.043
  237XTA    C1326449  32.150   1.649   7.052
  237XTA    C1426450  32.287   1.691   7.074
  237XTA    C1526451  32.321   1.826   7.063
  237XTA     H126452  32.451   2.138   6.918
  237XTA     H226453  32.674   2.249   7.011
  237XTA     H326454  32.520   2.177   7.405
  237XTA     H426455  32.315   2.077   7.313
  237XTA     H526456  32.104   2.273   7.048
  237XTA     H626457  32.002   2.373   6.851
  237XTA     H726458  32.225   2.116   6.589
  237XTA     H826459  32.322   2.011   6.787
  237XTA     H926460  32.008   1.950   7.030
  237XTA    H1026461  31.944   1.719   7.026
  237XTA    H1126462  32.363   1.615   7.087
  237XTA    H1226463  32.423   1.850   7.069
  237XTA    OA126464  32.727   2.247   7.269
  237XTA    CO126465  32.806   2.343   7.201
  237XTA    OA226466  32.029   2.307   6.600
  237XTA    CO226467  32.082   2.280   6.468
  237XTA    CL126468  32.026   2.151   6.413
  237XTA    CL226469  32.095   2.102   6.284
  237XTA    CL326470  32.044   1.967   6.222
  237XTA    CL426471  31.957   1.985   6.101
  237XTA    CO326472  31.816   2.052   6.126
  237XTA    OA326473  31.735   2.048   6.006
  237XTA    CO426474  31.786   2.137   5.911
  237XTA    CT126475  31.744   2.281   5.938
  237XTA    CL526476  31.855   2.367   5.995
  237XTA    CL626477  31.995   2.337   5.941
  237XTA    OA426478  32.119   1.514   7.026
  237XTA    CO526479  32.222   1.416   7.029
  237XTA    CL726480  32.169   1.287   6.973
  237XTA    CL826481  32.079   1.218   7.067
  237XTA    CL926482  31.957   1.303   7.122
  237XTA   CL1026483  31.874   1.231   7.233
  237XTA    CO626484  31.800   1.326   7.319
  237XTA    OA526485  31.892   1.404   7.388
  237XTA    CO726486  31.847   1.511   7.464
  237XTA    CT226487  31.953   1.590   7.549
  237XTA   CL1126488  31.896   1.712   7.620
  237XTA   CL1226489  31.776   1.678   7.710
  237XTA    HL126490  32.747   2.422   7.153
  237XTA    HL226491  32.871   2.380   7.276
  237XTA    HL326492  32.864   2.296   7.121
  237XTA    HL426493  32.032   2.359   6.406
  237XTA    HL526494  32.186   2.284   6.458
  237XTA    HL626495  31.918   2.171   6.399
  237XTA    HL726496  32.029   2.071   6.489
  237XTA    HL826497  32.194   2.081   6.320
  237XTA    HL926498  32.101   2.184   6.208
  237XTA   HL1026499  32.139   1.915   6.204
  237XTA   HL1126500  31.992   1.910   6.307
  237XTA   HL1226501  31.927   1.890   6.065
  237XTA   HL1326502  32.008   2.047   6.030
  237XTA   HL1426503  31.761   1.986   6.193
  237XTA   HL1526504  31.816   2.139   6.192
  237XTA   HL1626505  31.890   2.115   5.886
  237XTA   HL1726506  31.730   2.113   5.823
  237XTA   HL1826507  31.864   2.338   6.106
  237XTA   HL1926508  31.814   2.469   5.988
  237XTA   HL2026509  31.981   2.286   5.845
  237XTA   HL2126510  32.050   2.270   6.016
  237XTA   HL2226511  32.059   2.422   5.924
  237XTA   HL2326512  32.249   1.418   7.132
  237XTA   HL2426513  32.302   1.453   6.962
  237XTA   HL2526514  32.135   1.308   6.867
  237XTA   HL2626515  32.263   1.227   6.952
  237XTA   HL2726516  32.032   1.126   7.024
  237XTA   HL2826517  32.144   1.198   7.155
  237XTA   HL2926518  32.003   1.388   7.171
  237XTA   HL3026519  31.888   1.325   7.032
  237XTA   HL3126520  31.808   1.167   7.183
  237XTA   HL3226521  31.942   1.157   7.285
  237XTA   HL3326522  31.738   1.401   7.252
  237XTA   HL3426523  31.746   1.261   7.386
  237XTA   HL3526524  31.773   1.470   7.532
  237XTA   HL3626525  31.771   1.576   7.417
  237XTA   HL3726526  31.866   1.777   7.537
  237XTA   HL3826527  31.962   1.775   7.681
  237XTA   HL3926528  31.685   1.672   7.648
  237XTA   HL4026529  31.745   1.769   7.764
  237XTA   HL4126530  31.789   1.592   7.776
  237XTA    CO826531  31.619   2.302   6.025
  237XTA    CO926532  31.712   2.343   5.802
  237XTA    OA626533  31.535   2.239   5.990
  237XTA   HL4226534  31.614   2.420   6.032
  237XTA   HL4326535  31.640   2.273   6.123
  237XTA   HL4426536  32.091   1.563   7.383
  237XTA   HL4526537  32.025   1.729   7.390
  237XTA   CO1026538  32.063   1.643   7.454
  237XTA   CO1126539  32.036   1.489   7.641
  237XTA    OA726540  32.181   1.694   7.514
  237XTA   HL4626541  32.071   1.409   7.581
  237XTA   HL4726542  32.117   1.545   7.685
  237XTA   HL4826543  31.806   2.314   5.708
  237XTA   HL4926544  31.613   2.304   5.767
  238XTA     NT26545  28.915   4.184   5.890
  238XTA    CN126546  28.923   4.278   5.792
  238XTA     C126547  28.850   4.265   5.675
  238XTA     C226548  28.841   4.366   5.573
  238XTA     C326549  28.915   4.484   5.594
  238XTA     C426550  28.988   4.499   5.714
  238XTA     C526551  28.985   4.401   5.816
  238XTA    CN226552  29.016   4.102   5.919
  238XTA     C626553  29.109   4.153   6.010
  238XTA     C726554  29.215   4.068   6.039
  238XTA     C826555  29.220   3.931   5.998
  238XTA     C926556  29.112   3.882   5.925
  238XTA    C1026557  29.010   3.964   5.887
  238XTA    CN326558  28.797   4.164   5.951
  238XTA    C1126559  28.698   4.079   5.910
  238XTA    C1226560  28.584   4.057   5.983
  238XTA    C1326561  28.566   4.126   6.107
  238XTA    C1426562  28.671   4.214   6.151
  238XTA    C1526563  28.783   4.242   6.066
  238XTA     H126564  28.782   4.179   5.672
  238XTA     H226565  28.776   4.352   5.480
  238XTA     H326566  29.040   4.590   5.739
  238XTA     H426567  29.039   4.422   5.903
  238XTA     H526568  29.112   4.258   6.046
  238XTA     H626569  29.305   4.108   6.093
  238XTA     H726570  29.109   3.776   5.904
  238XTA     H826571  28.926   3.917   5.829
  238XTA     H926572  28.724   4.021   5.821
  238XTA    H1026573  28.498   3.995   5.951
  238XTA    H1126574  28.671   4.265   6.244
  238XTA    H1226575  28.864   4.303   6.101
  238XTA    OA126576  28.910   4.593   5.511
  238XTA    CO126577  28.779   4.614   5.447
  238XTA    OA226578  29.328   3.847   6.037
  238XTA    CO226579  29.447   3.905   6.097
  238XTA    CL126580  29.442   3.936   6.250
  238XTA    CL226581  29.571   4.004   6.300
  238XTA    CL326582  29.552   4.080   6.437
  238XTA    CL426583  29.493   4.223   6.419
  238XTA    CO326584  29.348   4.225   6.378
  238XTA    OA326585  29.293   4.349   6.372
  238XTA    CO426586  29.331   4.423   6.256
  238XTA    CT126587  29.260   4.558   6.243
  238XTA    CL526588  29.118   4.528   6.189
  238XTA    CL626589  29.024   4.461   6.285
  238XTA    OA426590  28.450   4.106   6.176
  238XTA    CO526591  28.444   4.134   6.312
  238XTA    CL726592  28.312   4.078   6.363
  238XTA    CL826593  28.320   3.921   6.367
  238XTA    CL926594  28.188   3.862   6.408
  238XTA   CL1026595  28.173   3.715   6.419
  238XTA    CO626596  28.201   3.664   6.555
  238XTA    OA526597  28.105   3.701   6.654
  238XTA    CO726598  28.152   3.671   6.787
  238XTA    CT226599  28.049   3.729   6.888
  238XTA   CL1126600  28.017   3.872   6.857
  238XTA   CL1226601  27.940   3.958   6.964
  238XTA    HL126602  28.770   4.547   5.358
  238XTA    HL226603  28.703   4.587   5.512
  238XTA    HL326604  28.762   4.714   5.406
  238XTA    HL426605  29.541   3.850   6.074
  238XTA    HL526606  29.463   3.995   6.039
  238XTA    HL626607  29.411   3.843   6.302
  238XTA    HL726608  29.361   3.999   6.269
  238XTA    HL826609  29.609   4.077   6.228
  238XTA    HL926610  29.650   3.934   6.299
  238XTA   HL1026611  29.478   4.025   6.498
  238XTA   HL1126612  29.643   4.093   6.495
  238XTA   HL1226613  29.553   4.294   6.355
  238XTA   HL1326614  29.486   4.269   6.519
  238XTA   HL1426615  29.340   4.187   6.279
  238XTA   HL1526616  29.296   4.161   6.447
  238XTA   HL1626617  29.441   4.442   6.250
  238XTA   HL1726618  29.304   4.371   6.161
  238XTA   HL1826619  29.136   4.466   6.102
  238XTA   HL1926620  29.071   4.620   6.151
  238XTA   HL2026621  28.934   4.435   6.225
  238XTA   HL2126622  28.999   4.528   6.369
  238XTA   HL2226623  29.068   4.370   6.329
  238XTA   HL2326624  28.435   4.243   6.339
  238XTA   HL2426625  28.521   4.087   6.374
  238XTA   HL2526626  28.280   4.120   6.456
  238XTA   HL2626627  28.227   4.122   6.298
  238XTA   HL2726628  28.351   3.883   6.263
  238XTA   HL2826629  28.400   3.899   6.437
  238XTA   HL2926630  28.150   3.919   6.490
  238XTA   HL3026631  28.127   3.905   6.331
  238XTA   HL3126632  28.073   3.687   6.382
  238XTA   HL3226633  28.241   3.657   6.348
  238XTA   HL3326634  28.189   3.551   6.552
  238XTA   HL3426635  28.301   3.691   6.587
  238XTA   HL3526636  28.249   3.723   6.801
  238XTA   HL3626637  28.167   3.563   6.795
  238XTA   HL3726638  27.971   3.896   6.754
  238XTA   HL3826639  28.109   3.931   6.854
  238XTA   HL3926640  27.925   4.059   6.920
  238XTA   HL4026641  28.005   3.970   7.053
  238XTA   HL4126642  27.848   3.913   6.992
  238XTA    CO826643  29.329   4.647   6.136
  238XTA    CO926644  29.245   4.642   6.377
  238XTA    OA626645  29.335   4.686   6.406
  238XTA   HL4226646  29.267   4.738   6.118
  238XTA   HL4326647  29.443   4.714   6.174
  238XTA   HL4426648  28.069   3.762   7.109
  238XTA   HL4526649  28.098   3.597   7.060
  238XTA   CO1026650  28.113   3.702   7.030
  238XTA   CO1126651  27.931   3.639   6.893
  238XTA    OA726652  27.869   3.631   6.775
  238XTA   HL4626653  27.966   3.538   6.901
  238XTA   HL4726654  27.851   3.670   6.960
  238XTA   HL4826655  29.205   4.573   6.456
  238XTA   HL4926656  29.177   4.719   6.373
  239XTA     NT26657  28.243   5.342   5.963
  239XTA    CN126658  28.278   5.215   5.997
  239XTA     C126659  28.180   5.155   6.071
  239XTA     C226660  28.191   5.017   6.106
  239XTA     C326661  28.304   4.946   6.074
  239XTA     C426662  28.407   5.014   6.006
  239XTA     C526663  28.397   5.153   5.970
  239XTA    CN226664  28.177   5.360   5.844
  239XTA     C626665  28.204   5.278   5.735
  239XTA     C726666  28.121   5.290   5.618
  239XTA     C826667  28.012   5.377   5.613
  239XTA     C926668  27.990   5.460   5.727
  239XTA    C1026669  28.071   5.450   5.842
  239XTA    CN326670  28.324   5.434   6.014
  239XTA    C1126671  28.299   5.470   6.147
  239XTA    C1226672  28.381   5.561   6.208
  239XTA    C1326673  28.479   5.632   6.141
  239XTA    C1426674  28.490   5.615   6.004
  239XTA    C1526675  28.414   5.516   5.931
  239XTA     H126676  28.093   5.206   6.081
  239XTA     H226677  28.114   4.973   6.166
  239XTA     H326678  28.493   4.958   5.972
  239XTA     H426679  28.476   5.206   5.916
  239XTA     H526680  28.291   5.204   5.725
  239XTA     H626681  28.139   5.234   5.529
  239XTA     H726682  27.907   5.521   5.731
  239XTA     H826683  28.048   5.493   5.936
  239XTA     H926684  28.222   5.426   6.215
  239XTA    H1026685  28.360   5.574   6.308
  239XTA    H1126686  28.563   5.667   5.943
  239XTA    H1226687  28.425   5.498   5.824
  239XTA    OA126688  28.313   4.812   6.091
  239XTA    CO126689  28.232   4.757   6.190
  239XTA    OA226690  27.932   5.389   5.505
  239XTA    CO226691  27.987   5.351   5.384
  239XTA    CL126692  27.962   5.206   5.339
  239XTA    CL226693  28.063   5.158   5.240
  239XTA    CL326694  28.042   5.019   5.173
  239XTA    CL426695  27.967   4.919   5.254
  239XTA    CO326696  27.997   4.777   5.199
  239XTA    OA326697  27.927   4.769   5.074
  239XTA    CO426698  27.957   4.643   5.015
  239XTA    CT126699  27.835   4.574   4.952
  239XTA    CL526700  27.874   4.458   4.857
  239XTA    CL626701  27.939   4.339   4.931
  239XTA    OA426702  28.571   5.716   6.200
  239XTA    CO526703  28.539   5.760   6.329
  239XTA    CL726704  28.608   5.892   6.369
  239XTA    CL826705  28.535   5.965   6.483
  239XTA    CL926706  28.616   6.086   6.520
  239XTA   CL1026707  28.626   6.185   6.410
  239XTA    CO626708  28.689   6.321   6.446
  239XTA    OA526709  28.752   6.374   6.334
  239XTA    CO726710  28.665   6.439   6.239
  239XTA    CT226711  28.708   6.409   6.092
  239XTA   CL1126712  28.705   6.262   6.044
  239XTA   CL1226713  28.582   6.186   6.061
  239XTA    HL126714  28.270   4.660   6.206
  239XTA    HL226715  28.239   4.810   6.289
  239XTA    HL326716  28.127   4.751   6.161
  239XTA    HL426717  27.953   5.414   5.303
  239XTA    HL526718  28.093   5.373   5.383
  239XTA    HL626719  27.862   5.199   5.295
  239XTA    HL726720  27.972   5.135   5.423
  239XTA    HL826721  28.162   5.158   5.279
  239XTA    HL926722  28.074   5.233   5.164
  239XTA   HL1026723  27.992   5.043   5.084
  239XTA   HL1126724  28.137   4.969   5.140
  239XTA   HL1226725  27.856   4.935   5.244
  239XTA   HL1326726  27.998   4.917   5.357
  239XTA   HL1426727  28.101   4.765   5.188
  239XTA   HL1526728  27.963   4.704   5.272
  239XTA   HL1626729  28.030   4.655   4.938
  239XTA   HL1726730  27.995   4.571   5.088
  239XTA   HL1826731  27.933   4.489   4.769
  239XTA   HL1926732  27.779   4.417   4.811
  239XTA   HL2026733  27.926   4.236   4.879
  239XTA   HL2126734  27.902   4.326   5.031
  239XTA   HL2226735  28.041   4.350   4.957
  239XTA   HL2326736  28.554   5.681   6.402
  239XTA   HL2426737  28.438   5.793   6.325
  239XTA   HL2526738  28.720   5.886   6.391
  239XTA   HL2626739  28.594   5.959   6.284
  239XTA   HL2726740  28.434   5.997   6.452
  239XTA   HL2826741  28.513   5.911   6.580
  239XTA   HL2926742  28.576   6.137   6.612
  239XTA   HL3026743  28.716   6.062   6.555
  239XTA   HL3126744  28.706   6.150   6.344
  239XTA   HL3226745  28.535   6.192   6.346
  239XTA   HL3326746  28.617   6.405   6.470
  239XTA   HL3426747  28.762   6.329   6.531
  239XTA   HL3526748  28.686   6.544   6.263
  239XTA   HL3626749  28.558   6.404   6.245
  239XTA   HL3726750  28.785   6.206   6.088
  239XTA   HL3826751  28.728   6.265   5.938
  239XTA   HL3926752  28.576   6.109   5.984
  239XTA   HL4026753  28.487   6.236   6.065
  239XTA   HL4126754  28.587   6.125   6.152
  239XTA    CO826755  27.767   4.681   4.859
  239XTA    CO926756  27.743   4.549   5.072
  239XTA    OA626757  27.665   4.616   4.791
  239XTA   HL4226758  27.839   4.709   4.788
  239XTA   HL4326759  27.727   4.774   4.902
  239XTA   HL4426760  28.863   6.494   5.961
  239XTA   HL4526761  28.831   6.572   6.112
  239XTA   CO1026762  28.840   6.474   6.066
  239XTA   CO1126763  28.612   6.484   6.007
  239XTA    OA726764  28.929   6.411   6.108
  239XTA   HL4626765  28.615   6.451   5.871
  239XTA   HL4726766  28.514   6.440   6.028
  239XTA   HL4826767  27.725   4.651   5.107
  239XTA   HL4926768  27.644   4.513   5.044
  240XTA     NT26769  28.447   7.351   6.770
  240XTA    CN126770  28.373   7.460   6.746
  240XTA     C126771  28.288   7.514   6.842
  240XTA     C226772  28.201   7.622   6.805
  240XTA     C326773  28.199   7.678   6.677
  240XTA     C426774  28.276   7.609   6.582
  240XTA     C526775  28.363   7.505   6.613
  240XTA    CN226776  28.374   7.236   6.792
  240XTA     C626777  28.362   7.182   6.922
  240XTA     C726778  28.275   7.076   6.942
  240XTA     C826779  28.204   7.023   6.838
  240XTA     C926780  28.228   7.066   6.706
  240XTA    C1026781  28.308   7.176   6.689
  240XTA    CN326782  28.581   7.357   6.804
  240XTA    C1126783  28.677   7.281   6.729
  240XTA    C1226784  28.809   7.286   6.770
  240XTA    C1326785  28.854   7.366   6.876
  240XTA    C1426786  28.757   7.438   6.949
  240XTA    C1526787  28.619   7.430   6.915
  240XTA     H126788  28.303   7.476   6.946
  240XTA     H226789  28.146   7.671   6.888
  240XTA     H326790  28.265   7.627   6.485
  240XTA     H426791  28.421   7.457   6.533
  240XTA     H526792  28.411   7.238   7.000
  240XTA     H626793  28.261   7.032   7.043
  240XTA     H726794  28.187   7.018   6.618
  240XTA     H826795  28.330   7.217   6.588
  240XTA     H926796  28.630   7.218   6.653
  240XTA    H1026797  28.888   7.229   6.720
  240XTA    H1126798  28.792   7.499   7.027
  240XTA    H1226799  28.543   7.480   6.974
  240XTA    OA126800  28.135   7.795   6.646
  240XTA    CO126801  28.075   7.869   6.757
  240XTA    OA226802  28.120   6.921   6.877
  240XTA    CO226803  28.031   6.877   6.774
  240XTA    CL126804  28.088   6.770   6.680
  240XTA    CL226805  28.174   6.660   6.734
  240XTA    CL326806  28.290   6.634   6.632
  240XTA    CL426807  28.364   6.764   6.573
  240XTA    CO326808  28.510   6.743   6.543
  240XTA    OA326809  28.598   6.730   6.659
  240XTA    CO426810  28.735   6.716   6.634
  240XTA    CT126811  28.813   6.712   6.764
  240XTA    CL526812  28.763   6.595   6.848
  240XTA    CL626813  28.779   6.459   6.784
  240XTA    OA426814  28.983   7.360   6.919
  240XTA    CO526815  29.089   7.363   6.827
  240XTA    CL726816  29.219   7.345   6.897
  240XTA    CL826817  29.235   7.199   6.941
  240XTA    CL926818  29.372   7.152   6.992
  240XTA   CL1026819  29.396   6.999   6.970
  240XTA    CO626820  29.331   6.915   7.079
  240XTA    OA526821  29.191   6.946   7.091
  240XTA    CO726822  29.103   6.845   7.127
  240XTA    CT226823  28.964   6.907   7.149
  240XTA   CL1126824  28.975   7.024   7.247
  240XTA   CL1226825  28.850   7.115   7.260
  240XTA    HL126826  28.002   7.814   6.818
  240XTA    HL226827  28.153   7.891   6.825
  240XTA    HL326828  28.025   7.956   6.718
  240XTA    HL426829  27.943   6.845   6.822
  240XTA    HL526830  27.984   6.950   6.706
  240XTA    HL626831  28.134   6.811   6.590
  240XTA    HL726832  27.997   6.719   6.657
  240XTA    HL826833  28.124   6.569   6.772
  240XTA    HL926834  28.229   6.693   6.821
  240XTA   HL1026835  28.371   6.593   6.687
  240XTA   HL1126836  28.269   6.560   6.549
  240XTA   HL1226837  28.363   6.855   6.634
  240XTA   HL1326838  28.318   6.785   6.485
  240XTA   HL1426839  28.527   6.661   6.471
  240XTA   HL1526840  28.541   6.826   6.477
  240XTA   HL1626841  28.763   6.629   6.577
  240XTA   HL1726842  28.775   6.804   6.580
  240XTA   HL1826843  28.660   6.620   6.880
  240XTA   HL1926844  28.815   6.601   6.945
  240XTA   HL2026845  28.703   6.447   6.708
  240XTA   HL2126846  28.769   6.384   6.859
  240XTA   HL2226847  28.869   6.430   6.732
  240XTA   HL2326848  29.101   7.456   6.769
  240XTA   HL2426849  29.071   7.290   6.747
  240XTA   HL2526850  29.301   7.372   6.834
  240XTA   HL2626851  29.227   7.412   6.983
  240XTA   HL2726852  29.153   7.176   7.017
  240XTA   HL2826853  29.209   7.149   6.850
  240XTA   HL2926854  29.438   7.214   6.945
  240XTA   HL3026855  29.370   7.172   7.102
  240XTA   HL3126856  29.358   6.954   6.874
  240XTA   HL3226857  29.507   6.982   6.971
  240XTA   HL3326858  29.345   6.809   7.050
  240XTA   HL3426859  29.383   6.921   7.176
  240XTA   HL3526860  29.135   6.812   7.229
  240XTA   HL3626861  29.096   6.765   7.060
  240XTA   HL3726862  29.057   7.080   7.202
  240XTA   HL3826863  29.016   6.994   7.348
  240XTA   HL3926864  28.821   7.161   7.167
  240XTA   HL4026865  28.858   7.199   7.332
  240XTA   HL4126866  28.763   7.061   7.282
  240XTA    CO826867  28.811   6.838   6.851
  240XTA    CO926868  28.962   6.697   6.714
  240XTA    OA626869  28.896   6.839   6.927
  240XTA   HL4226870  28.712   6.855   6.898
  240XTA   HL4326871  28.837   6.923   6.795
  240XTA   HL4426872  28.783   6.840   7.243
  240XTA   HL4526873  28.859   6.738   7.120
  240XTA   CO1026874  28.877   6.795   7.211
  240XTA   CO1126875  28.908   6.947   7.018
  240XTA    OA726876  28.923   6.735   7.291
  240XTA   HL4626877  28.975   7.056   6.963
  240XTA   HL4726878  28.811   6.986   7.032
  240XTA   HL4826879  29.045   6.696   6.824
  240XTA   HL4926880  28.973   6.596   6.675
  241XTH     NT26881  28.701   4.915  -0.215
  241XTH    CN126882  28.579   4.977  -0.205
  241XTH     C126883  28.510   5.015  -0.324
  241XTH     C226884  28.386   5.078  -0.314
  241XTH     C326885  28.334   5.121  -0.187
  241XTH     C426886  28.415   5.102  -0.071
  241XTH     C526887  28.530   5.017  -0.083
  241XTH    CN226888  28.806   4.998  -0.238
  241XTH     C626889  28.863   5.005  -0.365
  241XTH     C726890  28.961   5.099  -0.408
  241XTH     C826891  29.002   5.185  -0.304
  241XTH     C926892  28.945   5.178  -0.174
  241XTH    C1026893  28.848   5.085  -0.141
  241XTH    CN326894  28.719   4.786  -0.175
  241XTH    C1126895  28.794   4.758  -0.058
  241XTH    C1226896  28.807   4.633  -0.000
  241XTH    C1326897  28.743   4.527  -0.074
  241XTH    C1426898  28.665   4.549  -0.192
  241XTH    C1526899  28.654   4.683  -0.248
  241XTH     H126900  28.555   5.006  -0.424
  241XTH     H226901  28.327   5.097  -0.403
  241XTH     H326902  28.396   5.148   0.021
  241XTH     H426903  28.583   4.992   0.003
  241XTH     H526904  28.839   4.929  -0.434
  241XTH     H626905  29.001   5.098  -0.509
  241XTH     H726906  28.979   5.244  -0.090
  241XTH     H826907  28.810   5.097  -0.039
  241XTH     H926908  28.856   4.832  -0.006
  241XTH    H1026909  28.866   4.607   0.086
  241XTH    H1126910  28.609   4.461  -0.224
  241XTH    H1226911  28.589   4.706  -0.336
  241XTH    OA126912  28.214   5.185  -0.177
  241XTH    CO126913  28.102   5.111  -0.208
  241XTH    OA226914  29.095   5.290  -0.328
  241XTH    CO226915  29.062   5.417  -0.277
  241XTH    CL126916  29.094   5.514  -0.387
  241XTH    CL226917  29.066   5.655  -0.341
  241XTH    CL326918  29.123   5.762  -0.432
  241XTH    CL426919  29.272   5.789  -0.435
  241XTH    CO326920  29.341   5.743  -0.566
  241XTH    OA326921  29.477   5.732  -0.554
  241XTH    CO426922  29.551   5.718  -0.672
  241XTH    CT126923  29.664   5.607  -0.643
  241XTH    CL526924  29.737   5.637  -0.506
  241XTH    CL626925  29.832   5.762  -0.509
  241XTH    OA426926  28.748   4.394  -0.031
  241XTH    CO526927  28.809   4.358   0.092
  241XTH    CL726928  28.805   4.208   0.126
  241XTH    CL826929  28.827   4.191   0.276
  241XTH    CL926930  28.967   4.216   0.325
  241XTH   CL1026931  28.968   4.248   0.473
  241XTH    CO626932  28.919   4.392   0.483
  241XTH    OA526933  28.795   4.368   0.547
  241XTH    CO726934  28.733   4.492   0.571
  241XTH    CT226935  28.619   4.482   0.671
  241XTH   CL1126936  28.676   4.442   0.810
  241XTH   CL1226937  28.720   4.301   0.831
  241XTH    HL126938  28.080   5.116  -0.316
  241XTH    HL226939  28.094   5.015  -0.170
  241XTH    HL326940  28.012   5.162  -0.174
  241XTH    HL426941  28.962   5.429  -0.239
  241XTH    HL526942  29.128   5.426  -0.193
  241XTH    HL626943  29.030   5.494  -0.474
  241XTH    HL726944  29.195   5.496  -0.411
  241XTH    HL826945  29.107   5.671  -0.236
  241XTH    HL926946  28.956   5.661  -0.323
  241XTH   HL1026947  29.080   5.769  -0.532
  241XTH   HL1126948  29.097   5.856  -0.387
  241XTH   HL1226949  29.301   5.736  -0.345
  241XTH   HL1326950  29.289   5.895  -0.404
  241XTH   HL1426951  29.287   5.655  -0.607
  241XTH   HL1526952  29.328   5.817  -0.646
  241XTH   HL1626953  29.501   5.695  -0.768
  241XTH   HL1726954  29.605   5.814  -0.697
  241XTH   HL1826955  29.801   5.555  -0.484
  241XTH   HL1926956  29.668   5.650  -0.419
  241XTH   HL2026957  29.882   5.761  -0.607
  241XTH   HL2126958  29.902   5.765  -0.424
  241XTH   HL2226959  29.783   5.859  -0.496
  241XTH   HL2326960  28.766   4.411   0.177
  241XTH   HL2426961  28.912   4.397   0.079
  241XTH   HL2526962  28.707   4.165   0.105
  241XTH   HL2626963  28.878   4.147   0.070
  241XTH   HL2726964  28.759   4.251   0.327
  241XTH   HL2826965  28.800   4.085   0.307
  241XTH   HL2926966  29.026   4.124   0.314
  241XTH   HL3026967  29.022   4.299   0.273
  241XTH   HL3126968  28.898   4.176   0.513
  241XTH   HL3226969  29.063   4.232   0.508
  241XTH   HL3326970  28.986   4.453   0.540
  241XTH   HL3426971  28.899   4.447   0.390
  241XTH   HL3526972  28.705   4.533   0.476
  241XTH   HL3626973  28.810   4.564   0.602
  241XTH   HL3726974  28.613   4.471   0.890
  241XTH   HL3826975  28.765   4.508   0.802
  241XTH   HL3926976  28.626   4.241   0.829
  241XTH   HL4026977  28.774   4.286   0.924
  241XTH   HL4126978  28.787   4.261   0.753
  241XTH    CO826979  29.760   5.602  -0.762
  241XTH    CO926980  29.574   5.478  -0.633
  241XTH    OA626981  29.697   5.564  -0.884
  241XTH   HL4226982  29.827   5.530  -0.727
  241XTH   HL4326983  29.803   5.701  -0.776
  241XTH   HL4426984  28.553   4.275   0.621
  241XTH   HL4526985  28.444   4.362   0.715
  241XTH   CO1026986  28.511   4.379   0.629
  241XTH   CO1126987  28.557   4.622   0.687
  241XTH    OA726988  28.448   4.415   0.546
  241XTH   HL4626989  28.656   4.719   0.702
  241XTH   HL4726990  28.530   4.652   0.583
  241XTH   HL4826991  29.492   5.498  -0.560
  241XTH   HL4926992  29.536   5.463  -0.734
  242XTA     NT26993  27.261   2.131   6.142
  242XTA    CN126994  27.332   2.082   6.245
  242XTA     C126995  27.325   2.137   6.375
  242XTA     C226996  27.408   2.085   6.482
  242XTA     C326997  27.498   1.986   6.458
  242XTA     C426998  27.499   1.924   6.329
  242XTA     C526999  27.422   1.976   6.223
  242XTA    CN227000  27.161   2.055   6.093
  242XTA     C627001  27.181   1.975   5.982
  242XTA     C727002  27.077   1.902   5.920
  242XTA     C827003  26.949   1.921   5.966
  242XTA     C927004  26.923   2.000   6.081
  242XTA    C1027005  27.029   2.067   6.148
  242XTA    CN327006  27.291   2.249   6.079
  242XTA    C1127007  27.198   2.351   6.077
  242XTA    C1227008  27.222   2.466   5.999
  242XTA    C1327009  27.340   2.480   5.921
  242XTA    C1427010  27.438   2.375   5.930
  242XTA    C1527011  27.418   2.265   6.016
  242XTA     H127012  27.255   2.215   6.391
  242XTA     H227013  27.414   2.128   6.581
  242XTA     H327014  27.554   1.838   6.299
  242XTA     H427015  27.451   1.932   6.128
  242XTA     H527016  27.287   1.949   5.950
  242XTA     H627017  27.090   1.845   5.830
  242XTA     H727018  26.819   2.008   6.108
  242XTA     H827019  27.003   2.146   6.221
  242XTA     H927020  27.104   2.335   6.131
  242XTA    H1027021  27.135   2.528   5.985
  242XTA    H1127022  27.523   2.379   5.866
  242XTA    H1227023  27.488   2.184   6.013
  242XTA    OA127024  27.568   1.927   6.565
  242XTA    CO127025  27.650   1.813   6.528
  242XTA    OA227026  26.835   1.863   5.915
  242XTA    CO227027  26.844   1.801   5.787
  242XTA    CL127028  26.711   1.738   5.754
  242XTA    CL227029  26.726   1.652   5.631
  242XTA    CL327030  26.795   1.521   5.664
  242XTA    CL427031  26.810   1.424   5.551
  242XTA    CO327032  26.853   1.275   5.579
  242XTA    OA327033  26.846   1.209   5.454
  242XTA    CO427034  26.869   1.068   5.461
  242XTA    CT127035  26.946   1.019   5.337
  242XTA    CL527036  27.098   1.073   5.344
  242XTA    CL627037  27.111   1.218   5.384
  242XTA    OA427038  27.345   2.588   5.837
  242XTA    CO527039  27.466   2.611   5.765
  242XTA    CL727040  27.448   2.732   5.669
  242XTA    CL827041  27.398   2.680   5.536
  242XTA    CL927042  27.466   2.567   5.455
  242XTA   CL1027043  27.596   2.620   5.401
  242XTA    CO627044  27.698   2.509   5.350
  242XTA    OA527045  27.811   2.563   5.285
  242XTA    CO727046  27.899   2.459   5.244
  242XTA    CT227047  28.035   2.522   5.201
  242XTA   CL1127048  28.120   2.410   5.131
  242XTA   CL1227049  28.145   2.287   5.221
  242XTA    HL127050  27.721   1.837   6.446
  242XTA    HL227051  27.708   1.771   6.614
  242XTA    HL327052  27.584   1.723   6.502
  242XTA    HL427053  26.867   1.885   5.717
  242XTA    HL527054  26.918   1.729   5.787
  242XTA    HL627055  26.639   1.819   5.723
  242XTA    HL727056  26.659   1.687   5.841
  242XTA    HL827057  26.769   1.704   5.551
  242XTA    HL927058  26.625   1.640   5.592
  242XTA   HL1027059  26.893   1.534   5.713
  242XTA   HL1127060  26.731   1.474   5.738
  242XTA   HL1227061  26.876   1.462   5.484
  242XTA   HL1327062  26.715   1.415   5.494
  242XTA   HL1427063  26.956   1.273   5.617
  242XTA   HL1527064  26.784   1.223   5.649
  242XTA   HL1627065  26.916   1.058   5.558
  242XTA   HL1727066  26.770   1.023   5.464
  242XTA   HL1827067  27.148   1.059   5.251
  242XTA   HL1927068  27.152   1.014   5.416
  242XTA   HL2027069  27.209   1.258   5.350
  242XTA   HL2127070  27.117   1.232   5.499
  242XTA   HL2227071  27.029   1.276   5.356
  242XTA   HL2327072  27.488   2.523   5.712
  242XTA   HL2427073  27.547   2.627   5.836
  242XTA   HL2527074  27.377   2.811   5.703
  242XTA   HL2627075  27.539   2.771   5.638
  242XTA   HL2727076  27.292   2.651   5.553
  242XTA   HL2827077  27.389   2.767   5.462
  242XTA   HL2927078  27.486   2.487   5.520
  242XTA   HL3027079  27.399   2.528   5.374
  242XTA   HL3127080  27.579   2.692   5.326
  242XTA   HL3227081  27.641   2.674   5.485
  242XTA   HL3327082  27.735   2.446   5.432
  242XTA   HL3427083  27.645   2.439   5.281
  242XTA   HL3527084  27.854   2.407   5.162
  242XTA   HL3627085  27.909   2.375   5.323
  242XTA   HL3727086  28.221   2.454   5.106
  242XTA   HL3827087  28.081   2.383   5.038
  242XTA   HL3927088  28.197   2.203   5.167
  242XTA   HL4027089  28.046   2.235   5.230
  242XTA   HL4127090  28.190   2.318   5.321
  242XTA    CO827091  26.877   1.063   5.209
  242XTA    CO927092  26.939   0.864   5.326
  242XTA    OA627093  26.766   1.049   5.217
  242XTA   HL4227094  26.901   1.005   5.125
  242XTA   HL4327095  26.896   1.170   5.193
  242XTA   HL4427096  28.034   2.689   5.369
  242XTA   HL4527097  28.099   2.503   5.411
  242XTA   CO1027098  28.108   2.574   5.328
  242XTA   CO1127099  28.021   2.646   5.101
  242XTA    OA727100  27.969   2.617   5.003
  242XTA   HL4627101  27.973   2.733   5.154
  242XTA   HL4727102  28.121   2.676   5.074
  242XTA   HL4827103  26.977   0.801   5.444
  242XTA   HL4927104  26.837   0.830   5.315
  243XTA     NT27105  29.200   7.710   0.919
  243XTA    CN127106  29.269   7.711   1.034
  243XTA     C127107  29.393   7.648   1.066
  243XTA     C227108  29.449   7.652   1.197
  243XTA     C327109  29.385   7.725   1.301
  243XTA     C427110  29.257   7.776   1.274
  243XTA     C527111  29.204   7.774   1.143
  243XTA    CN227112  29.220   7.814   0.832
  243XTA     C627113  29.122   7.914   0.825
  243XTA     C727114  29.135   8.022   0.733
  243XTA     C827115  29.245   8.030   0.645
  243XTA     C927116  29.347   7.932   0.659
  243XTA    C1027117  29.332   7.819   0.746
  243XTA    CN327118  29.120   7.604   0.888
  243XTA    C1127119  29.181   7.486   0.858
  243XTA    C1227120  29.108   7.367   0.835
  243XTA    C1327121  28.967   7.369   0.818
  243XTA    C1427122  28.906   7.491   0.841
  243XTA    C1527123  28.984   7.605   0.867
  243XTA     H127124  29.444   7.591   0.992
  243XTA     H227125  29.542   7.599   1.223
  243XTA     H327126  29.201   7.831   1.346
  243XTA     H427127  29.108   7.822   1.118
  243XTA     H527128  29.044   7.913   0.898
  243XTA     H627129  29.058   8.095   0.732
  243XTA     H727130  29.429   7.939   0.592
  243XTA     H827131  29.404   7.739   0.751
  243XTA     H927132  29.291   7.487   0.863
  243XTA    H1027133  29.165   7.284   0.806
  243XTA    H1127134  28.795   7.508   0.832
  243XTA    H1227135  28.934   7.701   0.880
  243XTA    OA127136  29.442   7.725   1.424
  243XTA    CO127137  29.403   7.837   1.509
  243XTA    OA227138  29.260   8.129   0.551
  243XTA    CO227139  29.149   8.207   0.514
  243XTA    CL127140  29.064   8.136   0.423
  243XTA    CL227141  28.928   8.206   0.405
  243XTA    CL327142  28.828   8.210   0.520
  243XTA    CL427143  28.695   8.278   0.485
  243XTA    CO327144  28.585   8.262   0.590
  243XTA    OA327145  28.571   8.120   0.606
  243XTA    CO427146  28.467   8.105   0.711
  243XTA    CT127147  28.432   7.952   0.715
  243XTA    CL527148  28.554   7.879   0.751
  243XTA    CL627149  28.615   7.898   0.891
  243XTA    OA427150  28.897   7.264   0.764
  243XTA    CO527151  28.967   7.146   0.717
  243XTA    CL727152  29.017   7.162   0.578
  243XTA    CL827153  28.914   7.226   0.480
  243XTA    CL927154  28.931   7.179   0.337
  243XTA   CL1027155  28.829   7.063   0.316
  243XTA    CO627156  28.835   6.975   0.192
  243XTA    OA527157  28.753   6.860   0.209
  243XTA    CO727158  28.782   6.755   0.118
  243XTA    CT227159  28.698   6.629   0.158
  243XTA   CL1127160  28.555   6.666   0.120
  243XTA   CL1227161  28.451   6.560   0.158
  243XTA    HL127162  29.481   7.858   1.580
  243XTA    HL227163  29.396   7.928   1.445
  243XTA    HL327164  29.307   7.825   1.556
  243XTA    HL427165  29.093   8.249   0.596
  243XTA    HL527166  29.193   8.293   0.477
  243XTA    HL627167  29.043   8.029   0.454
  243XTA    HL727168  29.108   8.122   0.323
  243XTA    HL827169  28.875   8.159   0.318
  243XTA    HL927170  28.937   8.311   0.372
  243XTA   HL1027171  28.804   8.108   0.547
  243XTA   HL1127172  28.872   8.262   0.603
  243XTA   HL1227173  28.645   8.229   0.400
  243XTA   HL1327174  28.706   8.381   0.466
  243XTA   HL1427175  28.618   8.315   0.682
  243XTA   HL1527176  28.492   8.308   0.551
  243XTA   HL1627177  28.502   8.139   0.814
  243XTA   HL1727178  28.373   8.161   0.697
  243XTA   HL1827179  28.634   7.898   0.685
  243XTA   HL1927180  28.539   7.773   0.739
  243XTA   HL2027181  28.640   8.006   0.911
  243XTA   HL2127182  28.708   7.852   0.891
  243XTA   HL2227183  28.548   7.848   0.970
  243XTA   HL2327184  28.889   7.068   0.724
  243XTA   HL2427185  29.049   7.108   0.784
  243XTA   HL2527186  29.108   7.213   0.585
  243XTA   HL2627187  29.036   7.060   0.542
  243XTA   HL2727188  28.809   7.220   0.502
  243XTA   HL2827189  28.917   7.334   0.488
  243XTA   HL2927190  28.904   7.263   0.270
  243XTA   HL3027191  29.037   7.145   0.321
  243XTA   HL3127192  28.847   6.983   0.397
  243XTA   HL3227193  28.727   7.090   0.320
  243XTA   HL3327194  28.810   7.016   0.102
  243XTA   HL3427195  28.934   6.937   0.185
  243XTA   HL3527196  28.885   6.719   0.131
  243XTA   HL3627197  28.757   6.772   0.010
  243XTA   HL3727198  28.550   6.681   0.007
  243XTA   HL3827199  28.537   6.757   0.170
  243XTA   HL3927200  28.353   6.595   0.135
  243XTA   HL4027201  28.441   6.527   0.265
  243XTA   HL4127202  28.466   6.464   0.116
  243XTA    CO827203  28.382   7.911   0.569
  243XTA    CO927204  28.320   7.923   0.808
  243XTA    OA627205  28.218   8.021   0.778
  243XTA   HL4227206  28.472   7.929   0.500
  243XTA   HL4327207  28.317   7.996   0.549
  243XTA   HL4427208  28.645   6.668   0.367
  243XTA   HL4527209  28.662   6.498   0.312
  243XTA   CO1027210  28.705   6.598   0.309
  243XTA   CO1127211  28.756   6.502   0.088
  243XTA    OA727212  28.841   6.593   0.354
  243XTA   HL4627213  28.858   6.482   0.122
  243XTA   HL4727214  28.701   6.409   0.117
  243XTA   HL4827215  28.341   7.925   0.914
  243XTA   HL4927216  28.267   7.833   0.789
  244XTA     NT27217  29.054   6.030   2.939
  244XTA    CN127218  28.921   6.065   2.952
  244XTA     C127219  28.852   6.079   3.070
  244XTA     C227220  28.713   6.097   3.081
  244XTA     C327221  28.641   6.105   2.958
  244XTA     C427222  28.710   6.098   2.835
  244XTA     C527223  28.852   6.088   2.834
  244XTA    CN227224  29.089   5.901   2.924
  244XTA     C627225  29.121   5.828   3.039
  244XTA     C727226  29.144   5.689   3.030
  244XTA     C827227  29.122   5.616   2.913
  244XTA     C927228  29.093   5.691   2.795
  244XTA    C1027229  29.071   5.833   2.801
  244XTA    CN327230  29.149   6.121   2.972
  244XTA    C1127231  29.238   6.163   2.870
  244XTA    C1227232  29.346   6.251   2.908
  244XTA    C1327233  29.360   6.290   3.046
  244XTA    C1427234  29.261   6.258   3.139
  244XTA    C1527235  29.157   6.180   3.102
  244XTA     H127236  28.905   6.062   3.156
  244XTA     H227237  28.666   6.100   3.173
  244XTA     H327238  28.651   6.100   2.738
  244XTA     H427239  28.907   6.096   2.740
  244XTA     H527240  29.135   5.881   3.133
  244XTA     H627241  29.178   5.636   3.117
  244XTA     H727242  29.087   5.642   2.694
  244XTA     H827243  29.047   5.874   2.708
  244XTA     H927244  29.239   6.118   2.780
  244XTA    H1027245  29.430   6.274   2.843
  244XTA    H1127246  29.259   6.292   3.244
  244XTA    H1227247  29.086   6.155   3.179
  244XTA    OA127248  28.503   6.106   2.969
  244XTA    CO127249  28.445   6.198   2.868
  244XTA    OA227250  29.151   5.482   2.906
  244XTA    CO227251  29.042   5.403   2.851
  244XTA    CL127252  29.029   5.266   2.914
  244XTA    CL227253  29.003   5.269   3.065
  244XTA    CL327254  28.976   5.145   3.138
  244XTA    CL427255  28.832   5.089   3.107
  244XTA    CO327256  28.828   4.941   3.156
  244XTA    OA327257  28.927   4.873   3.094
  244XTA    CO427258  28.962   4.759   3.170
  244XTA    CT127259  29.078   4.678   3.095
  244XTA    CL527260  29.200   4.773   3.079
  244XTA    CL627261  29.256   4.826   3.217
  244XTA    OA427262  29.470   6.358   3.088
  244XTA    CO527263  29.523   6.305   3.205
  244XTA    CL727264  29.586   6.173   3.182
  244XTA    CL827265  29.635   6.118   3.321
  244XTA    CL927266  29.697   5.974   3.324
  244XTA   CL1027267  29.605   5.863   3.278
  244XTA    CO627268  29.466   5.871   3.352
  244XTA    OA527269  29.479   5.883   3.493
  244XTA    CO727270  29.358   5.878   3.568
  244XTA    CT227271  29.384   5.924   3.714
  244XTA   CL1127272  29.434   6.071   3.700
  244XTA   CL1227273  29.351   6.188   3.641
  244XTA    HL127274  28.466   6.155   2.767
  244XTA    HL227275  28.339   6.213   2.870
  244XTA    HL327276  28.501   6.293   2.876
  244XTA    HL427277  28.942   5.451   2.855
  244XTA    HL527278  29.058   5.408   2.743
  244XTA    HL627279  29.128   5.217   2.896
  244XTA    HL727280  28.955   5.200   2.862
  244XTA    HL827281  28.926   5.336   3.066
  244XTA    HL927282  29.089   5.323   3.112
  244XTA   HL1027283  29.055   5.073   3.118
  244XTA   HL1127284  28.986   5.163   3.250
  244XTA   HL1227285  28.820   5.101   3.001
  244XTA   HL1327286  28.762   5.150   3.167
  244XTA   HL1427287  28.835   4.945   3.265
  244XTA   HL1527288  28.726   4.901   3.137
  244XTA   HL1627289  28.988   4.788   3.273
  244XTA   HL1727290  28.881   4.685   3.172
  244XTA   HL1827291  29.169   4.861   3.029
  244XTA   HL1927292  29.283   4.719   3.022
  244XTA   HL2027293  29.326   4.760   3.269
  244XTA   HL2127294  29.175   4.841   3.287
  244XTA   HL2227295  29.303   4.920   3.221
  244XTA   HL2327296  29.459   6.323   3.291
  244XTA   HL2427297  29.610   6.367   3.220
  244XTA   HL2527298  29.518   6.097   3.131
  244XTA   HL2627299  29.669   6.192   3.113
  244XTA   HL2727300  29.708   6.189   3.363
  244XTA   HL2827301  29.551   6.097   3.385
  244XTA   HL2927302  29.787   5.971   3.257
  244XTA   HL3027303  29.741   5.955   3.421
  244XTA   HL3127304  29.579   5.870   3.172
  244XTA   HL3227305  29.647   5.758   3.295
  244XTA   HL3327306  29.398   5.950   3.320
  244XTA   HL3427307  29.420   5.780   3.326
  244XTA   HL3527308  29.324   5.776   3.572
  244XTA   HL3627309  29.282   5.942   3.518
  244XTA   HL3727310  29.533   6.054   3.648
  244XTA   HL3827311  29.470   6.111   3.791
  244XTA   HL3927312  29.304   6.165   3.544
  244XTA   HL4027313  29.416   6.281   3.643
  244XTA   HL4127314  29.267   6.208   3.707
  244XTA    CO827315  29.025   4.621   2.958
  244XTA    CO927316  29.111   4.552   3.178
  244XTA    OA627317  29.004   4.459   3.197
  244XTA   HL4227318  28.927   4.573   2.980
  244XTA   HL4327319  29.084   4.534   2.944
  244XTA   HL4427320  29.443   5.717   3.780
  244XTA   HL4527321  29.562   5.815   3.714
  244XTA   CO1027322  29.479   5.825   3.781
  244XTA   CO1127323  29.258   5.931   3.809
  244XTA    OA727324  29.518   5.858   3.880
  244XTA   HL4627325  29.213   5.802   3.853
  244XTA   HL4727326  29.169   5.980   3.752
  244XTA   HL4827327  29.158   4.574   3.272
  244XTA   HL4927328  29.196   4.503   3.133
  245XTA     NT27329  28.759   4.907   5.165
  245XTA    CN127330  28.673   4.799   5.142
  245XTA     C127331  28.538   4.814   5.165
  245XTA     C227332  28.439   4.728   5.110
  245XTA     C327333  28.481   4.611   5.040
  245XTA     C427334  28.623   4.586   5.026
  245XTA     C527335  28.714   4.680   5.068
  245XTA    CN227336  28.826   4.921   5.279
  245XTA     C627337  28.784   5.003   5.387
  245XTA     C727338  28.857   5.006   5.508
  245XTA     C827339  28.972   4.928   5.525
  245XTA     C927340  29.021   4.861   5.413
  245XTA    C1027341  28.952   4.858   5.291
  245XTA    CN327342  28.751   5.009   5.075
  245XTA    C1127343  28.710   4.986   4.942
  245XTA    C1227344  28.688   5.090   4.853
  245XTA    C1327345  28.725   5.222   4.886
  245XTA    C1427346  28.765   5.250   5.013
  245XTA    C1527347  28.780   5.144   5.107
  245XTA     H127348  28.503   4.894   5.228
  245XTA     H227349  28.334   4.750   5.131
  245XTA     H327350  28.656   4.494   4.992
  245XTA     H427351  28.821   4.679   5.040
  245XTA     H527352  28.695   5.066   5.379
  245XTA     H627353  28.811   5.057   5.590
  245XTA     H727354  29.122   4.820   5.414
  245XTA     H827355  28.993   4.806   5.206
  245XTA     H927356  28.692   4.889   4.903
  245XTA    H1027357  28.655   5.060   4.755
  245XTA    H1127358  28.784   5.349   5.049
  245XTA    H1227359  28.830   5.171   5.203
  245XTA    OA127360  28.379   4.533   4.995
  245XTA    CO127361  28.410   4.414   4.926
  245XTA    OA227362  29.037   4.930   5.646
  245XTA    CO227363  29.143   4.832   5.664
  245XTA    CL127364  29.157   4.812   5.815
  245XTA    CL227365  29.233   4.926   5.879
  245XTA    CL327366  29.158   5.059   5.907
  245XTA    CL427367  29.252   5.158   5.960
  245XTA    CO327368  29.185   5.241   6.070
  245XTA    OA327369  29.272   5.334   6.120
  245XTA    CO427370  29.262   5.356   6.261
  245XTA    CT127371  29.368   5.453   6.310
  245XTA    CL527372  29.509   5.392   6.299
  245XTA    CL627373  29.572   5.380   6.164
  245XTA    OA427374  28.721   5.335   4.805
  245XTA    CO527375  28.664   5.309   4.676
  245XTA    CL727376  28.769   5.230   4.592
  245XTA    CL827377  28.898   5.312   4.544
  245XTA    CL927378  29.014   5.215   4.515
  245XTA   CL1027379  29.123   5.291   4.433
  245XTA    CO627380  29.207   5.395   4.523
  245XTA    OA527381  29.311   5.445   4.435
  245XTA    CO727382  29.399   5.532   4.508
  245XTA    CT227383  29.373   5.683   4.490
  245XTA   CL1127384  29.260   5.730   4.589
  245XTA   CL1227385  29.274   5.707   4.742
  245XTA    HL127386  28.323   4.385   4.869
  245XTA    HL227387  28.500   4.424   4.865
  245XTA    HL327388  28.421   4.329   4.993
  245XTA    HL427389  29.118   4.742   5.611
  245XTA    HL527390  29.237   4.870   5.631
  245XTA    HL627391  29.205   4.717   5.838
  245XTA    HL727392  29.056   4.811   5.852
  245XTA    HL827393  29.311   4.955   5.816
  245XTA    HL927394  29.277   4.888   5.975
  245XTA   HL1027395  29.115   5.093   5.813
  245XTA   HL1127396  29.072   5.045   5.974
  245XTA   HL1227397  29.300   5.221   5.881
  245XTA   HL1327398  29.338   5.110   6.004
  245XTA   HL1427399  29.103   5.290   6.022
  245XTA   HL1527400  29.143   5.173   6.143
  245XTA   HL1627401  29.168   5.391   6.296
  245XTA   HL1727402  29.277   5.261   6.315
  245XTA   HL1827403  29.504   5.290   6.332
  245XTA   HL1927404  29.582   5.447   6.364
  245XTA   HL2027405  29.504   5.337   6.090
  245XTA   HL2127406  29.662   5.320   6.170
  245XTA   HL2227407  29.608   5.476   6.131
  245XTA   HL2327408  28.633   5.394   4.619
  245XTA   HL2427409  28.573   5.250   4.672
  245XTA   HL2527410  28.812   5.146   4.650
  245XTA   HL2627411  28.722   5.190   4.502
  245XTA   HL2727412  28.870   5.380   4.462
  245XTA   HL2827413  28.937   5.380   4.617
  245XTA   HL2927414  29.045   5.165   4.605
  245XTA   HL3027415  28.983   5.138   4.444
  245XTA   HL3127416  29.192   5.217   4.386
  245XTA   HL3227417  29.079   5.360   4.356
  245XTA   HL3327418  29.147   5.473   4.556
  245XTA   HL3427419  29.250   5.346   4.613
  245XTA   HL3527420  29.492   5.519   4.453
  245XTA   HL3627421  29.422   5.512   4.609
  245XTA   HL3727422  29.165   5.682   4.562
  245XTA   HL3827423  29.245   5.841   4.583
  245XTA   HL3927424  29.200   5.750   4.807
  245XTA   HL4027425  29.350   5.773   4.783
  245XTA   HL4127426  29.296   5.606   4.772
  245XTA    CO827427  29.324   5.472   6.457
  245XTA    CO927428  29.350   5.586   6.232
  245XTA    OA627429  29.232   5.661   6.257
  245XTA   HL4227430  29.295   5.373   6.486
  245XTA   HL4327431  29.235   5.531   6.465
  245XTA   HL4427432  29.373   5.643   4.273
  245XTA   HL4527433  29.209   5.673   4.341
  245XTA   CO1027434  29.317   5.703   4.347
  245XTA   CO1127435  29.505   5.772   4.502
  245XTA    OA727436  29.310   5.841   4.322
  245XTA   HL4627437  29.463   5.868   4.503
  245XTA   HL4727438  29.558   5.774   4.405
  245XTA   HL4827439  29.356   5.558   6.125
  245XTA   HL4927440  29.432   5.648   6.247
  246XTA     NT27441  28.388   3.681   3.674
  246XTA    CN127442  28.267   3.720   3.725
  246XTA     C127443  28.205   3.819   3.654
  246XTA     C227444  28.074   3.860   3.697
  246XTA     C327445  28.015   3.803   3.811
  246XTA     C427446  28.078   3.696   3.875
  246XTA     C527447  28.202   3.651   3.834
  246XTA    CN227448  28.489   3.759   3.651
  246XTA     C627449  28.569   3.794   3.762
  246XTA     C727450  28.682   3.881   3.739
  246XTA     C827451  28.711   3.936   3.608
  246XTA     C927452  28.631   3.894   3.500
  246XTA    C1027453  28.515   3.815   3.524
  246XTA    CN327454  28.400   3.547   3.647
  246XTA    C1127455  28.485   3.468   3.733
  246XTA    C1227456  28.506   3.332   3.704
  246XTA    C1327457  28.447   3.267   3.593
  246XTA    C1427458  28.361   3.349   3.506
  246XTA    C1527459  28.340   3.485   3.531
  246XTA     H127460  28.256   3.867   3.574
  246XTA     H227461  28.031   3.946   3.653
  246XTA     H327462  28.014   3.643   3.953
  246XTA     H427463  28.244   3.564   3.880
  246XTA     H527464  28.545   3.769   3.860
  246XTA     H627465  28.747   3.912   3.816
  246XTA     H727466  28.643   3.938   3.405
  246XTA     H827467  28.448   3.782   3.443
  246XTA     H927468  28.537   3.524   3.808
  246XTA    H1027469  28.568   3.272   3.767
  246XTA    H1127470  28.313   3.316   3.420
  246XTA    H1227471  28.289   3.548   3.467
  246XTA    OA127472  27.885   3.841   3.846
  246XTA    CO127473  27.838   3.808   3.973
  246XTA    OA227474  28.800   4.034   3.578
  246XTA    CO227475  28.825   4.141   3.666
  246XTA    CL127476  28.964   4.207   3.652
  246XTA    CL227477  29.071   4.099   3.660
  246XTA    CL327478  29.089   4.031   3.789
  246XTA    CL427479  29.186   3.913   3.785
  246XTA    CO327480  29.188   3.842   3.920
  246XTA    OA327481  29.263   3.722   3.908
  246XTA    CO427482  29.318   3.669   4.031
  246XTA    CT127483  29.395   3.532   4.005
  246XTA    CL527484  29.299   3.430   3.931
  246XTA    CL627485  29.167   3.391   4.002
  246XTA    OA427486  28.453   3.132   3.568
  246XTA    CO527487  28.573   3.068   3.615
  246XTA    CL727488  28.576   2.913   3.577
  246XTA    CL827489  28.454   2.820   3.606
  246XTA    CL927490  28.422   2.804   3.758
  246XTA   CL1027491  28.537   2.745   3.840
  246XTA    CO627492  28.514   2.778   3.981
  246XTA    OA527493  28.596   2.700   4.065
  246XTA    CO727494  28.528   2.661   4.184
  246XTA    CT227495  28.622   2.548   4.240
  246XTA   CL1127496  28.637   2.436   4.144
  246XTA   CL1227497  28.503   2.396   4.085
  246XTA    HL127498  27.760   3.876   4.001
  246XTA    HL227499  27.809   3.707   3.981
  246XTA    HL327500  27.930   3.828   4.035
  246XTA    HL427501  28.746   4.217   3.658
  246XTA    HL527502  28.814   4.112   3.774
  246XTA    HL627503  28.967   4.276   3.740
  246XTA    HL727504  28.970   4.268   3.558
  246XTA    HL827505  29.165   4.142   3.643
  246XTA    HL927506  29.063   4.030   3.579
  246XTA   HL1027507  29.123   4.108   3.855
  246XTA   HL1127508  28.996   3.981   3.823
  246XTA   HL1227509  29.286   3.953   3.768
  246XTA   HL1327510  29.151   3.849   3.711
  246XTA   HL1427511  29.216   3.906   4.001
  246XTA   HL1527512  29.085   3.810   3.941
  246XTA   HL1627513  29.406   3.730   4.070
  246XTA   HL1727514  29.243   3.661   4.108
  246XTA   HL1827515  29.361   3.341   3.915
  246XTA   HL1927516  29.270   3.465   3.831
  246XTA   HL2027517  29.204   3.319   4.078
  246XTA   HL2127518  29.087   3.351   3.932
  246XTA   HL2227519  29.116   3.462   4.068
  246XTA   HL2327520  28.586   3.073   3.722
  246XTA   HL2427521  28.652   3.131   3.573
  246XTA   HL2527522  28.589   2.909   3.470
  246XTA   HL2627523  28.660   2.863   3.633
  246XTA   HL2727524  28.369   2.870   3.557
  246XTA   HL2827525  28.466   2.719   3.566
  246XTA   HL2927526  28.391   2.901   3.801
  246XTA   HL3027527  28.332   2.748   3.782
  246XTA   HL3127528  28.536   2.642   3.823
  246XTA   HL3227529  28.636   2.785   3.807
  246XTA   HL3327530  28.531   2.888   3.997
  246XTA   HL3427531  28.414   2.764   4.001
  246XTA   HL3527532  28.424   2.636   4.164
  246XTA   HL3627533  28.513   2.741   4.255
  246XTA   HL3727534  28.680   2.354   4.198
  246XTA   HL3827535  28.710   2.466   4.064
  246XTA   HL3927536  28.436   2.380   4.170
  246XTA   HL4027537  28.498   2.291   4.039
  246XTA   HL4127538  28.468   2.464   4.007
  246XTA    CO827539  29.449   3.486   4.143
  246XTA    CO927540  29.518   3.563   3.912
  246XTA    OA627541  29.582   3.635   3.954
  246XTA   HL4227542  29.510   3.565   4.184
  246XTA   HL4327543  29.353   3.454   4.236
  246XTA   HL4427544  28.477   2.535   4.414
  246XTA   HL4527545  28.593   2.385   4.385
  246XTA   CO1027546  28.572   2.493   4.376
  246XTA   CO1127547  28.745   2.604   4.312
  246XTA    OA727548  28.678   2.559   4.429
  246XTA   HL4627549  28.834   2.545   4.302
  246XTA   HL4727550  28.750   2.709   4.297
  246XTA   HL4827551  29.492   3.605   3.813
  246XTA   HL4927552  29.577   3.477   3.883
  247XTA     NT27553  30.559   4.466   6.204
  247XTA    CN127554  30.640   4.518   6.105
  247XTA     C127555  30.584   4.624   6.028
  247XTA     C227556  30.648   4.676   5.915
  247XTA     C327557  30.779   4.631   5.884
  247XTA     C427558  30.833   4.523   5.956
  247XTA     C527559  30.770   4.475   6.074
  247XTA    CN227560  30.601   4.475   6.332
  247XTA     C627561  30.608   4.600   6.401
  247XTA     C727562  30.662   4.612   6.530
  247XTA     C827563  30.700   4.494   6.594
  247XTA     C927564  30.687   4.371   6.532
  247XTA    C1027565  30.643   4.359   6.400
  247XTA    CN327566  30.437   4.413   6.181
  247XTA    C1127567  30.422   4.309   6.087
  247XTA    C1227568  30.299   4.254   6.059
  247XTA    C1327569  30.186   4.301   6.126
  247XTA    C1427570  30.197   4.407   6.221
  247XTA    C1527571  30.322   4.464   6.240
  247XTA     H127572  30.492   4.676   6.052
  247XTA     H227573  30.612   4.761   5.862
  247XTA     H327574  30.927   4.475   5.919
  247XTA     H427575  30.814   4.399   6.131
  247XTA     H527576  30.583   4.692   6.348
  247XTA     H627577  30.654   4.709   6.571
  247XTA     H727578  30.724   4.291   6.594
  247XTA     H827579  30.642   4.267   6.339
  247XTA     H927580  30.502   4.260   6.030
  247XTA    H1027581  30.293   4.176   5.989
  247XTA    H1127582  30.117   4.452   6.275
  247XTA    H1227583  30.329   4.556   6.305
  247XTA    OA127584  30.846   4.669   5.765
  247XTA    CO127585  30.770   4.745   5.673
  247XTA    OA227586  30.765   4.493   6.719
  247XTA    CO227587  30.696   4.564   6.825
  247XTA    CL127588  30.793   4.653   6.902
  247XTA    CL227589  30.851   4.768   6.812
  247XTA    CL327590  30.979   4.830   6.861
  247XTA    CL427591  31.033   4.937   6.755
  247XTA    CO327592  30.922   5.037   6.704
  247XTA    OA327593  30.976   5.147   6.634
  247XTA    CO427594  30.879   5.241   6.584
  247XTA    CT127595  30.950   5.375   6.551
  247XTA    CL527596  31.083   5.341   6.475
  247XTA    CL627597  31.048   5.258   6.344
  247XTA    OA427598  30.075   4.243   6.091
  247XTA    CO527599  29.970   4.259   6.183
  247XTA    CL727600  29.983   4.163   6.296
  247XTA    CL827601  29.868   4.194   6.402
  247XTA    CL927602  29.883   4.324   6.469
  247XTA   CL1027603  29.800   4.328   6.602
  247XTA    CO627604  29.799   4.473   6.661
  247XTA    OA527605  29.691   4.549   6.612
  247XTA    CO727606  29.574   4.540   6.685
  247XTA    CT227607  29.477   4.636   6.627
  247XTA   CL1127608  29.519   4.781   6.658
  247XTA   CL1227609  29.645   4.843   6.596
  247XTA    HL127610  30.752   4.843   5.718
  247XTA    HL227611  30.820   4.747   5.579
  247XTA    HL327612  30.670   4.710   5.645
  247XTA    HL427613  30.604   4.624   6.796
  247XTA    HL527614  30.659   4.478   6.884
  247XTA    HL627615  30.879   4.590   6.937
  247XTA    HL727616  30.747   4.691   6.998
  247XTA    HL827617  30.769   4.839   6.809
  247XTA    HL927618  30.872   4.721   6.715
  247XTA   HL1027619  30.957   4.872   6.959
  247XTA   HL1127620  31.059   4.760   6.882
  247XTA   HL1227621  31.058   4.877   6.672
  247XTA   HL1327622  31.127   4.989   6.783
  247XTA   HL1427623  30.841   4.990   6.643
  247XTA   HL1527624  30.874   5.073   6.794
  247XTA   HL1627625  30.832   5.213   6.490
  247XTA   HL1727626  30.788   5.249   6.650
  247XTA   HL1827627  31.154   5.282   6.531
  247XTA   HL1927628  31.118   5.446   6.455
  247XTA   HL2027629  30.952   5.294   6.302
  247XTA   HL2127630  31.037   5.157   6.381
  247XTA   HL2227631  31.137   5.258   6.280
  247XTA   HL2327632  29.860   4.254   6.156
  247XTA   HL2427633  29.957   4.364   6.212
  247XTA   HL2527634  29.966   4.068   6.250
  247XTA   HL2627635  30.076   4.162   6.336
  247XTA   HL2727636  29.769   4.204   6.355
  247XTA   HL2827637  29.863   4.108   6.466
  247XTA   HL2927638  29.987   4.325   6.499
  247XTA   HL3027639  29.870   4.408   6.404
  247XTA   HL3127640  29.693   4.314   6.580
  247XTA   HL3227641  29.838   4.262   6.667
  247XTA   HL3327642  29.802   4.472   6.768
  247XTA   HL3427643  29.886   4.523   6.628
  247XTA   HL3527644  29.593   4.564   6.786
  247XTA   HL3627645  29.544   4.437   6.664
  247XTA   HL3727646  29.533   4.793   6.766
  247XTA   HL3827647  29.433   4.841   6.621
  247XTA   HL3927648  29.642   4.947   6.618
  247XTA   HL4027649  29.644   4.840   6.484
  247XTA   HL4127650  29.739   4.816   6.639
  247XTA    CO827651  30.983   5.451   6.689
  247XTA    CO927652  30.853   5.462   6.467
  247XTA    OA627653  31.088   5.543   6.678
  247XTA   HL4227654  31.005   5.364   6.755
  247XTA   HL4327655  30.904   5.512   6.728
  247XTA   HL4427656  29.346   4.630   6.799
  247XTA   HL4527657  29.264   4.677   6.646
  247XTA   CO1027658  29.343   4.612   6.691
  247XTA   CO1127659  29.454   4.625   6.468
  247XTA    OA727660  29.299   4.476   6.673
  247XTA   HL4627661  29.449   4.520   6.446
  247XTA   HL4727662  29.535   4.669   6.413
  247XTA   HL4827663  30.764   5.487   6.527
  247XTA   HL4927664  30.795   5.397   6.401
  248XTA     NT27665  27.936   1.547   5.453
  248XTA    CN127666  27.831   1.460   5.449
  248XTA     C127667  27.819   1.370   5.341
  248XTA     C227668  27.704   1.291   5.333
  248XTA     C327669  27.607   1.294   5.434
  248XTA     C427670  27.622   1.387   5.537
  248XTA     C527671  27.734   1.469   5.544
  248XTA    CN227672  28.059   1.524   5.504
  248XTA     C627673  28.144   1.421   5.455
  248XTA     C727674  28.272   1.412   5.509
  248XTA     C827675  28.313   1.498   5.612
  248XTA     C927676  28.224   1.590   5.669
  248XTA    C1027677  28.096   1.599   5.610
  248XTA    CN327678  27.924   1.639   5.357
  248XTA    C1127679  27.857   1.763   5.391
  248XTA    C1227680  27.835   1.851   5.281
  248XTA    C1327681  27.889   1.837   5.151
  248XTA    C1427682  27.955   1.719   5.127
  248XTA    C1527683  27.977   1.625   5.227
  248XTA     H127684  27.889   1.361   5.262
  248XTA     H227685  27.688   1.221   5.249
  248XTA     H327686  27.542   1.405   5.612
  248XTA     H427687  27.751   1.541   5.625
  248XTA     H527688  28.107   1.357   5.368
  248XTA     H627689  28.340   1.340   5.466
  248XTA     H727690  28.257   1.655   5.750
  248XTA     H827691  28.029   1.675   5.651
  248XTA     H927692  27.822   1.786   5.484
  248XTA    H1027693  27.779   1.939   5.298
  248XTA    H1127694  27.987   1.683   5.033
  248XTA    H1227695  28.033   1.535   5.200
  248XTA    OA127696  27.498   1.214   5.422
  248XTA    CO127697  27.416   1.190   5.536
  248XTA    OA227698  28.437   1.492   5.669
  248XTA    CO227699  28.532   1.409   5.602
  248XTA    CL127700  28.677   1.431   5.648
  248XTA    CL227701  28.730   1.575   5.626
  248XTA    CL327702  28.861   1.597   5.701
  248XTA    CL427703  28.987   1.513   5.655
  248XTA    CO327704  29.108   1.567   5.720
  248XTA    OA327705  29.118   1.579   5.861
  248XTA    CO427706  29.136   1.455   5.921
  248XTA    CT127707  29.127   1.469   6.074
  248XTA    CL527708  29.002   1.552   6.120
  248XTA    CL627709  28.864   1.502   6.068
  248XTA    OA427710  27.891   1.930   5.053
  248XTA    CO527711  27.786   2.026   5.062
  248XTA    CL727712  27.748   2.083   4.922
  248XTA    CL827713  27.628   2.181   4.919
  248XTA    CL927714  27.640   2.319   4.987
  248XTA   CL1027715  27.516   2.414   4.951
  248XTA    CO627716  27.549   2.566   4.950
  248XTA    OA527717  27.664   2.565   4.867
  248XTA    CO727718  27.714   2.695   4.839
  248XTA    CT227719  27.855   2.684   4.777
  248XTA   CL1127720  27.883   2.801   4.670
  248XTA   CL1227721  27.806   2.789   4.543
  248XTA    HL127722  27.482   1.176   5.627
  248XTA    HL227723  27.341   1.261   5.548
  248XTA    HL327724  27.374   1.086   5.518
  248XTA    HL427725  28.512   1.302   5.592
  248XTA    HL527726  28.534   1.431   5.498
  248XTA    HL627727  28.733   1.357   5.593
  248XTA    HL727728  28.692   1.397   5.757
  248XTA    HL827729  28.651   1.641   5.659
  248XTA    HL927730  28.749   1.596   5.519
  248XTA   HL1027731  28.903   1.693   5.688
  248XTA   HL1127732  28.842   1.591   5.811
  248XTA   HL1227733  28.989   1.508   5.548
  248XTA   HL1327734  28.958   1.417   5.697
  248XTA   HL1427735  29.188   1.505   5.681
  248XTA   HL1527736  29.127   1.659   5.675
  248XTA   HL1627737  29.060   1.384   5.893
  248XTA   HL1727738  29.228   1.405   5.910
  248XTA   HL1827739  29.018   1.655   6.116
  248XTA   HL1927740  28.998   1.534   6.224
  248XTA   HL2027741  28.822   1.440   6.145
  248XTA   HL2127742  28.880   1.458   5.972
  248XTA   HL2227743  28.794   1.584   6.040
  248XTA   HL2327744  27.814   2.113   5.118
  248XTA   HL2427745  27.688   1.992   5.104
  248XTA   HL2527746  27.835   2.140   4.885
  248XTA   HL2627747  27.733   2.003   4.856
  248XTA   HL2727748  27.600   2.198   4.814
  248XTA   HL2827749  27.545   2.127   4.965
  248XTA   HL2927750  27.656   2.311   5.090
  248XTA   HL3027751  27.730   2.362   4.949
  248XTA   HL3127752  27.497   2.391   4.846
  248XTA   HL3227753  27.420   2.395   4.999
  248XTA   HL3327754  27.470   2.616   4.897
  248XTA   HL3427755  27.554   2.618   5.044
  248XTA   HL3527756  27.718   2.745   4.929
  248XTA   HL3627757  27.642   2.730   4.766
  248XTA   HL3727758  27.991   2.796   4.644
  248XTA   HL3827759  27.864   2.899   4.721
  248XTA   HL3927760  27.803   2.689   4.506
  248XTA   HL4027761  27.862   2.846   4.466
  248XTA   HL4127762  27.704   2.829   4.551
  248XTA    CO827763  29.261   1.528   6.128
  248XTA    CO927764  29.108   1.325   6.136
  248XTA    OA627765  29.381   1.442   6.111
  248XTA   HL4227766  29.278   1.620   6.071
  248XTA   HL4327767  29.266   1.547   6.234
  248XTA   HL4427768  27.877   2.461   4.793
  248XTA   HL4527769  27.812   2.530   4.646
  248XTA   CO1027770  27.888   2.545   4.720
  248XTA   CO1127771  27.949   2.709   4.896
  248XTA    OA727772  27.980   2.561   4.664
  248XTA   HL4627773  27.923   2.830   4.954
  248XTA   HL4727774  28.044   2.727   4.850
  248XTA   HL4827775  29.002   1.290   6.107
  248XTA   HL4927776  29.184   1.255   6.091
  249XTA     NT27777  24.936  -0.755  -1.403
  249XTA    CN127778  24.862  -0.802  -1.507
  249XTA     C127779  24.852  -0.943  -1.534
  249XTA     C227780  24.788  -0.986  -1.653
  249XTA     C327781  24.725  -0.888  -1.736
  249XTA     C427782  24.732  -0.748  -1.707
  249XTA     C527783  24.811  -0.707  -1.595
  249XTA    CN227784  25.060  -0.726  -1.436
  249XTA     C627785  25.156  -0.832  -1.455
  249XTA     C727786  25.285  -0.810  -1.502
  249XTA     C827787  25.324  -0.680  -1.526
  249XTA     C927788  25.238  -0.572  -1.505
  249XTA    C1027789  25.105  -0.593  -1.456
  249XTA    CN327790  24.887  -0.745  -1.280
  249XTA    C1127791  24.754  -0.710  -1.253
  249XTA    C1227792  24.707  -0.698  -1.118
  249XTA    C1327793  24.790  -0.727  -1.012
  249XTA    C1427794  24.924  -0.765  -1.035
  249XTA    C1527795  24.972  -0.762  -1.169
  249XTA     H127796  24.901  -1.013  -1.471
  249XTA     H227797  24.777  -1.087  -1.669
  249XTA     H327798  24.674  -0.677  -1.765
  249XTA     H427799  24.804  -0.601  -1.561
  249XTA     H527800  25.114  -0.933  -1.442
  249XTA     H627801  25.356  -0.889  -1.505
  249XTA     H727802  25.273  -0.476  -1.540
  249XTA     H827803  25.040  -0.508  -1.433
  249XTA     H927804  24.688  -0.696  -1.334
  249XTA    H1027805  24.605  -0.661  -1.099
  249XTA    H1127806  24.995  -0.779  -0.951
  249XTA    H1227807  25.075  -0.784  -1.195
  249XTA    OA127808  24.660  -0.927  -1.846
  249XTA    CO127809  24.721  -0.875  -1.967
  249XTA    OA227810  25.451  -0.640  -1.570
  249XTA    CO227811  25.546  -0.731  -1.612
  249XTA    CL127812  25.665  -0.665  -1.660
  249XTA    CL227813  25.796  -0.753  -1.683
  249XTA    CL327814  25.894  -0.669  -1.763
  249XTA    CL427815  26.030  -0.745  -1.776
  249XTA    CO327816  26.127  -0.685  -1.876
  249XTA    OA327817  26.259  -0.736  -1.859
  249XTA    CO427818  26.350  -0.686  -1.954
  249XTA    CT127819  26.467  -0.788  -1.984
  249XTA    CL527820  26.454  -0.933  -1.931
  249XTA    CL627821  26.322  -0.996  -1.975
  249XTA    OA427822  24.732  -0.693  -0.887
  249XTA    CO527823  24.800  -0.747  -0.771
  249XTA    CL727824  24.706  -0.715  -0.659
  249XTA    CL827825  24.770  -0.741  -0.521
  249XTA    CL927826  24.666  -0.721  -0.396
  249XTA   CL1027827  24.716  -0.742  -0.255
  249XTA    CO627828  24.774  -0.884  -0.234
  249XTA    OA527829  24.826  -0.913  -0.105
  249XTA    CO727830  24.921  -0.818  -0.061
  249XTA    CT227831  24.951  -0.853   0.092
  249XTA   CL1127832  24.829  -0.849   0.183
  249XTA   CL1227833  24.720  -0.751   0.144
  249XTA    HL127834  24.823  -0.903  -1.984
  249XTA    HL227835  24.675  -0.917  -2.058
  249XTA    HL327836  24.710  -0.769  -1.973
  249XTA    HL427837  25.567  -0.786  -1.518
  249XTA    HL527838  25.494  -0.797  -1.687
  249XTA    HL627839  25.692  -0.588  -1.589
  249XTA    HL727840  25.633  -0.603  -1.748
  249XTA    HL827841  25.769  -0.851  -1.733
  249XTA    HL927842  25.832  -0.802  -1.593
  249XTA   HL1027843  25.844  -0.656  -1.856
  249XTA   HL1127844  25.904  -0.574  -1.709
  249XTA   HL1227845  26.027  -0.851  -1.796
  249XTA   HL1327846  26.091  -0.750  -1.680
  249XTA   HL1427847  26.098  -0.685  -1.979
  249XTA   HL1527848  26.130  -0.574  -1.856
  249XTA   HL1627849  26.295  -0.677  -2.046
  249XTA   HL1727850  26.381  -0.586  -1.916
  249XTA   HL1827851  26.462  -0.938  -1.824
  249XTA   HL1927852  26.544  -0.993  -1.962
  249XTA   HL2027853  26.303  -0.967  -2.077
  249XTA   HL2127854  26.240  -0.946  -1.917
  249XTA   HL2227855  26.327  -1.101  -1.979
  249XTA   HL2327856  24.886  -0.697  -0.739
  249XTA   HL2427857  24.814  -0.852  -0.786
  249XTA   HL2527858  24.699  -0.604  -0.667
  249XTA   HL2627859  24.615  -0.774  -0.673
  249XTA   HL2727860  24.809  -0.840  -0.506
  249XTA   HL2827861  24.850  -0.672  -0.512
  249XTA   HL2927862  24.633  -0.616  -0.398
  249XTA   HL3027863  24.572  -0.781  -0.412
  249XTA   HL3127864  24.792  -0.663  -0.237
  249XTA   HL3227865  24.629  -0.726  -0.188
  249XTA   HL3327866  24.707  -0.969  -0.257
  249XTA   HL3427867  24.848  -0.907  -0.311
  249XTA   HL3527868  24.886  -0.716  -0.068
  249XTA   HL3627869  25.011  -0.824  -0.124
  249XTA   HL3727870  24.869  -0.827   0.286
  249XTA   HL3827871  24.791  -0.948   0.201
  249XTA   HL3927872  24.764  -0.659   0.111
  249XTA   HL4027873  24.656  -0.738   0.226
  249XTA   HL4127874  24.657  -0.789   0.067
  249XTA    CO827875  26.588  -0.735  -1.944
  249XTA    CO927876  26.513  -0.784  -2.127
  249XTA    OA627877  26.645  -0.765  -2.045
  249XTA   HL4227878  26.628  -0.763  -1.842
  249XTA   HL4327879  26.572  -0.625  -1.944
  249XTA   HL4427880  25.099  -0.813   0.252
  249XTA   HL4527881  25.150  -0.784   0.089
  249XTA   CO1027882  25.067  -0.775   0.158
  249XTA   CO1127883  25.009  -0.997   0.092
  249XTA    OA727884  25.040  -0.672   0.165
  249XTA   HL4627885  25.025  -1.034   0.227
  249XTA   HL4727886  24.937  -1.065   0.052
  249XTA   HL4827887  26.476  -0.673  -2.207
  249XTA   HL4927888  26.516  -0.878  -2.173
  250XTA     NT27889  27.891   4.258   2.151
  250XTA    CN127890  28.007   4.308   2.198
  250XTA     C127891  28.035   4.444   2.220
  250XTA     C227892  28.157   4.483   2.283
  250XTA     C327893  28.262   4.393   2.302
  250XTA     C427894  28.244   4.263   2.257
  250XTA     C527895  28.119   4.224   2.213
  250XTA    CN227896  27.882   4.160   2.062
  250XTA     C627897  27.888   4.182   1.921
  250XTA     C727898  27.895   4.074   1.830
  250XTA     C827899  27.882   3.946   1.870
  250XTA     C927900  27.855   3.925   2.011
  250XTA    C1027901  27.853   4.032   2.104
  250XTA    CN327902  27.774   4.294   2.217
  250XTA    C1127903  27.658   4.312   2.143
  250XTA    C1227904  27.540   4.333   2.209
  250XTA    C1327905  27.537   4.333   2.358
  250XTA    C1427906  27.651   4.299   2.433
  250XTA    C1527907  27.768   4.280   2.361
  250XTA     H127908  27.963   4.512   2.199
  250XTA     H227909  28.179   4.588   2.307
  250XTA     H327910  28.316   4.194   2.290
  250XTA     H427911  28.100   4.119   2.205
  250XTA     H527912  27.913   4.282   1.895
  250XTA     H627913  27.911   4.103   1.730
  250XTA     H727914  27.840   3.825   2.037
  250XTA     H827915  27.838   4.014   2.208
  250XTA     H927916  27.664   4.315   2.038
  250XTA    H1027917  27.445   4.352   2.154
  250XTA    H1127918  27.645   4.289   2.542
  250XTA    H1227919  27.858   4.253   2.415
  250XTA    OA127920  28.378   4.425   2.363
  250XTA    CO127921  28.408   4.557   2.398
  250XTA    OA227922  27.882   3.844   1.783
  250XTA    CO227923  27.889   3.862   1.642
  250XTA    CL127924  27.875   3.718   1.584
  250XTA    CL227925  27.907   3.709   1.436
  250XTA    CL327926  27.949   3.570   1.392
  250XTA    CL427927  27.830   3.477   1.355
  250XTA    CO327928  27.792   3.492   1.212
  250XTA    OA327929  27.667   3.423   1.197
  250XTA    CO427930  27.619   3.471   1.069
  250XTA    CT127931  27.463   3.465   1.063
  250XTA    CL527932  27.416   3.505   0.927
  250XTA    CL627933  27.449   3.651   0.895
  250XTA    OA427934  27.414   4.342   2.407
  250XTA    CO527935  27.398   4.383   2.541
  250XTA    CL727936  27.451   4.526   2.559
  250XTA    CL827937  27.380   4.592   2.688
  250XTA    CL927938  27.448   4.710   2.753
  250XTA   CL1027939  27.547   4.675   2.861
  250XTA    CO627940  27.507   4.631   2.997
  250XTA    OA527941  27.476   4.741   3.088
  250XTA    CO727942  27.344   4.786   3.083
  250XTA    CT227943  27.336   4.934   3.090
  250XTA   CL1127944  27.433   5.002   2.986
  250XTA   CL1227945  27.431   5.156   3.010
  250XTA    HL127946  28.509   4.569   2.429
  250XTA    HL227947  28.388   4.631   2.324
  250XTA    HL327948  28.352   4.579   2.494
  250XTA    HL427949  27.808   3.924   1.599
  250XTA    HL527950  27.982   3.906   1.614
  250XTA    HL627951  27.770   3.680   1.599
  250XTA    HL727952  27.955   3.650   1.626
  250XTA    HL827953  27.986   3.775   1.405
  250XTA    HL927954  27.814   3.743   1.376
  250XTA   HL1027955  28.011   3.576   1.302
  250XTA   HL1127956  28.010   3.506   1.461
  250XTA   HL1227957  27.752   3.492   1.427
  250XTA   HL1327958  27.861   3.380   1.390
  250XTA   HL1427959  27.773   3.602   1.200
  250XTA   HL1527960  27.867   3.454   1.148
  250XTA   HL1627961  27.658   3.572   1.044
  250XTA   HL1727962  27.661   3.397   1.003
  250XTA   HL1827963  27.306   3.493   0.921
  250XTA   HL1927964  27.446   3.438   0.845
  250XTA   HL2027965  27.397   3.683   0.806
  250XTA   HL2127966  27.553   3.675   0.877
  250XTA   HL2227967  27.410   3.713   0.974
  250XTA   HL2327968  27.448   4.312   2.602
  250XTA   HL2427969  27.290   4.379   2.564
  250XTA   HL2527970  27.555   4.537   2.557
  250XTA   HL2627971  27.426   4.592   2.476
  250XTA   HL2727972  27.276   4.618   2.641
  250XTA   HL2827973  27.358   4.517   2.768
  250XTA   HL2927974  27.515   4.737   2.669
  250XTA   HL3027975  27.375   4.781   2.783
  250XTA   HL3127976  27.615   4.593   2.822
  250XTA   HL3227977  27.610   4.758   2.884
  250XTA   HL3327978  27.423   4.561   2.999
  250XTA   HL3427979  27.595   4.566   3.024
  250XTA   HL3527980  27.291   4.729   3.151
  250XTA   HL3627981  27.306   4.759   2.980
  250XTA   HL3727982  27.401   4.975   2.886
  250XTA   HL3827983  27.539   4.968   2.996
  250XTA   HL3927984  27.445   5.179   3.118
  250XTA   HL4027985  27.344   5.199   2.969
  250XTA   HL4127986  27.520   5.184   2.951
  250XTA    CO827987  27.410   3.551   1.178
  250XTA    CO927988  27.410   3.317   1.080
  250XTA    OA627989  27.273   3.297   1.054
  250XTA   HL4227990  27.446   3.516   1.274
  250XTA   HL4327991  27.443   3.657   1.179
  250XTA   HL4427992  27.311   5.075   3.245
  250XTA   HL4527993  27.307   4.913   3.305
  250XTA   CO1027994  27.359   4.982   3.239
  250XTA   CO1127995  27.191   4.968   3.053
  250XTA    OA727996  27.467   5.000   3.276
  250XTA   HL4627997  27.111   4.904   3.152
  250XTA   HL4727998  27.179   5.070   3.073
  250XTA   HL4827999  27.444   3.273   1.173
  250XTA   HL4928000  27.450   3.265   0.997
  251XTA     NT28001  23.697  -0.477  -0.007
  251XTA    CN128002  23.601  -0.460   0.088
  251XTA     C128003  23.602  -0.545   0.200
  251XTA     C228004  23.517  -0.519   0.309
  251XTA     C328005  23.422  -0.413   0.304
  251XTA     C428006  23.419  -0.343   0.187
  251XTA     C528007  23.505  -0.357   0.076
  251XTA    CN228008  23.665  -0.561  -0.111
  251XTA     C628009  23.670  -0.698  -0.095
  251XTA     C728010  23.634  -0.785  -0.201
  251XTA     C828011  23.586  -0.735  -0.325
  251XTA     C928012  23.582  -0.597  -0.338
  251XTA    C1028013  23.623  -0.510  -0.238
  251XTA    CN328014  23.810  -0.406  -0.011
  251XTA    C1128015  23.934  -0.478  -0.023
  251XTA    C1228016  24.058  -0.408  -0.028
  251XTA    C1328017  24.053  -0.269  -0.007
  251XTA    C1428018  23.932  -0.196   0.008
  251XTA    C1528019  23.806  -0.267   0.003
  251XTA     H128020  23.682  -0.626   0.230
  251XTA     H228021  23.521  -0.582   0.392
  251XTA     H328022  23.359  -0.255   0.189
  251XTA     H428023  23.488  -0.290  -0.003
  251XTA     H528024  23.698  -0.754  -0.011
  251XTA     H628025  23.630  -0.895  -0.203
  251XTA     H728026  23.558  -0.564  -0.442
  251XTA     H828027  23.618  -0.405  -0.264
  251XTA     H928028  23.933  -0.582  -0.033
  251XTA    H1028029  24.152  -0.460  -0.031
  251XTA    H1128030  23.933  -0.086   0.007
  251XTA    H1228031  23.713  -0.216  -0.001
  251XTA    OA128032  23.325  -0.384   0.393
  251XTA    CO128033  23.369  -0.381   0.534
  251XTA    OA228034  23.580  -0.824  -0.437
  251XTA    CO228035  23.685  -0.913  -0.451
  251XTA    CL128036  23.746  -0.878  -0.587
  251XTA    CL228037  23.883  -0.937  -0.626
  251XTA    CL328038  23.937  -0.858  -0.749
  251XTA    CL428039  23.874  -0.885  -0.880
  251XTA    CO328040  23.936  -0.803  -0.989
  251XTA    OA328041  23.884  -0.847  -1.110
  251XTA    CO428042  23.909  -0.762  -1.224
  251XTA    CT128043  24.050  -0.766  -1.281
  251XTA    CL528044  24.144  -0.670  -1.197
  251XTA    CL628045  24.279  -0.634  -1.250
  251XTA    OA428046  24.167  -0.192  -0.005
  251XTA    CO528047  24.295  -0.260  -0.003
  251XTA    CL728048  24.399  -0.144   0.027
  251XTA    CL828049  24.545  -0.177  -0.024
  251XTA    CL928050  24.648  -0.077   0.021
  251XTA   CL1028051  24.637   0.066  -0.024
  251XTA    CO628052  24.715   0.171   0.052
  251XTA    OA528053  24.653   0.187   0.184
  251XTA    CO728054  24.719   0.279   0.264
  251XTA    CT228055  24.653   0.280   0.407
  251XTA   CL1128056  24.751   0.349   0.509
  251XTA   CL1228057  24.768   0.505   0.478
  251XTA    HL128058  23.405  -0.474   0.572
  251XTA    HL228059  23.453  -0.312   0.540
  251XTA    HL328060  23.293  -0.339   0.596
  251XTA    HL428061  23.769  -0.896  -0.378
  251XTA    HL528062  23.658  -1.017  -0.427
  251XTA    HL628063  23.749  -0.772  -0.611
  251XTA    HL728064  23.678  -0.922  -0.663
  251XTA    HL828065  23.893  -1.045  -0.642
  251XTA    HL928066  23.944  -0.911  -0.549
  251XTA   HL1028067  23.956  -0.756  -0.723
  251XTA   HL1128068  24.036  -0.899  -0.766
  251XTA   HL1228069  23.766  -0.868  -0.870
  251XTA   HL1328070  23.890  -0.994  -0.907
  251XTA   HL1428071  23.920  -0.697  -0.960
  251XTA   HL1528072  24.041  -0.818  -0.992
  251XTA   HL1628073  23.835  -0.795  -1.297
  251XTA   HL1728074  23.867  -0.658  -1.217
  251XTA   HL1828075  24.163  -0.706  -1.095
  251XTA   HL1928076  24.087  -0.571  -1.190
  251XTA   HL2028077  24.346  -0.720  -1.265
  251XTA   HL2128078  24.334  -0.561  -1.189
  251XTA   HL2228079  24.252  -0.594  -1.350
  251XTA   HL2328080  24.308  -0.298  -0.111
  251XTA   HL2428081  24.298  -0.338   0.064
  251XTA   HL2528082  24.367  -0.048  -0.019
  251XTA   HL2628083  24.399  -0.118   0.132
  251XTA   HL2728084  24.563  -0.277   0.022
  251XTA   HL2828085  24.547  -0.208  -0.131
  251XTA   HL2928086  24.631  -0.082   0.128
  251XTA   HL3028087  24.748  -0.115  -0.013
  251XTA   HL3128088  24.675   0.085  -0.124
  251XTA   HL3228089  24.529   0.097  -0.017
  251XTA   HL3328090  24.820   0.153   0.059
  251XTA   HL3428091  24.696   0.264   0.001
  251XTA   HL3528092  24.722   0.384   0.232
  251XTA   HL3628093  24.821   0.246   0.268
  251XTA   HL3728094  24.840   0.287   0.528
  251XTA   HL3828095  24.715   0.338   0.612
  251XTA   HL3928096  24.810   0.515   0.374
  251XTA   HL4028097  24.830   0.550   0.552
  251XTA   HL4128098  24.671   0.555   0.484
  251XTA    CO828099  24.042  -0.711  -1.427
  251XTA    CO928100  24.098  -0.911  -1.292
  251XTA    OA628101  24.204  -0.922  -1.340
  251XTA   HL4228102  24.133  -0.744  -1.478
  251XTA   HL4328103  23.950  -0.791  -1.500
  251XTA   HL4428104  24.540   0.105   0.402
  251XTA   HL4528105  24.563   0.162   0.559
  251XTA   CO1028106  24.616   0.140   0.469
  251XTA   CO1128107  24.522   0.363   0.408
  251XTA    OA728108  24.407   0.309   0.345
  251XTA   HL4628109  24.494   0.392   0.514
  251XTA   HL4728110  24.533   0.459   0.356
  251XTA   HL4828111  24.023  -0.970  -1.343
  251XTA   HL4928112  24.096  -0.949  -1.192
  252XTA     NT28113  30.325   5.693   3.980
  252XTA    CN128114  30.278   5.803   3.921
  252XTA     C128115  30.212   5.901   3.991
  252XTA     C228116  30.148   6.010   3.921
  252XTA     C328117  30.130   6.009   3.778
  252XTA     C428118  30.185   5.902   3.713
  252XTA     C528119  30.261   5.803   3.779
  252XTA    CN228120  30.248   5.583   4.006
  252XTA     C628121  30.252   5.526   4.135
  252XTA     C728122  30.172   5.409   4.163
  252XTA     C828123  30.086   5.358   4.068
  252XTA     C928124  30.079   5.414   3.939
  252XTA    C1028125  30.157   5.530   3.911
  252XTA    CN328126  30.461   5.679   3.994
  252XTA    C1128127  30.520   5.678   4.121
  252XTA    C1228128  30.652   5.635   4.138
  252XTA    C1328129  30.727   5.587   4.023
  252XTA    C1428130  30.660   5.586   3.899
  252XTA    C1528131  30.532   5.635   3.881
  252XTA     H128132  30.215   5.904   4.094
  252XTA     H228133  30.098   6.088   3.970
  252XTA     H328134  30.177   5.901   3.609
  252XTA     H428135  30.302   5.726   3.724
  252XTA     H528136  30.316   5.576   4.207
  252XTA     H628137  30.186   5.366   4.268
  252XTA     H728138  30.020   5.370   3.865
  252XTA     H828139  30.167   5.572   3.809
  252XTA     H928140  30.462   5.712   4.201
  252XTA    H1028141  30.690   5.626   4.228
  252XTA    H1128142  30.706   5.537   3.816
  252XTA    H1228143  30.479   5.635   3.788
  252XTA    OA128144  30.045   6.095   3.712
  252XTA    CO128145  30.002   6.065   3.578
  252XTA    OA228146  30.013   5.244   4.092
  252XTA    CO228147  30.022   5.189   4.221
  252XTA    CL128148  29.933   5.259   4.328
  252XTA    CL228149  29.889   5.176   4.445
  252XTA    CL328150  29.742   5.180   4.484
  252XTA    CL428151  29.702   5.321   4.527
  252XTA    CO328152  29.762   5.365   4.660
  252XTA    OA328153  29.705   5.490   4.688
  252XTA    CO428154  29.805   5.590   4.694
  252XTA    CT128155  29.747   5.726   4.743
  252XTA    CL528156  29.650   5.702   4.858
  252XTA    CL628157  29.710   5.628   4.978
  252XTA    OA428158  30.853   5.538   4.044
  252XTA    CO528159  30.939   5.516   3.933
  252XTA    CL728160  31.085   5.485   3.972
  252XTA    CL828161  31.119   5.357   4.054
  252XTA    CL928162  31.123   5.231   3.965
  252XTA   CL1028163  31.207   5.109   4.016
  252XTA    CO628164  31.156   4.971   3.955
  252XTA    OA528165  31.017   4.952   3.970
  252XTA    CO728166  30.947   4.894   3.857
  252XTA    CT228167  30.792   4.913   3.867
  252XTA   CL1128168  30.753   5.059   3.882
  252XTA   CL1228169  30.797   5.151   3.769
  252XTA    HL128170  29.956   5.967   3.570
  252XTA    HL228171  29.927   6.137   3.540
  252XTA    HL328172  30.091   6.086   3.515
  252XTA    HL428173  29.977   5.093   4.208
  252XTA    HL528174  30.122   5.183   4.267
  252XTA    HL628175  29.841   5.294   4.278
  252XTA    HL728176  29.983   5.350   4.367
  252XTA    HL828177  29.959   5.207   4.528
  252XTA    HL928178  29.905   5.065   4.431
  252XTA   HL1028179  29.678   5.134   4.405
  252XTA   HL1128180  29.713   5.120   4.575
  252XTA   HL1228181  29.592   5.331   4.537
  252XTA   HL1328182  29.731   5.382   4.447
  252XTA   HL1428183  29.740   5.301   4.749
  252XTA   HL1528184  29.875   5.354   4.662
  252XTA   HL1628185  29.882   5.571   4.774
  252XTA   HL1728186  29.847   5.604   4.585
  252XTA   HL1828187  29.571   5.634   4.822
  252XTA   HL1928188  29.595   5.795   4.884
  252XTA   HL2028189  29.778   5.549   4.945
  252XTA   HL2128190  29.640   5.575   5.044
  252XTA   HL2228191  29.759   5.691   5.047
  252XTA   HL2328192  30.930   5.611   3.878
  252XTA   HL2428193  30.909   5.434   3.872
  252XTA   HL2528194  31.147   5.492   3.891
  252XTA   HL2628195  31.111   5.576   4.031
  252XTA   HL2728196  31.205   5.377   4.118
  252XTA   HL2828197  31.037   5.341   4.123
  252XTA   HL2928198  31.024   5.192   3.950
  252XTA   HL3028199  31.159   5.261   3.869
  252XTA   HL3128200  31.308   5.111   3.992
  252XTA   HL3228201  31.192   5.105   4.128
  252XTA   HL3328202  31.182   4.965   3.849
  252XTA   HL3428203  31.196   4.878   3.997
  252XTA   HL3528204  30.963   4.787   3.855
  252XTA   HL3628205  30.988   4.923   3.763
  252XTA   HL3728206  30.784   5.098   3.979
  252XTA   HL3828207  30.641   5.066   3.888
  252XTA   HL3928208  30.779   5.263   3.783
  252XTA   HL4028209  30.757   5.122   3.677
  252XTA   HL4128210  30.900   5.154   3.756
  252XTA    CO828211  29.674   5.792   4.629
  252XTA    CO928212  29.853   5.824   4.788
  252XTA    OA628213  29.589   5.724   4.606
  252XTA   HL4228214  29.741   5.821   4.544
  252XTA   HL4328215  29.642   5.895   4.667
  252XTA   HL4428216  30.765   4.883   4.081
  252XTA   HL4528217  30.623   4.843   3.986
  252XTA   CO1028218  30.729   4.840   3.988
  252XTA   CO1128219  30.720   4.862   3.741
  252XTA    OA728220  30.773   4.737   3.993
  252XTA   HL4628221  30.594   4.924   3.740
  252XTA   HL4728222  30.710   4.751   3.747
  252XTA   HL4828223  29.938   5.772   4.887
  252XTA   HL4928224  29.915   5.851   4.701
  253XTA     NT28225  26.153   5.602   4.845
  253XTA    CN128226  26.039   5.596   4.779
  253XTA     C128227  26.034   5.584   4.645
  253XTA     C228228  25.913   5.590   4.574
  253XTA     C328229  25.794   5.582   4.649
  253XTA     C428230  25.789   5.583   4.788
  253XTA     C528231  25.917   5.589   4.855
  253XTA    CN228232  26.219   5.719   4.849
  253XTA     C628233  26.348   5.721   4.810
  253XTA     C728234  26.421   5.841   4.835
  253XTA     C828235  26.365   5.961   4.885
  253XTA     C928236  26.227   5.957   4.916
  253XTA    C1028237  26.151   5.838   4.891
  253XTA    CN328238  26.207   5.493   4.903
  253XTA    C1128239  26.274   5.397   4.822
  253XTA    C1228240  26.335   5.282   4.877
  253XTA    C1328241  26.336   5.269   5.019
  253XTA    C1428242  26.278   5.368   5.102
  253XTA    C1528243  26.212   5.485   5.042
  253XTA     H128244  26.129   5.567   4.599
  253XTA     H228245  25.899   5.571   4.469
  253XTA     H328246  25.696   5.585   4.851
  253XTA     H428247  25.922   5.600   4.963
  253XTA     H528248  26.388   5.637   4.763
  253XTA     H628249  26.529   5.833   4.816
  253XTA     H728250  26.174   6.041   4.949
  253XTA     H828251  26.045   5.830   4.918
  253XTA     H928252  26.285   5.401   4.713
  253XTA    H1028253  26.387   5.215   4.813
  253XTA    H1128254  26.280   5.351   5.211
  253XTA    H1228255  26.165   5.572   5.098
  253XTA    OA128256  25.680   5.580   4.574
  253XTA    CO128257  25.569   5.641   4.636
  253XTA    OA228258  26.446   6.070   4.900
  253XTA    CO228259  26.389   6.196   4.896
  253XTA    CL128260  26.491   6.311   4.915
  253XTA    CL228261  26.569   6.301   5.046
  253XTA    CL328262  26.617   6.441   5.080
  253XTA    CL428263  26.695   6.457   5.213
  253XTA    CO328264  26.714   6.606   5.254
  253XTA    OA328265  26.831   6.670   5.204
  253XTA    CO428266  26.825   6.719   5.076
  253XTA    CT128267  26.960   6.768   5.034
  253XTA    CL528268  27.004   6.895   5.108
  253XTA    CL628269  26.910   7.022   5.104
  253XTA    OA428270  26.397   5.169   5.084
  253XTA    CO528271  26.397   5.039   5.022
  253XTA    CL728272  26.254   4.969   5.026
  253XTA    CL828273  26.201   4.962   5.168
  253XTA    CL928274  26.049   4.939   5.168
  253XTA   CL1028275  26.006   4.793   5.132
  253XTA    CO628276  25.864   4.763   5.193
  253XTA    OA528277  25.851   4.759   5.328
  253XTA    CO728278  25.941   4.682   5.408
  253XTA    CT228279  25.914   4.698   5.562
  253XTA   CL1128280  25.767   4.674   5.596
  253XTA   CL1228281  25.662   4.757   5.518
  253XTA    HL128282  25.595   5.724   4.700
  253XTA    HL228283  25.490   5.681   4.572
  253XTA    HL328284  25.514   5.588   4.711
  253XTA    HL428285  26.359   6.204   4.785
  253XTA    HL528286  26.302   6.198   4.962
  253XTA    HL628287  26.430   6.400   4.930
  253XTA    HL728288  26.554   6.323   4.831
  253XTA    HL828289  26.645   6.226   5.044
  253XTA    HL928290  26.500   6.266   5.119
  253XTA   HL1028291  26.683   6.458   5.001
  253XTA   HL1128292  26.539   6.514   5.071
  253XTA   HL1228293  26.796   6.400   5.226
  253XTA   HL1328294  26.630   6.420   5.290
  253XTA   HL1428295  26.630   6.678   5.243
  253XTA   HL1528296  26.743   6.605   5.359
  253XTA   HL1628297  26.805   6.638   5.009
  253XTA   HL1728298  26.741   6.790   5.075
  253XTA   HL1828299  27.107   6.909   5.081
  253XTA   HL1928300  27.013   6.883   5.221
  253XTA   HL2028301  26.929   7.078   5.014
  253XTA   HL2128302  26.929   7.095   5.187
  253XTA   HL2228303  26.806   7.000   5.113
  253XTA   HL2328304  26.468   4.976   5.076
  253XTA   HL2428305  26.434   5.045   4.916
  253XTA   HL2528306  26.177   5.020   4.963
  253XTA   HL2628307  26.259   4.872   4.981
  253XTA   HL2728308  26.264   4.915   5.240
  253XTA   HL2828309  26.212   5.068   5.194
  253XTA   HL2928310  26.013   4.970   5.267
  253XTA   HL3028311  25.993   5.011   5.109
  253XTA   HL3128312  26.004   4.772   5.027
  253XTA   HL3228313  26.073   4.718   5.169
  253XTA   HL3328314  25.786   4.830   5.145
  253XTA   HL3428315  25.825   4.667   5.151
  253XTA   HL3528316  26.046   4.706   5.399
  253XTA   HL3628317  25.921   4.573   5.386
  253XTA   HL3728318  25.757   4.692   5.704
  253XTA   HL3828319  25.752   4.569   5.580
  253XTA   HL3928320  25.652   4.730   5.418
  253XTA   HL4028321  25.681   4.863   5.511
  253XTA   HL4128322  25.557   4.755   5.569
  253XTA    CO828323  26.967   6.796   4.886
  253XTA    CO928324  27.067   6.649   5.056
  253XTA    OA628325  26.896   6.917   4.844
  253XTA   HL4228326  26.921   6.710   4.842
  253XTA   HL4328327  27.069   6.796   4.852
  253XTA   HL4428328  25.923   4.917   5.543
  253XTA   HL4528329  25.886   4.863   5.700
  253XTA   CO1028330  25.952   4.841   5.617
  253XTA   CO1128331  26.000   4.599   5.633
  253XTA    OA728332  25.960   4.588   5.773
  253XTA   HL4628333  25.996   4.500   5.585
  253XTA   HL4728334  26.107   4.626   5.620
  253XTA   HL4828335  27.060   6.613   5.164
  253XTA   HL4928336  27.157   6.705   5.068
  254XTA     NT28337  29.087   5.073   6.595
  254XTA    CN128338  29.004   4.985   6.658
  254XTA     C128339  29.061   4.896   6.753
  254XTA     C228340  28.975   4.806   6.825
  254XTA     C328341  28.838   4.823   6.812
  254XTA     C428342  28.783   4.909   6.719
  254XTA     C528343  28.867   4.989   6.633
  254XTA    CN228344  29.180   5.039   6.503
  254XTA     C628345  29.126   4.988   6.379
  254XTA     C728346  29.215   4.970   6.276
  254XTA     C828347  29.345   4.998   6.290
  254XTA     C928348  29.404   5.043   6.408
  254XTA    C1028349  29.316   5.067   6.512
  254XTA    CN328350  29.065   5.205   6.625
  254XTA    C1128351  29.093   5.261   6.749
  254XTA    C1228352  29.076   5.398   6.774
  254XTA    C1328353  29.031   5.487   6.678
  254XTA    C1428354  28.998   5.432   6.551
  254XTA    C1528355  29.008   5.291   6.528
  254XTA     H128356  29.167   4.877   6.762
  254XTA     H228357  29.004   4.728   6.894
  254XTA     H328358  28.679   4.923   6.703
  254XTA     H428359  28.829   5.053   6.559
  254XTA     H528360  29.021   4.976   6.365
  254XTA     H628361  29.183   4.940   6.177
  254XTA     H728362  29.508   5.069   6.419
  254XTA     H828363  29.357   5.106   6.601
  254XTA     H928364  29.120   5.182   6.829
  254XTA    H1028365  29.109   5.440   6.868
  254XTA    H1128366  28.964   5.501   6.480
  254XTA    H1228367  28.981   5.249   6.438
  254XTA    OA128368  28.757   4.743   6.892
  254XTA    CO128369  28.620   4.753   6.883
  254XTA    OA228370  29.426   4.974   6.179
  254XTA    CO228371  29.567   4.963   6.190
  254XTA    CL128372  29.635   4.961   6.051
  254XTA    CL228373  29.627   5.091   5.961
  254XTA    CL328374  29.700   5.051   5.822
  254XTA    CL428375  29.690   5.171   5.731
  254XTA    CO328376  29.750   5.143   5.594
  254XTA    OA328377  29.728   5.262   5.514
  254XTA    CO428378  29.759   5.245   5.375
  254XTA    CT128379  29.793   5.383   5.322
  254XTA    CL528380  29.817   5.381   5.163
  254XTA    CL628381  29.881   5.252   5.106
  254XTA    OA428382  29.035   5.623   6.709
  254XTA    CO528383  29.036   5.713   6.606
  254XTA    CL728384  29.084   5.854   6.653
  254XTA    CL828385  29.086   5.935   6.521
  254XTA    CL928386  29.138   6.081   6.540
  254XTA   CL1028387  29.028   6.183   6.565
  254XTA    CO628388  29.085   6.331   6.568
  254XTA    OA528389  29.165   6.376   6.458
  254XTA    CO728390  29.080   6.408   6.340
  254XTA    CT228391  29.163   6.443   6.216
  254XTA   CL1128392  29.244   6.318   6.173
  254XTA   CL1228393  29.368   6.293   6.249
  254XTA    HL128394  28.573   4.853   6.903
  254XTA    HL228395  28.577   4.724   6.786
  254XTA    HL328396  28.560   4.685   6.944
  254XTA    HL428397  29.610   5.050   6.243
  254XTA    HL528398  29.587   4.868   6.242
  254XTA    HL628399  29.592   4.869   6.008
  254XTA    HL728400  29.740   4.939   6.069
  254XTA    HL828401  29.675   5.166   6.023
  254XTA    HL928402  29.532   5.119   5.933
  254XTA   HL1028403  29.805   5.029   5.841
  254XTA   HL1128404  29.653   4.962   5.778
  254XTA   HL1228405  29.724   5.264   5.764
  254XTA   HL1328406  29.588   5.189   5.718
  254XTA   HL1428407  29.854   5.118   5.600
  254XTA   HL1528408  29.697   5.058   5.541
  254XTA   HL1628409  29.845   5.177   5.360
  254XTA   HL1728410  29.673   5.198   5.314
  254XTA   HL1828411  29.875   5.462   5.135
  254XTA   HL1928412  29.719   5.394   5.119
  254XTA   HL2028413  29.978   5.234   5.158
  254XTA   HL2128414  29.886   5.260   5.003
  254XTA   HL2228415  29.816   5.169   5.132
  254XTA   HL2328416  28.940   5.726   6.558
  254XTA   HL2428417  29.119   5.690   6.537
  254XTA   HL2528418  29.012   5.880   6.732
  254XTA   HL2628419  29.188   5.844   6.699
  254XTA   HL2728420  29.152   5.878   6.453
  254XTA   HL2828421  28.989   5.940   6.476
  254XTA   HL2928422  29.211   6.096   6.621
  254XTA   HL3028423  29.197   6.105   6.454
  254XTA   HL3128424  28.940   6.174   6.504
  254XTA   HL3228425  28.982   6.165   6.661
  254XTA   HL3328426  29.013   6.413   6.586
  254XTA   HL3428427  29.150   6.329   6.655
  254XTA   HL3528428  29.024   6.495   6.362
  254XTA   HL3628429  29.008   6.335   6.309
  254XTA   HL3728430  29.268   6.337   6.072
  254XTA   HL3828431  29.185   6.231   6.168
  254XTA   HL3928432  29.400   6.195   6.205
  254XTA   HL4028433  29.345   6.272   6.349
  254XTA   HL4128434  29.452   6.366   6.255
  254XTA    CO828435  29.910   5.444   5.392
  254XTA    CO928436  29.674   5.467   5.349
  254XTA    OA628437  29.927   5.583   5.368
  254XTA   HL4228438  30.004   5.396   5.357
  254XTA   HL4328439  29.913   5.425   5.498
  254XTA   HL4428440  29.325   6.551   6.310
  254XTA   HL4528441  29.307   6.581   6.143
  254XTA   CO1028442  29.251   6.568   6.234
  254XTA   CO1128443  29.054   6.478   6.105
  254XTA    OA728444  29.170   6.677   6.273
  254XTA   HL4628445  29.103   6.454   6.011
  254XTA   HL4728446  29.041   6.586   6.094
  254XTA   HL4828447  29.685   5.555   5.284
  254XTA   HL4928448  29.679   5.487   5.453
  255XTA     NT28449  23.960   5.803   3.697
  255XTA    CN128450  23.920   5.911   3.773
  255XTA     C128451  23.971   6.036   3.754
  255XTA     C228452  23.940   6.139   3.842
  255XTA     C328453  23.829   6.130   3.929
  255XTA     C428454  23.769   5.999   3.947
  255XTA     C528455  23.823   5.891   3.871
  255XTA    CN228456  24.070   5.722   3.733
  255XTA     C628457  24.168   5.697   3.635
  255XTA     C728458  24.278   5.620   3.663
  255XTA     C828459  24.301   5.580   3.800
  255XTA     C928460  24.206   5.608   3.899
  255XTA    C1028461  24.083   5.670   3.861
  255XTA    CN328462  23.877   5.758   3.606
  255XTA    C1128463  23.885   5.814   3.475
  255XTA    C1228464  23.786   5.787   3.381
  255XTA    C1328465  23.686   5.690   3.407
  255XTA    C1428466  23.685   5.627   3.530
  255XTA    C1528467  23.775   5.670   3.634
  255XTA     H128468  24.042   6.050   3.671
  255XTA     H228469  23.995   6.232   3.823
  255XTA     H328470  23.697   5.973   4.023
  255XTA     H428471  23.798   5.781   3.901
  255XTA     H528472  24.151   5.749   3.547
  255XTA     H628473  24.355   5.606   3.585
  255XTA     H728474  24.223   5.569   3.998
  255XTA     H828475  24.009   5.688   3.932
  255XTA     H928476  23.963   5.883   3.452
  255XTA    H1028477  23.799   5.834   3.284
  255XTA    H1128478  23.612   5.555   3.548
  255XTA    H1228479  23.773   5.616   3.729
  255XTA    OA128480  23.800   6.249   3.995
  255XTA    CO128481  23.679   6.233   4.071
  255XTA    OA228482  24.418   5.515   3.835
  255XTA    CO228483  24.502   5.565   3.941
  255XTA    CL128484  24.555   5.707   3.905
  255XTA    CL228485  24.625   5.774   4.020
  255XTA    CL328486  24.556   5.778   4.149
  255XTA    CL428487  24.621   5.859   4.262
  255XTA    CO328488  24.571   6.004   4.259
  255XTA    OA328489  24.591   6.055   4.132
  255XTA    CO428490  24.555   6.191   4.122
  255XTA    CT128491  24.579   6.242   3.970
  255XTA    CL528492  24.510   6.140   3.881
  255XTA    CL628493  24.364   6.115   3.914
  255XTA    OA428494  23.582   5.662   3.320
  255XTA    CO528495  23.610   5.699   3.191
  255XTA    CL728496  23.502   5.637   3.102
  255XTA    CL828497  23.491   5.488   3.110
  255XTA    CL928498  23.626   5.405   3.118
  255XTA   CL1028499  23.605   5.250   3.114
  255XTA    CO628500  23.735   5.176   3.089
  255XTA    OA528501  23.804   5.166   3.211
  255XTA    CO728502  23.784   5.040   3.281
  255XTA    CT228503  23.861   5.044   3.420
  255XTA   CL1128504  23.848   4.904   3.499
  255XTA   CL1228505  23.713   4.878   3.555
  255XTA    HL128506  23.672   6.326   4.132
  255XTA    HL228507  23.587   6.244   4.013
  255XTA    HL328508  23.674   6.148   4.131
  255XTA    HL428509  24.438   5.556   4.032
  255XTA    HL528510  24.573   5.486   3.957
  255XTA    HL628511  24.480   5.783   3.875
  255XTA    HL728512  24.615   5.692   3.815
  255XTA    HL828513  24.630   5.876   4.010
  255XTA    HL928514  24.729   5.736   4.031
  255XTA   HL1028515  24.451   5.810   4.134
  255XTA   HL1128516  24.538   5.674   4.182
  255XTA   HL1228517  24.733   5.860   4.270
  255XTA   HL1328518  24.591   5.806   4.354
  255XTA   HL1428519  24.463   6.019   4.286
  255XTA   HL1528520  24.625   6.064   4.330
  255XTA   HL1628521  24.449   6.213   4.156
  255XTA   HL1728522  24.612   6.251   4.191
  255XTA   HL1828523  24.564   6.042   3.891
  255XTA   HL1928524  24.505   6.163   3.771
  255XTA   HL2028525  24.324   6.036   3.850
  255XTA   HL2128526  24.292   6.195   3.891
  255XTA   HL2228527  24.349   6.093   4.021
  255XTA   HL2328528  23.702   5.667   3.143
  255XTA   HL2428529  23.604   5.807   3.183
  255XTA   HL2528530  23.398   5.674   3.113
  255XTA   HL2628531  23.531   5.656   2.998
  255XTA   HL2728532  23.427   5.461   3.187
  255XTA   HL2828533  23.456   5.450   3.018
  255XTA   HL2928534  23.688   5.442   3.028
  255XTA   HL3028535  23.670   5.426   3.210
  255XTA   HL3128536  23.560   5.222   3.207
  255XTA   HL3228537  23.535   5.227   3.034
  255XTA   HL3328538  23.722   5.072   3.058
  255XTA   HL3428539  23.807   5.219   3.017
  255XTA   HL3528540  23.813   4.950   3.223
  255XTA   HL3628541  23.679   5.030   3.294
  255XTA   HL3728542  23.926   4.881   3.574
  255XTA   HL3828543  23.873   4.831   3.418
  255XTA   HL3928544  23.632   4.894   3.482
  255XTA   HL4028545  23.687   4.955   3.631
  255XTA   HL4128546  23.708   4.776   3.600
  255XTA    CO828547  24.729   6.256   3.942
  255XTA    CO928548  24.516   6.378   3.945
  255XTA    OA628549  24.516   6.410   3.805
  255XTA   HL4228550  24.770   6.166   3.905
  255XTA   HL4328551  24.748   6.332   3.868
  255XTA   HL4428552  23.843   5.258   3.458
  255XTA   HL4528553  23.883   5.171   3.626
  255XTA   CO1028554  23.814   5.163   3.504
  255XTA   CO1128555  24.009   5.055   3.386
  255XTA    OA728556  24.060   5.072   3.484
  255XTA   HL4628557  24.037   4.962   3.340
  255XTA   HL4728558  24.023   5.133   3.313
  255XTA   HL4828559  24.570   6.454   4.014
  255XTA   HL4928560  24.418   6.372   3.989
  256XTA     NT28561  29.423  -0.659   6.629
  256XTA    CN128562  29.489  -0.567   6.552
  256XTA     C128563  29.562  -0.602   6.437
  256XTA     C228564  29.626  -0.499   6.362
  256XTA     C328565  29.622  -0.364   6.404
  256XTA     C428566  29.559  -0.335   6.522
  256XTA     C528567  29.489  -0.431   6.596
  256XTA    CN228568  29.313  -0.712   6.576
  256XTA     C628569  29.184  -0.668   6.621
  256XTA     C728570  29.077  -0.739   6.574
  256XTA     C828571  29.090  -0.844   6.486
  256XTA     C928572  29.214  -0.876   6.426
  256XTA    C1028573  29.327  -0.815   6.480
  256XTA    CN328574  29.456  -0.687   6.758
  256XTA    C1128575  29.375  -0.642   6.861
  256XTA    C1228576  29.405  -0.686   6.991
  256XTA    C1328577  29.517  -0.775   7.016
  256XTA    C1428578  29.604  -0.814   6.913
  256XTA    C1528579  29.571  -0.767   6.784
  256XTA     H128580  29.554  -0.708   6.399
  256XTA     H228581  29.663  -0.527   6.268
  256XTA     H328582  29.556  -0.230   6.555
  256XTA     H428583  29.429  -0.399   6.677
  256XTA     H528584  29.167  -0.586   6.684
  256XTA     H628585  28.982  -0.725   6.611
  256XTA     H728586  29.233  -0.962   6.359
  256XTA     H828587  29.424  -0.858   6.460
  256XTA     H928588  29.289  -0.575   6.853
  256XTA    H1028589  29.336  -0.651   7.066
  256XTA    H1128590  29.693  -0.873   6.933
  256XTA    H1228591  29.642  -0.799   6.711
  256XTA    OA128592  29.674  -0.272   6.317
  256XTA    CO128593  29.658  -0.132   6.357
  256XTA    OA228594  28.969  -0.904   6.447
  256XTA    CO228595  28.971  -1.042   6.413
  256XTA    CL128596  28.836  -1.102   6.379
  256XTA    CL228597  28.754  -1.008   6.289
  256XTA    CL328598  28.781  -1.037   6.137
  256XTA    CL428599  28.917  -0.970   6.078
  256XTA    CO328600  28.928  -0.823   6.110
  256XTA    OA328601  29.038  -0.793   6.029
  256XTA    CO428602  29.079  -0.657   6.050
  256XTA    CT128603  29.227  -0.619   6.007
  256XTA    CL528604  29.321  -0.690   6.108
  256XTA    CL628605  29.470  -0.657   6.064
  256XTA    OA428606  29.546  -0.812   7.143
  256XTA    CO528607  29.443  -0.828   7.235
  256XTA    CL728608  29.503  -0.920   7.356
  256XTA    CL828609  29.400  -0.964   7.459
  256XTA    CL928610  29.363  -0.873   7.569
  256XTA   CL1028611  29.273  -0.940   7.665
  256XTA    CO628612  29.196  -0.838   7.758
  256XTA    OA528613  29.282  -0.754   7.833
  256XTA    CO728614  29.217  -0.654   7.914
  256XTA    CT228615  29.319  -0.547   7.958
  256XTA   CL1128616  29.446  -0.610   8.006
  256XTA   CL1228617  29.448  -0.714   8.115
  256XTA    HL128618  29.699  -0.109   6.454
  256XTA    HL228619  29.713  -0.062   6.294
  256XTA    HL328620  29.555  -0.122   6.353
  256XTA    HL428621  29.035  -1.056   6.329
  256XTA    HL528622  29.019  -1.096   6.500
  256XTA    HL628623  28.783  -1.101   6.479
  256XTA    HL728624  28.851  -1.197   6.345
  256XTA    HL828625  28.774  -0.903   6.312
  256XTA    HL928626  28.654  -1.019   6.311
  256XTA   HL1028627  28.790  -1.145   6.115
  256XTA   HL1128628  28.704  -1.004   6.075
  256XTA   HL1228629  28.919  -0.989   5.970
  256XTA   HL1328630  29.005  -1.026   6.114
  256XTA   HL1428631  28.830  -0.774   6.075
  256XTA   HL1528632  28.942  -0.818   6.219
  256XTA   HL1628633  29.019  -0.600   5.981
  256XTA   HL1728634  29.057  -0.632   6.156
  256XTA   HL1828635  29.306  -0.798   6.117
  256XTA   HL1928636  29.305  -0.636   6.200
  256XTA   HL2028637  29.481  -0.556   6.082
  256XTA   HL2128638  29.497  -0.683   5.958
  256XTA   HL2228639  29.533  -0.708   6.134
  256XTA   HL2328640  29.348  -0.875   7.201
  256XTA   HL2428641  29.430  -0.724   7.272
  256XTA   HL2528642  29.538  -1.016   7.298
  256XTA   HL2628643  29.600  -0.888   7.402
  256XTA   HL2728644  29.311  -0.998   7.400
  256XTA   HL2828645  29.450  -1.050   7.507
  256XTA   HL2928646  29.452  -0.843   7.626
  256XTA   HL3028647  29.320  -0.786   7.521
  256XTA   HL3128648  29.202  -1.012   7.625
  256XTA   HL3228649  29.331  -0.996   7.746
  256XTA   HL3328650  29.125  -0.773   7.694
  256XTA   HL3428651  29.137  -0.892   7.833
  256XTA   HL3528652  29.183  -0.709   8.004
  256XTA   HL3628653  29.136  -0.606   7.863
  256XTA   HL3728654  29.492  -0.517   8.040
  256XTA   HL3828655  29.506  -0.636   7.922
  256XTA   HL3928656  29.400  -0.808   8.076
  256XTA   HL4028657  29.393  -0.692   8.204
  256XTA   HL4128658  29.552  -0.726   8.149
  256XTA    CO828659  29.233  -0.468   5.988
  256XTA    CO928660  29.243  -0.680   5.861
  256XTA    OA628661  29.248  -0.820   5.851
  256XTA   HL4228662  29.332  -0.434   5.960
  256XTA   HL4328663  29.164  -0.431   5.912
  256XTA   HL4428664  29.255  -0.502   8.165
  256XTA   HL4528665  29.339  -0.371   8.092
  256XTA   CO1028666  29.262  -0.447   8.069
  256XTA   CO1128667  29.339  -0.454   7.838
  256XTA    OA728668  29.163  -0.408   8.044
  256XTA   HL4628669  29.398  -0.531   7.733
  256XTA   HL4728670  29.241  -0.434   7.799
  256XTA   HL4828671  29.333  -0.626   5.820
  256XTA   HL4928672  29.150  -0.641   5.813
  257XTA     NT28673  29.601  -1.790  -1.109
  257XTA    CN128674  29.561  -1.751  -1.232
  257XTA     C128675  29.443  -1.813  -1.284
  257XTA     C228676  29.382  -1.768  -1.403
  257XTA     C328677  29.457  -1.692  -1.492
  257XTA     C428678  29.586  -1.643  -1.448
  257XTA     C528679  29.635  -1.669  -1.315
  257XTA    CN228680  29.678  -1.900  -1.089
  257XTA     C628681  29.674  -2.009  -1.183
  257XTA     C728682  29.756  -2.121  -1.167
  257XTA     C828683  29.846  -2.127  -1.056
  257XTA     C928684  29.843  -2.024  -0.962
  257XTA    C1028685  29.766  -1.912  -0.983
  257XTA    CN328686  29.550  -1.727  -0.998
  257XTA    C1128687  29.564  -1.590  -0.991
  257XTA    C1228688  29.507  -1.515  -0.884
  257XTA    C1328689  29.445  -1.586  -0.781
  257XTA    C1428690  29.435  -1.732  -0.784
  257XTA    C1528691  29.479  -1.799  -0.897
  257XTA     H128692  29.388  -1.884  -1.219
  257XTA     H228693  29.282  -1.793  -1.430
  257XTA     H328694  29.631  -1.561  -1.507
  257XTA     H428695  29.722  -1.623  -1.269
  257XTA     H528696  29.608  -2.010  -1.268
  257XTA     H628697  29.739  -2.202  -1.229
  257XTA     H728698  29.899  -2.030  -0.877
  257XTA     H828699  29.770  -1.835  -0.910
  257XTA     H928700  29.608  -1.522  -1.062
  257XTA    H1028701  29.528  -1.413  -0.882
  257XTA    H1128702  29.389  -1.783  -0.698
  257XTA    H1228703  29.457  -1.908  -0.901
  257XTA    OA128704  29.411  -1.669  -1.619
  257XTA    CO128705  29.523  -1.640  -1.708
  257XTA    OA228706  29.942  -2.219  -1.028
  257XTA    CO228707  29.930  -2.350  -1.075
  257XTA    CL128708  30.048  -2.430  -1.026
  257XTA    CL228709  30.046  -2.450  -0.876
  257XTA    CL328710  30.168  -2.537  -0.841
  257XTA    CL428711  30.150  -2.603  -0.703
  257XTA    CO328712  30.274  -2.686  -0.649
  257XTA    OA328713  30.358  -2.596  -0.586
  257XTA    CO428714  30.496  -2.621  -0.602
  257XTA    CT128715  30.582  -2.527  -0.518
  257XTA    CL528716  30.735  -2.577  -0.535
  257XTA    CL628717  30.826  -2.509  -0.641
  257XTA    OA428718  29.382  -1.521  -0.670
  257XTA    CO528719  29.309  -1.406  -0.724
  257XTA    CL728720  29.178  -1.396  -0.656
  257XTA    CL828721  29.092  -1.523  -0.684
  257XTA    CL928722  29.118  -1.621  -0.568
  257XTA   CL1028723  29.014  -1.735  -0.554
  257XTA    CO628724  29.024  -1.830  -0.439
  257XTA    OA528725  29.154  -1.889  -0.455
  257XTA    CO728726  29.190  -1.956  -0.333
  257XTA    CT228727  29.318  -2.032  -0.329
  257XTA   CL1128728  29.302  -2.158  -0.419
  257XTA   CL1228729  29.314  -2.142  -0.569
  257XTA    HL128730  29.487  -1.646  -1.807
  257XTA    HL228731  29.542  -1.531  -1.693
  257XTA    HL328732  29.611  -1.706  -1.708
  257XTA    HL428733  29.835  -2.396  -1.052
  257XTA    HL528734  29.932  -2.340  -1.188
  257XTA    HL628735  30.142  -2.381  -1.055
  257XTA    HL728736  30.043  -2.529  -1.072
  257XTA    HL828737  29.955  -2.505  -0.843
  257XTA    HL928738  30.052  -2.357  -0.822
  257XTA   HL1028739  30.187  -2.612  -0.917
  257XTA   HL1128740  30.254  -2.472  -0.845
  257XTA   HL1228741  30.063  -2.668  -0.705
  257XTA   HL1328742  30.127  -2.522  -0.628
  257XTA   HL1428743  30.239  -2.757  -0.574
  257XTA   HL1528744  30.333  -2.743  -0.729
  257XTA   HL1628745  30.506  -2.727  -0.569
  257XTA   HL1728746  30.521  -2.603  -0.707
  257XTA   HL1828747  30.732  -2.683  -0.566
  257XTA   HL1928748  30.786  -2.560  -0.439
  257XTA   HL2028749  30.819  -2.403  -0.630
  257XTA   HL2128750  30.795  -2.551  -0.740
  257XTA   HL2228751  30.929  -2.540  -0.632
  257XTA   HL2328752  29.286  -1.410  -0.829
  257XTA   HL2428753  29.354  -1.314  -0.700
  257XTA   HL2528754  29.176  -1.380  -0.554
  257XTA   HL2628755  29.127  -1.309  -0.700
  257XTA   HL2728756  28.985  -1.497  -0.688
  257XTA   HL2828757  29.108  -1.569  -0.783
  257XTA   HL2928758  29.219  -1.662  -0.554
  257XTA   HL3028759  29.106  -1.574  -0.473
  257XTA   HL3128760  28.911  -1.695  -0.565
  257XTA   HL3228761  29.030  -1.807  -0.631
  257XTA   HL3328762  29.020  -1.781  -0.345
  257XTA   HL3428763  28.950  -1.915  -0.441
  257XTA   HL3528764  29.109  -2.024  -0.301
  257XTA   HL3628765  29.200  -1.878  -0.254
  257XTA   HL3728766  29.208  -2.209  -0.403
  257XTA   HL3828767  29.380  -2.223  -0.394
  257XTA   HL3928768  29.243  -2.074  -0.609
  257XTA   HL4028769  29.295  -2.233  -0.615
  257XTA   HL4128770  29.423  -2.119  -0.601
  257XTA    CO828771  30.549  -2.525  -0.365
  257XTA    CO928772  30.565  -2.383  -0.573
  257XTA    OA628773  30.467  -2.337  -0.550
  257XTA   HL4228774  30.620  -2.453  -0.319
  257XTA   HL4328775  30.418  -2.476  -0.336
  257XTA   HL4428776  29.426  -2.119  -0.170
  257XTA   HL4528777  29.330  -1.983  -0.123
  257XTA   CO1028778  29.331  -2.076  -0.182
  257XTA   CO1128779  29.426  -1.937  -0.372
  257XTA    OA728780  29.254  -2.144  -0.146
  257XTA   HL4628781  29.545  -1.997  -0.394
  257XTA   HL4728782  29.397  -1.902  -0.469
  257XTA   HL4828783  30.576  -2.388  -0.685
  257XTA   HL4928784  30.641  -2.318  -0.534
  258XTA     NT28785  32.462   5.704   1.313
  258XTA    CN128786  32.560   5.745   1.227
  258XTA     C128787  32.653   5.649   1.175
  258XTA     C228788  32.748   5.681   1.073
  258XTA     C328789  32.761   5.814   1.033
  258XTA     C428790  32.679   5.913   1.096
  258XTA     C528791  32.580   5.879   1.189
  258XTA    CN228792  32.484   5.650   1.436
  258XTA     C628793  32.428   5.526   1.478
  258XTA     C728794  32.467   5.466   1.602
  258XTA     C828795  32.556   5.530   1.686
  258XTA     C928796  32.615   5.654   1.647
  258XTA    C1028797  32.579   5.718   1.524
  258XTA    CN328798  32.326   5.721   1.275
  258XTA    C1128799  32.264   5.847   1.287
  258XTA    C1228800  32.123   5.847   1.264
  258XTA    C1328801  32.051   5.731   1.227
  258XTA    C1428802  32.121   5.610   1.200
  258XTA    C1528803  32.264   5.607   1.225
  258XTA     H128804  32.637   5.548   1.225
  258XTA     H228805  32.818   5.608   1.037
  258XTA     H328806  32.686   6.020   1.061
  258XTA     H428807  32.511   5.953   1.221
  258XTA     H528808  32.356   5.474   1.414
  258XTA     H628809  32.433   5.369   1.634
  258XTA     H728810  32.684   5.700   1.718
  258XTA     H828811  32.632   5.806   1.491
  258XTA     H928812  32.318   5.940   1.306
  258XTA    H1028813  32.071   5.941   1.275
  258XTA    H1128814  32.082   5.512   1.176
  258XTA    H1228815  32.313   5.514   1.200
  258XTA    OA128816  32.852   5.861   0.949
  258XTA    CO128817  32.847   5.784   0.827
  258XTA    OA228818  32.612   5.477   1.798
  258XTA    CO228819  32.600   5.337   1.821
  258XTA    CL128820  32.723   5.296   1.909
  258XTA    CL228821  32.749   5.140   1.908
  258XTA    CL328822  32.883   5.098   1.968
  258XTA    CL428823  32.889   5.119   2.114
  258XTA    CO328824  32.804   5.023   2.195
  258XTA    OA328825  32.813   5.049   2.338
  258XTA    CO428826  32.713   4.980   2.407
  258XTA    CT128827  32.697   5.027   2.552
  258XTA    CL528828  32.836   5.052   2.619
  258XTA    CL628829  32.919   4.933   2.655
  258XTA    OA428830  31.913   5.745   1.205
  258XTA    CO528831  31.831   5.635   1.233
  258XTA    CL728832  31.689   5.692   1.255
  258XTA    CL828833  31.584   5.593   1.226
  258XTA    CL928834  31.592   5.453   1.295
  258XTA   CL1028835  31.592   5.467   1.451
  258XTA    CO628836  31.656   5.348   1.507
  258XTA    OA528837  31.572   5.243   1.471
  258XTA    CO728838  31.625   5.109   1.487
  258XTA    CT228839  31.530   4.995   1.428
  258XTA   CL1128840  31.393   5.010   1.493
  258XTA   CL1228841  31.289   4.912   1.445
  258XTA    HL128842  32.940   5.803   0.774
  258XTA    HL228843  32.820   5.681   0.840
  258XTA    HL328844  32.770   5.834   0.767
  258XTA    HL428845  32.517   5.315   1.884
  258XTA    HL528846  32.588   5.284   1.728
  258XTA    HL628847  32.693   5.324   2.009
  258XTA    HL728848  32.809   5.357   1.879
  258XTA    HL828849  32.739   5.108   1.799
  258XTA    HL928850  32.664   5.099   1.960
  258XTA   HL1028851  32.898   4.998   1.949
  258XTA   HL1128852  32.962   5.158   1.913
  258XTA   HL1228853  32.877   5.220   2.150
  258XTA   HL1328854  32.997   5.098   2.131
  258XTA   HL1428855  32.699   5.034   2.162
  258XTA   HL1528856  32.831   4.921   2.179
  258XTA   HL1628857  32.615   4.978   2.358
  258XTA   HL1728858  32.746   4.874   2.408
  258XTA   HL1828859  32.808   5.103   2.716
  258XTA   HL1928860  32.894   5.127   2.567
  258XTA   HL2028861  32.857   4.865   2.716
  258XTA   HL2128862  33.000   4.970   2.716
  258XTA   HL2228863  32.955   4.877   2.561
  258XTA   HL2328864  31.849   5.585   1.329
  258XTA   HL2428865  31.839   5.565   1.150
  258XTA   HL2528866  31.672   5.730   1.358
  258XTA   HL2628867  31.668   5.768   1.182
  258XTA   HL2728868  31.486   5.635   1.254
  258XTA   HL2828869  31.595   5.566   1.121
  258XTA   HL2928870  31.510   5.395   1.255
  258XTA   HL3028871  31.681   5.401   1.268
  258XTA   HL3128872  31.628   5.561   1.480
  258XTA   HL3228873  31.495   5.473   1.494
  258XTA   HL3328874  31.755   5.334   1.467
  258XTA   HL3428875  31.681   5.346   1.615
  258XTA   HL3528876  31.631   5.093   1.594
  258XTA   HL3628877  31.717   5.100   1.429
  258XTA   HL3728878  31.358   5.107   1.469
  258XTA   HL3828879  31.388   4.998   1.605
  258XTA   HL3928880  31.312   4.804   1.450
  258XTA   HL4028881  31.268   4.926   1.343
  258XTA   HL4128882  31.194   4.926   1.496
  258XTA    CO828883  32.600   4.927   2.618
  258XTA    CO928884  32.629   5.165   2.541
  258XTA    OA628885  32.473   4.931   2.554
  258XTA   HL4228886  32.575   4.962   2.720
  258XTA   HL4328887  32.633   4.827   2.615
  258XTA   HL4428888  31.687   4.805   1.365
  258XTA   HL4528889  31.523   4.777   1.473
  258XTA   CO1028890  31.602   4.856   1.467
  258XTA   CO1128891  31.518   5.003   1.274
  258XTA    OA728892  31.616   5.001   1.226
  258XTA   HL4628893  31.462   4.919   1.231
  258XTA   HL4728894  31.464   5.098   1.244
  258XTA   HL4828895  32.536   5.162   2.483
  258XTA   HL4928896  32.594   5.199   2.636
  259XTA     NT28897  27.458  -0.698   0.688
  259XTA    CN128898  27.355  -0.724   0.603
  259XTA     C128899  27.288  -0.845   0.616
  259XTA     C228900  27.179  -0.867   0.533
  259XTA     C328901  27.138  -0.772   0.435
  259XTA     C428902  27.210  -0.649   0.428
  259XTA     C528903  27.317  -0.621   0.509
  259XTA    CN228904  27.461  -0.582   0.751
  259XTA     C628905  27.385  -0.568   0.869
  259XTA     C728906  27.396  -0.439   0.932
  259XTA     C828907  27.462  -0.331   0.874
  259XTA     C928908  27.545  -0.353   0.761
  259XTA    C1028909  27.548  -0.483   0.708
  259XTA    CN328910  27.567  -0.776   0.690
  259XTA    C1128911  27.636  -0.791   0.570
  259XTA    C1228912  27.765  -0.849   0.566
  259XTA    C1328913  27.815  -0.911   0.684
  259XTA    C1428914  27.747  -0.889   0.809
  259XTA    C1528915  27.627  -0.808   0.814
  259XTA     H128916  27.321  -0.925   0.684
  259XTA     H228917  27.129  -0.964   0.552
  259XTA     H328918  27.177  -0.565   0.361
  259XTA     H428919  27.359  -0.523   0.512
  259XTA     H528920  27.325  -0.648   0.913
  259XTA     H628921  27.366  -0.427   1.037
  259XTA     H728922  27.585  -0.267   0.712
  259XTA     H828923  27.621  -0.503   0.629
  259XTA     H928924  27.601  -0.748   0.480
  259XTA    H1028925  27.821  -0.858   0.474
  259XTA    H1128926  27.792  -0.929   0.898
  259XTA    H1228927  27.585  -0.769   0.904
  259XTA    OA128928  27.035  -0.814   0.354
  259XTA    CO128929  27.014  -0.741   0.231
  259XTA    OA228930  27.454  -0.215   0.946
  259XTA    CO228931  27.486  -0.082   0.891
  259XTA    CL128932  27.353  -0.014   0.847
  259XTA    CL228933  27.251  -0.020   0.962
  259XTA    CL328934  27.109   0.031   0.918
  259XTA    CL428935  27.005   0.051   1.025
  259XTA    CO328936  27.055   0.150   1.127
  259XTA    OA328937  26.954   0.154   1.220
  259XTA    CO428938  26.984   0.227   1.340
  259XTA    CT128939  26.858   0.243   1.423
  259XTA    CL528940  26.764   0.351   1.359
  259XTA    CL628941  26.636   0.372   1.433
  259XTA    OA428942  27.923  -0.997   0.678
  259XTA    CO528943  27.895  -1.135   0.712
  259XTA    CL728944  28.023  -1.218   0.745
  259XTA    CL828945  28.082  -1.190   0.886
  259XTA    CL928946  28.106  -1.038   0.915
  259XTA   CL1028947  28.213  -0.988   0.820
  259XTA    CO628948  28.234  -0.832   0.822
  259XTA    OA528949  28.298  -0.790   0.705
  259XTA    CO728950  28.209  -0.786   0.589
  259XTA    CT228951  28.278  -0.740   0.462
  259XTA   CL1128952  28.184  -0.680   0.346
  259XTA   CL1228953  28.072  -0.777   0.315
  259XTA    HL128954  26.985  -0.644   0.272
  259XTA    HL228955  27.098  -0.742   0.169
  259XTA    HL328956  26.925  -0.782   0.183
  259XTA    HL428957  27.518  -0.023   0.972
  259XTA    HL528958  27.566  -0.071   0.816
  259XTA    HL628959  27.314  -0.068   0.760
  259XTA    HL728960  27.369   0.087   0.823
  259XTA    HL828961  27.283   0.031   1.055
  259XTA    HL928962  27.240  -0.122   1.003
  259XTA   HL1028963  27.115   0.127   0.879
  259XTA   HL1128964  27.063  -0.022   0.834
  259XTA   HL1228965  26.989  -0.047   1.074
  259XTA   HL1328966  26.907   0.082   0.984
  259XTA   HL1428967  27.159   0.132   1.165
  259XTA   HL1528968  27.061   0.248   1.082
  259XTA   HL1628969  27.067   0.173   1.388
  259XTA   HL1728970  27.029   0.324   1.316
  259XTA   HL1828971  26.741   0.318   1.263
  259XTA   HL1928972  26.813   0.448   1.349
  259XTA   HL2028973  26.573   0.285   1.426
  259XTA   HL2128974  26.572   0.449   1.396
  259XTA   HL2228975  26.635   0.397   1.537
  259XTA   HL2328976  27.844  -1.195   0.634
  259XTA   HL2428977  27.837  -1.138   0.804
  259XTA   HL2528978  27.995  -1.322   0.733
  259XTA   HL2628979  28.095  -1.202   0.665
  259XTA   HL2728980  28.015  -1.224   0.972
  259XTA   HL2828981  28.179  -1.246   0.894
  259XTA   HL2928982  28.013  -0.980   0.919
  259XTA   HL3028983  28.155  -1.026   1.018
  259XTA   HL3128984  28.305  -1.041   0.837
  259XTA   HL3228985  28.175  -1.016   0.728
  259XTA   HL3328986  28.141  -0.780   0.842
  259XTA   HL3428987  28.294  -0.804   0.905
  259XTA   HL3528988  28.146  -0.703   0.618
  259XTA   HL3628989  28.150  -0.873   0.584
  259XTA   HL3728990  28.237  -0.650   0.250
  259XTA   HL3828991  28.152  -0.581   0.385
  259XTA   HL3928992  28.105  -0.880   0.291
  259XTA   HL4028993  28.020  -0.758   0.222
  259XTA   HL4128994  28.002  -0.783   0.392
  259XTA    CO828995  26.911   0.287   1.561
  259XTA    CO928996  26.784   0.109   1.442
  259XTA    OA628997  26.745   0.079   1.344
  259XTA   HL4228998  26.947   0.200   1.620
  259XTA   HL4328999  26.815   0.341   1.647
  259XTA   HL4429000  28.300  -0.947   0.410
  259XTA   HL4529001  28.472  -0.892   0.497
  259XTA   CO1029002  28.364  -0.862   0.411
  259XTA   CO1129003  28.381  -0.627   0.503
  259XTA    OA729004  28.324  -0.537   0.533
  259XTA   HL4629005  28.457  -0.674   0.575
  259XTA   HL4729006  28.429  -0.608   0.411
  259XTA   HL4829007  26.712   0.127   1.527
  259XTA   HL4929008  26.859   0.033   1.472
  260XTA     NT29009  30.271  -2.130   3.079
  260XTA    CN129010  30.163  -2.203   3.046
  260XTA     C129011  30.042  -2.137   3.027
  260XTA     C229012  29.930  -2.208   2.981
  260XTA     C329013  29.936  -2.347   2.969
  260XTA     C429014  30.058  -2.418   2.998
  260XTA     C529015  30.163  -2.341   3.050
  260XTA    CN229016  30.292  -2.104   3.207
  260XTA     C629017  30.208  -2.009   3.273
  260XTA     C729018  30.235  -1.969   3.404
  260XTA     C829019  30.332  -2.037   3.483
  260XTA     C929020  30.419  -2.123   3.417
  260XTA    C1029021  30.397  -2.162   3.283
  260XTA    CN329022  30.353  -2.082   2.983
  260XTA    C1129023  30.448  -2.165   2.919
  260XTA    C1229024  30.521  -2.112   2.810
  260XTA    C1329025  30.509  -1.983   2.769
  260XTA    C1429026  30.405  -1.900   2.821
  260XTA    C1529027  30.331  -1.947   2.927
  260XTA     H129028  30.028  -2.034   3.046
  260XTA     H229029  29.839  -2.157   2.961
  260XTA     H329030  30.069  -2.527   2.998
  260XTA     H429031  30.250  -2.397   3.077
  260XTA     H529032  30.118  -1.980   3.223
  260XTA     H629033  30.150  -1.918   3.451
  260XTA     H729034  30.499  -2.159   3.481
  260XTA     H829035  30.476  -2.224   3.254
  260XTA     H929036  30.473  -2.262   2.948
  260XTA    H1029037  30.598  -2.179   2.768
  260XTA    H1129038  30.380  -1.801   2.777
  260XTA    H1229039  30.244  -1.889   2.962
  260XTA    OA129040  29.812  -2.400   2.952
  260XTA    CO129041  29.809  -2.542   2.947
  260XTA    OA229042  30.333  -2.023   3.619
  260XTA    CO229043  30.422  -2.102   3.700
  260XTA    CL129044  30.397  -2.051   3.845
  260XTA    CL229045  30.486  -2.118   3.948
  260XTA    CL329046  30.622  -2.054   3.954
  260XTA    CL429047  30.728  -2.147   3.891
  260XTA    CO329048  30.857  -2.074   3.847
  260XTA    OA329049  30.841  -2.032   3.717
  260XTA    CO429050  30.785  -1.898   3.714
  260XTA    CT129051  30.788  -1.840   3.575
  260XTA    CL529052  30.764  -1.681   3.587
  260XTA    CL629053  30.857  -1.607   3.680
  260XTA    OA429054  30.578  -1.951   2.657
  260XTA    CO529055  30.545  -1.828   2.595
  260XTA    CL729056  30.641  -1.803   2.473
  260XTA    CL829057  30.656  -1.932   2.377
  260XTA    CL929058  30.740  -1.877   2.263
  260XTA   CL1029059  30.890  -1.926   2.259
  260XTA    CO629060  30.974  -1.856   2.358
  260XTA    OA529061  31.104  -1.907   2.374
  260XTA    CO729062  31.101  -2.004   2.478
  260XTA    CT229063  31.244  -2.064   2.504
  260XTA   CL1129064  31.336  -1.952   2.553
  260XTA   CL1229065  31.479  -1.998   2.577
  260XTA    HL129066  29.707  -2.566   2.905
  260XTA    HL229067  29.889  -2.574   2.879
  260XTA    HL329068  29.833  -2.578   3.046
  260XTA    HL429069  30.409  -2.209   3.699
  260XTA    HL529070  30.526  -2.078   3.676
  260XTA    HL629071  30.291  -2.068   3.869
  260XTA    HL729072  30.417  -1.947   3.840
  260XTA    HL829073  30.496  -2.223   3.913
  260XTA    HL929074  30.435  -2.118   4.049
  260XTA   HL1029075  30.615  -1.953   3.912
  260XTA   HL1129076  30.640  -2.035   4.061
  260XTA   HL1229077  30.676  -2.194   3.803
  260XTA   HL1329078  30.748  -2.214   3.976
  260XTA   HL1429079  30.870  -1.993   3.922
  260XTA   HL1529080  30.944  -2.138   3.853
  260XTA   HL1629081  30.677  -1.912   3.730
  260XTA   HL1729082  30.839  -1.837   3.786
  260XTA   HL1829083  30.661  -1.663   3.616
  260XTA   HL1929084  30.763  -1.637   3.489
  260XTA   HL2029085  30.856  -1.497   3.652
  260XTA   HL2129086  30.958  -1.648   3.678
  260XTA   HL2229087  30.822  -1.613   3.789
  260XTA   HL2329088  30.557  -1.740   2.666
  260XTA   HL2429089  30.437  -1.833   2.564
  260XTA   HL2529090  30.611  -1.716   2.413
  260XTA   HL2629091  30.742  -1.786   2.501
  260XTA   HL2729092  30.713  -2.013   2.417
  260XTA   HL2829093  30.561  -1.973   2.345
  260XTA   HL2929094  30.698  -1.922   2.169
  260XTA   HL3029095  30.743  -1.769   2.255
  260XTA   HL3129096  30.899  -2.036   2.296
  260XTA   HL3229097  30.934  -1.908   2.158
  260XTA   HL3329098  30.973  -1.749   2.326
  260XTA   HL3429099  30.923  -1.866   2.447
  260XTA   HL3529100  31.020  -2.079   2.470
  260XTA   HL3629101  31.081  -1.954   2.574
  260XTA   HL3729102  31.301  -1.916   2.652
  260XTA   HL3829103  31.343  -1.862   2.491
  260XTA   HL3929104  31.535  -1.918   2.627
  260XTA   HL4029105  31.536  -2.025   2.485
  260XTA   HL4129106  31.489  -2.082   2.649
  260XTA    CO829107  30.675  -1.890   3.485
  260XTA    CO929108  30.913  -1.870   3.494
  260XTA    OA629109  31.007  -1.865   3.557
  260XTA   HL4229110  30.696  -1.992   3.450
  260XTA   HL4329111  30.547  -1.886   3.549
  260XTA   HL4429112  31.316  -2.034   2.301
  260XTA   HL4529113  31.392  -2.171   2.386
  260XTA   CO1029114  31.302  -2.123   2.365
  260XTA   CO1129115  31.244  -2.184   2.606
  260XTA    OA729116  31.235  -2.206   2.326
  260XTA   HL4629117  31.178  -2.296   2.557
  260XTA   HL4729118  31.341  -2.217   2.636
  260XTA   HL4829119  30.900  -1.824   3.392
  260XTA   HL4929120  30.904  -1.970   3.476
  261XTA     NT29121  26.993  -2.274   5.924
  261XTA    CN129122  26.936  -2.375   5.996
  261XTA     C129123  26.812  -2.362   6.055
  261XTA     C229124  26.747  -2.467   6.128
  261XTA     C329125  26.820  -2.584   6.137
  261XTA     C429126  26.948  -2.603   6.083
  261XTA     C529127  27.007  -2.497   6.013
  261XTA    CN229128  27.122  -2.233   5.966
  261XTA     C629129  27.224  -2.206   5.874
  261XTA     C729130  27.356  -2.178   5.916
  261XTA     C829131  27.388  -2.183   6.055
  261XTA     C929132  27.289  -2.225   6.150
  261XTA    C1029133  27.155  -2.251   6.108
  261XTA    CN329134  26.945  -2.234   5.809
  261XTA    C1129135  26.895  -2.323   5.715
  261XTA    C1229136  26.832  -2.275   5.596
  261XTA    C1329137  26.842  -2.140   5.559
  261XTA    C1429138  26.885  -2.053   5.663
  261XTA    C1529139  26.940  -2.096   5.782
  261XTA     H129140  26.761  -2.277   6.053
  261XTA     H229141  26.658  -2.446   6.184
  261XTA     H329142  26.998  -2.697   6.093
  261XTA     H429143  27.106  -2.524   5.977
  261XTA     H529144  27.198  -2.186   5.769
  261XTA     H629145  27.416  -2.141   5.836
  261XTA     H729146  27.319  -2.231   6.250
  261XTA     H829147  27.073  -2.288   6.169
  261XTA     H929148  26.916  -2.429   5.741
  261XTA    H1029149  26.794  -2.347   5.525
  261XTA    H1129150  26.882  -1.945   5.627
  261XTA    H1229151  26.995  -2.025   5.851
  261XTA    OA129152  26.780  -2.687   6.214
  261XTA    CO129153  26.670  -2.671   6.303
  261XTA    OA229154  27.505  -2.131   6.102
  261XTA    CO229155  27.608  -2.094   6.012
  261XTA    CL129156  27.683  -2.214   5.953
  261XTA    CL229157  27.833  -2.192   5.924
  261XTA    CL329158  27.897  -2.332   5.894
  261XTA    CL429159  28.048  -2.310   5.862
  261XTA    CO329160  28.116  -2.429   5.790
  261XTA    OA329161  28.060  -2.449   5.659
  261XTA    CO429162  28.160  -2.523   5.585
  261XTA    CT129163  28.090  -2.545   5.450
  261XTA    CL529164  28.080  -2.406   5.379
  261XTA    CL629165  27.995  -2.411   5.248
  261XTA    OA429166  26.803  -2.088   5.440
  261XTA    CO529167  26.789  -2.192   5.341
  261XTA    CL729168  26.919  -2.257   5.295
  261XTA    CL829169  26.895  -2.378   5.195
  261XTA    CL929170  27.011  -2.470   5.180
  261XTA   CL1029171  27.020  -2.551   5.311
  261XTA    CO629172  27.116  -2.662   5.309
  261XTA    OA529173  27.144  -2.748   5.421
  261XTA    CO729174  27.028  -2.822   5.470
  261XTA    CT229175  27.073  -2.897   5.597
  261XTA   CL1129176  27.149  -2.805   5.693
  261XTA   CL1229177  27.078  -2.673   5.726
  261XTA    HL129178  26.674  -2.587   6.369
  261XTA    HL229179  26.579  -2.646   6.255
  261XTA    HL329180  26.657  -2.762   6.373
  261XTA    HL429181  27.578  -2.018   5.942
  261XTA    HL529182  27.685  -2.039   6.069
  261XTA    HL629183  27.634  -2.250   5.853
  261XTA    HL729184  27.683  -2.301   6.016
  261XTA    HL829185  27.887  -2.146   6.003
  261XTA    HL929186  27.830  -2.116   5.842
  261XTA   HL1029187  27.883  -2.395   5.977
  261XTA   HL1129188  27.838  -2.384   5.824
  261XTA   HL1229189  28.103  -2.285   5.956
  261XTA   HL1329190  28.060  -2.231   5.791
  261XTA   HL1429191  28.216  -2.383   5.765
  261XTA   HL1529192  28.122  -2.519   5.854
  261XTA   HL1629193  28.258  -2.463   5.570
  261XTA   HL1729194  28.201  -2.618   5.633
  261XTA   HL1829195  28.183  -2.363   5.361
  261XTA   HL1929196  28.042  -2.332   5.451
  261XTA   HL2029197  27.998  -2.312   5.211
  261XTA   HL2129198  27.889  -2.416   5.276
  261XTA   HL2229199  28.029  -2.477   5.177
  261XTA   HL2329200  26.742  -2.143   5.256
  261XTA   HL2429201  26.714  -2.270   5.363
  261XTA   HL2529202  26.978  -2.190   5.241
  261XTA   HL2629203  26.977  -2.295   5.375
  261XTA   HL2729204  26.801  -2.425   5.229
  261XTA   HL2829205  26.876  -2.342   5.085
  261XTA   HL2929206  27.001  -2.536   5.095
  261XTA   HL3029207  27.104  -2.420   5.178
  261XTA   HL3129208  27.049  -2.485   5.391
  261XTA   HL3229209  26.931  -2.595   5.350
  261XTA   HL3329210  27.085  -2.732   5.230
  261XTA   HL3429211  27.210  -2.607   5.290
  261XTA   HL3529212  26.982  -2.888   5.386
  261XTA   HL3629213  26.954  -2.747   5.503
  261XTA   HL3729214  27.240  -2.780   5.649
  261XTA   HL3829215  27.181  -2.863   5.780
  261XTA   HL3929216  27.027  -2.633   5.638
  261XTA   HL4029217  27.152  -2.599   5.756
  261XTA   HL4129218  26.997  -2.678   5.798
  261XTA    CO829219  27.957  -2.614   5.466
  261XTA    CO929220  28.181  -2.648   5.373
  261XTA    OA629221  27.892  -2.641   5.344
  261XTA   HL4229222  27.892  -2.562   5.527
  261XTA   HL4329223  27.972  -2.715   5.506
  261XTA   HL4429224  27.098  -3.078   5.484
  261XTA   HL4529225  27.113  -3.126   5.665
  261XTA   CO1029226  27.150  -3.031   5.570
  261XTA   CO1129227  26.944  -2.944   5.668
  261XTA    OA729228  26.875  -2.986   5.595
  261XTA   HL4629229  26.957  -3.026   5.741
  261XTA   HL4729230  26.899  -2.850   5.720
  261XTA   HL4829231  28.127  -2.672   5.284
  261XTA   HL4929232  28.254  -2.580   5.328
  262XTA     NT29233  29.107  -1.765   5.379
  262XTA    CN129234  29.206  -1.670   5.389
  262XTA     C129235  29.312  -1.695   5.475
  262XTA     C229236  29.421  -1.606   5.484
  262XTA     C329237  29.420  -1.495   5.395
  262XTA     C429238  29.310  -1.476   5.315
  262XTA     C529239  29.201  -1.565   5.309
  262XTA    CN229240  29.137  -1.874   5.305
  262XTA     C629241  29.212  -1.858   5.191
  262XTA     C729242  29.231  -1.979   5.107
  262XTA     C829243  29.190  -2.111   5.155
  262XTA     C929244  29.105  -2.115   5.267
  262XTA    C1029245  29.073  -1.997   5.338
  262XTA    CN329246  28.987  -1.748   5.438
  262XTA    C1129247  28.955  -1.798   5.565
  262XTA    C1229248  28.830  -1.771   5.627
  262XTA    C1329249  28.734  -1.698   5.559
  262XTA    C1429250  28.766  -1.649   5.428
  262XTA    C1529251  28.888  -1.684   5.370
  262XTA     H129252  29.315  -1.775   5.551
  262XTA     H229253  29.508  -1.621   5.547
  262XTA     H329254  29.295  -1.396   5.246
  262XTA     H429255  29.126  -1.554   5.230
  262XTA     H529256  29.265  -1.767   5.175
  262XTA     H629257  29.299  -1.967   5.030
  262XTA     H729258  29.057  -2.205   5.313
  262XTA     H829259  29.004  -1.985   5.422
  262XTA     H929260  29.021  -1.860   5.616
  262XTA    H1029261  28.811  -1.818   5.723
  262XTA    H1129262  28.698  -1.584   5.376
  262XTA    H1229263  28.901  -1.657   5.262
  262XTA    OA129264  29.524  -1.396   5.391
  262XTA    CO129265  29.655  -1.446   5.426
  262XTA    OA229266  29.231  -2.220   5.089
  262XTA    CO229267  29.231  -2.344   5.154
  262XTA    CL129268  29.345  -2.340   5.250
  262XTA    CL229269  29.477  -2.319   5.175
  262XTA    CL329270  29.595  -2.324   5.280
  262XTA    CL429271  29.607  -2.452   5.367
  262XTA    CO329272  29.737  -2.439   5.447
  262XTA    OA329273  29.842  -2.451   5.360
  262XTA    CO429274  29.959  -2.418   5.425
  262XTA    CT129275  30.069  -2.514   5.376
  262XTA    CL529276  30.083  -2.500   5.226
  262XTA    CL629277  30.183  -2.591   5.163
  262XTA    OA429278  28.611  -1.676   5.632
  262XTA    CO529279  28.517  -1.582   5.567
  262XTA    CL729280  28.378  -1.606   5.618
  262XTA    CL829281  28.275  -1.514   5.566
  262XTA    CL929282  28.299  -1.371   5.613
  262XTA   CL1029283  28.166  -1.294   5.599
  262XTA    CO629284  28.111  -1.262   5.465
  262XTA    OA529285  28.204  -1.187   5.394
  262XTA    CO729286  28.147  -1.143   5.271
  262XTA    CT229287  28.239  -1.051   5.185
  262XTA   CL1129288  28.305  -0.945   5.269
  262XTA   CL1229289  28.432  -0.986   5.343
  262XTA    HL129290  29.663  -1.475   5.529
  262XTA    HL229291  29.696  -1.526   5.365
  262XTA    HL329292  29.729  -1.360   5.418
  262XTA    HL429293  29.138  -2.355   5.215
  262XTA    HL529294  29.237  -2.416   5.079
  262XTA    HL629295  29.350  -2.437   5.296
  262XTA    HL729296  29.329  -2.263   5.325
  262XTA    HL829297  29.489  -2.224   5.118
  262XTA    HL929298  29.501  -2.400   5.103
  262XTA   HL1029299  29.687  -2.316   5.227
  262XTA   HL1129300  29.592  -2.240   5.346
  262XTA   HL1229301  29.598  -2.549   5.320
  262XTA   HL1329302  29.524  -2.442   5.442
  262XTA   HL1429303  29.722  -2.354   5.510
  262XTA   HL1529304  29.743  -2.520   5.518
  262XTA   HL1629305  29.982  -2.325   5.394
  262XTA   HL1729306  29.963  -2.422   5.536
  262XTA   HL1829307  30.111  -2.396   5.199
  262XTA   HL1929308  29.982  -2.525   5.183
  262XTA   HL2029309  30.173  -2.586   5.055
  262XTA   HL2129310  30.171  -2.690   5.191
  262XTA   HL2229311  30.285  -2.565   5.192
  262XTA   HL2329312  28.520  -1.596   5.460
  262XTA   HL2429313  28.560  -1.485   5.580
  262XTA   HL2529314  28.355  -1.712   5.609
  262XTA   HL2629315  28.380  -1.605   5.726
  262XTA   HL2729316  28.282  -1.522   5.452
  262XTA   HL2829317  28.176  -1.549   5.593
  262XTA   HL2929318  28.318  -1.368   5.720
  262XTA   HL3029319  28.380  -1.321   5.559
  262XTA   HL3129320  28.098  -1.348   5.659
  262XTA   HL3229321  28.163  -1.203   5.657
  262XTA   HL3329322  28.075  -1.351   5.409
  262XTA   HL3429323  28.022  -1.206   5.485
  262XTA   HL3529324  28.056  -1.085   5.297
  262XTA   HL3629325  28.124  -1.231   5.216
  262XTA   HL3729326  28.241  -0.913   5.348
  262XTA   HL3829327  28.329  -0.858   5.207
  262XTA   HL3929328  28.510  -1.003   5.271
  262XTA   HL4029329  28.415  -1.073   5.401
  262XTA   HL4129330  28.464  -0.902   5.406
  262XTA    CO829331  30.040  -2.661   5.421
  262XTA    CO929332  30.200  -2.476   5.442
  262XTA    OA629333  30.210  -2.341   5.478
  262XTA   HL4229334  30.132  -2.722   5.403
  262XTA   HL4329335  30.024  -2.667   5.531
  262XTA   HL4429336  28.075  -1.064   5.035
  262XTA   HL4529337  28.099  -0.907   5.113
  262XTA   CO1029338  28.154  -0.990   5.065
  262XTA   CO1129339  28.336  -1.155   5.124
  262XTA    OA729340  28.267  -1.256   5.051
  262XTA   HL4629341  28.399  -1.105   5.048
  262XTA   HL4729342  28.409  -1.200   5.198
  262XTA   HL4829343  30.299  -2.509   5.397
  262XTA   HL4929344  30.193  -2.528   5.533
  263XTH     NT29345  31.039  -1.764   4.882
  263XTH    CN129346  30.987  -1.739   4.763
  263XTH     C129347  31.055  -1.762   4.644
  263XTH     C229348  30.993  -1.741   4.517
  263XTH     C329349  30.857  -1.696   4.509
  263XTH     C429350  30.790  -1.667   4.631
  263XTH     C529351  30.858  -1.685   4.755
  263XTH    CN229352  31.031  -1.886   4.933
  263XTH     C629353  30.920  -1.904   5.023
  263XTH     C729354  30.906  -2.021   5.101
  263XTH     C829355  31.005  -2.120   5.099
  263XTH     C929356  31.110  -2.107   5.001
  263XTH    C1029357  31.123  -1.989   4.922
  263XTH    CN329358  31.100  -1.667   4.957
  263XTH    C1129359  31.032  -1.569   5.031
  263XTH    C1229360  31.106  -1.456   5.080
  263XTH    C1329361  31.249  -1.466   5.096
  263XTH    C1429362  31.316  -1.573   5.035
  263XTH    C1529363  31.242  -1.673   4.967
  263XTH     H129364  31.150  -1.799   4.650
  263XTH     H229365  31.058  -1.764   4.435
  263XTH     H329366  30.688  -1.629   4.642
  263XTH     H429367  30.816  -1.654   4.847
  263XTH     H529368  30.851  -1.826   5.033
  263XTH     H629369  30.822  -2.018   5.173
  263XTH     H729370  31.187  -2.184   4.989
  263XTH     H829371  31.209  -1.966   4.859
  263XTH     H929372  30.925  -1.564   5.033
  263XTH    H1029373  31.062  -1.368   5.128
  263XTH    H1129374  31.427  -1.590   5.036
  263XTH    H1229375  31.293  -1.757   4.918
  263XTH    OA129376  30.803  -1.676   4.388
  263XTH    CO129377  30.667  -1.705   4.380
  263XTH    OA229378  31.001  -2.219   5.198
  263XTH    CO229379  31.095  -2.328   5.193
  263XTH    CL129380  31.120  -2.393   5.325
  263XTH    CL229381  31.224  -2.503   5.333
  263XTH    CL329382  31.262  -2.544   5.473
  263XTH    CL429383  31.325  -2.429   5.550
  263XTH    CO329384  31.392  -2.470   5.681
  263XTH    OA329385  31.436  -2.365   5.763
  263XTH    CO429386  31.511  -2.406   5.879
  263XTH    CT129387  31.488  -2.303   5.990
  263XTH    CL529388  31.582  -2.353   6.110
  263XTH    CL629389  31.737  -2.339   6.100
  263XTH    OA429390  31.309  -1.359   5.158
  263XTH    CO529391  31.452  -1.363   5.173
  263XTH    CL729392  31.505  -1.438   5.300
  263XTH    CL829393  31.420  -1.416   5.426
  263XTH    CL929394  31.499  -1.464   5.551
  263XTH   CL1029395  31.428  -1.453   5.690
  263XTH    CO629396  31.310  -1.543   5.712
  263XTH    OA529397  31.204  -1.502   5.639
  263XTH    CO729398  31.088  -1.581   5.656
  263XTH    CT229399  30.983  -1.558   5.546
  263XTH   CL1129400  30.929  -1.411   5.525
  263XTH   CL1229401  31.024  -1.322   5.446
  263XTH    HL129402  30.589  -1.661   4.446
  263XTH    HL229403  30.634  -1.684   4.285
  263XTH    HL329404  30.661  -1.815   4.393
  263XTH    HL429405  31.068  -2.406   5.119
  263XTH    HL529406  31.188  -2.285   5.167
  263XTH    HL629407  31.019  -2.428   5.353
  263XTH    HL729408  31.152  -2.313   5.392
  263XTH    HL829409  31.318  -2.471   5.287
  263XTH    HL929410  31.194  -2.581   5.272
  263XTH   HL1029411  31.178  -2.578   5.532
  263XTH   HL1129412  31.336  -2.627   5.457
  263XTH   HL1229413  31.245  -2.354   5.577
  263XTH   HL1329414  31.393  -2.378   5.479
  263XTH   HL1429415  31.321  -2.519   5.744
  263XTH   HL1529416  31.476  -2.537   5.660
  263XTH   HL1629417  31.467  -2.501   5.907
  263XTH   HL1729418  31.616  -2.415   5.854
  263XTH   HL1829419  31.563  -2.460   6.118
  263XTH   HL1929420  31.550  -2.309   6.207
  263XTH   HL2029421  31.779  -2.243   6.103
  263XTH   HL2129422  31.781  -2.395   6.010
  263XTH   HL2229423  31.779  -2.393   6.186
  263XTH   HL2329424  31.491  -1.258   5.178
  263XTH   HL2429425  31.504  -1.394   5.082
  263XTH   HL2529426  31.530  -1.540   5.274
  263XTH   HL2629427  31.601  -1.383   5.315
  263XTH   HL2729428  31.393  -1.311   5.433
  263XTH   HL2829429  31.329  -1.475   5.418
  263XTH   HL2929430  31.520  -1.573   5.535
  263XTH   HL3029431  31.589  -1.416   5.565
  263XTH   HL3129432  31.500  -1.463   5.778
  263XTH   HL3229433  31.375  -1.358   5.697
  263XTH   HL3329434  31.335  -1.644   5.683
  263XTH   HL3429435  31.286  -1.543   5.821
  263XTH   HL3529436  31.055  -1.575   5.755
  263XTH   HL3629437  31.119  -1.679   5.645
  263XTH   HL3729438  30.907  -1.365   5.624
  263XTH   HL3829439  30.850  -1.410   5.462
  263XTH   HL3929440  30.988  -1.220   5.449
  263XTH   HL4029441  31.035  -1.352   5.338
  263XTH   HL4129442  31.114  -1.322   5.496
  263XTH    CO829443  31.331  -2.309   6.024
  263XTH    CO929444  31.527  -2.152   5.960
  263XTH    OA629445  31.322  -2.271   6.132
  263XTH   HL4229446  31.283  -2.414   6.023
  263XTH   HL4329447  31.282  -2.252   5.942
  263XTH   HL4429448  30.906  -1.744   5.576
  263XTH   HL4529449  30.786  -1.638   5.501
  263XTH   CO1029450  30.860  -1.649   5.581
  263XTH   CO1129451  31.044  -1.624   5.414
  263XTH    OA729452  31.097  -1.749   5.438
  263XTH   HL4629453  30.970  -1.636   5.335
  263XTH   HL4729454  31.125  -1.563   5.379
  263XTH   HL4829455  31.646  -2.110   6.016
  263XTH   HL4929456  31.457  -2.086   6.009
  264XTA     NT29457  30.597  -1.387   1.827
  264XTA    CN129458  30.696  -1.447   1.764
  264XTA     C129459  30.716  -1.430   1.628
  264XTA     C229460  30.817  -1.496   1.557
  264XTA     C329461  30.914  -1.572   1.625
  264XTA     C429462  30.895  -1.590   1.768
  264XTA     C529463  30.789  -1.532   1.834
  264XTA    CN229464  30.509  -1.454   1.903
  264XTA     C629465  30.540  -1.521   2.021
  264XTA     C729466  30.449  -1.608   2.092
  264XTA     C829467  30.321  -1.621   2.043
  264XTA     C929468  30.285  -1.545   1.929
  264XTA    C1029469  30.376  -1.465   1.861
  264XTA    CN329470  30.611  -1.257   1.841
  264XTA    C1129471  30.700  -1.200   1.934
  264XTA    C1229472  30.706  -1.061   1.943
  264XTA    C1329473  30.616  -0.976   1.866
  264XTA    C1429474  30.531  -1.031   1.771
  264XTA    C1529475  30.528  -1.172   1.766
  264XTA     H129476  30.656  -1.356   1.584
  264XTA     H229477  30.834  -1.471   1.448
  264XTA     H329478  30.961  -1.660   1.822
  264XTA     H429479  30.773  -1.545   1.937
  264XTA     H529480  30.637  -1.503   2.064
  264XTA     H629481  30.487  -1.653   2.186
  264XTA     H729482  30.188  -1.565   1.889
  264XTA     H829483  30.345  -1.418   1.769
  264XTA     H929484  30.762  -1.265   2.003
  264XTA    H1029485  30.767  -1.023   2.008
  264XTA    H1129486  30.461  -0.983   1.705
  264XTA    H1229487  30.457  -1.213   1.694
  264XTA    OA129488  31.021  -1.626   1.560
  264XTA    CO129489  31.136  -1.655   1.645
  264XTA    OA229490  30.237  -1.702   2.116
  264XTA    CO229491  30.114  -1.740   2.062
  264XTA    CL129492  30.003  -1.638   2.081
  264XTA    CL229493  29.865  -1.690   2.041
  264XTA    CL329494  29.754  -1.586   2.059
  264XTA    CL429495  29.613  -1.657   2.050
  264XTA    CO329496  29.513  -1.580   2.134
  264XTA    OA329497  29.558  -1.563   2.271
  264XTA    CO429498  29.490  -1.453   2.329
  264XTA    CT129499  29.537  -1.434   2.476
  264XTA    CL529500  29.689  -1.457   2.496
  264XTA    CL629501  29.770  -1.367   2.407
  264XTA    OA429502  30.626  -0.844   1.889
  264XTA    CO529503  30.516  -0.767   1.855
  264XTA    CL729504  30.541  -0.634   1.926
  264XTA    CL829505  30.547  -0.649   2.075
  264XTA    CL929506  30.542  -0.509   2.148
  264XTA   CL1029507  30.412  -0.437   2.125
  264XTA    CO629508  30.408  -0.286   2.131
  264XTA    OA529509  30.486  -0.254   2.014
  264XTA    CO729510  30.460  -0.130   1.958
  264XTA    CT229511  30.591  -0.086   1.882
  264XTA   CL1129512  30.653  -0.198   1.801
  264XTA   CL1229513  30.792  -0.173   1.738
  264XTA    HL129514  31.161  -1.570   1.705
  264XTA    HL229515  31.124  -1.729   1.717
  264XTA    HL329516  31.230  -1.663   1.579
  264XTA    HL429517  30.115  -1.784   1.967
  264XTA    HL529518  30.081  -1.827   2.118
  264XTA    HL629519  30.029  -1.543   2.027
  264XTA    HL729520  29.998  -1.613   2.186
  264XTA    HL829521  29.846  -1.767   2.112
  264XTA    HL929522  29.861  -1.727   1.939
  264XTA   HL1029523  29.776  -1.543   2.157
  264XTA   HL1129524  29.764  -1.495   2.000
  264XTA   HL1229525  29.626  -1.765   2.079
  264XTA   HL1329526  29.574  -1.656   1.946
  264XTA   HL1429527  29.495  -1.479   2.085
  264XTA   HL1529528  29.408  -1.623   2.142
  264XTA   HL1629529  29.517  -1.364   2.278
  264XTA   HL1729530  29.391  -1.465   2.324
  264XTA   HL1829531  29.712  -1.565   2.486
  264XTA   HL1929532  29.719  -1.440   2.605
  264XTA   HL2029533  29.877  -1.382   2.425
  264XTA   HL2129534  29.742  -1.271   2.443
  264XTA   HL2229535  29.747  -1.362   2.298
  264XTA   HL2329536  30.429  -0.811   1.885
  264XTA   HL2429537  30.502  -0.769   1.743
  264XTA   HL2529538  30.638  -0.594   1.891
  264XTA   HL2629539  30.466  -0.562   1.896
  264XTA   HL2729540  30.468  -0.712   2.118
  264XTA   HL2829541  30.646  -0.698   2.098
  264XTA   HL2929542  30.557  -0.512   2.252
  264XTA   HL3029543  30.632  -0.466   2.106
  264XTA   HL3129544  30.367  -0.482   2.038
  264XTA   HL3229545  30.355  -0.467   2.209
  264XTA   HL3329546  30.304  -0.250   2.122
  264XTA   HL3429547  30.452  -0.244   2.221
  264XTA   HL3529548  30.434  -0.057   2.036
  264XTA   HL3629549  30.369  -0.130   1.900
  264XTA   HL3729550  30.593  -0.223   1.712
  264XTA   HL3829551  30.651  -0.292   1.854
  264XTA   HL3929552  30.878  -0.155   1.806
  264XTA   HL4029553  30.777  -0.089   1.668
  264XTA   HL4129554  30.817  -0.260   1.673
  264XTA    CO829555  29.461  -1.543   2.556
  264XTA    CO929556  29.492  -1.305   2.534
  264XTA    OA629557  29.320  -1.561   2.537
  264XTA   HL4229558  29.493  -1.537   2.662
  264XTA   HL4329559  29.498  -1.640   2.520
  264XTA   HL4429560  30.784   0.003   1.917
  264XTA   HL4529561  30.646   0.056   2.022
  264XTA   CO1029562  30.695  -0.034   1.982
  264XTA   CO1129563  30.564   0.042   1.798
  264XTA    OA729564  30.494   0.129   1.876
  264XTA   HL4629565  30.650   0.081   1.746
  264XTA   HL4729566  30.505  -0.001   1.722
  264XTA   HL4829567  29.555  -1.235   2.471
  264XTA   HL4929568  29.526  -1.292   2.637
  265XTA     NT29569  29.637  -2.642   2.283
  265XTA    CN129570  29.668  -2.762   2.242
  265XTA     C129571  29.681  -2.791   2.106
  265XTA     C229572  29.734  -2.914   2.052
  265XTA     C329573  29.758  -3.022   2.139
  265XTA     C429574  29.725  -3.001   2.276
  265XTA     C529575  29.687  -2.870   2.328
  265XTA    CN229576  29.534  -2.577   2.230
  265XTA     C629577  29.405  -2.584   2.284
  265XTA     C729578  29.292  -2.538   2.217
  265XTA     C829579  29.302  -2.477   2.096
  265XTA     C929580  29.430  -2.473   2.032
  265XTA    C1029581  29.544  -2.522   2.100
  265XTA    CN329582  29.715  -2.578   2.374
  265XTA    C1129583  29.851  -2.582   2.348
  265XTA    C1229584  29.946  -2.536   2.441
  265XTA    C1329585  29.905  -2.480   2.565
  265XTA    C1429586  29.769  -2.470   2.585
  265XTA    C1529587  29.674  -2.525   2.496
  265XTA     H129588  29.642  -2.722   2.036
  265XTA     H229589  29.734  -2.924   1.948
  265XTA     H329590  29.757  -3.077   2.348
  265XTA     H429591  29.692  -2.839   2.430
  265XTA     H529592  29.389  -2.650   2.364
  265XTA     H629593  29.204  -2.541   2.267
  265XTA     H729594  29.422  -2.427   1.939
  265XTA     H829595  29.643  -2.502   2.061
  265XTA     H929596  29.881  -2.647   2.265
  265XTA    H1029597  30.055  -2.557   2.415
  265XTA    H1129598  29.732  -2.423   2.677
  265XTA    H1229599  29.564  -2.521   2.518
  265XTA    OA129600  29.795  -3.149   2.108
  265XTA    CO129601  29.878  -3.149   1.995
  265XTA    OA229602  29.198  -2.417   2.023
  265XTA    CO229603  29.071  -2.403   2.092
  265XTA    CL129604  29.066  -2.262   2.148
  265XTA    CL229605  29.155  -2.236   2.272
  265XTA    CL329606  29.081  -2.300   2.399
  265XTA    CL429607  29.167  -2.261   2.519
  265XTA    CO329608  29.295  -2.334   2.539
  265XTA    OA329609  29.391  -2.268   2.472
  265XTA    CO429610  29.481  -2.216   2.566
  265XTA    CT129611  29.567  -2.117   2.489
  265XTA    CL529612  29.661  -2.047   2.590
  265XTA    CL629613  29.766  -2.133   2.661
  265XTA    OA429614  29.990  -2.444   2.664
  265XTA    CO529615  30.128  -2.430   2.640
  265XTA    CL729616  30.171  -2.288   2.608
  265XTA    CL829617  30.319  -2.272   2.567
  265XTA    CL929618  30.344  -2.138   2.499
  265XTA   CL1029619  30.301  -2.137   2.349
  265XTA    CO629620  30.267  -1.996   2.293
  265XTA    OA529621  30.161  -2.007   2.204
  265XTA    CO729622  30.034  -2.042   2.267
  265XTA    CT229623  29.954  -2.144   2.177
  265XTA   CL1129624  29.907  -2.064   2.057
  265XTA   CL1229625  29.873  -2.149   1.934
  265XTA    HL129626  29.943  -3.063   2.001
  265XTA    HL229627  29.920  -3.248   1.961
  265XTA    HL329628  29.805  -3.122   1.915
  265XTA    HL429629  29.000  -2.401   2.013
  265XTA    HL529630  29.050  -2.489   2.155
  265XTA    HL629631  28.967  -2.244   2.174
  265XTA    HL729632  29.088  -2.184   2.065
  265XTA    HL829633  29.161  -2.130   2.289
  265XTA    HL929634  29.253  -2.277   2.272
  265XTA   HL1029635  28.983  -2.253   2.409
  265XTA   HL1129636  29.071  -2.405   2.389
  265XTA   HL1229637  29.112  -2.282   2.609
  265XTA   HL1329638  29.197  -2.161   2.522
  265XTA   HL1429639  29.314  -2.358   2.647
  265XTA   HL1529640  29.277  -2.437   2.498
  265XTA   HL1629641  29.435  -2.157   2.647
  265XTA   HL1729642  29.550  -2.291   2.614
  265XTA   HL1829643  29.606  -1.985   2.663
  265XTA   HL1929644  29.706  -1.959   2.548
  265XTA   HL2029645  29.720  -2.200   2.738
  265XTA   HL2129646  29.845  -2.068   2.701
  265XTA   HL2229647  29.810  -2.204   2.594
  265XTA   HL2329648  30.164  -2.486   2.557
  265XTA   HL2429649  30.185  -2.459   2.727
  265XTA   HL2529650  30.097  -2.253   2.533
  265XTA   HL2629651  30.149  -2.226   2.698
  265XTA   HL2729652  30.383  -2.281   2.652
  265XTA   HL2829653  30.342  -2.361   2.508
  265XTA   HL2929654  30.294  -2.061   2.553
  265XTA   HL3029655  30.454  -2.126   2.499
  265XTA   HL3129656  30.387  -2.192   2.305
  265XTA   HL3229657  30.229  -2.217   2.335
  265XTA   HL3329658  30.226  -1.928   2.367
  265XTA   HL3429659  30.350  -1.945   2.238
  265XTA   HL3529660  29.970  -1.956   2.286
  265XTA   HL3629661  30.050  -2.088   2.367
  265XTA   HL3729662  29.981  -1.995   2.017
  265XTA   HL3829663  29.823  -2.001   2.093
  265XTA   HL3929664  29.947  -2.211   1.894
  265XTA   HL4029665  29.846  -2.084   1.858
  265XTA   HL4129666  29.788  -2.209   1.971
  265XTA    CO829667  29.486  -2.006   2.420
  265XTA    CO929668  29.646  -2.196   2.380
  265XTA    OA629669  29.744  -2.110   2.313
  265XTA   HL4229670  29.563  -1.930   2.399
  265XTA   HL4329671  29.440  -2.035   2.325
  265XTA   HL4429672  29.887  -2.255   2.352
  265XTA   HL4529673  29.793  -2.284   2.207
  265XTA   CO1029674  29.839  -2.199   2.262
  265XTA   CO1129675  30.048  -2.262   2.141
  265XTA    OA729676  29.983  -2.369   2.080
  265XTA   HL4629677  30.134  -2.234   2.083
  265XTA   HL4729678  30.077  -2.298   2.240
  265XTA   HL4829679  29.577  -2.223   2.305
  265XTA   HL4929680  29.689  -2.292   2.412
  266XTA     NT29681  31.027  -2.515   1.303
  266XTA    CN129682  30.990  -2.594   1.199
  266XTA     C129683  30.875  -2.668   1.202
  266XTA     C229684  30.836  -2.756   1.098
  266XTA     C329685  30.923  -2.776   0.991
  266XTA     C429686  31.033  -2.689   0.977
  266XTA     C529687  31.073  -2.607   1.081
  266XTA    CN229688  31.149  -2.460   1.309
  266XTA     C629689  31.249  -2.532   1.376
  266XTA     C729690  31.380  -2.480   1.377
  266XTA     C829691  31.413  -2.354   1.323
  266XTA     C929692  31.306  -2.282   1.265
  266XTA    C1029693  31.178  -2.332   1.250
  266XTA    CN329694  30.933  -2.475   1.384
  266XTA    C1129695  30.843  -2.369   1.357
  266XTA    C1229696  30.754  -2.325   1.452
  266XTA    C1329697  30.736  -2.397   1.577
  266XTA    C1429698  30.829  -2.507   1.605
  266XTA    C1529699  30.928  -2.533   1.511
  266XTA     H129700  30.808  -2.656   1.285
  266XTA     H229701  30.739  -2.803   1.116
  266XTA     H329702  31.100  -2.680   0.887
  266XTA     H429703  31.160  -2.544   1.060
  266XTA     H529704  31.227  -2.627   1.432
  266XTA     H629705  31.462  -2.528   1.426
  266XTA     H729706  31.326  -2.190   1.220
  266XTA     H829707  31.102  -2.284   1.196
  266XTA     H929708  30.857  -2.310   1.263
  266XTA    H1029709  30.702  -2.234   1.442
  266XTA    H1129710  30.827  -2.548   1.702
  266XTA    H1229711  30.998  -2.611   1.540
  266XTA    OA129712  30.879  -2.865   0.895
  266XTA    CO129713  30.962  -2.869   0.780
  266XTA    OA229714  31.542  -2.315   1.336
  266XTA    CO229715  31.584  -2.207   1.253
  266XTA    CL129716  31.708  -2.131   1.310
  266XTA    CL229717  31.820  -2.236   1.333
  266XTA    CL329718  31.948  -2.176   1.394
  266XTA    CL429719  32.030  -2.106   1.286
  266XTA    CO329720  32.175  -2.084   1.338
  266XTA    OA329721  32.191  -1.964   1.416
  266XTA    CO429722  32.144  -1.966   1.549
  266XTA    CT129723  32.208  -1.845   1.629
  266XTA    CL529724  32.177  -1.857   1.779
  266XTA    CL629725  32.220  -1.736   1.867
  266XTA    OA429726  30.637  -2.362   1.669
  266XTA    CO529727  30.662  -2.406   1.804
  266XTA    CL729728  30.548  -2.359   1.900
  266XTA    CL829729  30.583  -2.412   2.043
  266XTA    CL929730  30.697  -2.330   2.109
  266XTA   CL1029731  30.759  -2.373   2.244
  266XTA    CO629732  30.848  -2.500   2.232
  266XTA    OA529733  30.957  -2.479   2.147
  266XTA    CO729734  31.064  -2.405   2.209
  266XTA    CT229735  31.182  -2.363   2.125
  266XTA   CL1129736  31.120  -2.312   1.988
  266XTA   CL1229737  31.034  -2.188   1.996
  266XTA    HL129738  30.917  -2.923   0.699
  266XTA    HL229739  30.983  -2.771   0.734
  266XTA    HL329740  31.051  -2.911   0.817
  266XTA    HL429741  31.618  -2.256   1.166
  266XTA    HL529742  31.509  -2.139   1.233
  266XTA    HL629743  31.675  -2.076   1.401
  266XTA    HL729744  31.745  -2.062   1.235
  266XTA    HL829745  31.839  -2.280   1.233
  266XTA    HL929746  31.785  -2.320   1.398
  266XTA   HL1029747  31.928  -2.113   1.481
  266XTA   HL1129748  32.003  -2.262   1.436
  266XTA   HL1229749  31.977  -2.014   1.263
  266XTA   HL1329750  32.020  -2.164   1.193
  266XTA   HL1429751  32.213  -2.168   1.391
  266XTA   HL1529752  32.244  -2.072   1.261
  266XTA   HL1629753  32.036  -1.953   1.550
  266XTA   HL1729754  32.168  -2.061   1.589
  266XTA   HL1829755  32.230  -1.947   1.813
  266XTA   HL1929756  32.076  -1.878   1.788
  266XTA   HL2029757  32.155  -1.740   1.959
  266XTA   HL2129758  32.215  -1.651   1.800
  266XTA   HL2229759  32.323  -1.731   1.893
  266XTA   HL2329760  30.756  -2.366   1.838
  266XTA   HL2429761  30.659  -2.512   1.803
  266XTA   HL2529762  30.525  -2.257   1.893
  266XTA   HL2629763  30.457  -2.408   1.868
  266XTA   HL2729764  30.501  -2.385   2.108
  266XTA   HL2829765  30.604  -2.521   2.044
  266XTA   HL2929766  30.778  -2.322   2.026
  266XTA   HL3029767  30.674  -2.219   2.125
  266XTA   HL3129768  30.819  -2.299   2.294
  266XTA   HL3229769  30.678  -2.389   2.314
  266XTA   HL3329770  30.894  -2.521   2.329
  266XTA   HL3429771  30.786  -2.594   2.207
  266XTA   HL3529772  31.106  -2.465   2.299
  266XTA   HL3629773  31.024  -2.311   2.254
  266XTA   HL3729774  31.073  -2.394   1.938
  266XTA   HL3829775  31.201  -2.301   1.909
  266XTA   HL3929776  31.089  -2.098   2.008
  266XTA   HL4029777  30.965  -2.196   2.081
  266XTA   HL4129778  30.965  -2.179   1.915
  266XTA    CO829779  32.142  -1.723   1.571
  266XTA    CO929780  32.365  -1.839   1.611
  266XTA    OA629781  32.002  -1.727   1.599
  266XTA   HL4229782  32.158  -1.714   1.464
  266XTA   HL4329783  32.185  -1.635   1.614
  266XTA   HL4429784  31.310  -2.533   2.183
  266XTA   HL4529785  31.230  -2.553   2.024
  266XTA   CO1029786  31.280  -2.481   2.091
  266XTA   CO1129787  31.264  -2.252   2.198
  266XTA    OA729788  31.404  -2.437   2.036
  266XTA   HL4629789  31.365  -2.291   2.199
  266XTA   HL4729790  31.273  -2.165   2.132
  266XTA   HL4829791  32.395  -1.825   1.508
  266XTA   HL4929792  32.413  -1.752   1.659
  267XTA     NT29793  30.286  -1.076   3.609
  267XTA    CN129794  30.310  -1.210   3.599
  267XTA     C129795  30.204  -1.294   3.580
  267XTA     C229796  30.229  -1.435   3.570
  267XTA     C329797  30.358  -1.487   3.598
  267XTA     C429798  30.462  -1.397   3.617
  267XTA     C529799  30.440  -1.259   3.623
  267XTA    CN229800  30.294  -1.006   3.727
  267XTA     C629801  30.173  -0.996   3.798
  267XTA     C729802  30.169  -0.946   3.929
  267XTA     C829803  30.296  -0.913   3.989
  267XTA     C929804  30.416  -0.925   3.910
  267XTA    C1029805  30.415  -0.978   3.779
  267XTA    CN329806  30.282  -1.004   3.489
  267XTA    C1129807  30.395  -0.932   3.443
  267XTA    C1229808  30.379  -0.844   3.333
  267XTA    C1329809  30.251  -0.837   3.268
  267XTA    C1429810  30.150  -0.916   3.314
  267XTA    C1529811  30.159  -0.993   3.428
  267XTA     H129812  30.110  -1.251   3.574
  267XTA     H229813  30.140  -1.488   3.563
  267XTA     H329814  30.570  -1.427   3.628
  267XTA     H429815  30.518  -1.194   3.642
  267XTA     H529816  30.077  -1.025   3.755
  267XTA     H629817  30.075  -0.943   3.980
  267XTA     H729818  30.504  -0.915   3.971
  267XTA     H829819  30.507  -0.991   3.720
  267XTA     H929820  30.490  -0.939   3.489
  267XTA    H1029821  30.456  -0.777   3.296
  267XTA    H1129822  30.054  -0.931   3.262
  267XTA    H1229823  30.072  -1.048   3.469
  267XTA    OA129824  30.391  -1.617   3.602
  267XTA    CO129825  30.285  -1.707   3.563
  267XTA    OA229826  30.305  -0.867   4.118
  267XTA    CO229827  30.189  -0.849   4.199
  267XTA    CL129828  30.222  -0.786   4.335
  267XTA    CL229829  30.097  -0.769   4.424
  267XTA    CL329830  30.132  -0.670   4.528
  267XTA    CL429831  30.011  -0.630   4.617
  267XTA    CO329832  29.997  -0.485   4.667
  267XTA    OA329833  29.955  -0.397   4.557
  267XTA    CO429834  29.822  -0.422   4.495
  267XTA    CT129835  29.800  -0.334   4.370
  267XTA    CL529836  29.929  -0.304   4.293
  267XTA    CL629837  30.007  -0.420   4.240
  267XTA    OA429838  30.241  -0.754   3.157
  267XTA    CO529839  30.112  -0.730   3.101
  267XTA    CL729840  30.113  -0.617   2.995
  267XTA    CL829841  30.185  -0.494   3.054
  267XTA    CL929842  30.159  -0.374   2.969
  267XTA   CL1029843  30.255  -0.264   3.018
  267XTA    CO629844  30.245  -0.213   3.158
  267XTA    OA529845  30.353  -0.130   3.192
  267XTA    CO729846  30.457  -0.204   3.240
  267XTA    CT229847  30.575  -0.124   3.292
  267XTA   CL1129848  30.657  -0.222   3.380
  267XTA   CL1229849  30.720  -0.352   3.328
  267XTA    HL129850  30.255  -1.682   3.460
  267XTA    HL229851  30.297  -1.817   3.566
  267XTA    HL329852  30.196  -1.688   3.620
  267XTA    HL429853  30.114  -0.790   4.148
  267XTA    HL529854  30.148  -0.955   4.217
  267XTA    HL629855  30.265  -0.686   4.317
  267XTA    HL729856  30.285  -0.848   4.393
  267XTA    HL829857  30.075  -0.859   4.472
  267XTA    HL929858  29.997  -0.739   4.386
  267XTA   HL1029859  30.204  -0.718   4.596
  267XTA   HL1129860  30.170  -0.588   4.468
  267XTA   HL1229861  30.028  -0.690   4.710
  267XTA   HL1329862  29.915  -0.672   4.577
  267XTA   HL1429863  29.921  -0.490   4.750
  267XTA   HL1529864  30.099  -0.453   4.702
  267XTA   HL1629865  29.810  -0.525   4.464
  267XTA   HL1729866  29.739  -0.412   4.572
  267XTA   HL1829867  29.997  -0.247   4.357
  267XTA   HL1929868  29.911  -0.224   4.217
  267XTA   HL2029869  29.958  -0.483   4.167
  267XTA   HL2129870  30.057  -0.488   4.319
  267XTA   HL2229871  30.080  -0.391   4.166
  267XTA   HL2329872  30.047  -0.703   3.184
  267XTA   HL2429873  30.067  -0.825   3.068
  267XTA   HL2529874  30.161  -0.641   2.903
  267XTA   HL2629875  30.005  -0.585   2.977
  267XTA   HL2729876  30.149  -0.482   3.155
  267XTA   HL2829877  30.291  -0.509   3.054
  267XTA   HL2929878  30.180  -0.399   2.867
  267XTA   HL3029879  30.056  -0.342   2.979
  267XTA   HL3129880  30.360  -0.285   2.991
  267XTA   HL3229881  30.238  -0.178   2.955
  267XTA   HL3329882  30.160  -0.137   3.161
  267XTA   HL3429883  30.224  -0.293   3.229
  267XTA   HL3529884  30.492  -0.280   3.170
  267XTA   HL3629885  30.423  -0.258   3.324
  267XTA   HL3729886  30.588  -0.261   3.464
  267XTA   HL3829887  30.744  -0.173   3.427
  267XTA   HL3929888  30.646  -0.403   3.266
  267XTA   HL4029889  30.749  -0.410   3.419
  267XTA   HL4129890  30.803  -0.326   3.260
  267XTA    CO829891  29.722  -0.204   4.413
  267XTA    CO929892  29.700  -0.400   4.268
  267XTA    OA629893  29.580  -0.428   4.327
  267XTA   HL4229894  29.711  -0.128   4.325
  267XTA   HL4329895  29.614  -0.227   4.419
  267XTA   HL4429896  30.514   0.085   3.315
  267XTA   HL4529897  30.648   0.039   3.451
  267XTA   CO1029898  30.528  -0.004   3.380
  267XTA   CO1129899  30.651  -0.071   3.167
  267XTA    OA729900  30.736  -0.021   3.217
  267XTA   HL4629901  30.690  -0.152   3.095
  267XTA   HL4729902  30.583  -0.005   3.121
  267XTA   HL4829903  29.734  -0.502   4.238
  267XTA   HL4929904  29.698  -0.340   4.180
  268XTA     NT29905  28.741   0.963   3.312
  268XTA    CN129906  28.661   0.878   3.242
  268XTA     C129907  28.671   0.737   3.253
  268XTA     C229908  28.596   0.646   3.173
  268XTA     C329909  28.501   0.702   3.081
  268XTA     C429910  28.497   0.844   3.068
  268XTA     C529911  28.568   0.934   3.152
  268XTA    CN229912  28.695   1.020   3.426
  268XTA     C629913  28.652   1.159   3.426
  268XTA     C729914  28.615   1.215   3.551
  268XTA     C829915  28.619   1.136   3.669
  268XTA     C929916  28.671   1.004   3.667
  268XTA    C1029917  28.701   0.945   3.541
  268XTA    CN329918  28.872   0.977   3.290
  268XTA    C1129919  28.966   0.892   3.353
  268XTA    C1229920  29.104   0.912   3.334
  268XTA    C1329921  29.146   1.022   3.259
  268XTA    C1429922  29.052   1.114   3.198
  268XTA    C1529923  28.918   1.084   3.215
  268XTA     H129924  28.735   0.691   3.328
  268XTA     H229925  28.616   0.545   3.178
  268XTA     H329926  28.429   0.888   2.996
  268XTA     H429927  28.545   1.039   3.146
  268XTA     H529928  28.656   1.224   3.335
  268XTA     H629929  28.562   1.309   3.559
  268XTA     H729930  28.694   0.949   3.757
  268XTA     H829931  28.739   0.844   3.534
  268XTA     H929932  28.927   0.811   3.418
  268XTA    H1029933  29.167   0.840   3.383
  268XTA    H1129934  29.077   1.199   3.132
  268XTA    H1229935  28.852   1.148   3.171
  268XTA    OA129936  28.407   0.634   3.001
  268XTA    CO129937  28.449   0.504   2.958
  268XTA    OA229938  28.585   1.206   3.784
  268XTA    CO229939  28.526   1.129   3.881
  268XTA    CL129940  28.382   1.172   3.886
  268XTA    CL229941  28.312   1.131   3.750
  268XTA    CL329942  28.164   1.191   3.745
  268XTA    CL429943  28.070   1.083   3.807
  268XTA    CO329944  27.930   1.143   3.836
  268XTA    OA329945  27.870   1.191   3.718
  268XTA    CO429946  27.801   1.084   3.653
  268XTA    CT129947  27.782   1.114   3.503
  268XTA    CL529948  27.915   1.126   3.433
  268XTA    CL629949  28.003   1.001   3.447
  268XTA    OA429950  29.276   1.051   3.245
  268XTA    CO529951  29.381   0.981   3.306
  268XTA    CL729952  29.426   0.873   3.207
  268XTA    CL829953  29.546   0.808   3.256
  268XTA    CL929954  29.512   0.717   3.367
  268XTA   CL1029955  29.632   0.623   3.405
  268XTA    CO629956  29.591   0.499   3.489
  268XTA    OA529957  29.698   0.415   3.534
  268XTA    CO729958  29.763   0.347   3.433
  268XTA    CT229959  29.903   0.291   3.487
  268XTA   CL1129960  29.987   0.421   3.526
  268XTA   CL1229961  30.133   0.406   3.566
  268XTA    HL129962  28.470   0.436   3.040
  268XTA    HL229963  28.370   0.460   2.895
  268XTA    HL329964  28.537   0.507   2.893
  268XTA    HL429965  28.542   1.024   3.866
  268XTA    HL529966  28.585   1.139   3.977
  268XTA    HL629967  28.373   1.278   3.890
  268XTA    HL729968  28.341   1.125   3.980
  268XTA    HL829969  28.297   1.026   3.738
  268XTA    HL929970  28.362   1.178   3.669
  268XTA   HL1029971  28.152   1.284   3.797
  268XTA   HL1129972  28.131   1.195   3.641
  268XTA   HL1229973  28.116   1.054   3.900
  268XTA   HL1329974  28.066   0.986   3.756
  268XTA   HL1429975  27.874   1.073   3.899
  268XTA   HL1529976  27.935   1.236   3.894
  268XTA   HL1629977  27.848   0.988   3.671
  268XTA   HL1729978  27.704   1.085   3.706
  268XTA   HL1829979  27.976   1.208   3.475
  268XTA   HL1929980  27.892   1.156   3.326
  268XTA   HL2029981  27.967   0.914   3.393
  268XTA   HL2129982  28.029   0.963   3.539
  268XTA   HL2229983  28.093   1.028   3.396
  268XTA   HL2329984  29.356   0.946   3.404
  268XTA   HL2429985  29.466   1.041   3.325
  268XTA   HL2529986  29.338   0.809   3.180
  268XTA   HL2629987  29.451   0.918   3.109
  268XTA   HL2729988  29.588   0.763   3.165
  268XTA   HL2829989  29.620   0.886   3.278
  268XTA   HL2929990  29.499   0.774   3.456
  268XTA   HL3029991  29.417   0.667   3.347
  268XTA   HL3129992  29.681   0.581   3.317
  268XTA   HL3229993  29.710   0.686   3.452
  268XTA   HL3329994  29.533   0.536   3.572
  268XTA   HL3429995  29.536   0.441   3.412
  268XTA   HL3529996  29.798   0.416   3.354
  268XTA   HL3629997  29.708   0.265   3.388
  268XTA   HL3729998  29.933   0.461   3.612
  268XTA   HL3829999  29.974   0.502   3.455
  268XTA   HL3930000  30.157   0.313   3.623
  268XTA   HL4030001  30.166   0.499   3.609
  268XTA   HL4130002  30.191   0.401   3.474
  268XTA    CO830003  27.720   1.257   3.484
  268XTA    CO930004  27.689   1.010   3.437
  268XTA    OA630005  27.695   1.283   3.346
  268XTA   HL4230006  27.789   1.329   3.521
  268XTA   HL4330007  27.621   1.266   3.527
  268XTA   HL4430008  29.925   0.136   3.346
  268XTA   HL4530009  30.071   0.163   3.435
  268XTA   CO1030010  29.988   0.210   3.391
  268XTA   CO1130011  29.885   0.195   3.607
  268XTA    OA730012  29.808   0.082   3.572
  268XTA   HL4630013  29.982   0.160   3.645
  268XTA   HL4730014  29.830   0.242   3.688
  268XTA   HL4830015  27.704   1.013   3.330
  268XTA   HL4930016  27.580   1.028   3.456
  269XTA     NT30017  30.210  -1.353   6.217
  269XTA    CN130018  30.284  -1.452   6.261
  269XTA     C130019  30.323  -1.440   6.391
  269XTA     C230020  30.412  -1.546   6.434
  269XTA     C330021  30.458  -1.653   6.363
  269XTA     C430022  30.410  -1.664   6.233
  269XTA     C530023  30.329  -1.562   6.177
  269XTA    CN230024  30.084  -1.383   6.197
  269XTA     C630025  30.001  -1.403   6.315
  269XTA     C730026  29.881  -1.466   6.300
  269XTA     C830027  29.838  -1.530   6.182
  269XTA     C930028  29.912  -1.496   6.064
  269XTA    C1030029  30.035  -1.422   6.073
  269XTA    CN330030  30.249  -1.225   6.212
  269XTA    C1130031  30.211  -1.129   6.310
  269XTA    C1230032  30.263  -1.000   6.304
  269XTA    C1330033  30.347  -0.963   6.201
  269XTA    C1430034  30.380  -1.056   6.100
  269XTA    C1530035  30.330  -1.187   6.108
  269XTA     H130036  30.286  -1.360   6.455
  269XTA     H230037  30.445  -1.549   6.538
  269XTA     H330038  30.436  -1.746   6.180
  269XTA     H430039  30.296  -1.558   6.072
  269XTA     H530040  30.042  -1.365   6.403
  269XTA     H630041  29.818  -1.482   6.391
  269XTA     H730042  29.887  -1.529   5.966
  269XTA     H830043  30.095  -1.414   5.988
  269XTA     H930044  30.151  -1.150   6.398
  269XTA    H1030045  30.231  -0.921   6.376
  269XTA    H1130046  30.445  -1.025   6.021
  269XTA    H1230047  30.382  -1.254   6.038
  269XTA    OA130048  30.542  -1.742   6.427
  269XTA    CO130049  30.603  -1.837   6.331
  269XTA    OA230050  29.724  -1.601   6.177
  269XTA    CO230051  29.697  -1.651   6.051
  269XTA    CL130052  29.575  -1.738   6.068
  269XTA    CL230053  29.511  -1.806   5.943
  269XTA    CL330054  29.442  -1.703   5.856
  269XTA    CL430055  29.330  -1.616   5.928
  269XTA    CO330056  29.280  -1.508   5.834
  269XTA    OA330057  29.140  -1.484   5.871
  269XTA    CO430058  29.057  -1.452   5.758
  269XTA    CT130059  28.932  -1.372   5.799
  269XTA    CL530060  28.838  -1.338   5.686
  269XTA    CL630061  28.909  -1.285   5.565
  269XTA    OA430062  30.402  -0.834   6.188
  269XTA    CO530063  30.370  -0.725   6.278
  269XTA    CL730064  30.465  -0.710   6.398
  269XTA    CL830065  30.499  -0.829   6.474
  269XTA    CL930066  30.602  -0.793   6.576
  269XTA   CL1030067  30.744  -0.773   6.515
  269XTA    CO630068  30.808  -0.905   6.465
  269XTA    OA530069  30.931  -0.894   6.396
  269XTA    CO730070  30.924  -0.828   6.268
  269XTA    CT230071  30.885  -0.919   6.148
  269XTA   CL1130072  30.736  -0.917   6.115
  269XTA   CL1230073  30.679  -0.801   6.054
  269XTA    HL130074  30.647  -1.792   6.239
  269XTA    HL230075  30.671  -1.898   6.387
  269XTA    HL330076  30.522  -1.903   6.295
  269XTA    HL430077  29.676  -1.576   5.976
  269XTA    HL530078  29.777  -1.720   6.024
  269XTA    HL630079  29.513  -1.670   6.116
  269XTA    HL730080  29.604  -1.818   6.139
  269XTA    HL830081  29.440  -1.884   5.982
  269XTA    HL930082  29.587  -1.869   5.889
  269XTA   HL1030083  29.524  -1.641   5.814
  269XTA   HL1130084  29.405  -1.750   5.768
  269XTA   HL1230085  29.362  -1.573   6.017
  269XTA   HL1330086  29.245  -1.681   5.943
  269XTA   HL1430087  29.337  -1.421   5.841
  269XTA   HL1530088  29.282  -1.537   5.731
  269XTA   HL1630089  29.120  -1.404   5.683
  269XTA   HL1730090  29.011  -1.551   5.715
  269XTA   HL1830091  28.765  -1.264   5.725
  269XTA   HL1930092  28.781  -1.425   5.655
  269XTA   HL2030093  28.937  -1.186   5.585
  269XTA   HL2130094  28.851  -1.296   5.465
  269XTA   HL2230095  29.007  -1.326   5.544
  269XTA   HL2330096  30.263  -0.718   6.301
  269XTA   HL2430097  30.389  -0.633   6.222
  269XTA   HL2530098  30.568  -0.684   6.358
  269XTA   HL2630099  30.427  -0.632   6.467
  269XTA   HL2730100  30.401  -0.861   6.512
  269XTA   HL2830101  30.540  -0.913   6.417
  269XTA   HL2930102  30.583  -0.708   6.633
  269XTA   HL3030103  30.596  -0.884   6.637
  269XTA   HL3130104  30.746  -0.697   6.437
  269XTA   HL3230105  30.799  -0.728   6.598
  269XTA   HL3330106  30.816  -0.982   6.528
  269XTA   HL3430107  30.743  -0.956   6.393
  269XTA   HL3530108  31.017  -0.788   6.246
  269XTA   HL3630109  30.854  -0.746   6.274
  269XTA   HL3730110  30.683  -0.930   6.212
  269XTA   HL3830111  30.703  -1.010   6.065
  269XTA   HL3930112  30.700  -0.786   5.950
  269XTA   HL4030113  30.689  -0.718   6.119
  269XTA   HL4130114  30.575  -0.806   6.053
  269XTA    CO830115  28.980  -1.236   5.858
  269XTA    CO930116  28.855  -1.441   5.917
  269XTA    OA630117  28.750  -1.362   5.973
  269XTA   HL4230118  29.015  -1.244   5.952
  269XTA   HL4330119  28.893  -1.170   5.862
  269XTA   HL4430120  30.887  -1.117   6.088
  269XTA   HL4530121  31.032  -1.081   6.193
  269XTA   CO1030122  30.926  -1.066   6.175
  269XTA   CO1130123  30.962  -0.877   6.022
  269XTA    OA730124  30.863  -1.122   6.287
  269XTA   HL4630125  30.953  -0.770   6.005
  269XTA   HL4730126  30.911  -0.918   5.933
  269XTA   HL4830127  28.922  -1.451   6.003
  269XTA   HL4930128  28.832  -1.549   5.896
  270XTA     NT30129  30.466   0.931   6.956
  270XTA    CN130130  30.598   0.937   6.975
  270XTA     C130131  30.679   0.831   6.931
  270XTA     C230132  30.821   0.831   6.954
  270XTA     C330133  30.878   0.946   7.013
  270XTA     C430134  30.795   1.052   7.053
  270XTA     C530135  30.657   1.053   7.036
  270XTA    CN230136  30.418   0.995   6.848
  270XTA     C630137  30.426   0.923   6.725
  270XTA     C730138  30.345   0.970   6.611
  270XTA     C830139  30.278   1.093   6.621
  270XTA     C930140  30.271   1.158   6.743
  270XTA    C1030141  30.344   1.112   6.858
  270XTA    CN330142  30.387   0.890   7.053
  270XTA    C1130143  30.363   0.954   7.175
  270XTA    C1230144  30.264   0.913   7.262
  270XTA    C1330145  30.174   0.813   7.227
  270XTA    C1430146  30.201   0.744   7.106
  270XTA    C1530147  30.303   0.782   7.022
  270XTA     H130148  30.643   0.741   6.894
  270XTA     H230149  30.877   0.750   6.913
  270XTA     H330150  30.841   1.142   7.093
  270XTA     H430151  30.593   1.129   7.078
  270XTA     H530152  30.492   0.834   6.713
  270XTA     H630153  30.347   0.898   6.529
  270XTA     H730154  30.205   1.238   6.768
  270XTA     H830155  30.335   1.151   6.960
  270XTA     H930156  30.421   1.036   7.192
  270XTA    H1030157  30.252   0.961   7.362
  270XTA    H1130158  30.148   0.656   7.071
  270XTA    H1230159  30.320   0.723   6.938
  270XTA    OA130160  31.011   0.971   7.038
  270XTA    CO130161  31.099   0.874   6.991
  270XTA    OA230162  30.186   1.145   6.531
  270XTA    CO230163  30.169   1.066   6.413
  270XTA    CL130164  30.067   1.127   6.313
  270XTA    CL230165  30.108   1.259   6.245
  270XTA    CL330166  30.134   1.374   6.344
  270XTA    CL430167  30.131   1.512   6.279
  270XTA    CO330168  30.163   1.634   6.371
  270XTA    OA330169  30.156   1.761   6.296
  270XTA    CO430170  30.277   1.822   6.267
  270XTA    CT130171  30.271   1.970   6.311
  270XTA    CL530172  30.202   2.064   6.204
  270XTA    CL630173  30.277   2.086   6.071
  270XTA    OA430174  30.068   0.782   7.311
  270XTA    CO530175  30.004   0.659   7.292
  270XTA    CL730176  30.090   0.539   7.322
  270XTA    CL830177  30.023   0.405   7.283
  270XTA    CL930178  29.925   0.370   7.393
  270XTA   CL1030179  29.820   0.279   7.341
  270XTA    CO630180  29.866   0.135   7.303
  270XTA    OA530181  29.953   0.067   7.387
  270XTA    CO730182  29.894   0.040   7.511
  270XTA    CT230183  29.991  -0.021   7.614
  270XTA   CL1130184  30.070  -0.145   7.575
  270XTA   CL1230185  30.163  -0.137   7.448
  270XTA    HL130186  31.063   0.770   7.022
  270XTA    HL230187  31.108   0.876   6.882
  270XTA    HL330188  31.203   0.889   7.024
  270XTA    HL430189  30.264   1.045   6.374
  270XTA    HL530190  30.128   0.973   6.440
  270XTA    HL630191  29.969   1.128   6.369
  270XTA    HL730192  30.057   1.056   6.234
  270XTA    HL830193  30.032   1.286   6.176
  270XTA    HL930194  30.192   1.237   6.182
  270XTA   HL1030195  30.065   1.386   6.425
  270XTA   HL1130196  30.227   1.362   6.394
  270XTA   HL1230197  30.040   1.531   6.226
  270XTA   HL1330198  30.216   1.510   6.200
  270XTA   HL1430199  30.099   1.633   6.456
  270XTA   HL1530200  30.262   1.618   6.417
  270XTA   HL1630201  30.348   1.781   6.336
  270XTA   HL1730202  30.308   1.799   6.171
  270XTA   HL1830203  30.171   2.162   6.241
  270XTA   HL1930204  30.099   2.033   6.191
  270XTA   HL2030205  30.363   2.147   6.107
  270XTA   HL2130206  30.230   2.154   5.996
  270XTA   HL2230207  30.314   1.998   6.014
  270XTA   HL2330208  29.967   0.649   7.190
  270XTA   HL2430209  29.912   0.649   7.362
  270XTA   HL2530210  30.180   0.550   7.254
  270XTA   HL2630211  30.129   0.539   7.428
  270XTA   HL2730212  29.979   0.416   7.185
  270XTA   HL2830213  30.099   0.326   7.273
  270XTA   HL2930214  29.964   0.336   7.493
  270XTA   HL3030215  29.873   0.459   7.418
  270XTA   HL3130216  29.742   0.285   7.421
  270XTA   HL3230217  29.777   0.328   7.255
  270XTA   HL3330218  29.786   0.070   7.269
  270XTA   HL3430219  29.926   0.155   7.211
  270XTA   HL3530220  29.812  -0.034   7.497
  270XTA   HL3630221  29.842   0.126   7.558
  270XTA   HL3730222  29.997  -0.226   7.557
  270XTA   HL3830223  30.136  -0.173   7.658
  270XTA   HL3930224  30.096  -0.103   7.366
  270XTA   HL4030225  30.199  -0.242   7.422
  270XTA   HL4130226  30.251  -0.068   7.475
  270XTA    CO830227  30.420   2.021   6.325
  270XTA    CO930228  30.199   1.990   6.446
  270XTA    OA630229  30.250   1.897   6.538
  270XTA   HL4230230  30.470   1.984   6.236
  270XTA   HL4330231  30.458   1.962   6.405
  270XTA   HL4430232  29.968  -0.116   7.798
  270XTA   HL4530233  29.859   0.009   7.783
  270XTA   CO1030234  29.905  -0.073   7.729
  270XTA   CO1130235  30.085   0.089   7.666
  270XTA    OA730236  29.831  -0.140   7.697
  270XTA   HL4630237  30.146   0.152   7.555
  270XTA   HL4730238  30.029   0.165   7.718
  270XTA   HL4830239  30.091   1.984   6.430
  270XTA   HL4930240  30.222   2.095   6.477
  271XTA     NT30241  29.446   1.703   7.590
  271XTA    CN130242  29.510   1.616   7.675
  271XTA     C130243  29.522   1.473   7.661
  271XTA     C230244  29.578   1.389   7.757
  271XTA     C330245  29.627   1.443   7.877
  271XTA     C430246  29.617   1.579   7.898
  271XTA     C530247  29.552   1.660   7.804
  271XTA    CN230248  29.323   1.741   7.622
  271XTA     C630249  29.306   1.868   7.675
  271XTA     C730250  29.181   1.920   7.711
  271XTA     C830251  29.070   1.834   7.697
  271XTA     C930252  29.092   1.699   7.654
  271XTA    C1030253  29.217   1.654   7.607
  271XTA    CN330254  29.491   1.722   7.465
  271XTA    C1130255  29.627   1.746   7.437
  271XTA    C1230256  29.676   1.759   7.305
  271XTA    C1330257  29.591   1.743   7.194
  271XTA    C1430258  29.453   1.724   7.222
  271XTA    C1530259  29.404   1.717   7.355
  271XTA     H130260  29.499   1.429   7.567
  271XTA     H230261  29.574   1.284   7.744
  271XTA     H330262  29.666   1.634   7.987
  271XTA     H430263  29.555   1.765   7.838
  271XTA     H530264  29.393   1.928   7.684
  271XTA     H630265  29.168   2.017   7.754
  271XTA     H730266  29.009   1.628   7.642
  271XTA     H830267  29.233   1.559   7.558
  271XTA     H930268  29.700   1.767   7.510
  271XTA    H1030269  29.779   1.784   7.277
  271XTA    H1130270  29.394   1.719   7.140
  271XTA    H1230271  29.299   1.709   7.373
  271XTA    OA130272  29.670   1.350   7.974
  271XTA    CO130273  29.696   1.398   8.106
  271XTA    OA230274  28.939   1.863   7.733
  271XTA    CO230275  28.903   2.001   7.761
  271XTA    CL130276  28.780   2.017   7.841
  271XTA    CL230277  28.791   1.980   7.988
  271XTA    CL330278  28.794   1.828   8.009
  271XTA    CL430279  28.811   1.791   8.149
  271XTA    CO330280  28.678   1.772   8.213
  271XTA    OA330281  28.618   1.899   8.231
  271XTA    CO430282  28.566   1.934   8.362
  271XTA    CT130283  28.551   2.084   8.372
  271XTA    CL530284  28.512   2.140   8.514
  271XTA    CL630285  28.374   2.100   8.557
  271XTA    OA430286  29.633   1.757   7.063
  271XTA    CO530287  29.759   1.685   7.041
  271XTA    CL730288  29.779   1.659   6.885
  271XTA    CL830289  29.653   1.592   6.824
  271XTA    CL930290  29.695   1.538   6.689
  271XTA   CL1030291  29.759   1.645   6.592
  271XTA    CO630292  29.788   1.588   6.453
  271XTA    OA530293  29.683   1.551   6.363
  271XTA    CO730294  29.729   1.509   6.242
  271XTA    CT230295  29.622   1.410   6.189
  271XTA   CL1130296  29.580   1.309   6.306
  271XTA   CL1230297  29.685   1.209   6.357
  271XTA    HL130298  29.601   1.449   8.148
  271XTA    HL230299  29.730   1.313   8.170
  271XTA    HL330300  29.772   1.476   8.115
  271XTA    HL430301  28.986   2.042   7.815
  271XTA    HL530302  28.906   2.044   7.663
  271XTA    HL630303  28.710   1.944   7.794
  271XTA    HL730304  28.744   2.117   7.835
  271XTA    HL830305  28.714   2.026   8.048
  271XTA    HL930306  28.888   2.025   8.017
  271XTA   HL1030307  28.710   1.783   7.955
  271XTA   HL1130308  28.877   1.775   7.963
  271XTA   HL1230309  28.875   1.858   8.209
  271XTA   HL1330310  28.863   1.691   8.146
  271XTA   HL1430311  28.610   1.706   8.160
  271XTA   HL1530312  28.694   1.716   8.300
  271XTA   HL1630313  28.473   1.887   8.378
  271XTA   HL1730314  28.636   1.901   8.441
  271XTA   HL1830315  28.516   2.247   8.516
  271XTA   HL1930316  28.575   2.105   8.602
  271XTA   HL2030317  28.367   1.993   8.582
  271XTA   HL2130318  28.298   2.134   8.485
  271XTA   HL2230319  28.347   2.154   8.638
  271XTA   HL2330320  29.766   1.594   7.097
  271XTA   HL2430321  29.841   1.744   7.083
  271XTA   HL2530322  29.806   1.752   6.831
  271XTA   HL2630323  29.868   1.602   6.865
  271XTA   HL2730324  29.627   1.502   6.885
  271XTA   HL2830325  29.564   1.657   6.821
  271XTA   HL2930326  29.770   1.464   6.695
  271XTA   HL3030327  29.601   1.491   6.649
  271XTA   HL3130328  29.697   1.735   6.594
  271XTA   HL3230329  29.857   1.681   6.632
  271XTA   HL3330330  29.856   1.660   6.405
  271XTA   HL3430331  29.851   1.507   6.463
  271XTA   HL3530332  29.825   1.458   6.245
  271XTA   HL3630333  29.744   1.594   6.177
  271XTA   HL3730334  29.507   1.251   6.259
  271XTA   HL3830335  29.512   1.357   6.373
  271XTA   HL3930336  29.709   1.142   6.278
  271XTA   HL4030337  29.650   1.143   6.437
  271XTA   HL4130338  29.772   1.260   6.376
  271XTA    CO830339  28.461   2.135   8.261
  271XTA    CO930340  28.691   2.147   8.340
  271XTA    OA630341  28.478   2.278   8.271
  271XTA   HL4230342  28.352   2.110   8.273
  271XTA   HL4330343  28.497   2.100   8.162
  271XTA   HL4430344  29.698   1.426   5.988
  271XTA   HL4530345  29.773   1.307   6.090
  271XTA   CO1030346  29.676   1.351   6.060
  271XTA   CO1130347  29.503   1.500   6.147
  271XTA    OA730348  29.608   1.275   6.029
  271XTA   HL4630349  29.469   1.588   6.256
  271XTA   HL4730350  29.545   1.556   6.067
  271XTA   HL4830351  28.724   2.133   8.234
  271XTA   HL4930352  28.691   2.250   8.360
  272XTA     NT30353  29.926   1.398   7.358
  272XTA    CN130354  29.809   1.385   7.293
  272XTA     C130355  29.683   1.419   7.349
  272XTA     C230356  29.569   1.406   7.275
  272XTA     C330357  29.571   1.351   7.147
  272XTA     C430358  29.691   1.310   7.097
  272XTA     C530359  29.813   1.330   7.163
  272XTA    CN230360  29.920   1.379   7.493
  272XTA     C630361  29.888   1.248   7.544
  272XTA     C730362  29.893   1.207   7.675
  272XTA     C830363  29.955   1.308   7.759
  272XTA     C930364  29.999   1.435   7.714
  272XTA    C1030365  29.980   1.468   7.580
  272XTA    CN330366  30.045   1.427   7.295
  272XTA    C1130367  30.138   1.322   7.270
  272XTA    C1230368  30.255   1.353   7.209
  272XTA    C1330369  30.282   1.488   7.176
  272XTA    C1430370  30.188   1.587   7.184
  272XTA    C1530371  30.067   1.556   7.247
  272XTA     H130372  29.675   1.465   7.445
  272XTA     H230373  29.480   1.452   7.311
  272XTA     H330374  29.702   1.276   6.993
  272XTA     H430375  29.911   1.325   7.111
  272XTA     H530376  29.837   1.178   7.482
  272XTA     H630377  29.852   1.113   7.721
  272XTA     H730378  30.045   1.507   7.784
  272XTA     H830379  30.013   1.561   7.548
  272XTA     H930380  30.122   1.224   7.302
  272XTA    H1030381  30.323   1.273   7.183
  272XTA    H1130382  30.201   1.687   7.154
  272XTA    H1230383  29.996   1.631   7.267
  272XTA    OA130384  29.469   1.324   7.063
  272XTA    CO130385  29.359   1.417   7.066
  272XTA    OA230386  29.989   1.255   7.881
  272XTA    CO230387  30.046   1.346   7.977
  272XTA    CL130388  30.072   1.259   8.102
  272XTA    CL230389  30.183   1.169   8.080
  272XTA    CL330390  30.218   1.098   8.215
  272XTA    CL430391  30.338   1.008   8.189
  272XTA    CO330392  30.319   0.866   8.132
  272XTA    OA330393  30.445   0.807   8.107
  272XTA    CO430394  30.494   0.830   7.973
  272XTA    CT130395  30.644   0.790   7.965
  272XTA    CL530396  30.715   0.823   8.096
  272XTA    CL630397  30.743   0.973   8.136
  272XTA    OA430398  30.411   1.530   7.145
  272XTA    CO530399  30.516   1.431   7.128
  272XTA    CL730400  30.640   1.498   7.070
  272XTA    CL830401  30.635   1.542   6.927
  272XTA    CL930402  30.563   1.448   6.835
  272XTA   CL1030403  30.583   1.499   6.692
  272XTA    CO630404  30.488   1.427   6.593
  272XTA    OA530405  30.486   1.485   6.464
  272XTA    CO730406  30.603   1.448   6.395
  272XTA    CT230407  30.589   1.441   6.246
  272XTA   CL1130408  30.475   1.338   6.210
  272XTA   CL1230409  30.472   1.197   6.271
  272XTA    HL130410  29.390   1.506   7.015
  272XTA    HL230411  29.284   1.378   7.008
  272XTA    HL330412  29.318   1.438   7.162
  272XTA    HL430413  30.142   1.397   7.953
  272XTA    HL530414  29.976   1.422   7.993
  272XTA    HL630415  29.982   1.203   8.124
  272XTA    HL730416  30.067   1.320   8.195
  272XTA    HL830417  30.267   1.232   8.052
  272XTA    HL930418  30.170   1.097   8.007
  272XTA   HL1030419  30.249   1.161   8.296
  272XTA   HL1130420  30.132   1.051   8.249
  272XTA   HL1230421  30.386   0.981   8.281
  272XTA   HL1330422  30.410   1.070   8.130
  272XTA   HL1430423  30.268   0.803   8.204
  272XTA   HL1530424  30.266   0.878   8.042
  272XTA   HL1630425  30.440   0.766   7.905
  272XTA   HL1730426  30.480   0.933   7.930
  272XTA   HL1830427  30.809   0.777   8.104
  272XTA   HL1930428  30.660   0.779   8.182
  272XTA   HL2030429  30.809   1.034   8.066
  272XTA   HL2130430  30.779   0.977   8.237
  272XTA   HL2230431  30.644   1.022   8.136
  272XTA   HL2330432  30.495   1.343   7.065
  272XTA   HL2430433  30.542   1.392   7.227
  272XTA   HL2530434  30.674   1.578   7.136
  272XTA   HL2630435  30.721   1.430   7.080
  272XTA   HL2730436  30.581   1.638   6.928
  272XTA   HL2830437  30.736   1.559   6.894
  272XTA   HL2930438  30.599   1.342   6.842
  272XTA   HL3030439  30.454   1.456   6.859
  272XTA   HL3130440  30.543   1.603   6.691
  272XTA   HL3230441  30.689   1.510   6.658
  272XTA   HL3330442  30.514   1.322   6.590
  272XTA   HL3430443  30.386   1.444   6.628
  272XTA   HL3530444  30.626   1.342   6.424
  272XTA   HL3630445  30.690   1.509   6.419
  272XTA   HL3730446  30.489   1.326   6.104
  272XTA   HL3830447  30.373   1.385   6.229
  272XTA   HL3930448  30.390   1.142   6.224
  272XTA   HL4030449  30.431   1.192   6.373
  272XTA   HL4130450  30.563   1.142   6.278
  272XTA    CO830451  30.715   0.867   7.848
  272XTA    CO930452  30.668   0.635   7.938
  272XTA    OA630453  30.634   0.566   8.051
  272XTA   HL4230454  30.674   0.973   7.857
  272XTA   HL4330455  30.821   0.872   7.877
  272XTA   HL4430456  30.749   1.289   6.220
  272XTA   HL4530457  30.704   1.382   6.080
  272XTA   CO1030458  30.724   1.393   6.186
  272XTA   CO1130459  30.550   1.572   6.191
  272XTA    OA730460  30.833   1.477   6.194
  272XTA   HL4630461  30.456   1.603   6.236
  272XTA   HL4730462  30.636   1.638   6.217
  272XTA   HL4830463  30.772   0.605   7.934
  272XTA   HL4930464  30.620   0.601   7.846
  273XTA     NT30465  29.183  -2.927  -0.990
  273XTA    CN130466  29.054  -2.931  -1.010
  273XTA     C130467  28.966  -2.997  -0.924
  273XTA     C230468  28.829  -3.009  -0.958
  273XTA     C330469  28.773  -2.951  -1.078
  273XTA     C430470  28.860  -2.885  -1.157
  273XTA     C530471  29.001  -2.868  -1.122
  273XTA    CN230472  29.247  -3.035  -0.953
  273XTA     C630473  29.320  -3.048  -0.837
  273XTA     C730474  29.407  -3.156  -0.821
  273XTA     C830475  29.410  -3.262  -0.912
  273XTA     C930476  29.316  -3.266  -1.016
  273XTA    C1030477  29.244  -3.147  -1.048
  273XTA    CN330478  29.241  -2.806  -0.979
  273XTA    C1130479  29.182  -2.700  -0.898
  273XTA    C1230480  29.234  -2.570  -0.897
  273XTA    C1330481  29.352  -2.541  -0.971
  273XTA    C1430482  29.408  -2.642  -1.050
  273XTA    C1530483  29.353  -2.770  -1.054
  273XTA     H130484  29.001  -3.035  -0.836
  273XTA     H230485  28.759  -3.056  -0.892
  273XTA     H330486  28.824  -2.837  -1.247
  273XTA     H430487  29.068  -2.813  -1.186
  273XTA     H530488  29.321  -2.966  -0.757
  273XTA     H630489  29.451  -3.170  -0.723
  273XTA     H730490  29.291  -3.357  -1.075
  273XTA     H830491  29.181  -3.145  -1.138
  273XTA     H930492  29.095  -2.734  -0.844
  273XTA    H1030493  29.186  -2.501  -0.834
  273XTA    H1130494  29.501  -2.631  -1.101
  273XTA    H1230495  29.416  -2.845  -1.104
  273XTA    OA130496  28.641  -2.964  -1.120
  273XTA    CO130497  28.543  -2.997  -1.020
  273XTA    OA230498  29.477  -3.375  -0.869
  273XTA    CO230499  29.424  -3.503  -0.905
  273XTA    CL130500  29.488  -3.601  -0.805
  273XTA    CL230501  29.636  -3.632  -0.823
  273XTA    CL330502  29.712  -3.663  -0.685
  273XTA    CL430503  29.709  -3.548  -0.584
  273XTA    CO330504  29.824  -3.458  -0.603
  273XTA    OA330505  29.817  -3.342  -0.517
  273XTA    CO430506  29.720  -3.245  -0.555
  273XTA    CT130507  29.709  -3.124  -0.457
  273XTA    CL530508  29.839  -3.054  -0.421
  273XTA    CL630509  29.930  -3.045  -0.540
  273XTA    OA430510  29.400  -2.415  -0.958
  273XTA    CO530511  29.479  -2.363  -1.065
  273XTA    CL730512  29.399  -2.339  -1.189
  273XTA    CL830513  29.292  -2.240  -1.167
  273XTA    CL930514  29.185  -2.247  -1.279
  273XTA   CL1030515  29.050  -2.187  -1.236
  273XTA    CO630516  29.061  -2.038  -1.211
  273XTA    OA530517  28.927  -1.992  -1.193
  273XTA    CO730518  28.922  -1.854  -1.164
  273XTA    CT230519  28.889  -1.834  -1.008
  273XTA   CL1130520  29.001  -1.872  -0.913
  273XTA   CL1230521  29.126  -1.812  -0.956
  273XTA    HL130522  28.448  -3.028  -1.073
  273XTA    HL230523  28.579  -3.075  -0.955
  273XTA    HL330524  28.509  -2.915  -0.950
  273XTA    HL430525  29.316  -3.497  -0.900
  273XTA    HL530526  29.462  -3.514  -1.012
  273XTA    HL630527  29.433  -3.695  -0.807
  273XTA    HL730528  29.474  -3.562  -0.703
  273XTA    HL830529  29.677  -3.542  -0.880
  273XTA    HL930530  29.637  -3.723  -0.888
  273XTA   HL1030531  29.661  -3.745  -0.645
  273XTA   HL1130532  29.816  -3.678  -0.707
  273XTA   HL1230533  29.710  -3.580  -0.481
  273XTA   HL1330534  29.614  -3.501  -0.580
  273XTA   HL1430535  29.918  -3.508  -0.580
  273XTA   HL1530536  29.846  -3.426  -0.708
  273XTA   HL1630537  29.749  -3.202  -0.648
  273XTA   HL1730538  29.629  -3.290  -0.574
  273XTA   HL1830539  29.893  -3.109  -0.347
  273XTA   HL1930540  29.821  -2.960  -0.373
  273XTA   HL2030541  29.938  -3.140  -0.584
  273XTA   HL2130542  30.029  -3.006  -0.512
  273XTA   HL2230543  29.897  -2.974  -0.618
  273XTA   HL2330544  29.564  -2.427  -1.088
  273XTA   HL2430545  29.523  -2.273  -1.028
  273XTA   HL2530546  29.467  -2.305  -1.269
  273XTA   HL2630547  29.343  -2.432  -1.217
  273XTA   HL2730548  29.238  -2.258  -1.073
  273XTA   HL2830549  29.338  -2.139  -1.163
  273XTA   HL2930550  29.210  -2.199  -1.369
  273XTA   HL3030551  29.177  -2.344  -1.319
  273XTA   HL3130552  28.975  -2.196  -1.313
  273XTA   HL3230553  29.020  -2.240  -1.151
  273XTA   HL3330554  29.129  -2.013  -1.128
  273XTA   HL3430555  29.097  -1.998  -1.305
  273XTA   HL3530556  28.833  -1.814  -1.209
  273XTA   HL3630557  29.008  -1.793  -1.200
  273XTA   HL3730558  29.011  -1.979  -0.906
  273XTA   HL3830559  28.961  -1.846  -0.811
  273XTA   HL3930560  29.149  -1.826  -1.063
  273XTA   HL4030561  29.206  -1.863  -0.904
  273XTA   HL4130562  29.135  -1.710  -0.925
  273XTA    CO830563  29.661  -3.190  -0.325
  273XTA    CO930564  29.605  -3.017  -0.501
  273XTA    OA630565  29.634  -2.962  -0.588
  273XTA   HL4230566  29.564  -3.240  -0.336
  273XTA   HL4330567  29.762  -3.273  -0.268
  273XTA   HL4430568  28.769  -2.018  -0.982
  273XTA   HL4530569  28.727  -1.903  -0.878
  273XTA   CO1030570  28.757  -1.913  -0.980
  273XTA   CO1130571  28.839  -1.690  -0.975
  273XTA    OA730572  28.680  -1.892  -1.052
  273XTA   HL4630573  28.826  -1.663  -0.840
  273XTA   HL4730574  28.738  -1.683  -1.018
  273XTA   HL4830575  29.584  -2.951  -0.420
  273XTA   HL4930576  29.520  -3.081  -0.526
  274XTA     NT30577  31.085  -1.334   0.563
  274XTA    CN130578  31.075  -1.426   0.464
  274XTA     C130579  31.181  -1.514   0.433
  274XTA     C230580  31.164  -1.609   0.328
  274XTA     C330581  31.043  -1.625   0.261
  274XTA     C430582  30.938  -1.539   0.298
  274XTA     C530583  30.954  -1.439   0.395
  274XTA    CN230584  31.092  -1.206   0.530
  274XTA     C630585  31.205  -1.148   0.471
  274XTA     C730586  31.206  -1.011   0.432
  274XTA     C830587  31.094  -0.927   0.448
  274XTA     C930588  30.970  -0.995   0.498
  274XTA    C1030589  30.979  -1.128   0.546
  274XTA    CN330590  31.107  -1.371   0.687
  274XTA    C1130591  31.004  -1.406   0.773
  274XTA    C1230592  31.025  -1.457   0.900
  274XTA    C1330593  31.154  -1.472   0.951
  274XTA    C1430594  31.259  -1.428   0.866
  274XTA    C1530595  31.231  -1.380   0.739
  274XTA     H130596  31.276  -1.503   0.479
  274XTA     H230597  31.247  -1.675   0.294
  274XTA     H330598  30.842  -1.541   0.257
  274XTA     H430599  30.875  -1.368   0.426
  274XTA     H530600  31.291  -1.212   0.455
  274XTA     H630601  31.295  -0.970   0.385
  274XTA     H730602  30.870  -0.952   0.508
  274XTA     H830603  30.887  -1.165   0.580
  274XTA     H930604  30.903  -1.387   0.744
  274XTA    H1030605  30.942  -1.486   0.964
  274XTA    H1130606  31.359  -1.432   0.899
  274XTA    H1230607  31.314  -1.347   0.675
  274XTA    OA130608  31.032  -1.708   0.154
  274XTA    CO130609  30.910  -1.715   0.091
  274XTA    OA230610  31.083  -0.791   0.403
  274XTA    CO230611  30.966  -0.719   0.441
  274XTA    CL130612  30.997  -0.577   0.395
  274XTA    CL230613  30.882  -0.475   0.425
  274XTA    CL330614  30.887  -0.426   0.566
  274XTA    CL430615  30.815  -0.513   0.667
  274XTA    CO330616  30.798  -0.431   0.802
  274XTA    OA330617  30.920  -0.401   0.870
  274XTA    CO430618  30.962  -0.502   0.945
  274XTA    CT130619  31.096  -0.466   1.005
  274XTA    CL530620  31.207  -0.453   0.896
  274XTA    CL630621  31.220  -0.562   0.787
  274XTA    OA430622  31.164  -1.522   1.081
  274XTA    CO530623  31.280  -1.491   1.157
  274XTA    CL730624  31.296  -1.593   1.263
  274XTA    CL830625  31.341  -1.733   1.208
  274XTA    CL930626  31.463  -1.730   1.112
  274XTA   CL1030627  31.532  -1.868   1.098
  274XTA    CO630628  31.640  -1.875   0.977
  274XTA    OA530629  31.655  -2.015   0.967
  274XTA    CO730630  31.696  -2.054   0.837
  274XTA    CT230631  31.777  -2.187   0.837
  274XTA   CL1130632  31.905  -2.180   0.927
  274XTA   CL1230633  31.986  -2.313   0.929
  274XTA    HL130634  30.927  -1.787   0.012
  274XTA    HL230635  30.826  -1.734   0.157
  274XTA    HL330636  30.878  -1.627   0.035
  274XTA    HL430637  30.871  -0.755   0.388
  274XTA    HL530638  30.970  -0.730   0.546
  274XTA    HL630639  31.012  -0.578   0.287
  274XTA    HL730640  31.083  -0.554   0.468
  274XTA    HL830641  30.786  -0.510   0.392
  274XTA    HL930642  30.896  -0.388   0.360
  274XTA   HL1030643  30.989  -0.413   0.596
  274XTA   HL1130644  30.845  -0.321   0.563
  274XTA   HL1230645  30.873  -0.605   0.692
  274XTA   HL1330646  30.727  -0.551   0.617
  274XTA   HL1430647  30.752  -0.338   0.768
  274XTA   HL1530648  30.719  -0.471   0.865
  274XTA   HL1630649  30.892  -0.516   1.033
  274XTA   HL1730650  30.955  -0.595   0.891
  274XTA   HL1830651  31.299  -0.427   0.947
  274XTA   HL1930652  31.187  -0.364   0.840
  274XTA   HL2030653  31.211  -0.657   0.832
  274XTA   HL2130654  31.312  -0.562   0.725
  274XTA   HL2230655  31.141  -0.570   0.714
  274XTA   HL2330656  31.265  -1.396   1.205
  274XTA   HL2430657  31.374  -1.504   1.106
  274XTA   HL2530658  31.365  -1.568   1.349
  274XTA   HL2630659  31.203  -1.614   1.313
  274XTA   HL2730660  31.361  -1.805   1.290
  274XTA   HL2830661  31.252  -1.760   1.151
  274XTA   HL2930662  31.414  -1.690   1.025
  274XTA   HL3030663  31.535  -1.657   1.151
  274XTA   HL3130664  31.578  -1.890   1.196
  274XTA   HL3230665  31.456  -1.946   1.083
  274XTA   HL3330666  31.609  -1.831   0.883
  274XTA   HL3430667  31.737  -1.823   0.990
  274XTA   HL3530668  31.762  -1.973   0.798
  274XTA   HL3630669  31.605  -2.061   0.778
  274XTA   HL3730670  31.870  -2.171   1.033
  274XTA   HL3830671  31.963  -2.093   0.919
  274XTA   HL3930672  32.044  -2.318   0.838
  274XTA   HL4030673  31.935  -2.408   0.951
  274XTA   HL4130674  32.060  -2.307   1.013
  274XTA    CO830675  31.145  -0.571   1.105
  274XTA    CO930676  31.082  -0.336   1.082
  274XTA    OA630677  31.016  -0.347   1.166
  274XTA   HL4230678  31.209  -0.517   1.174
  274XTA   HL4330679  31.030  -0.608   1.177
  274XTA   HL4430680  31.822  -2.339   0.676
  274XTA   HL4530681  31.717  -2.205   0.624
  274XTA   CO1030682  31.805  -2.231   0.686
  274XTA   CO1130683  31.676  -2.299   0.884
  274XTA    OA730684  31.891  -2.180   0.640
  274XTA   HL4630685  31.734  -2.353   1.001
  274XTA   HL4730686  31.593  -2.247   0.915
  274XTA   HL4830687  31.036  -0.265   1.007
  274XTA   HL4930688  31.177  -0.298   1.124
  275XTA     NT30689  30.678   0.209   4.742
  275XTA    CN130690  30.604   0.096   4.737
  275XTA     C130691  30.492   0.092   4.656
  275XTA     C230692  30.408  -0.021   4.664
  275XTA     C330693  30.439  -0.132   4.739
  275XTA     C430694  30.553  -0.122   4.823
  275XTA     C530695  30.631  -0.009   4.819
  275XTA    CN230696  30.673   0.294   4.847
  275XTA     C630697  30.554   0.355   4.883
  275XTA     C730698  30.551   0.439   4.998
  275XTA     C830699  30.662   0.455   5.079
  275XTA     C930700  30.787   0.398   5.037
  275XTA    C1030701  30.789   0.324   4.918
  275XTA    CN330702  30.709   0.265   4.623
  275XTA    C1130703  30.637   0.373   4.569
  275XTA    C1230704  30.679   0.435   4.451
  275XTA    C1330705  30.794   0.392   4.383
  275XTA    C1430706  30.861   0.278   4.429
  275XTA    C1530707  30.813   0.214   4.548
  275XTA     H130708  30.466   0.168   4.580
  275XTA     H230709  30.328  -0.016   4.601
  275XTA     H330710  30.585  -0.202   4.885
  275XTA     H430711  30.720  -0.011   4.881
  275XTA     H530712  30.465   0.339   4.830
  275XTA     H630713  30.461   0.484   5.018
  275XTA     H730714  30.869   0.408   5.105
  275XTA     H830715  30.881   0.280   4.884
  275XTA     H930716  30.545   0.411   4.612
  275XTA    H1030717  30.623   0.516   4.422
  275XTA    H1130718  30.946   0.246   4.380
  275XTA    H1230719  30.861   0.133   4.589
  275XTA    OA130720  30.361  -0.241   4.739
  275XTA    CO130721  30.293  -0.268   4.612
  275XTA    OA230722  30.654   0.517   5.201
  275XTA    CO230723  30.526   0.531   5.254
  275XTA    CL130724  30.528   0.586   5.400
  275XTA    CL230725  30.413   0.544   5.484
  275XTA    CL330726  30.273   0.600   5.450
  275XTA    CL430727  30.170   0.534   5.531
  275XTA    CO330728  30.155   0.388   5.492
  275XTA    OA330729  30.073   0.315   5.581
  275XTA    CO430730  30.026   0.190   5.532
  275XTA    CT130731  29.964   0.100   5.647
  275XTA    CL530732  29.892  -0.020   5.581
  275XTA    CL630733  29.849  -0.142   5.677
  275XTA    OA430734  30.848   0.452   4.269
  275XTA    CO530735  30.802   0.588   4.243
  275XTA    CL730736  30.898   0.662   4.144
  275XTA    CL830737  30.876   0.807   4.116
  275XTA    CL930738  30.959   0.868   4.001
  275XTA   CL1030739  31.105   0.858   4.023
  275XTA    CO630740  31.183   0.929   3.906
  275XTA    OA530741  31.172   1.068   3.894
  275XTA    CO730742  31.189   1.152   4.008
  275XTA    CT230743  31.166   1.298   3.977
  275XTA   CL1130744  31.032   1.293   3.891
  275XTA   CL1230745  30.988   1.436   3.849
  275XTA    HL130746  30.217  -0.196   4.591
  275XTA    HL230747  30.363  -0.252   4.536
  275XTA    HL330748  30.243  -0.367   4.625
  275XTA    HL430749  30.467   0.607   5.194
  275XTA    HL530750  30.482   0.436   5.254
  275XTA    HL630751  30.544   0.693   5.394
  275XTA    HL730752  30.608   0.554   5.467
  275XTA    HL830753  30.445   0.546   5.588
  275XTA    HL930754  30.414   0.433   5.454
  275XTA   HL1030755  30.275   0.701   5.472
  275XTA   HL1130756  30.237   0.596   5.347
  275XTA   HL1230757  30.070   0.587   5.519
  275XTA   HL1330758  30.203   0.545   5.631
  275XTA   HL1430759  30.117   0.378   5.385
  275XTA   HL1530760  30.250   0.337   5.500
  275XTA   HL1630761  29.953   0.213   5.456
  275XTA   HL1730762  30.111   0.145   5.485
  275XTA   HL1830763  29.967  -0.060   5.519
  275XTA   HL1930764  29.814   0.009   5.513
  275XTA   HL2030765  29.932  -0.190   5.728
  275XTA   HL2130766  29.790  -0.214   5.628
  275XTA   HL2230767  29.782  -0.116   5.761
  275XTA   HL2330768  30.799   0.646   4.337
  275XTA   HL2430769  30.698   0.581   4.212
  275XTA   HL2530770  31.000   0.649   4.169
  275XTA   HL2630771  30.898   0.619   4.043
  275XTA   HL2730772  30.775   0.835   4.090
  275XTA   HL2830773  30.903   0.850   4.214
  275XTA   HL2930774  30.939   0.826   3.902
  275XTA   HL3030775  30.929   0.972   3.981
  275XTA   HL3130776  31.138   0.910   4.113
  275XTA   HL3230777  31.126   0.754   4.027
  275XTA   HL3330778  31.292   0.906   3.909
  275XTA   HL3430779  31.135   0.894   3.809
  275XTA   HL3530780  31.289   1.142   4.051
  275XTA   HL3630781  31.108   1.127   4.075
  275XTA   HL3730782  30.953   1.248   3.957
  275XTA   HL3830783  31.050   1.239   3.798
  275XTA   HL3930784  30.994   1.522   3.915
  275XTA   HL4030785  30.882   1.436   3.834
  275XTA   HL4130786  31.038   1.460   3.754
  275XTA    CO830787  29.861   0.182   5.722
  275XTA    CO930788  30.079   0.067   5.749
  275XTA    OA630789  30.171   0.021   5.695
  275XTA   HL4230790  29.901   0.256   5.800
  275XTA   HL4330791  29.784   0.258   5.636
  275XTA   HL4430792  31.378   1.341   3.958
  275XTA   HL4530793  31.308   1.274   3.813
  275XTA   CO1030794  31.291   1.342   3.904
  275XTA   CO1130795  31.158   1.381   4.102
  275XTA    OA730796  31.276   1.473   3.850
  275XTA   HL4630797  31.117   1.478   4.082
  275XTA   HL4730798  31.259   1.402   4.138
  275XTA   HL4830799  30.048   0.001   5.830
  275XTA   HL4930800  30.104   0.162   5.788
  276XTA     NT30801  30.793   5.681   4.489
  276XTA    CN130802  30.811   5.796   4.418
  276XTA     C130803  30.934   5.853   4.408
  276XTA     C230804  30.960   5.978   4.340
  276XTA     C330805  30.849   6.054   4.289
  276XTA     C430806  30.727   5.991   4.295
  276XTA     C530807  30.705   5.863   4.355
  276XTA    CN230808  30.681   5.663   4.560
  276XTA     C630809  30.648   5.736   4.682
  276XTA     C730810  30.535   5.703   4.761
  276XTA     C830811  30.462   5.583   4.731
  276XTA     C930812  30.487   5.518   4.609
  276XTA    C1030813  30.597   5.558   4.533
  276XTA    CN330814  30.896   5.595   4.501
  276XTA    C1130815  30.957   5.532   4.388
  276XTA    C1230816  31.073   5.463   4.411
  276XTA    C1330817  31.114   5.428   4.537
  276XTA    C1430818  31.051   5.483   4.651
  276XTA    C1530819  30.945   5.576   4.629
  276XTA     H130820  31.031   5.800   4.443
  276XTA     H230821  31.062   6.011   4.331
  276XTA     H330822  30.650   6.049   4.251
  276XTA     H430823  30.610   5.812   4.355
  276XTA     H530824  30.704   5.821   4.711
  276XTA     H630825  30.489   5.757   4.842
  276XTA     H730826  30.427   5.442   4.564
  276XTA     H830827  30.608   5.503   4.436
  276XTA     H930828  30.919   5.550   4.287
  276XTA    H1030829  31.123   5.429   4.324
  276XTA    H1130830  31.087   5.464   4.743
  276XTA    H1230831  30.899   5.620   4.717
  276XTA    OA130832  30.865   6.174   4.232
  276XTA    CO130833  30.840   6.274   4.322
  276XTA    OA230834  30.352   5.563   4.806
  276XTA    CO230835  30.244   5.493   4.751
  276XTA    CL130836  30.245   5.347   4.804
  276XTA    CL230837  30.105   5.289   4.787
  276XTA    CL330838  30.101   5.143   4.837
  276XTA    CL430839  29.966   5.083   4.806
  276XTA    CO330840  29.931   4.954   4.879
  276XTA    OA330841  29.787   4.950   4.855
  276XTA    CO430842  29.718   4.841   4.919
  276XTA    CT130843  29.572   4.883   4.913
  276XTA    CL530844  29.539   4.992   5.025
  276XTA    CL630845  29.575   5.135   5.000
  276XTA    OA430846  31.206   5.328   4.560
  276XTA    CO530847  31.326   5.336   4.496
  276XTA    CL730848  31.380   5.190   4.497
  276XTA    CL830849  31.294   5.090   4.409
  276XTA    CL930850  31.333   4.951   4.446
  276XTA   CL1030851  31.256   4.846   4.373
  276XTA    CO630852  31.104   4.856   4.383
  276XTA    OA530853  31.057   4.745   4.310
  276XTA    CO730854  30.917   4.756   4.284
  276XTA    CT230855  30.872   4.632   4.198
  276XTA   CL1130856  30.842   4.506   4.284
  276XTA   CL1230857  30.815   4.376   4.206
  276XTA    HL130858  30.900   6.365   4.297
  276XTA    HL230859  30.737   6.300   4.341
  276XTA    HL330860  30.875   6.252   4.423
  276XTA    HL430861  30.154   5.535   4.795
  276XTA    HL530862  30.223   5.494   4.641
  276XTA    HL630863  30.285   5.354   4.909
  276XTA    HL730864  30.326   5.291   4.752
  276XTA    HL830865  30.084   5.292   4.675
  276XTA    HL930866  30.032   5.353   4.843
  276XTA   HL1030867  30.179   5.085   4.787
  276XTA   HL1130868  30.121   5.134   4.944
  276XTA   HL1230869  29.965   5.070   4.704
  276XTA   HL1330870  29.885   5.154   4.809
  276XTA   HL1430871  29.986   4.877   4.821
  276XTA   HL1530872  29.957   4.958   4.989
  276XTA   HL1630873  29.741   4.754   4.856
  276XTA   HL1730874  29.761   4.826   5.020
  276XTA   HL1830875  29.587   4.965   5.114
  276XTA   HL1930876  29.433   4.998   5.045
  276XTA   HL2030877  29.681   5.132   4.968
  276XTA   HL2130878  29.560   5.191   5.088
  276XTA   HL2230879  29.516   5.177   4.922
  276XTA   HL2330880  31.389   5.403   4.539
  276XTA   HL2430881  31.321   5.375   4.398
  276XTA   HL2530882  31.487   5.186   4.476
  276XTA   HL2630883  31.368   5.142   4.595
  276XTA   HL2730884  31.191   5.116   4.434
  276XTA   HL2830885  31.312   5.108   4.303
  276XTA   HL2930886  31.435   4.933   4.428
  276XTA   HL3030887  31.302   4.940   4.551
  276XTA   HL3130888  31.278   4.844   4.263
  276XTA   HL3230889  31.280   4.745   4.396
  276XTA   HL3330890  31.070   4.853   4.492
  276XTA   HL3430891  31.064   4.949   4.330
  276XTA   HL3530892  30.905   4.845   4.218
  276XTA   HL3630893  30.850   4.764   4.370
  276XTA   HL3730894  30.754   4.525   4.343
  276XTA   HL3830895  30.921   4.496   4.360
  276XTA   HL3930896  30.714   4.372   4.175
  276XTA   HL4030897  30.839   4.289   4.264
  276XTA   HL4130898  30.883   4.370   4.125
  276XTA    CO830899  29.481   4.757   4.940
  276XTA    CO930900  29.527   4.937   4.773
  276XTA    OA630901  29.492   4.709   5.037
  276XTA   HL4230902  29.484   4.684   4.858
  276XTA   HL4330903  29.384   4.790   4.942
  276XTA   HL4430904  30.942   4.561   4.005
  276XTA   HL4530905  31.005   4.704   4.053
  276XTA   CO1030906  30.983   4.604   4.093
  276XTA   CO1130907  30.742   4.663   4.117
  276XTA    OA730908  31.071   4.551   4.132
  276XTA   HL4630909  30.654   4.724   4.204
  276XTA   HL4730910  30.686   4.572   4.089
  276XTA   HL4830911  29.605   5.051   4.737
  276XTA   HL4930912  29.428   4.975   4.776
  277XTA     NT30913  28.078  -0.489   2.245
  277XTA    CN130914  28.085  -0.480   2.115
  277XTA     C130915  28.007  -0.574   2.040
  277XTA     C230916  28.011  -0.581   1.898
  277XTA     C330917  28.095  -0.493   1.830
  277XTA     C430918  28.183  -0.408   1.897
  277XTA     C530919  28.177  -0.400   2.042
  277XTA    CN230920  28.183  -0.551   2.308
  277XTA     C630921  28.225  -0.677   2.279
  277XTA     C730922  28.330  -0.741   2.353
  277XTA     C830923  28.387  -0.679   2.464
  277XTA     C930924  28.350  -0.550   2.491
  277XTA    C1030925  28.252  -0.482   2.415
  277XTA    CN330926  27.992  -0.418   2.313
  277XTA    C1130927  28.006  -0.277   2.318
  277XTA    C1230928  27.896  -0.208   2.370
  277XTA    C1330929  27.788  -0.270   2.439
  277XTA    C1430930  27.780  -0.408   2.428
  277XTA    C1530931  27.883  -0.482   2.372
  277XTA     H130932  27.938  -0.647   2.084
  277XTA     H230933  27.942  -0.648   1.851
  277XTA     H330934  28.255  -0.344   1.840
  277XTA     H430935  28.246  -0.331   2.097
  277XTA     H530936  28.178  -0.733   2.196
  277XTA     H630937  28.358  -0.843   2.333
  277XTA     H730938  28.394  -0.499   2.581
  277XTA     H830939  28.233  -0.382   2.450
  277XTA     H930940  28.082  -0.217   2.255
  277XTA    H1030941  27.890  -0.101   2.361
  277XTA    H1130942  27.706  -0.464   2.481
  277XTA    H1230943  27.876  -0.588   2.362
  277XTA    OA130944  28.100  -0.514   1.693
  277XTA    CO130945  28.191  -0.442   1.609
  277XTA    OA230946  28.497  -0.735   2.526
  277XTA    CO230947  28.590  -0.660   2.600
  277XTA    CL130948  28.562  -0.653   2.748
  277XTA    CL230949  28.596  -0.774   2.828
  277XTA    CL330950  28.752  -0.794   2.829
  277XTA    CL430951  28.773  -0.937   2.876
  277XTA    CO330952  28.747  -1.043   2.769
  277XTA    OA330953  28.707  -1.169   2.824
  277XTA    CO430954  28.663  -1.253   2.730
  277XTA    CT130955  28.650  -1.404   2.771
  277XTA    CL530956  28.595  -1.420   2.919
  277XTA    CL630957  28.461  -1.350   2.945
  277XTA    OA430958  27.679  -0.196   2.487
  277XTA    CO530959  27.708  -0.128   2.609
  277XTA    CL730960  27.586  -0.043   2.650
  277XTA    CL830961  27.610   0.035   2.780
  277XTA    CL930962  27.672   0.173   2.762
  277XTA   CL1030963  27.736   0.202   2.891
  277XTA    CO630964  27.804   0.339   2.902
  277XTA    OA530965  27.836   0.379   3.035
  277XTA    CO730966  27.939   0.479   3.043
  277XTA    CT230967  28.009   0.461   3.182
  277XTA   CL1130968  28.051   0.318   3.196
  277XTA   CL1230969  28.140   0.253   3.090
  277XTA    HL130970  28.292  -0.454   1.655
  277XTA    HL230971  28.203  -0.471   1.502
  277XTA    HL330972  28.159  -0.338   1.607
  277XTA    HL430973  28.686  -0.707   2.580
  277XTA    HL530974  28.584  -0.559   2.562
  277XTA    HL630975  28.454  -0.645   2.758
  277XTA    HL730976  28.609  -0.562   2.783
  277XTA    HL830977  28.541  -0.864   2.782
  277XTA    HL930978  28.562  -0.751   2.936
  277XTA   HL1030979  28.804  -0.783   2.740
  277XTA   HL1130980  28.793  -0.730   2.912
  277XTA   HL1230981  28.708  -0.959   2.964
  277XTA   HL1330982  28.869  -0.956   2.924
  277XTA   HL1430983  28.660  -1.010   2.706
  277XTA   HL1530984  28.826  -1.048   2.694
  277XTA   HL1630985  28.569  -1.218   2.689
  277XTA   HL1730986  28.737  -1.253   2.654
  277XTA   HL1830987  28.684  -1.391   2.987
  277XTA   HL1930988  28.588  -1.527   2.952
  277XTA   HL2030989  28.427  -1.376   3.049
  277XTA   HL2130990  28.385  -1.375   2.874
  277XTA   HL2230991  28.467  -1.243   2.923
  277XTA   HL2330992  27.796  -0.062   2.602
  277XTA   HL2430993  27.733  -0.204   2.678
  277XTA   HL2530994  27.560   0.033   2.572
  277XTA   HL2630995  27.506  -0.106   2.666
  277XTA   HL2730996  27.519   0.048   2.838
  277XTA   HL2830997  27.673  -0.027   2.845
  277XTA   HL2930998  27.757   0.143   2.684
  277XTA   HL3030999  27.612   0.248   2.722
  277XTA   HL3131000  27.669   0.200   2.980
  277XTA   HL3231001  27.818   0.130   2.913
  277XTA   HL3331002  27.879   0.345   2.826
  277XTA   HL3431003  27.731   0.412   2.872
  277XTA   HL3531004  27.899   0.576   3.046
  277XTA   HL3631005  28.014   0.471   2.962
  277XTA   HL3731006  27.963   0.257   3.212
  277XTA   HL3831007  28.101   0.313   3.296
  277XTA   HL3931008  28.086   0.243   2.991
  277XTA   HL4031009  28.163   0.147   3.119
  277XTA   HL4131010  28.245   0.292   3.083
  277XTA    CO831011  28.790  -1.485   2.772
  277XTA    CO931012  28.562  -1.469   2.659
  277XTA    OA631013  28.857  -1.439   2.847
  277XTA   HL4231014  28.833  -1.479   2.675
  277XTA   HL4331015  28.774  -1.591   2.808
  277XTA   HL4431016  27.825   0.434   3.278
  277XTA   HL4531017  27.955   0.427   3.392
  277XTA   CO1031018  27.915   0.488   3.304
  277XTA   CO1131019  28.133   0.555   3.187
  277XTA    OA731020  27.889   0.597   3.329
  277XTA   HL4631021  28.094   0.689   3.165
  277XTA   HL4731022  28.207   0.530   3.119
  277XTA   HL4831023  28.643  -1.487   2.536
  277XTA   HL4931024  28.546  -1.568   2.700
  278XTA     NT31025  31.528  -0.548   4.950
  278XTA    CN131026  31.550  -0.628   4.843
  278XTA     C131027  31.674  -0.695   4.828
  278XTA     C231028  31.702  -0.758   4.704
  278XTA     C331029  31.613  -0.769   4.596
  278XTA     C431030  31.489  -0.708   4.615
  278XTA     C531031  31.451  -0.649   4.737
  278XTA    CN231032  31.412  -0.561   5.027
  278XTA     C631033  31.408  -0.642   5.145
  278XTA     C731034  31.292  -0.644   5.217
  278XTA     C831035  31.173  -0.583   5.173
  278XTA     C931036  31.177  -0.508   5.056
  278XTA    C1031037  31.296  -0.501   4.983
  278XTA    CN331038  31.624  -0.466   5.005
  278XTA    C1131039  31.683  -0.482   5.129
  278XTA    C1231040  31.768  -0.388   5.182
  278XTA    C1331041  31.814  -0.281   5.105
  278XTA    C1431042  31.767  -0.264   4.974
  278XTA    C1531043  31.674  -0.357   4.924
  278XTA     H131044  31.755  -0.681   4.905
  278XTA     H231045  31.799  -0.805   4.687
  278XTA     H331046  31.423  -0.711   4.532
  278XTA     H431047  31.353  -0.608   4.742
  278XTA     H531048  31.498  -0.695   5.176
  278XTA     H631049  31.275  -0.692   5.311
  278XTA     H731050  31.088  -0.457   5.015
  278XTA     H831051  31.302  -0.448   4.893
  278XTA     H931052  31.649  -0.562   5.196
  278XTA    H1031053  31.806  -0.397   5.283
  278XTA    H1131054  31.792  -0.177   4.917
  278XTA    H1231055  31.640  -0.337   4.824
  278XTA    OA131056  31.637  -0.815   4.474
  278XTA    CO131057  31.763  -0.849   4.440
  278XTA    OA231058  31.060  -0.609   5.241
  278XTA    CO231059  30.938  -0.577   5.180
  278XTA    CL131060  30.835  -0.648   5.267
  278XTA    CL231061  30.712  -0.677   5.180
  278XTA    CL331062  30.586  -0.655   5.266
  278XTA    CL431063  30.469  -0.673   5.168
  278XTA    CO331064  30.329  -0.651   5.224
  278XTA    OA331065  30.313  -0.517   5.268
  278XTA    CO431066  30.199  -0.504   5.348
  278XTA    CT131067  30.192  -0.368   5.432
  278XTA    CL531068  30.112  -0.381   5.568
  278XTA    CL631069  29.978  -0.444   5.553
  278XTA    OA431070  31.898  -0.180   5.154
  278XTA    CO531071  31.920  -0.187   5.296
  278XTA    CL731072  32.028  -0.084   5.333
  278XTA    CL831073  32.155  -0.110   5.253
  278XTA    CL931074  32.259   0.004   5.271
  278XTA   CL1031075  32.373   0.001   5.169
  278XTA    CO631076  32.326   0.016   5.020
  278XTA    OA531077  32.231   0.121   5.019
  278XTA    CO731078  32.167   0.131   4.889
  278XTA    CT231079  32.052   0.232   4.897
  278XTA   CL1131080  31.983   0.246   4.762
  278XTA   CL1231081  31.876   0.358   4.745
  278XTA    HL131082  31.834  -0.766   4.450
  278XTA    HL231083  31.792  -0.929   4.504
  278XTA    HL331084  31.779  -0.880   4.340
  278XTA    HL431085  30.904  -0.472   5.169
  278XTA    HL531086  30.932  -0.602   5.074
  278XTA    HL631087  30.821  -0.589   5.356
  278XTA    HL731088  30.870  -0.743   5.296
  278XTA    HL831089  30.712  -0.778   5.142
  278XTA    HL931090  30.708  -0.609   5.097
  278XTA   HL1031091  30.587  -0.728   5.344
  278XTA   HL1131092  30.574  -0.555   5.302
  278XTA   HL1231093  30.455  -0.770   5.115
  278XTA   HL1331094  30.479  -0.599   5.096
  278XTA   HL1431095  30.248  -0.681   5.159
  278XTA   HL1531096  30.312  -0.718   5.304
  278XTA   HL1631097  30.110  -0.499   5.286
  278XTA   HL1731098  30.193  -0.585   5.424
  278XTA   HL1831099  30.093  -0.281   5.610
  278XTA   HL1931100  30.167  -0.430   5.648
  278XTA   HL2031101  29.913  -0.418   5.633
  278XTA   HL2131102  30.005  -0.543   5.533
  278XTA   HL2231103  29.926  -0.396   5.468
  278XTA   HL2331104  31.951  -0.280   5.333
  278XTA   HL2431105  31.825  -0.158   5.343
  278XTA   HL2531106  32.001   0.019   5.303
  278XTA   HL2631107  32.047  -0.091   5.439
  278XTA   HL2731108  32.201  -0.204   5.284
  278XTA   HL2831109  32.127  -0.110   5.152
  278XTA   HL2931110  32.213   0.100   5.267
  278XTA   HL3031111  32.296   0.005   5.376
  278XTA   HL3131112  32.452   0.066   5.202
  278XTA   HL3231113  32.429  -0.099   5.178
  278XTA   HL3331114  32.414   0.049   4.956
  278XTA   HL3431115  32.284  -0.067   4.981
  278XTA   HL3531116  32.123   0.041   4.840
  278XTA   HL3631117  32.241   0.162   4.822
  278XTA   HL3731118  31.943   0.146   4.733
  278XTA   HL3831119  32.065   0.263   4.697
  278XTA   HL3931120  31.826   0.355   4.648
  278XTA   HL4031121  31.928   0.456   4.743
  278XTA   HL4131122  31.803   0.371   4.827
  278XTA    CO831123  30.148  -0.259   5.332
  278XTA    CO931124  30.339  -0.331   5.475
  278XTA    OA631125  30.050  -0.284   5.273
  278XTA   HL4231126  30.226  -0.243   5.262
  278XTA   HL4331127  30.136  -0.169   5.385
  278XTA   HL4431128  32.032   0.450   4.953
  278XTA   HL4531129  32.075   0.345   5.076
  278XTA   CO1031130  32.098   0.365   4.971
  278XTA   CO1131131  31.958   0.154   4.990
  278XTA    OA731132  32.209   0.387   4.965
  278XTA   HL4631133  32.014   0.111   5.107
  278XTA   HL4731134  31.934   0.058   4.945
  278XTA   HL4831135  30.403  -0.434   5.554
  278XTA   HL4931136  30.402  -0.312   5.386
  279XTA     NT31137  29.666   2.976   0.155
  279XTA    CN131138  29.718   2.924   0.269
  279XTA     C131139  29.649   2.934   0.394
  279XTA     C231140  29.707   2.872   0.508
  279XTA     C331141  29.826   2.798   0.494
  279XTA     C431142  29.887   2.785   0.367
  279XTA     C531143  29.836   2.846   0.254
  279XTA    CN231144  29.536   2.944   0.113
  279XTA     C631145  29.491   2.809   0.100
  279XTA     C731146  29.363   2.771   0.071
  279XTA     C831147  29.264   2.872   0.044
  279XTA     C931148  29.300   3.005   0.062
  279XTA    C1031149  29.436   3.036   0.096
  279XTA    CN331150  29.711   3.103   0.126
  279XTA    C1131151  29.771   3.123   0.005
  279XTA    C1231152  29.817   3.245  -0.038
  279XTA    C1331153  29.801   3.348   0.055
  279XTA    C1431154  29.743   3.329   0.184
  279XTA    C1531155  29.697   3.202   0.221
  279XTA     H131156  29.550   2.973   0.413
  279XTA     H231157  29.648   2.878   0.598
  279XTA     H331158  29.966   2.715   0.360
  279XTA     H431159  29.879   2.835   0.156
  279XTA     H531160  29.565   2.739   0.122
  279XTA     H631161  29.346   2.662   0.061
  279XTA     H731162  29.237   3.084   0.037
  279XTA     H831163  29.469   3.145   0.106
  279XTA     H931164  29.795   3.041  -0.062
  279XTA    H1031165  29.872   3.266  -0.131
  279XTA    H1131166  29.736   3.408   0.252
  279XTA    H1231167  29.647   3.186   0.320
  279XTA    OA131168  29.868   2.717   0.600
  279XTA    CO131169  29.783   2.608   0.626
  279XTA    OA231170  29.136   2.827   0.025
  279XTA    CO231171  29.030   2.921   0.016
  279XTA    CL131172  28.905   2.834  -0.009
  279XTA    CL231173  28.790   2.883   0.088
  279XTA    CL331174  28.745   3.030   0.055
  279XTA    CL431175  28.622   3.071   0.127
  279XTA    CO331176  28.640   3.093   0.272
  279XTA    OA331177  28.735   3.201   0.292
  279XTA    CO431178  28.856   3.152   0.339
  279XTA    CT131179  28.958   3.270   0.359
  279XTA    CL531180  29.005   3.307   0.215
  279XTA    CL631181  29.148   3.363   0.184
  279XTA    OA431182  29.856   3.469   0.029
  279XTA    CO531183  29.812   3.539  -0.092
  279XTA    CL731184  29.867   3.679  -0.095
  279XTA    CL831185  29.826   3.765   0.022
  279XTA    CL931186  29.927   3.870   0.076
  279XTA   CL1031187  30.045   3.808   0.132
  279XTA    CO631188  30.023   3.693   0.230
  279XTA    OA531189  30.118   3.681   0.333
  279XTA    CO731190  30.078   3.565   0.409
  279XTA    CT231191  30.118   3.559   0.557
  279XTA   CL1131192  30.273   3.565   0.553
  279XTA   CL1231193  30.358   3.627   0.659
  279XTA    HL131194  29.824   2.549   0.705
  279XTA    HL231195  29.692   2.644   0.670
  279XTA    HL331196  29.768   2.547   0.536
  279XTA    HL431197  29.029   2.966   0.117
  279XTA    HL531198  29.055   2.990  -0.061
  279XTA    HL631199  28.921   2.731   0.033
  279XTA    HL731200  28.870   2.829  -0.120
  279XTA    HL831201  28.818   2.874   0.189
  279XTA    HL931202  28.711   2.816   0.070
  279XTA   HL1031203  28.827   3.096   0.076
  279XTA   HL1131204  28.736   3.046  -0.057
  279XTA   HL1231205  28.554   2.995   0.102
  279XTA   HL1331206  28.596   3.167   0.082
  279XTA   HL1431207  28.550   3.116   0.329
  279XTA   HL1531208  28.676   3.004   0.321
  279XTA   HL1631209  28.840   3.100   0.437
  279XTA   HL1731210  28.893   3.079   0.267
  279XTA   HL1831211  28.934   3.374   0.168
  279XTA   HL1931212  28.998   3.211   0.154
  279XTA   HL2031213  29.224   3.307   0.233
  279XTA   HL2131214  29.174   3.461   0.202
  279XTA   HL2231215  29.156   3.358   0.074
  279XTA   HL2331216  29.698   3.555  -0.095
  279XTA   HL2431217  29.832   3.485  -0.184
  279XTA   HL2531218  29.974   3.679  -0.111
  279XTA   HL2631219  29.830   3.729  -0.181
  279XTA   HL2731220  29.732   3.822  -0.003
  279XTA   HL2831221  29.795   3.706   0.104
  279XTA   HL2931222  29.949   3.939  -0.003
  279XTA   HL3031223  29.886   3.936   0.155
  279XTA   HL3131224  30.107   3.773   0.052
  279XTA   HL3231225  30.105   3.882   0.183
  279XTA   HL3331226  29.930   3.709   0.282
  279XTA   HL3431227  30.012   3.600   0.177
  279XTA   HL3531228  30.105   3.472   0.356
  279XTA   HL3631229  29.970   3.562   0.409
  279XTA   HL3731230  30.299   3.622   0.469
  279XTA   HL3831231  30.300   3.462   0.540
  279XTA   HL3931232  30.467   3.599   0.653
  279XTA   HL4031233  30.315   3.624   0.757
  279XTA   HL4131234  30.346   3.733   0.640
  279XTA    CO831235  29.066   3.230   0.459
  279XTA    CO931236  28.883   3.390   0.416
  279XTA    OA631237  29.136   3.114   0.398
  279XTA   HL4231238  29.016   3.191   0.544
  279XTA   HL4331239  29.131   3.314   0.492
  279XTA   HL4431240  30.131   3.440   0.725
  279XTA   HL4531241  29.962   3.449   0.655
  279XTA   CO1031242  30.074   3.435   0.639
  279XTA   CO1131243  30.070   3.674   0.629
  279XTA    OA731244  30.087   3.338   0.587
  279XTA   HL4631245  30.119   3.781   0.558
  279XTA   HL4731246  29.962   3.674   0.614
  279XTA   HL4831247  28.797   3.423   0.352
  279XTA   HL4931248  28.851   3.365   0.510
  280XTA     NT31249  30.406   1.789   3.406
  280XTA    CN131250  30.301   1.859   3.471
  280XTA     C131251  30.170   1.847   3.419
  280XTA     C231252  30.068   1.928   3.474
  280XTA     C331253  30.090   2.008   3.589
  280XTA     C431254  30.222   2.020   3.639
  280XTA     C531255  30.329   1.950   3.575
  280XTA    CN231256  30.452   1.857   3.295
  280XTA     C631257  30.415   1.820   3.165
  280XTA     C731258  30.463   1.884   3.053
  280XTA     C831259  30.542   1.995   3.071
  280XTA     C931260  30.585   2.035   3.196
  280XTA    C1031261  30.542   1.969   3.315
  280XTA    CN331262  30.469   1.686   3.458
  280XTA    C1131263  30.612   1.678   3.461
  280XTA    C1231264  30.664   1.575   3.542
  280XTA    C1331265  30.585   1.470   3.598
  280XTA    C1431266  30.447   1.473   3.580
  280XTA    C1531267  30.393   1.577   3.501
  280XTA     H131268  30.149   1.775   3.340
  280XTA     H231269  29.969   1.915   3.434
  280XTA     H331270  30.260   2.077   3.719
  280XTA     H431271  30.419   1.958   3.631
  280XTA     H531272  30.345   1.737   3.158
  280XTA     H631273  30.429   1.849   2.959
  280XTA     H731274  30.653   2.113   3.209
  280XTA     H831275  30.575   2.000   3.413
  280XTA     H931276  30.663   1.764   3.421
  280XTA    H1031277  30.774   1.578   3.563
  280XTA    H1131278  30.382   1.405   3.627
  280XTA    H1231279  30.288   1.588   3.495
  280XTA    OA131280  29.975   2.067   3.640
  280XTA    CO131281  29.988   2.189   3.711
  280XTA    OA231282  30.590   2.065   2.957
  280XTA    CO231283  30.508   2.061   2.839
  280XTA    CL131284  30.525   2.186   2.754
  280XTA    CL231285  30.648   2.190   2.667
  280XTA    CL331286  30.775   2.149   2.738
  280XTA    CL431287  30.825   2.259   2.829
  280XTA    CO331288  30.958   2.217   2.904
  280XTA    OA331289  31.037   2.334   2.934
  280XTA    CO431290  30.977   2.410   3.035
  280XTA    CT131291  31.075   2.515   3.083
  280XTA    CL531292  30.995   2.616   3.167
  280XTA    CL631293  30.959   2.581   3.307
  280XTA    OA431294  30.642   1.379   3.681
  280XTA    CO531295  30.590   1.247   3.671
  280XTA    CL731296  30.684   1.154   3.744
  280XTA    CL831297  30.608   1.023   3.782
  280XTA    CL931298  30.516   1.035   3.901
  280XTA   CL1031299  30.409   0.930   3.921
  280XTA    CO631300  30.337   0.954   4.046
  280XTA    OA531301  30.424   0.936   4.158
  280XTA    CO731302  30.380   1.000   4.279
  280XTA    CT231303  30.512   1.039   4.357
  280XTA   CL1131304  30.580   0.908   4.411
  280XTA   CL1231305  30.699   0.930   4.509
  280XTA    HL131306  29.881   2.216   3.728
  280XTA    HL231307  30.032   2.175   3.815
  280XTA    HL331308  30.038   2.269   3.659
  280XTA    HL431309  30.535   1.970   2.788
  280XTA    HL531310  30.399   2.057   2.869
  280XTA    HL631311  30.510   2.279   2.815
  280XTA    HL731312  30.432   2.188   2.694
  280XTA    HL831313  30.646   2.287   2.619
  280XTA    HL931314  30.623   2.119   2.583
  280XTA   HL1031315  30.758   2.050   2.783
  280XTA   HL1131316  30.850   2.131   2.663
  280XTA   HL1231317  30.750   2.297   2.895
  280XTA   HL1331318  30.848   2.345   2.770
  280XTA   HL1431319  30.928   2.152   2.993
  280XTA   HL1531320  31.022   2.162   2.834
  280XTA   HL1631321  30.881   2.455   3.003
  280XTA   HL1731322  30.939   2.345   3.110
  280XTA   HL1831323  30.917   2.670   3.113
  280XTA   HL1931324  31.062   2.703   3.192
  280XTA   HL2031325  31.051   2.598   3.362
  280XTA   HL2131326  30.927   2.475   3.320
  280XTA   HL2231327  30.886   2.634   3.367
  280XTA   HL2331328  30.565   1.216   3.571
  280XTA   HL2431329  30.497   1.243   3.725
  280XTA   HL2531330  30.792   1.152   3.710
  280XTA   HL2631331  30.710   1.195   3.844
  280XTA   HL2731332  30.544   1.003   3.700
  280XTA   HL2831333  30.685   0.952   3.784
  280XTA   HL2931334  30.581   1.051   3.988
  280XTA   HL3031335  30.458   1.123   3.885
  280XTA   HL3131336  30.341   0.942   3.835
  280XTA   HL3231337  30.452   0.828   3.929
  280XTA   HL3331338  30.305   1.056   4.046
  280XTA   HL3431339  30.246   0.891   4.052
  280XTA   HL3531340  30.304   0.942   4.329
  280XTA   HL3631341  30.308   1.083   4.251
  280XTA   HL3731342  30.614   0.843   4.326
  280XTA   HL3831343  30.499   0.862   4.463
  280XTA   HL3931344  30.751   0.841   4.536
  280XTA   HL4031345  30.660   0.978   4.603
  280XTA   HL4131346  30.779   0.980   4.479
  280XTA    CO831347  31.129   2.596   2.964
  280XTA    CO931348  31.196   2.456   3.163
  280XTA    OA631349  31.224   2.689   3.008
  280XTA   HL4231350  31.043   2.630   2.903
  280XTA   HL4331351  31.168   2.525   2.899
  280XTA   HL4431352  30.551   1.182   4.521
  280XTA   HL4531353  30.418   1.053   4.590
  280XTA   CO1031354  30.467   1.124   4.484
  280XTA   CO1131355  30.617   1.114   4.274
  280XTA    OA731356  30.688   1.183   4.322
  280XTA   HL4631357  30.663   1.045   4.197
  280XTA   HL4731358  30.548   1.177   4.219
  280XTA   HL4831359  31.241   2.531   3.226
  280XTA   HL4931360  31.151   2.389   3.240
  281XTA     NT31361  28.978   4.752  -0.918
  281XTA    CN131362  29.027   4.799  -0.798
  281XTA     C131363  29.028   4.709  -0.687
  281XTA     C231364  29.084   4.744  -0.567
  281XTA     C331365  29.158   4.867  -0.566
  281XTA     C431366  29.157   4.952  -0.678
  281XTA     C531367  29.087   4.925  -0.793
  281XTA    CN231368  29.065   4.703  -1.002
  281XTA     C631369  29.137   4.585  -0.973
  281XTA     C731370  29.245   4.541  -1.049
  281XTA     C831371  29.291   4.611  -1.164
  281XTA     C931372  29.217   4.731  -1.200
  281XTA    C1031373  29.106   4.771  -1.124
  281XTA    CN331374  28.853   4.777  -0.956
  281XTA    C1131375  28.772   4.674  -1.013
  281XTA    C1231376  28.641   4.700  -1.058
  281XTA    C1331377  28.587   4.834  -1.041
  281XTA    C1431378  28.667   4.930  -0.986
  281XTA    C1531379  28.799   4.909  -0.942
  281XTA     H131380  28.986   4.606  -0.699
  281XTA     H231381  29.074   4.683  -0.480
  281XTA     H331382  29.214   5.044  -0.684
  281XTA     H431383  29.091   4.990  -0.874
  281XTA     H531384  29.125   4.519  -0.884
  281XTA     H631385  29.295   4.452  -1.011
  281XTA     H731386  29.248   4.784  -1.283
  281XTA     H831387  29.054   4.864  -1.151
  281XTA     H931388  28.826   4.580  -1.040
  281XTA    H1031389  28.583   4.622  -1.107
  281XTA    H1131390  28.635   5.033  -0.974
  281XTA    H1231391  28.861   4.995  -0.922
  281XTA    OA131392  29.240   4.900  -0.462
  281XTA    CO131393  29.257   4.804  -0.361
  281XTA    OA231394  29.397   4.571  -1.241
  281XTA    CO231395  29.490   4.483  -1.181
  281XTA    CL131396  29.628   4.503  -1.242
  281XTA    CL231397  29.686   4.636  -1.201
  281XTA    CL331398  29.751   4.710  -1.320
  281XTA    CL431399  29.839   4.833  -1.283
  281XTA    CO331400  29.860   4.935  -1.404
  281XTA    OA331401  29.731   4.992  -1.432
  281XTA    CO431402  29.682   5.051  -1.320
  281XTA    CT131403  29.586   5.161  -1.372
  281XTA    CL531404  29.468   5.109  -1.453
  281XTA    CL631405  29.385   4.997  -1.393
  281XTA    OA431406  28.465   4.863  -1.095
  281XTA    CO531407  28.408   4.989  -1.068
  281XTA    CL731408  28.279   4.985  -1.138
  281XTA    CL831409  28.171   4.892  -1.078
  281XTA    CL931410  28.192   4.742  -1.095
  281XTA   CL1031411  28.059   4.678  -1.068
  281XTA    CO631412  28.072   4.528  -1.084
  281XTA    OA531413  28.140   4.512  -1.204
  281XTA    CO731414  28.050   4.479  -1.316
  281XTA    CT231415  28.138   4.477  -1.448
  281XTA   CL1131416  28.044   4.422  -1.556
  281XTA   CL1231417  28.004   4.276  -1.539
  281XTA    HL131418  29.281   4.708  -0.402
  281XTA    HL231419  29.327   4.842  -0.288
  281XTA    HL331420  29.163   4.789  -0.306
  281XTA    HL431421  29.497   4.496  -1.073
  281XTA    HL531422  29.448   4.382  -1.201
  281XTA    HL631423  29.600   4.497  -1.348
  281XTA    HL731424  29.702   4.427  -1.215
  281XTA    HL831425  29.761   4.645  -1.122
  281XTA    HL931426  29.613   4.707  -1.166
  281XTA   HL1031427  29.820   4.652  -1.385
  281XTA   HL1131428  29.672   4.751  -1.384
  281XTA   HL1231429  29.939   4.800  -1.271
  281XTA   HL1331430  29.808   4.870  -1.187
  281XTA   HL1431431  29.922   5.020  -1.365
  281XTA   HL1531432  29.907   4.883  -1.483
  281XTA   HL1631433  29.629   4.978  -1.253
  281XTA   HL1731434  29.765   5.096  -1.258
  281XTA   HL1831435  29.507   5.066  -1.542
  281XTA   HL1931436  29.413   5.196  -1.485
  281XTA   HL2031437  29.289   4.995  -1.444
  281XTA   HL2131438  29.351   5.005  -1.292
  281XTA   HL2231439  29.436   4.899  -1.395
  281XTA   HL2331440  28.475   5.069  -1.110
  281XTA   HL2431441  28.384   5.004  -0.960
  281XTA   HL2531442  28.246   5.089  -1.139
  281XTA   HL2631443  28.293   4.949  -1.240
  281XTA   HL2731444  28.159   4.918  -0.976
  281XTA   HL2831445  28.088   4.920  -1.134
  281XTA   HL2931446  28.230   4.720  -1.192
  281XTA   HL3031447  28.266   4.705  -1.020
  281XTA   HL3131448  28.023   4.705  -0.976
  281XTA   HL3231449  27.992   4.726  -1.138
  281XTA   HL3331450  28.139   4.487  -1.007
  281XTA   HL3431451  27.979   4.472  -1.075
  281XTA   HL3531452  27.973   4.553  -1.320
  281XTA   HL3631453  28.000   4.391  -1.289
  281XTA   HL3731454  28.093   4.434  -1.651
  281XTA   HL3831455  27.953   4.489  -1.566
  281XTA   HL3931456  28.007   4.242  -1.440
  281XTA   HL4031457  28.072   4.211  -1.599
  281XTA   HL4131458  27.905   4.251  -1.592
  281XTA    CO831459  29.657   5.258  -1.466
  281XTA    CO931460  29.542   5.236  -1.249
  281XTA    OA631461  29.565   5.353  -1.505
  281XTA   HL4231462  29.695   5.199  -1.545
  281XTA   HL4331463  29.744   5.304  -1.418
  281XTA   HL4431464  28.327   4.461  -1.359
  281XTA   HL4531465  28.259   4.303  -1.382
  281XTA   CO1031466  28.266   4.403  -1.431
  281XTA   CO1131467  28.177   4.622  -1.478
  281XTA    OA731468  28.054   4.685  -1.489
  281XTA   HL4631469  28.246   4.657  -1.399
  281XTA   HL4731470  28.235   4.636  -1.573
  281XTA   HL4831471  29.487   5.323  -1.280
  281XTA   HL4931472  29.487   5.169  -1.186
  282XTA     NT31473  29.252   2.034   1.326
  282XTA    CN131474  29.347   1.981   1.248
  282XTA     C131475  29.370   2.017   1.115
  282XTA     C231476  29.475   1.954   1.042
  282XTA     C331477  29.558   1.859   1.100
  282XTA     C431478  29.542   1.827   1.234
  282XTA     C531479  29.435   1.884   1.303
  282XTA    CN231480  29.287   2.108   1.435
  282XTA     C631481  29.276   2.047   1.554
  282XTA     C731482  29.315   2.109   1.670
  282XTA     C831483  29.373   2.238   1.667
  282XTA     C931484  29.383   2.311   1.543
  282XTA    C1031485  29.333   2.246   1.426
  282XTA    CN331486  29.135   2.055   1.275
  282XTA    C1131487  29.035   1.954   1.288
  282XTA    C1231488  28.910   1.978   1.226
  282XTA    C1331489  28.880   2.097   1.159
  282XTA    C1431490  28.982   2.195   1.153
  282XTA    C1531491  29.107   2.177   1.210
  282XTA     H131492  29.314   2.090   1.062
  282XTA     H231493  29.479   1.975   0.938
  282XTA     H331494  29.599   1.757   1.291
  282XTA     H431495  29.421   1.848   1.401
  282XTA     H531496  29.237   1.951   1.553
  282XTA     H631497  29.307   2.063   1.766
  282XTA     H731498  29.434   2.406   1.541
  282XTA     H831499  29.320   2.299   1.327
  282XTA     H931500  29.054   1.869   1.357
  282XTA    H1031501  28.830   1.905   1.230
  282XTA    H1131502  28.958   2.282   1.097
  282XTA    H1231503  29.184   2.248   1.205
  282XTA    OA131504  29.662   1.809   1.025
  282XTA    CO131505  29.768   1.735   1.083
  282XTA    OA231506  29.424   2.283   1.788
  282XTA    CO231507  29.537   2.372   1.785
  282XTA    CL131508  29.623   2.336   1.896
  282XTA    CL231509  29.756   2.422   1.919
  282XTA    CL331510  29.866   2.351   2.010
  282XTA    CL431511  29.922   2.223   1.955
  282XTA    CO331512  30.003   2.146   2.056
  282XTA    OA331513  30.004   2.017   1.993
  282XTA    CO431514  30.065   1.912   2.073
  282XTA    CT131515  30.064   1.778   1.994
  282XTA    CL531516  30.146   1.793   1.873
  282XTA    CL631517  30.185   1.661   1.804
  282XTA    OA431518  28.754   2.112   1.109
  282XTA    CO531519  28.744   2.209   1.006
  282XTA    CL731520  28.639   2.154   0.910
  282XTA    CL831521  28.660   2.190   0.759
  282XTA    CL931522  28.768   2.107   0.701
  282XTA   CL1031523  28.766   2.127   0.548
  282XTA    CO631524  28.874   2.043   0.482
  282XTA    OA531525  28.903   2.105   0.356
  282XTA    CO731526  29.007   2.055   0.272
  282XTA    CT231527  29.022   2.141   0.142
  282XTA   CL1131528  29.162   2.103   0.088
  282XTA   CL1231529  29.292   2.158   0.165
  282XTA    HL131530  29.820   1.808   1.144
  282XTA    HL231531  29.726   1.663   1.145
  282XTA    HL331532  29.823   1.689   1.004
  282XTA    HL431533  29.593   2.358   1.691
  282XTA    HL531534  29.482   2.471   1.781
  282XTA    HL631535  29.639   2.233   1.862
  282XTA    HL731536  29.552   2.344   1.979
  282XTA    HL831537  29.742   2.521   1.971
  282XTA    HL931538  29.816   2.435   1.825
  282XTA   HL1031539  29.949   2.422   2.028
  282XTA   HL1131540  29.830   2.330   2.111
  282XTA   HL1231541  29.976   2.251   1.867
  282XTA   HL1331542  29.838   2.167   1.923
  282XTA   HL1431543  30.107   2.177   2.071
  282XTA   HL1531544  29.960   2.134   2.155
  282XTA   HL1631545  30.162   1.939   2.103
  282XTA   HL1731546  30.006   1.914   2.161
  282XTA   HL1831547  30.233   1.850   1.894
  282XTA   HL1931548  30.081   1.826   1.799
  282XTA   HL2031549  30.225   1.693   1.706
  282XTA   HL2131550  30.110   1.584   1.794
  282XTA   HL2231551  30.264   1.617   1.872
  282XTA   HL2331552  28.838   2.221   0.960
  282XTA   HL2431553  28.725   2.304   1.050
  282XTA   HL2531554  28.637   2.045   0.931
  282XTA   HL2631555  28.540   2.183   0.955
  282XTA   HL2731556  28.568   2.165   0.711
  282XTA   HL2831557  28.681   2.297   0.744
  282XTA   HL2931558  28.859   2.125   0.748
  282XTA   HL3031559  28.753   2.001   0.709
  282XTA   HL3131560  28.667   2.115   0.506
  282XTA   HL3231561  28.779   2.233   0.520
  282XTA   HL3331562  28.965   2.050   0.537
  282XTA   HL3431563  28.839   1.942   0.456
  282XTA   HL3531564  28.978   1.954   0.245
  282XTA   HL3631565  29.098   2.063   0.329
  282XTA   HL3731566  29.179   2.141  -0.017
  282XTA   HL3831567  29.163   1.993   0.088
  282XTA   HL3931568  29.298   2.142   0.269
  282XTA   HL4031569  29.294   2.265   0.156
  282XTA   HL4131570  29.389   2.128   0.116
  282XTA    CO831571  29.916   1.732   1.974
  282XTA    CO931572  30.119   1.666   2.085
  282XTA    OA631573  30.222   1.662   2.111
  282XTA   HL4231574  29.878   1.738   2.079
  282XTA   HL4331575  29.839   1.825   1.896
  282XTA   HL4431576  29.077   2.331   0.084
  282XTA   HL4531577  28.904   2.328   0.147
  282XTA   CO1031578  29.007   2.294   0.167
  282XTA   CO1131579  28.919   2.104   0.044
  282XTA    OA731580  28.794   2.102   0.099
  282XTA   HL4631581  28.919   2.174  -0.043
  282XTA   HL4731582  28.945   2.004   0.006
  282XTA   HL4831583  30.062   1.688   2.172
  282XTA   HL4931584  30.088   1.566   2.051
  283XTA     NT31585  26.113   5.513   1.564
  283XTA    CN131586  26.230   5.481   1.619
  283XTA     C131587  26.343   5.565   1.620
  283XTA     C231588  26.465   5.514   1.672
  283XTA     C331589  26.481   5.385   1.730
  283XTA     C431590  26.362   5.309   1.732
  283XTA     C531591  26.239   5.347   1.674
  283XTA    CN231592  26.115   5.494   1.428
  283XTA     C631593  26.107   5.364   1.370
  283XTA     C731594  26.127   5.341   1.230
  283XTA     C831595  26.140   5.456   1.150
  283XTA     C931596  26.162   5.587   1.203
  283XTA    C1031597  26.144   5.605   1.340
  283XTA    CN331598  26.017   5.573   1.637
  283XTA    C1131599  25.992   5.716   1.637
  283XTA    C1231600  25.896   5.783   1.713
  283XTA    C1331601  25.817   5.701   1.801
  283XTA    C1431602  25.835   5.565   1.795
  283XTA    C1531603  25.932   5.499   1.720
  283XTA     H131604  26.334   5.661   1.572
  283XTA     H231605  26.549   5.577   1.657
  283XTA     H331606  26.382   5.211   1.776
  283XTA     H431607  26.156   5.280   1.693
  283XTA     H531608  26.066   5.291   1.437
  283XTA     H631609  26.111   5.247   1.186
  283XTA     H731610  26.182   5.675   1.153
  283XTA     H831611  26.159   5.702   1.381
  283XTA     H931612  26.053   5.783   1.577
  283XTA    H1031613  25.887   5.891   1.704
  283XTA    H1131614  25.782   5.504   1.861
  283XTA    H1231615  25.943   5.389   1.726
  283XTA    OA131616  26.604   5.332   1.765
  283XTA    CO131617  26.705   5.417   1.798
  283XTA    OA231618  26.146   5.435   1.014
  283XTA    CO231619  26.179   5.543   0.931
  283XTA    CL131620  26.178   5.483   0.788
  283XTA    CL231621  26.202   5.571   0.668
  283XTA    CL331622  26.251   5.505   0.539
  283XTA    CL431623  26.304   5.356   0.556
  283XTA    CO331624  26.343   5.299   0.416
  283XTA    OA331625  26.231   5.299   0.331
  283XTA    CO431626  26.254   5.236   0.207
  283XTA    CT131627  26.130   5.243   0.115
  283XTA    CL531628  26.121   5.369   0.024
  283XTA    CL631629  26.152   5.495   0.103
  283XTA    OA431630  25.720   5.739   1.885
  283XTA    CO531631  25.689   5.877   1.879
  283XTA    CL731632  25.799   5.971   1.942
  283XTA    CL831633  25.826   5.925   2.087
  283XTA    CL931634  25.938   6.008   2.158
  283XTA   CL1031635  26.005   5.930   2.271
  283XTA    CO631636  26.134   5.987   2.330
  283XTA    OA531637  26.122   6.110   2.405
  283XTA    CO731638  26.029   6.088   2.514
  283XTA    CT231639  26.033   6.192   2.625
  283XTA   CL1131640  26.148   6.159   2.718
  283XTA   CL1231641  26.290   6.140   2.658
  283XTA    HL131642  26.685   5.501   1.860
  283XTA    HL231643  26.780   5.366   1.850
  283XTA    HL331644  26.746   5.452   1.698
  283XTA    HL431645  26.111   5.628   0.943
  283XTA    HL531646  26.279   5.584   0.963
  283XTA    HL631647  26.085   5.433   0.756
  283XTA    HL731648  26.250   5.403   0.791
  283XTA    HL831649  26.283   5.636   0.698
  283XTA    HL931650  26.121   5.632   0.634
  283XTA   HL1031651  26.160   5.517   0.474
  283XTA   HL1131652  26.326   5.565   0.485
  283XTA   HL1231653  26.234   5.283   0.600
  283XTA   HL1331654  26.399   5.359   0.615
  283XTA   HL1431655  26.419   5.367   0.369
  283XTA   HL1531656  26.393   5.195   0.424
  283XTA   HL1631657  26.339   5.287   0.166
  283XTA   HL1731658  26.291   5.131   0.232
  283XTA   HL1831659  26.029   5.377  -0.033
  283XTA   HL1931660  26.179   5.366  -0.066
  283XTA   HL2031661  26.257   5.500   0.129
  283XTA   HL2131662  26.096   5.505   0.188
  283XTA   HL2231663  26.146   5.580   0.036
  283XTA   HL2331664  25.590   5.895   1.924
  283XTA   HL2431665  25.660   5.908   1.775
  283XTA   HL2531666  25.897   5.970   1.896
  283XTA   HL2631667  25.767   6.074   1.929
  283XTA   HL2731668  25.733   5.946   2.140
  283XTA   HL2831669  25.860   5.825   2.089
  283XTA   HL2931670  26.010   6.055   2.085
  283XTA   HL3031671  25.903   6.094   2.214
  283XTA   HL3131672  25.929   5.917   2.348
  283XTA   HL3231673  26.013   5.822   2.247
  283XTA   HL3331674  26.185   5.916   2.393
  283XTA   HL3431675  26.204   6.021   2.255
  283XTA   HL3531676  26.040   5.989   2.566
  283XTA   HL3631677  25.924   6.087   2.476
  283XTA   HL3731678  26.124   6.072   2.774
  283XTA   HL3831679  26.154   6.234   2.796
  283XTA   HL3931680  26.300   6.216   2.584
  283XTA   HL4031681  26.290   6.046   2.609
  283XTA   HL4131682  26.372   6.151   2.730
  283XTA    CO831683  26.007   5.227   0.206
  283XTA    CO931684  26.122   5.115   0.029
  283XTA    OA631685  25.880   5.223   0.149
  283XTA   HL4231686  26.008   5.311   0.283
  283XTA   HL4331687  26.024   5.139   0.273
  283XTA   HL4431688  25.891   6.038   2.744
  283XTA   HL4531689  25.909   6.241   2.799
  283XTA   CO1031690  25.900   6.171   2.705
  283XTA   CO1131691  26.037   6.339   2.571
  283XTA    OA731692  26.047   6.412   2.650
  283XTA   HL4631693  26.121   6.344   2.503
  283XTA   HL4731694  25.945   6.358   2.520
  283XTA   HL4831695  26.021   5.083   0.006
  283XTA   HL4931696  26.147   5.033   0.100
  284XTA     NT31697  30.667   2.755   4.291
  284XTA    CN131698  30.641   2.788   4.420
  284XTA     C131699  30.519   2.764   4.483
  284XTA     C231700  30.508   2.798   4.618
  284XTA     C331701  30.610   2.856   4.691
  284XTA     C431702  30.732   2.886   4.629
  284XTA     C531703  30.745   2.845   4.494
  284XTA    CN231704  30.622   2.630   4.247
  284XTA     C631705  30.630   2.517   4.322
  284XTA     C731706  30.609   2.387   4.269
  284XTA     C831707  30.576   2.367   4.131
  284XTA     C931708  30.546   2.483   4.061
  284XTA    C1031709  30.564   2.609   4.120
  284XTA    CN331710  30.707   2.853   4.207
  284XTA    C1131711  30.803   2.834   4.107
  284XTA    C1231712  30.848   2.941   4.033
  284XTA    C1331713  30.776   3.063   4.037
  284XTA    C1431714  30.667   3.080   4.123
  284XTA    C1531715  30.640   2.978   4.215
  284XTA     H131716  30.434   2.719   4.423
  284XTA     H231717  30.413   2.779   4.662
  284XTA     H331718  30.817   2.934   4.684
  284XTA     H431719  30.842   2.851   4.455
  284XTA     H531720  30.656   2.527   4.427
  284XTA     H631721  30.630   2.302   4.332
  284XTA     H731722  30.513   2.477   3.958
  284XTA     H831723  30.543   2.689   4.049
  284XTA     H931724  30.845   2.739   4.101
  284XTA    H1031725  30.941   2.938   3.981
  284XTA    H1131726  30.603   3.164   4.110
  284XTA    H1231727  30.556   2.997   4.287
  284XTA    OA131728  30.583   2.883   4.823
  284XTA    CO131729  30.679   2.937   4.906
  284XTA    OA231730  30.555   2.241   4.077
  284XTA    CO231731  30.554   2.132   4.168
  284XTA    CL131732  30.491   2.021   4.081
  284XTA    CL231733  30.348   2.051   4.023
  284XTA    CL331734  30.251   2.067   4.134
  284XTA    CL431735  30.110   2.083   4.084
  284XTA    CO331736  29.999   2.062   4.190
  284XTA    OA331737  29.994   1.935   4.231
  284XTA    CO431738  29.937   1.846   4.144
  284XTA    CT131739  29.944   1.708   4.213
  284XTA    CL531740  29.861   1.720   4.342
  284XTA    CL631741  29.709   1.765   4.336
  284XTA    OA431742  30.814   3.174   3.961
  284XTA    CO531743  30.883   3.160   3.842
  284XTA    CL731744  30.858   3.281   3.756
  284XTA    CL831745  30.894   3.416   3.821
  284XTA    CL931746  31.048   3.423   3.852
  284XTA   CL1031747  31.074   3.375   4.002
  284XTA    CO631748  31.219   3.365   4.022
  284XTA    OA531749  31.268   3.252   3.945
  284XTA    CO731750  31.404   3.231   3.952
  284XTA    CT231751  31.472   3.248   3.817
  284XTA   CL1131752  31.630   3.211   3.823
  284XTA   CL1231753  31.668   3.067   3.848
  284XTA    HL131754  30.692   3.038   4.883
  284XTA    HL231755  30.658   2.927   5.006
  284XTA    HL331756  30.774   2.886   4.893
  284XTA    HL431757  30.663   2.098   4.189
  284XTA    HL531758  30.501   2.164   4.254
  284XTA    HL631759  30.487   1.926   4.139
  284XTA    HL731760  30.547   1.994   3.991
  284XTA    HL831761  30.331   1.959   3.964
  284XTA    HL931762  30.342   2.130   3.953
  284XTA   HL1031763  30.248   1.984   4.204
  284XTA   HL1131764  30.268   2.147   4.198
  284XTA   HL1231765  30.085   2.022   4.002
  284XTA   HL1331766  30.103   2.184   4.046
  284XTA   HL1431767  30.010   2.135   4.279
  284XTA   HL1531768  29.902   2.090   4.144
  284XTA   HL1631769  29.830   1.872   4.120
  284XTA   HL1731770  29.991   1.839   4.056
  284XTA   HL1831771  29.907   1.792   4.407
  284XTA   HL1931772  29.860   1.619   4.387
  284XTA   HL2031773  29.660   1.705   4.259
  284XTA   HL2131774  29.692   1.870   4.319
  284XTA   HL2231775  29.657   1.740   4.431
  284XTA   HL2331776  30.829   3.076   3.799
  284XTA   HL2431777  30.989   3.118   3.846
  284XTA   HL2531778  30.903   3.270   3.655
  284XTA   HL2631779  30.749   3.294   3.734
  284XTA   HL2731780  30.862   3.495   3.752
  284XTA   HL2831781  30.842   3.438   3.910
  284XTA   HL2931782  31.097   3.363   3.774
  284XTA   HL3031783  31.061   3.526   3.822
  284XTA   HL3131784  31.036   3.451   4.076
  284XTA   HL3231785  31.015   3.287   4.019
  284XTA   HL3331786  31.276   3.452   4.003
  284XTA   HL3431787  31.230   3.337   4.129
  284XTA   HL3531788  31.435   3.137   3.992
  284XTA   HL3631789  31.450   3.297   4.025
  284XTA   HL3731790  31.674   3.281   3.907
  284XTA   HL3831791  31.693   3.237   3.732
  284XTA   HL3931792  31.601   2.998   3.796
  284XTA   HL4031793  31.650   3.049   3.958
  284XTA   HL4131794  31.770   3.043   3.810
  284XTA    CO831795  30.091   1.668   4.245
  284XTA    CO931796  29.884   1.594   4.126
  284XTA    OA631797  30.102   1.557   4.339
  284XTA   HL4231798  30.123   1.750   4.298
  284XTA   HL4331799  30.155   1.667   4.152
  284XTA   HL4431800  31.368   3.446   3.802
  284XTA   HL4531801  31.535   3.451   3.857
  284XTA   CO1031802  31.467   3.396   3.782
  284XTA   CO1131803  31.391   3.176   3.706
  284XTA    OA731804  31.506   3.422   3.680
  284XTA   HL4631805  31.279   3.248   3.657
  284XTA   HL4731806  31.354   3.093   3.766
  284XTA   HL4831807  29.892   1.503   4.172
  284XTA   HL4931808  29.781   1.613   4.091
  285XTA     NT31809  31.178   2.197   2.258
  285XTA    CN131810  31.219   2.071   2.255
  285XTA     C131811  31.264   2.010   2.374
  285XTA     C231812  31.310   1.877   2.368
  285XTA     C331813  31.307   1.802   2.253
  285XTA     C431814  31.262   1.864   2.135
  285XTA     C531815  31.221   1.999   2.133
  285XTA    CN231816  31.269   2.294   2.263
  285XTA     C631817  31.353   2.322   2.152
  285XTA     C731818  31.455   2.423   2.156
  285XTA     C831819  31.471   2.493   2.277
  285XTA     C931820  31.388   2.466   2.392
  285XTA    C1031821  31.286   2.372   2.383
  285XTA    CN331822  31.048   2.221   2.245
  285XTA    C1131823  30.964   2.221   2.356
  285XTA    C1231824  30.824   2.240   2.339
  285XTA    C1331825  30.768   2.257   2.212
  285XTA    C1431826  30.847   2.261   2.102
  285XTA    C1531827  30.989   2.251   2.119
  285XTA     H131828  31.274   2.063   2.464
  285XTA     H231829  31.333   1.836   2.464
  285XTA     H331830  31.267   1.804   2.045
  285XTA     H431831  31.187   2.054   2.044
  285XTA     H531832  31.336   2.277   2.056
  285XTA     H631833  31.515   2.445   2.067
  285XTA     H731834  31.393   2.517   2.487
  285XTA     H831835  31.216   2.361   2.472
  285XTA     H931836  31.007   2.209   2.454
  285XTA    H1031837  30.758   2.263   2.423
  285XTA    H1131838  30.815   2.281   2.004
  285XTA    H1231839  31.061   2.243   2.037
  285XTA    OA131840  31.350   1.665   2.252
  285XTA    CO131841  31.300   1.595   2.368
  285XTA    OA231842  31.576   2.582   2.272
  285XTA    CO231843  31.629   2.617   2.399
  285XTA    CL131844  31.727   2.731   2.362
  285XTA    CL231845  31.813   2.785   2.473
  285XTA    CL331846  31.736   2.838   2.590
  285XTA    CL431847  31.638   2.955   2.554
  285XTA    CO331848  31.571   3.008   2.683
  285XTA    OA331849  31.520   2.902   2.768
  285XTA    CO431850  31.436   2.955   2.869
  285XTA    CT131851  31.411   2.845   2.973
  285XTA    CL531852  31.532   2.756   2.997
  285XTA    CL631853  31.665   2.833   3.021
  285XTA    OA431854  30.639   2.284   2.199
  285XTA    CO531855  30.561   2.239   2.303
  285XTA    CL731856  30.416   2.240   2.257
  285XTA    CL831857  30.315   2.177   2.357
  285XTA    CL931858  30.340   2.018   2.363
  285XTA   CL1031859  30.271   1.947   2.478
  285XTA    CO631860  30.342   1.825   2.535
  285XTA    OA531861  30.323   1.705   2.450
  285XTA    CO731862  30.416   1.691   2.342
  285XTA    CT231863  30.391   1.570   2.247
  285XTA   CL1131864  30.416   1.445   2.340
  285XTA   CL1231865  30.387   1.310   2.296
  285XTA    HL131866  31.347   1.499   2.370
  285XTA    HL231867  31.327   1.644   2.464
  285XTA    HL331868  31.192   1.587   2.350
  285XTA    HL431869  31.546   2.651   2.459
  285XTA    HL531870  31.690   2.536   2.440
  285XTA    HL631871  31.685   2.807   2.305
  285XTA    HL731872  31.787   2.681   2.286
  285XTA    HL831873  31.873   2.865   2.434
  285XTA    HL931874  31.869   2.696   2.518
  285XTA   HL1031875  31.678   2.760   2.644
  285XTA   HL1131876  31.808   2.859   2.669
  285XTA   HL1231877  31.570   2.922   2.477
  285XTA   HL1331878  31.686   3.046   2.513
  285XTA   HL1431879  31.635   3.067   2.753
  285XTA   HL1531880  31.486   3.071   2.651
  285XTA   HL1631881  31.494   3.036   2.916
  285XTA   HL1731882  31.341   2.999   2.830
  285XTA   HL1831883  31.548   2.678   2.918
  285XTA   HL1931884  31.507   2.696   3.089
  285XTA   HL2031885  31.754   2.767   3.008
  285XTA   HL2131886  31.673   2.869   3.123
  285XTA   HL2231887  31.680   2.917   2.948
  285XTA   HL2331888  30.569   2.307   2.386
  285XTA   HL2431889  30.585   2.136   2.332
  285XTA   HL2531890  30.382   2.344   2.234
  285XTA   HL2631891  30.407   2.179   2.164
  285XTA   HL2731892  30.342   2.226   2.455
  285XTA   HL2831893  30.212   2.210   2.336
  285XTA   HL2931894  30.281   1.978   2.275
  285XTA   HL3031895  30.442   1.990   2.359
  285XTA   HL3131896  30.271   2.027   2.555
  285XTA   HL3231897  30.169   1.919   2.454
  285XTA   HL3331898  30.452   1.842   2.554
  285XTA   HL3431899  30.281   1.806   2.626
  285XTA   HL3531900  30.515   1.690   2.395
  285XTA   HL3631901  30.415   1.779   2.283
  285XTA   HL3731902  30.375   1.458   2.443
  285XTA   HL3831903  30.518   1.453   2.347
  285XTA   HL3931904  30.280   1.290   2.311
  285XTA   HL4031905  30.442   1.232   2.357
  285XTA   HL4131906  30.424   1.300   2.197
  285XTA    CO831907  31.300   2.755   2.917
  285XTA    CO931908  31.359   2.916   3.099
  285XTA    OA631909  31.452   3.005   3.151
  285XTA   HL4231910  31.341   2.699   2.840
  285XTA   HL4331911  31.239   2.823   2.861
  285XTA   HL4431912  30.593   1.584   2.177
  285XTA   HL4531913  30.506   1.477   2.096
  285XTA   CO1031914  30.494   1.575   2.135
  285XTA   CO1131915  30.251   1.543   2.191
  285XTA    OA731916  30.479   1.626   2.039
  285XTA   HL4631917  30.156   1.526   2.292
  285XTA   HL4731918  30.258   1.455   2.131
  285XTA   HL4831919  31.335   2.846   3.183
  285XTA   HL4931920  31.264   2.964   3.073
  286XTA     NT31921  30.055   2.586   6.050
  286XTA    CN131922  29.988   2.611   5.936
  286XTA     C131923  29.849   2.651   5.932
  286XTA     C231924  29.775   2.671   5.808
  286XTA     C331925  29.840   2.638   5.684
  286XTA     C431926  29.975   2.598   5.690
  286XTA     C531927  30.048   2.586   5.811
  286XTA    CN231928  29.995   2.515   6.145
  286XTA     C631929  29.946   2.585   6.261
  286XTA     C731930  29.914   2.520   6.378
  286XTA     C831931  29.912   2.374   6.372
  286XTA     C931932  29.957   2.307   6.254
  286XTA    C1031933  29.993   2.378   6.142
  286XTA    CN331934  30.187   2.613   6.059
  286XTA    C1131935  30.287   2.517   6.034
  286XTA    C1231936  30.421   2.553   6.057
  286XTA    C1331937  30.460   2.676   6.111
  286XTA    C1431938  30.358   2.775   6.138
  286XTA    C1531939  30.224   2.739   6.111
  286XTA     H131940  29.791   2.664   6.022
  286XTA     H231941  29.672   2.691   5.807
  286XTA     H331942  30.024   2.587   5.592
  286XTA     H431943  30.153   2.557   5.802
  286XTA     H531944  29.944   2.694   6.260
  286XTA     H631945  29.890   2.577   6.464
  286XTA     H731946  29.961   2.197   6.260
  286XTA     H831947  30.031   2.324   6.057
  286XTA     H931948  30.270   2.419   6.011
  286XTA    H1031949  30.501   2.489   6.032
  286XTA    H1131950  30.377   2.875   6.175
  286XTA    H1231951  30.152   2.815   6.131
  286XTA    OA131952  29.777   2.617   5.564
  286XTA    CO131953  29.627   2.606   5.575
  286XTA    OA231954  29.886   2.292   6.476
  286XTA    CO231955  29.991   2.284   6.571
  286XTA    CL131956  29.933   2.232   6.700
  286XTA    CL231957  30.035   2.231   6.811
  286XTA    CL331958  29.968   2.192   6.948
  286XTA    CL431959  30.070   2.148   7.059
  286XTA    CO331960  30.102   1.994   7.050
  286XTA    OA331961  30.163   1.963   6.926
  286XTA    CO431962  30.174   1.826   6.898
  286XTA    CT131963  30.241   1.814   6.756
  286XTA    CL531964  30.392   1.856   6.775
  286XTA    CL631965  30.424   2.009   6.788
  286XTA    OA431966  30.594   2.680   6.150
  286XTA    CO531967  30.651   2.805   6.192
  286XTA    CL731968  30.741   2.867   6.077
  286XTA    CL831969  30.660   2.897   5.949
  286XTA    CL931970  30.730   2.987   5.847
  286XTA   CL1031971  30.723   3.141   5.860
  286XTA    CO631972  30.791   3.222   5.747
  286XTA    OA531973  30.721   3.346   5.729
  286XTA    CO731974  30.749   3.448   5.830
  286XTA    CT231975  30.845   3.556   5.770
  286XTA   CL1131976  30.767   3.632   5.657
  286XTA   CL1231977  30.846   3.745   5.584
  286XTA    HL131978  29.578   2.698   5.601
  286XTA    HL231979  29.612   2.579   5.474
  286XTA    HL331980  29.581   2.525   5.637
  286XTA    HL431981  30.071   2.228   6.523
  286XTA    HL531982  30.023   2.384   6.600
  286XTA    HL631983  29.895   2.133   6.684
  286XTA    HL731984  29.852   2.295   6.726
  286XTA    HL831985  30.087   2.326   6.813
  286XTA    HL931986  30.107   2.159   6.786
  286XTA   HL1031987  29.896   2.275   6.975
  286XTA   HL1131988  29.894   2.117   6.922
  286XTA   HL1231989  30.032   2.169   7.160
  286XTA   HL1331990  30.165   2.210   7.056
  286XTA   HL1431991  30.177   1.969   7.122
  286XTA   HL1531992  30.011   1.935   7.080
  286XTA   HL1631993  30.233   1.776   6.969
  286XTA   HL1731994  30.072   1.778   6.889
  286XTA   HL1831995  30.450   1.821   6.683
  286XTA   HL1931996  30.442   1.810   6.867
  286XTA   HL2031997  30.408   2.037   6.894
  286XTA   HL2131998  30.364   2.063   6.716
  286XTA   HL2231999  30.531   2.018   6.771
  286XTA   HL2332000  30.717   2.797   6.275
  286XTA   HL2432001  30.584   2.882   6.231
  286XTA   HL2532002  30.784   2.962   6.108
  286XTA   HL2632003  30.825   2.808   6.050
  286XTA   HL2732004  30.638   2.804   5.894
  286XTA   HL2832005  30.564   2.942   5.979
  286XTA   HL2932006  30.834   2.947   5.843
  286XTA   HL3032007  30.690   2.959   5.749
  286XTA   HL3132008  30.621   3.175   5.867
  286XTA   HL3232009  30.760   3.184   5.957
  286XTA   HL3332010  30.895   3.232   5.776
  286XTA   HL3432011  30.787   3.158   5.656
  286XTA   HL3532012  30.771   3.408   5.924
  286XTA   HL3632013  30.652   3.504   5.827
  286XTA   HL3732014  30.667   3.653   5.688
  286XTA   HL3832015  30.755   3.559   5.581
  286XTA   HL3932016  30.775   3.800   5.522
  286XTA   HL4032017  30.931   3.708   5.523
  286XTA   HL4132018  30.894   3.815   5.650
  286XTA    CO832019  30.158   1.885   6.644
  286XTA    CO932020  30.233   1.668   6.715
  286XTA    OA632021  30.103   1.619   6.702
  286XTA   HL4232022  30.130   1.979   6.672
  286XTA   HL4332023  30.069   1.822   6.623
  286XTA   HL4432024  31.029   3.437   5.779
  286XTA   HL4532025  30.962   3.420   5.630
  286XTA   CO1032026  30.974   3.497   5.711
  286XTA   CO1132027  30.879   3.653   5.879
  286XTA    OA732028  31.055   3.608   5.659
  286XTA   HL4632029  30.787   3.696   5.920
  286XTA   HL4732030  30.933   3.734   5.845
  286XTA   HL4832031  30.287   1.614   6.790
  286XTA   HL4932032  30.285   1.669   6.619
  287XTA     NT32033  29.731   2.079   8.092
  287XTA    CN132034  29.615   2.014   8.120
  287XTA     C132035  29.609   1.895   8.189
  287XTA     C232036  29.488   1.818   8.205
  287XTA     C332037  29.370   1.856   8.137
  287XTA     C432038  29.364   1.984   8.079
  287XTA     C532039  29.487   2.058   8.065
  287XTA    CN232040  29.798   2.123   8.196
  287XTA     C632041  29.899   2.047   8.261
  287XTA     C732042  29.943   2.087   8.387
  287XTA     C832043  29.914   2.212   8.441
  287XTA     C932044  29.830   2.295   8.371
  287XTA    C1032045  29.773   2.252   8.246
  287XTA    CN332046  29.788   2.063   7.967
  287XTA    C1132047  29.829   2.177   7.895
  287XTA    C1232048  29.895   2.169   7.769
  287XTA    C1332049  29.913   2.036   7.713
  287XTA    C1432050  29.875   1.923   7.790
  287XTA    C1532051  29.814   1.937   7.920
  287XTA     H132052  29.698   1.854   8.226
  287XTA     H232053  29.502   1.717   8.245
  287XTA     H332054  29.271   2.028   8.043
  287XTA     H432055  29.483   2.152   8.004
  287XTA     H532056  29.925   1.951   8.204
  287XTA     H632057  30.006   2.017   8.439
  287XTA     H732058  29.804   2.386   8.426
  287XTA     H832059  29.700   2.310   8.193
  287XTA     H932060  29.807   2.274   7.929
  287XTA    H1032061  29.923   2.251   7.705
  287XTA    H1132062  29.897   1.828   7.750
  287XTA    H1232063  29.779   1.852   7.973
  287XTA    OA132064  29.265   1.768   8.133
  287XTA    CO132065  29.275   1.694   8.017
  287XTA    OA232066  29.967   2.254   8.566
  287XTA    CO232067  30.098   2.206   8.590
  287XTA    CL132068  30.166   2.266   8.712
  287XTA    CL232069  30.151   2.412   8.703
  287XTA    CL332070  30.256   2.476   8.613
  287XTA    CL432071  30.242   2.629   8.606
  287XTA    CO332072  30.332   2.698   8.507
  287XTA    OA332073  30.302   2.837   8.490
  287XTA    CO432074  30.352   2.920   8.597
  287XTA    CT132075  30.294   3.063   8.598
  287XTA    CL532076  30.139   3.044   8.591
  287XTA    CL632077  30.058   3.178   8.596
  287XTA    OA432078  29.951   2.018   7.584
  287XTA    CO532079  29.844   2.002   7.493
  287XTA    CL732080  29.834   2.137   7.417
  287XTA    CL832081  29.727   2.136   7.302
  287XTA    CL932082  29.696   2.278   7.245
  287XTA   CL1032083  29.591   2.257   7.139
  287XTA    CO632084  29.545   2.389   7.084
  287XTA    OA532085  29.463   2.368   6.972
  287XTA    CO732086  29.391   2.493   6.939
  287XTA    CT232087  29.280   2.466   6.830
  287XTA   CL1132088  29.204   2.597   6.810
  287XTA   CL1232089  29.276   2.728   6.788
  287XTA    HL132090  29.179   1.650   7.997
  287XTA    HL232091  29.304   1.766   7.939
  287XTA    HL332092  29.345   1.612   8.024
  287XTA    HL432093  30.088   2.100   8.608
  287XTA    HL532094  30.164   2.229   8.503
  287XTA    HL632095  30.269   2.225   8.727
  287XTA    HL732096  30.114   2.238   8.798
  287XTA    HL832097  30.145   2.455   8.802
  287XTA    HL932098  30.061   2.430   8.649
  287XTA   HL1032099  30.354   2.449   8.640
  287XTA   HL1132100  30.248   2.452   8.510
  287XTA   HL1232101  30.220   2.684   8.704
  287XTA   HL1332102  30.146   2.636   8.560
  287XTA   HL1432103  30.432   2.689   8.544
  287XTA   HL1532104  30.333   2.638   8.416
  287XTA   HL1632105  30.335   2.879   8.696
  287XTA   HL1732106  30.468   2.925   8.589
  287XTA   HL1832107  30.111   2.969   8.675
  287XTA   HL1932108  30.114   2.997   8.489
  287XTA   HL2032109  30.059   3.245   8.507
  287XTA   HL2132110  30.079   3.239   8.679
  287XTA   HL2232111  29.955   3.154   8.588
  287XTA   HL2332112  29.748   1.988   7.546
  287XTA   HL2432113  29.863   1.925   7.431
  287XTA   HL2532114  29.806   2.223   7.484
  287XTA   HL2632115  29.931   2.168   7.375
  287XTA   HL2732116  29.755   2.067   7.220
  287XTA   HL2832117  29.636   2.095   7.353
  287XTA   HL2932118  29.653   2.336   7.322
  287XTA   HL3032119  29.787   2.330   7.209
  287XTA   HL3132120  29.620   2.194   7.059
  287XTA   HL3232121  29.496   2.212   7.179
  287XTA   HL3332122  29.470   2.430   7.153
  287XTA   HL3432123  29.626   2.463   7.067
  287XTA   HL3532124  29.465   2.576   6.914
  287XTA   HL3632125  29.332   2.524   7.029
  287XTA   HL3732126  29.138   2.618   6.887
  287XTA   HL3832127  29.153   2.580   6.718
  287XTA   HL3932128  29.208   2.816   6.775
  287XTA   HL4032129  29.335   2.736   6.696
  287XTA   HL4132130  29.344   2.762   6.871
  287XTA    CO832131  30.344   3.138   8.473
  287XTA    CO932132  30.333   3.144   8.723
  287XTA    OA632133  30.454   3.173   8.485
  287XTA   HL4232134  30.280   3.228   8.464
  287XTA   HL4332135  30.329   3.088   8.381
  287XTA   HL4432136  29.108   2.405   6.942
  287XTA   HL4532137  29.238   2.290   6.944
  287XTA   CO1032138  29.183   2.355   6.878
  287XTA   CO1132139  29.353   2.432   6.697
  287XTA    OA732140  29.444   2.325   6.706
  287XTA   HL4632141  29.267   2.404   6.627
  287XTA   HL4732142  29.406   2.519   6.659
  287XTA   HL4832143  30.314   3.287   8.697
  287XTA   HL4932144  30.440   3.128   8.744
  288XTA     NT32145  30.752   3.637   1.827
  288XTA    CN132146  30.767   3.772   1.848
  288XTA     C132147  30.677   3.865   1.798
  288XTA     C232148  30.692   4.003   1.815
  288XTA     C332149  30.799   4.054   1.892
  288XTA     C432150  30.893   3.962   1.947
  288XTA     C532151  30.880   3.822   1.921
  288XTA    CN232152  30.757   3.589   1.705
  288XTA     C632153  30.858   3.633   1.617
  288XTA     C732154  30.842   3.602   1.484
  288XTA     C832155  30.740   3.523   1.438
  288XTA     C932156  30.643   3.473   1.523
  288XTA    C1032157  30.653   3.505   1.661
  288XTA    CN332158  30.710   3.560   1.927
  288XTA    C1132159  30.585   3.586   1.983
  288XTA    C1232160  30.533   3.489   2.071
  288XTA    C1332161  30.604   3.373   2.104
  288XTA    C1432162  30.727   3.353   2.056
  288XTA    C1532163  30.788   3.453   1.969
  288XTA     H132164  30.590   3.838   1.742
  288XTA     H232165  30.618   4.070   1.766
  288XTA     H332166  30.984   3.998   1.995
  288XTA     H432167  30.963   3.766   1.967
  288XTA     H532168  30.948   3.691   1.648
  288XTA     H632169  30.926   3.622   1.417
  288XTA     H732170  30.569   3.406   1.479
  288XTA     H832171  30.592   3.460   1.738
  288XTA     H932172  30.526   3.676   1.948
  288XTA    H1032173  30.439   3.501   2.112
  288XTA    H1132174  30.775   3.258   2.076
  288XTA    H1232175  30.889   3.434   1.932
  288XTA    OA132176  30.827   4.188   1.902
  288XTA    CO132177  30.715   4.264   1.913
  288XTA    OA232178  30.729   3.483   1.306
  288XTA    CO232179  30.781   3.574   1.207
  288XTA    CL132180  30.692   3.692   1.186
  288XTA    CL232181  30.541   3.660   1.172
  288XTA    CL332182  30.470   3.764   1.091
  288XTA    CL432183  30.467   3.905   1.146
  288XTA    CO332184  30.361   4.001   1.080
  288XTA    OA332185  30.234   3.937   1.068
  288XTA    CO432186  30.201   3.883   0.942
  288XTA    CT132187  30.054   3.834   0.940
  288XTA    CL532188  29.962   3.945   0.997
  288XTA    CL632189  29.811   3.926   0.998
  288XTA    OA432190  30.564   3.274   2.190
  288XTA    CO532191  30.445   3.304   2.268
  288XTA    CL732192  30.473   3.392   2.386
  288XTA    CL832193  30.351   3.416   2.474
  288XTA    CL932194  30.383   3.504   2.596
  288XTA   CL1032195  30.391   3.659   2.561
  288XTA    CO632196  30.408   3.743   2.681
  288XTA    OA532197  30.387   3.889   2.675
  288XTA    CO732198  30.265   3.923   2.621
  288XTA    CT232199  30.240   4.064   2.655
  288XTA   CL1132200  30.110   4.116   2.587
  288XTA   CL1232201  30.108   4.113   2.431
  288XTA    HL132202  30.744   4.371   1.923
  288XTA    HL232203  30.655   4.259   1.818
  288XTA    HL332204  30.641   4.223   1.990
  288XTA    HL432205  30.887   3.603   1.230
  288XTA    HL532206  30.790   3.512   1.120
  288XTA    HL632207  30.731   3.747   1.104
  288XTA    HL732208  30.700   3.773   1.264
  288XTA    HL832209  30.496   3.660   1.275
  288XTA    HL932210  30.522   3.564   1.126
  288XTA   HL1032211  30.518   3.770   0.994
  288XTA   HL1132212  30.374   3.738   1.065
  288XTA   HL1232213  30.563   3.948   1.172
  288XTA   HL1332214  30.423   3.894   1.242
  288XTA   HL1432215  30.327   4.085   1.136
  288XTA   HL1532216  30.401   4.036   0.991
  288XTA   HL1632217  30.219   3.970   0.877
  288XTA   HL1732218  30.265   3.798   0.919
  288XTA   HL1832219  29.996   4.041   0.955
  288XTA   HL1932220  29.988   3.951   1.110
  288XTA   HL2032221  29.765   3.852   0.930
  288XTA   HL2132222  29.777   4.022   0.989
  288XTA   HL2232223  29.782   3.886   1.100
  288XTA   HL2332224  30.411   3.211   2.311
  288XTA   HL2432225  30.353   3.322   2.216
  288XTA   HL2532226  30.555   3.359   2.445
  288XTA   HL2632227  30.500   3.482   2.339
  288XTA   HL2732228  30.274   3.467   2.420
  288XTA   HL2832229  30.310   3.316   2.508
  288XTA   HL2932230  30.292   3.510   2.662
  288XTA   HL3032231  30.467   3.468   2.655
  288XTA   HL3132232  30.488   3.669   2.506
  288XTA   HL3232233  30.307   3.696   2.503
  288XTA   HL3332234  30.342   3.703   2.760
  288XTA   HL3432235  30.502   3.721   2.723
  288XTA   HL3532236  30.181   3.859   2.660
  288XTA   HL3632237  30.264   3.900   2.518
  288XTA   HL3732238  30.090   4.217   2.622
  288XTA   HL3832239  30.031   4.050   2.626
  288XTA   HL3932240  30.179   4.183   2.381
  288XTA   HL4032241  30.006   4.142   2.392
  288XTA   HL4132242  30.134   4.015   2.388
  288XTA    CO832243  30.049   3.715   1.036
  288XTA    CO932244  30.014   3.786   0.801
  288XTA    OA632245  30.079   3.701   0.766
  288XTA   HL4232246  30.084   3.742   1.143
  288XTA   HL4332247  30.143   3.618   0.992
  288XTA   HL4432248  30.335   4.267   2.657
  288XTA   HL4532249  30.438   4.120   2.690
  288XTA   CO1032250  30.361   4.163   2.627
  288XTA   CO1132251  30.220   4.074   2.813
  288XTA    OA732252  30.394   4.153   2.519
  288XTA   HL4632253  30.343   4.065   2.873
  288XTA   HL4732254  30.154   3.988   2.841
  288XTA   HL4832255  29.994   3.863   0.735
  288XTA   HL4932256  29.909   3.737   0.813
  289XTA     NT32257  28.930   1.367   0.070
  289XTA    CN132258  29.008   1.361  -0.039
  289XTA     C132259  28.980   1.447  -0.151
  289XTA     C232260  29.041   1.429  -0.275
  289XTA     C332261  29.128   1.321  -0.299
  289XTA     C432262  29.148   1.233  -0.192
  289XTA     C532263  29.103   1.253  -0.060
  289XTA    CN232264  28.977   1.436   0.175
  289XTA     C632265  29.035   1.358   0.281
  289XTA     C732266  29.089   1.426   0.397
  289XTA     C832267  29.103   1.573   0.396
  289XTA     C932268  29.050   1.649   0.288
  289XTA    C1032269  28.985   1.578   0.176
  289XTA    CN332270  28.804   1.316   0.067
  289XTA    C1132271  28.783   1.178   0.093
  289XTA    C1232272  28.651   1.129   0.091
  289XTA    C1332273  28.546   1.204   0.041
  289XTA    C1432274  28.566   1.343   0.007
  289XTA    C1532275  28.695   1.396   0.020
  289XTA     H132276  28.912   1.519  -0.131
  289XTA     H232277  29.012   1.494  -0.360
  289XTA     H332278  29.212   1.149  -0.215
  289XTA     H432279  29.131   1.193   0.026
  289XTA     H532280  29.033   1.257   0.283
  289XTA     H632281  29.133   1.371   0.479
  289XTA     H732282  29.064   1.750   0.292
  289XTA     H832283  28.943   1.635   0.089
  289XTA     H932284  28.868   1.134   0.141
  289XTA    H1032285  28.624   1.031   0.127
  289XTA    H1132286  28.479   1.399  -0.024
  289XTA    H1232287  28.705   1.504   0.004
  289XTA    OA132288  29.178   1.290  -0.424
  289XTA    CO132289  29.142   1.380  -0.523
  289XTA    OA232290  29.159   1.641   0.502
  289XTA    CO232291  29.243   1.748   0.475
  289XTA    CL132292  29.313   1.789   0.605
  289XTA    CL232293  29.435   1.889   0.573
  289XTA    CL332294  29.388   2.024   0.535
  289XTA    CL432295  29.497   2.121   0.487
  289XTA    CO332296  29.579   2.070   0.371
  289XTA    OA332297  29.685   1.988   0.413
  289XTA    CO432298  29.790   2.065   0.471
  289XTA    CT132299  29.882   1.994   0.570
  289XTA    CL532300  29.994   1.909   0.504
  289XTA    CL632301  29.943   1.800   0.417
  289XTA    OA432302  28.419   1.157   0.042
  289XTA    CO532303  28.406   1.023  -0.001
  289XTA    CL732304  28.266   0.988  -0.026
  289XTA    CL832305  28.161   1.086  -0.082
  289XTA    CL932306  28.213   1.112  -0.231
  289XTA   CL1032307  28.161   1.242  -0.286
  289XTA    CO632308  28.166   1.249  -0.441
  289XTA    OA532309  28.303   1.248  -0.471
  289XTA    CO732310  28.363   1.375  -0.493
  289XTA    CT232311  28.520   1.350  -0.509
  289XTA   CL1132312  28.578   1.496  -0.542
  289XTA   CL1232313  28.733   1.503  -0.555
  289XTA    HL132314  29.189   1.349  -0.618
  289XTA    HL232315  29.034   1.372  -0.545
  289XTA    HL332316  29.164   1.485  -0.503
  289XTA    HL432317  29.318   1.718   0.393
  289XTA    HL532318  29.187   1.835   0.450
  289XTA    HL632319  29.343   1.700   0.657
  289XTA    HL732320  29.239   1.850   0.666
  289XTA    HL832321  29.497   1.839   0.499
  289XTA    HL932322  29.507   1.895   0.656
  289XTA   HL1032323  29.307   2.004   0.461
  289XTA   HL1132324  29.347   2.081   0.623
  289XTA   HL1232325  29.554   2.155   0.572
  289XTA   HL1332326  29.441   2.205   0.456
  289XTA   HL1432327  29.518   2.013   0.300
  289XTA   HL1532328  29.614   2.155   0.317
  289XTA   HL1632329  29.847   2.113   0.390
  289XTA   HL1732330  29.735   2.138   0.521
  289XTA   HL1832331  30.047   1.858   0.580
  289XTA   HL1932332  30.069   1.973   0.456
  289XTA   HL2032333  30.034   1.745   0.381
  289XTA   HL2132334  29.883   1.836   0.335
  289XTA   HL2232335  29.880   1.724   0.465
  289XTA   HL2332336  28.448   0.950   0.073
  289XTA   HL2432337  28.458   1.027  -0.097
  289XTA   HL2532338  28.259   0.896  -0.086
  289XTA   HL2632339  28.229   0.953   0.064
  289XTA   HL2732340  28.061   1.054  -0.085
  289XTA   HL2832341  28.160   1.170  -0.021
  289XTA   HL2932342  28.320   1.106  -0.253
  289XTA   HL3032343  28.160   1.034  -0.287
  289XTA   HL3132344  28.059   1.265  -0.245
  289XTA   HL3232345  28.218   1.325  -0.244
  289XTA   HL3332346  28.114   1.160  -0.485
  289XTA   HL3432347  28.104   1.335  -0.473
  289XTA   HL3532348  28.335   1.447  -0.413
  289XTA   HL3632349  28.329   1.410  -0.592
  289XTA   HL3732350  28.546   1.568  -0.460
  289XTA   HL3832351  28.531   1.527  -0.631
  289XTA   HL3932352  28.789   1.472  -0.469
  289XTA   HL4032353  28.780   1.601  -0.582
  289XTA   HL4132354  28.770   1.430  -0.629
  289XTA    CO832355  29.814   1.935   0.687
  289XTA    CO932356  29.949   2.094   0.668
  289XTA    OA632357  29.886   2.018   0.769
  289XTA   HL4232358  29.837   1.835   0.732
  289XTA   HL4332359  29.705   1.960   0.689
  289XTA   HL4432360  28.657   1.252  -0.648
  289XTA   HL4532361  28.528   1.149  -0.592
  289XTA   CO1032362  28.552   1.255  -0.628
  289XTA   CO1132363  28.582   1.304  -0.373
  289XTA    OA732364  28.493   1.290  -0.720
  289XTA   HL4632365  28.488   1.260  -0.287
  289XTA   HL4732366  28.613   1.396  -0.323
  289XTA   HL4832367  29.905   2.192   0.660
  289XTA   HL4932368  30.057   2.096   0.672
  290XTA     NT32369  28.397   4.250  -0.892
  290XTA    CN132370  28.516   4.243  -0.957
  290XTA     C132371  28.536   4.298  -1.088
  290XTA     C232372  28.659   4.283  -1.150
  290XTA     C332373  28.759   4.205  -1.094
  290XTA     C432374  28.740   4.161  -0.967
  290XTA     C532375  28.623   4.173  -0.897
  290XTA    CN232376  28.307   4.154  -0.900
  290XTA     C632377  28.330   4.035  -0.837
  290XTA     C732378  28.237   3.933  -0.828
  290XTA     C832379  28.120   3.948  -0.908
  290XTA     C932380  28.107   4.059  -0.992
  290XTA    C1032381  28.197   4.163  -0.987
  290XTA    CN332382  28.389   4.346  -0.800
  290XTA    C1132383  28.380   4.317  -0.667
  290XTA    C1232384  28.347   4.417  -0.569
  290XTA    C1332385  28.340   4.554  -0.610
  290XTA    C1432386  28.361   4.586  -0.747
  290XTA    C1532387  28.375   4.479  -0.838
  290XTA     H132388  28.454   4.356  -1.125
  290XTA     H232389  28.672   4.343  -1.241
  290XTA     H332390  28.820   4.104  -0.920
  290XTA     H432391  28.611   4.129  -0.804
  290XTA     H532392  28.424   4.032  -0.784
  290XTA     H632393  28.254   3.857  -0.756
  290XTA     H732394  28.016   4.072  -1.054
  290XTA     H832395  28.165   4.255  -1.038
  290XTA     H932396  28.383   4.216  -0.629
  290XTA    H1032397  28.343   4.376  -0.474
  290XTA    H1132398  28.339   4.687  -0.774
  290XTA    H1232399  28.379   4.499  -0.941
  290XTA    OA132400  28.872   4.180  -1.167
  290XTA    CO132401  28.974   4.097  -1.106
  290XTA    OA232402  28.014   3.859  -0.905
  290XTA    CO232403  28.029   3.750  -0.816
  290XTA    CL132404  27.907   3.668  -0.810
  290XTA    CL232405  27.906   3.545  -0.707
  290XTA    CL332406  28.042   3.478  -0.704
  290XTA    CL432407  28.073   3.406  -0.834
  290XTA    CO332408  28.204   3.338  -0.836
  290XTA    OA332409  28.304   3.443  -0.835
  290XTA    CO432410  28.432   3.399  -0.888
  290XTA    CT132411  28.546   3.483  -0.840
  290XTA    CL532412  28.675   3.436  -0.924
  290XTA    CL632413  28.805   3.494  -0.883
  290XTA    OA432414  28.319   4.655  -0.517
  290XTA    CO532415  28.252   4.613  -0.404
  290XTA    CL732416  28.216   4.735  -0.308
  290XTA    CL832417  28.140   4.694  -0.186
  290XTA    CL932418  28.234   4.629  -0.080
  290XTA   CL1032419  28.341   4.713  -0.018
  290XTA    CO632420  28.425   4.635   0.075
  290XTA    OA532421  28.355   4.576   0.183
  290XTA    CO732422  28.431   4.489   0.266
  290XTA    CT232423  28.338   4.393   0.338
  290XTA   CL1132424  28.229   4.477   0.402
  290XTA   CL1232425  28.130   4.410   0.495
  290XTA    HL132426  29.019   4.163  -1.029
  290XTA    HL232427  28.947   4.002  -1.054
  290XTA    HL332428  29.053   4.086  -1.178
  290XTA    HL432429  28.127   3.692  -0.838
  290XTA    HL532430  28.042   3.791  -0.715
  290XTA    HL632431  27.879   3.631  -0.908
  290XTA    HL732432  27.833   3.742  -0.792
  290XTA    HL832433  27.825   3.473  -0.730
  290XTA    HL932434  27.900   3.588  -0.611
  290XTA   HL1032435  28.126   3.546  -0.686
  290XTA   HL1132436  28.052   3.415  -0.615
  290XTA   HL1232437  28.077   3.475  -0.918
  290XTA   HL1332438  27.992   3.330  -0.849
  290XTA   HL1432439  28.203   3.264  -0.760
  290XTA   HL1532440  28.211   3.291  -0.930
  290XTA   HL1632441  28.446   3.303  -0.854
  290XTA   HL1732442  28.419   3.396  -1.000
  290XTA   HL1832443  28.662   3.447  -1.029
  290XTA   HL1932444  28.685   3.324  -0.929
  290XTA   HL2032445  28.820   3.601  -0.920
  290XTA   HL2132446  28.890   3.438  -0.914
  290XTA   HL2232447  28.822   3.498  -0.770
  290XTA   HL2332448  28.322   4.551  -0.345
  290XTA   HL2432449  28.162   4.562  -0.440
  290XTA   HL2532450  28.310   4.790  -0.280
  290XTA   HL2632451  28.152   4.794  -0.372
  290XTA   HL2732452  28.089   4.781  -0.150
  290XTA   HL2832453  28.058   4.623  -0.207
  290XTA   HL2932454  28.168   4.593   0.007
  290XTA   HL3032455  28.285   4.544  -0.122
  290XTA   HL3132456  28.403   4.750  -0.101
  290XTA   HL3232457  28.302   4.794   0.036
  290XTA   HL3332458  28.461   4.551   0.024
  290XTA   HL3432459  28.504   4.697   0.120
  290XTA   HL3532460  28.478   4.537   0.345
  290XTA   HL3632461  28.507   4.433   0.205
  290XTA   HL3732462  28.175   4.527   0.327
  290XTA   HL3832463  28.274   4.568   0.451
  290XTA   HL3932464  28.061   4.478   0.546
  290XTA   HL4032465  28.179   4.352   0.577
  290XTA   HL4132466  28.069   4.335   0.436
  290XTA    CO832467  28.555   3.445  -0.694
  290XTA    CO932468  28.522   3.634  -0.871
  290XTA    OA632469  28.516   3.655  -1.007
  290XTA   HL4232470  28.468   3.378  -0.666
  290XTA   HL4332471  28.646   3.388  -0.657
  290XTA   HL4432472  28.321   4.220   0.496
  290XTA   HL4532473  28.499   4.262   0.410
  290XTA   CO1032474  28.414   4.314   0.450
  290XTA   CO1132475  28.278   4.301   0.227
  290XTA    OA732476  28.357   4.272   0.154
  290XTA   HL4632477  28.227   4.209   0.269
  290XTA   HL4732478  28.203   4.358   0.174
  290XTA   HL4832479  28.600   3.693  -0.826
  290XTA   HL4932480  28.438   3.674  -0.831
  291XTA     NT32481  30.548   0.964   1.876
  291XTA    CN132482  30.655   0.912   1.805
  291XTA     C132483  30.789   0.947   1.844
  291XTA     C232484  30.899   0.903   1.770
  291XTA     C332485  30.871   0.825   1.652
  291XTA     C432486  30.744   0.794   1.611
  291XTA     C532487  30.635   0.837   1.685
  291XTA    CN232488  30.471   1.063   1.826
  291XTA     C632489  30.526   1.182   1.772
  291XTA     C732490  30.431   1.277   1.723
  291XTA     C832491  30.295   1.258   1.702
  291XTA     C932492  30.244   1.145   1.769
  291XTA    C1032493  30.329   1.058   1.836
  291XTA    CN332494  30.551   0.941   2.017
  291XTA    C1132495  30.514   0.816   2.071
  291XTA    C1232496  30.523   0.795   2.210
  291XTA    C1332497  30.569   0.897   2.291
  291XTA    C1432498  30.604   1.022   2.237
  291XTA    C1532499  30.591   1.047   2.102
  291XTA     H132500  30.808   1.007   1.930
  291XTA     H232501  30.995   0.943   1.803
  291XTA     H332502  30.722   0.732   1.519
  291XTA     H432503  30.544   0.812   1.636
  291XTA     H532504  30.636   1.201   1.772
  291XTA     H632505  30.475   1.359   1.673
  291XTA     H732506  30.139   1.119   1.767
  291XTA     H832507  30.294   0.975   1.889
  291XTA     H932508  30.497   0.734   2.002
  291XTA    H1032509  30.506   0.698   2.257
  291XTA    H1132510  30.636   1.103   2.303
  291XTA    H1232511  30.604   1.148   2.070
  291XTA    OA132512  30.973   0.781   1.572
  291XTA    CO132513  31.102   0.794   1.618
  291XTA    OA232514  30.206   1.344   1.642
  291XTA    CO232515  30.260   1.422   1.540
  291XTA    CL132516  30.141   1.502   1.493
  291XTA    CL232517  30.174   1.587   1.368
  291XTA    CL332518  30.061   1.688   1.348
  291XTA    CL432519  30.089   1.769   1.222
  291XTA    CO332520  30.238   1.804   1.203
  291XTA    OA332521  30.296   1.850   1.329
  291XTA    CO432522  30.437   1.862   1.323
  291XTA    CT132523  30.500   1.900   1.459
  291XTA    CL532524  30.419   2.018   1.526
  291XTA    CL632525  30.288   1.988   1.599
  291XTA    OA432526  30.583   0.872   2.425
  291XTA    CO532527  30.720   0.819   2.444
  291XTA    CL732528  30.722   0.766   2.587
  291XTA    CL832529  30.608   0.659   2.601
  291XTA    CL932530  30.605   0.596   2.733
  291XTA   CL1032531  30.471   0.577   2.789
  291XTA    CO632532  30.425   0.703   2.858
  291XTA    OA532533  30.285   0.681   2.887
  291XTA    CO732534  30.216   0.800   2.940
  291XTA    CT232535  30.061   0.781   2.939
  291XTA   CL1132536  30.005   0.909   2.991
  291XTA   CL1232537  29.968   1.012   2.882
  291XTA    HL132538  31.124   0.897   1.603
  291XTA    HL232539  31.130   0.755   1.721
  291XTA    HL332540  31.176   0.744   1.550
  291XTA    HL432541  30.331   1.494   1.581
  291XTA    HL532542  30.306   1.353   1.469
  291XTA    HL632543  30.122   1.566   1.583
  291XTA    HL732544  30.051   1.447   1.477
  291XTA    HL832545  30.177   1.524   1.278
  291XTA    HL932546  30.280   1.634   1.376
  291XTA   HL1032547  29.963   1.643   1.341
  291XTA   HL1132548  30.067   1.747   1.432
  291XTA   HL1232549  30.013   1.848   1.207
  291XTA   HL1332550  30.053   1.708   1.142
  291XTA   HL1432551  30.285   1.721   1.160
  291XTA   HL1532552  30.250   1.887   1.129
  291XTA   HL1632553  30.479   1.763   1.301
  291XTA   HL1732554  30.484   1.928   1.252
  291XTA   HL1832555  30.402   2.094   1.442
  291XTA   HL1932556  30.487   2.068   1.598
  291XTA   HL2032557  30.314   1.935   1.695
  291XTA   HL2132558  30.223   1.918   1.540
  291XTA   HL2232559  30.226   2.074   1.617
  291XTA   HL2332560  30.799   0.893   2.421
  291XTA   HL2432561  30.737   0.744   2.363
  291XTA   HL2532562  30.822   0.724   2.608
  291XTA   HL2632563  30.707   0.843   2.666
  291XTA   HL2732564  30.517   0.718   2.588
  291XTA   HL2832565  30.603   0.579   2.526
  291XTA   HL2932566  30.644   0.492   2.726
  291XTA   HL3032567  30.664   0.645   2.809
  291XTA   HL3132568  30.400   0.564   2.707
  291XTA   HL3232569  30.458   0.491   2.856
  291XTA   HL3332570  30.471   0.724   2.956
  291XTA   HL3432571  30.444   0.792   2.803
  291XTA   HL3532572  30.242   0.887   2.874
  291XTA   HL3632573  30.267   0.823   3.036
  291XTA   HL3732574  30.077   0.949   3.063
  291XTA   HL3832575  29.916   0.890   3.044
  291XTA   HL3932576  29.922   1.089   2.931
  291XTA   HL4032577  29.895   0.984   2.808
  291XTA   HL4132578  30.055   1.048   2.826
  291XTA    CO832579  30.642   1.952   1.431
  291XTA    CO932580  30.507   1.779   1.549
  291XTA    OA632581  30.724   1.841   1.391
  291XTA   HL4232582  30.687   1.994   1.525
  291XTA   HL4332583  30.644   2.037   1.352
  291XTA   HL4432584  30.032   0.718   3.144
  291XTA   HL4532585  29.900   0.669   3.028
  291XTA   CO1032586  30.011   0.679   3.045
  291XTA   CO1132587  30.003   0.733   2.802
  291XTA    OA732588  30.062   0.582   3.020
  291XTA   HL4632589  30.054   0.611   2.757
  291XTA   HL4732590  30.030   0.801   2.725
  291XTA   HL4832591  30.562   1.696   1.503
  291XTA   HL4932592  30.405   1.751   1.577
  292XTA     NT32593  27.223   2.185   1.514
  292XTA    CN132594  27.236   2.056   1.523
  292XTA     C132595  27.131   1.982   1.577
  292XTA     C232596  27.153   1.842   1.603
  292XTA     C332597  27.278   1.785   1.588
  292XTA     C432598  27.387   1.862   1.531
  292XTA     C532599  27.360   1.992   1.493
  292XTA    CN232600  27.219   2.235   1.390
  292XTA     C632601  27.092   2.263   1.337
  292XTA     C732602  27.078   2.330   1.215
  292XTA     C832603  27.194   2.356   1.140
  292XTA     C932604  27.320   2.340   1.194
  292XTA    C1032605  27.335   2.284   1.322
  292XTA    CN332606  27.236   2.273   1.621
  292XTA    C1132607  27.342   2.258   1.711
  292XTA    C1232608  27.346   2.337   1.834
  292XTA    C1332609  27.250   2.437   1.862
  292XTA    C1432610  27.152   2.457   1.760
  292XTA    C1532611  27.144   2.379   1.648
  292XTA     H132612  27.041   2.037   1.594
  292XTA     H232613  27.068   1.784   1.641
  292XTA     H332614  27.491   1.832   1.513
  292XTA     H432615  27.443   2.051   1.457
  292XTA     H532616  27.000   2.243   1.400
  292XTA     H632617  26.975   2.345   1.170
  292XTA     H732618  27.407   2.364   1.138
  292XTA     H832619  27.433   2.273   1.370
  292XTA     H932620  27.411   2.179   1.697
  292XTA    H1032621  27.430   2.321   1.895
  292XTA    H1132622  27.078   2.530   1.770
  292XTA    H1232623  27.061   2.398   1.585
  292XTA    OA132624  27.273   1.651   1.623
  292XTA    CO132625  27.372   1.565   1.557
  292XTA    OA232626  27.174   2.416   1.022
  292XTA    CO232627  27.280   2.481   0.956
  292XTA    CL132628  27.213   2.551   0.833
  292XTA    CL232629  27.095   2.635   0.881
  292XTA    CL332630  27.140   2.763   0.960
  292XTA    CL432631  27.034   2.858   1.001
  292XTA    CO332632  27.095   2.973   1.084
  292XTA    OA332633  27.074   2.969   1.226
  292XTA    CO432634  27.129   2.860   1.295
  292XTA    CT132635  27.105   2.883   1.449
  292XTA    CL532636  27.133   2.755   1.521
  292XTA    CL632637  27.277   2.706   1.494
  292XTA    OA432638  27.238   2.507   1.979
  292XTA    CO532639  27.292   2.443   2.092
  292XTA    CL732640  27.217   2.508   2.209
  292XTA    CL832641  27.244   2.444   2.345
  292XTA    CL932642  27.376   2.475   2.420
  292XTA   CL1032643  27.383   2.616   2.465
  292XTA    CO632644  27.507   2.654   2.545
  292XTA    OA532645  27.621   2.622   2.473
  292XTA    CO732646  27.742   2.670   2.530
  292XTA    CT232647  27.861   2.597   2.473
  292XTA   CL1132648  27.871   2.637   2.327
  292XTA   CL1232649  27.914   2.777   2.296
  292XTA    HL132650  27.364   1.458   1.570
  292XTA    HL232651  27.373   1.581   1.455
  292XTA    HL332652  27.469   1.601   1.587
  292XTA    HL432653  27.339   2.544   1.028
  292XTA    HL532654  27.348   2.403   0.930
  292XTA    HL632655  27.166   2.475   0.771
  292XTA    HL732656  27.288   2.605   0.773
  292XTA    HL832657  27.022   2.575   0.934
  292XTA    HL932658  27.039   2.667   0.793
  292XTA   HL1032659  27.188   2.728   1.052
  292XTA   HL1132660  27.214   2.821   0.910
  292XTA   HL1232661  26.952   2.812   1.061
  292XTA   HL1332662  26.995   2.893   0.903
  292XTA   HL1432663  27.203   2.976   1.068
  292XTA   HL1532664  27.052   3.077   1.050
  292XTA   HL1632665  27.074   2.767   1.262
  292XTA   HL1732666  27.226   2.832   1.269
  292XTA   HL1832667  27.060   2.681   1.494
  292XTA   HL1932668  27.127   2.758   1.628
  292XTA   HL2032669  27.350   2.771   1.528
  292XTA   HL2132670  27.306   2.681   1.398
  292XTA   HL2232671  27.293   2.615   1.552
  292XTA   HL2332672  27.401   2.460   2.086
  292XTA   HL2432673  27.282   2.330   2.089
  292XTA   HL2532674  27.238   2.615   2.202
  292XTA   HL2632675  27.110   2.492   2.193
  292XTA   HL2732676  27.168   2.463   2.417
  292XTA   HL2832677  27.239   2.339   2.336
  292XTA   HL2932678  27.377   2.418   2.510
  292XTA   HL3032679  27.465   2.451   2.367
  292XTA   HL3132680  27.379   2.682   2.374
  292XTA   HL3232681  27.309   2.650   2.529
  292XTA   HL3332682  27.508   2.760   2.578
  292XTA   HL3432683  27.503   2.590   2.634
  292XTA   HL3532684  27.739   2.664   2.644
  292XTA   HL3632685  27.745   2.776   2.510
  292XTA   HL3732686  27.771   2.636   2.274
  292XTA   HL3832687  27.944   2.570   2.284
  292XTA   HL3932688  28.019   2.795   2.332
  292XTA   HL4032689  27.846   2.855   2.350
  292XTA   HL4132690  27.900   2.805   2.190
  292XTA    CO832691  26.961   2.934   1.480
  292XTA    CO932692  27.204   2.988   1.488
  292XTA    OA632693  26.864   2.833   1.465
  292XTA   HL4232694  26.933   3.017   1.412
  292XTA   HL4332695  26.947   2.979   1.577
  292XTA   HL4432696  27.705   2.421   2.424
  292XTA   HL4532697  27.812   2.424   2.597
  292XTA   CO1032698  27.828   2.447   2.490
  292XTA   CO1132699  27.990   2.623   2.555
  292XTA    OA732700  28.083   2.610   2.495
  292XTA   HL4632701  27.994   2.728   2.590
  292XTA   HL4732702  27.983   2.571   2.652
  292XTA   HL4832703  27.301   2.951   1.466
  292XTA   HL4932704  27.191   3.085   1.434
  293XTA     NT32705  27.614   1.082   4.229
  293XTA    CN132706  27.644   1.178   4.138
  293XTA     C132707  27.554   1.196   4.025
  293XTA     C232708  27.587   1.297   3.932
  293XTA     C332709  27.704   1.369   3.938
  293XTA     C432710  27.791   1.349   4.053
  293XTA     C532711  27.755   1.259   4.156
  293XTA    CN232712  27.510   1.109   4.310
  293XTA     C632713  27.509   1.230   4.381
  293XTA     C732714  27.409   1.249   4.475
  293XTA     C832715  27.300   1.160   4.492
  293XTA     C932716  27.306   1.031   4.423
  293XTA    C1032717  27.405   1.012   4.329
  293XTA    CN332718  27.676   0.957   4.219
  293XTA    C1132719  27.748   0.914   4.331
  293XTA    C1232720  27.814   0.794   4.323
  293XTA    C1332721  27.818   0.718   4.202
  293XTA    C1432722  27.753   0.765   4.083
  293XTA    C1532723  27.683   0.888   4.098
  293XTA     H132724  27.459   1.147   4.014
  293XTA     H232725  27.528   1.311   3.837
  293XTA     H332726  27.878   1.411   4.076
  293XTA     H432727  27.814   1.246   4.245
  293XTA     H532728  27.583   1.309   4.368
  293XTA     H632729  27.416   1.342   4.528
  293XTA     H732730  27.229   0.960   4.441
  293XTA     H832731  27.414   0.908   4.288
  293XTA     H932732  27.761   0.968   4.424
  293XTA    H1032733  27.878   0.750   4.402
  293XTA    H1132734  27.759   0.716   3.987
  293XTA    H1232735  27.634   0.921   4.007
  293XTA    OA132736  27.730   1.462   3.840
  293XTA    CO132737  27.850   1.539   3.852
  293XTA    OA232738  27.204   1.198   4.582
  293XTA    CO232739  27.095   1.109   4.608
  293XTA    CL132740  26.995   1.159   4.705
  293XTA    CL232741  27.043   1.179   4.849
  293XTA    CL332742  27.161   1.275   4.862
  293XTA    CL432743  27.211   1.282   5.008
  293XTA    CO332744  27.327   1.376   5.022
  293XTA    OA332745  27.437   1.345   4.935
  293XTA    CO432746  27.543   1.261   4.988
  293XTA    CT132747  27.642   1.229   4.870
  293XTA    CL532748  27.765   1.157   4.930
  293XTA    CL632749  27.874   1.247   4.995
  293XTA    OA432750  27.885   0.601   4.212
  293XTA    CO532751  27.846   0.489   4.133
  293XTA    CL732752  27.742   0.409   4.206
  293XTA    CL832753  27.630   0.494   4.267
  293XTA    CL932754  27.525   0.396   4.322
  293XTA   CL1032755  27.417   0.451   4.423
  293XTA    CO632756  27.467   0.466   4.573
  293XTA    OA532757  27.405   0.561   4.654
  293XTA    CO732758  27.450   0.694   4.625
  293XTA    CT232759  27.447   0.784   4.753
  293XTA   CL1132760  27.555   0.740   4.858
  293XTA   CL1232761  27.699   0.746   4.799
  293XTA    HL132762  27.808   1.614   3.920
  293XTA    HL232763  27.934   1.495   3.898
  293XTA    HL332764  27.869   1.582   3.757
  293XTA    HL432765  27.049   1.098   4.509
  293XTA    HL532766  27.138   1.012   4.631
  293XTA    HL632767  26.925   1.080   4.714
  293XTA    HL732768  26.953   1.255   4.672
  293XTA    HL832769  27.075   1.085   4.897
  293XTA    HL932770  26.954   1.211   4.903
  293XTA   HL1032771  27.246   1.250   4.796
  293XTA   HL1132772  27.129   1.373   4.820
  293XTA   HL1232773  27.249   1.182   5.031
  293XTA   HL1332774  27.137   1.295   5.087
  293XTA   HL1432775  27.288   1.478   4.996
  293XTA   HL1532776  27.373   1.382   5.121
  293XTA   HL1632777  27.595   1.311   5.059
  293XTA   HL1732778  27.514   1.161   5.022
  293XTA   HL1832779  27.806   1.081   4.869
  293XTA   HL1932780  27.722   1.097   5.015
  293XTA   HL2032781  27.838   1.331   5.055
  293XTA   HL2132782  27.945   1.294   4.928
  293XTA   HL2232783  27.935   1.182   5.051
  293XTA   HL2332784  27.943   0.434   4.138
  293XTA   HL2432785  27.827   0.506   4.025
  293XTA   HL2532786  27.707   0.331   4.131
  293XTA   HL2632787  27.784   0.360   4.288
  293XTA   HL2732788  27.673   0.565   4.339
  293XTA   HL2832789  27.581   0.558   4.194
  293XTA   HL2932790  27.472   0.345   4.240
  293XTA   HL3032791  27.582   0.309   4.371
  293XTA   HL3132792  27.385   0.548   4.387
  293XTA   HL3232793  27.326   0.394   4.419
  293XTA   HL3332794  27.454   0.363   4.618
  293XTA   HL3432795  27.574   0.484   4.574
  293XTA   HL3532796  27.378   0.736   4.557
  293XTA   HL3632797  27.549   0.702   4.584
  293XTA   HL3732798  27.550   0.639   4.886
  293XTA   HL3832799  27.560   0.800   4.950
  293XTA   HL3932800  27.705   0.842   4.751
  293XTA   HL4032801  27.720   0.667   4.728
  293XTA   HL4132802  27.777   0.742   4.876
  293XTA    CO832803  27.686   1.361   4.797
  293XTA    CO932804  27.561   1.150   4.769
  293XTA    OA632805  27.550   1.018   4.803
  293XTA   HL4232806  27.601   1.401   4.738
  293XTA   HL4332807  27.727   1.437   4.860
  293XTA   HL4432808  27.236   0.835   4.768
  293XTA   HL4532809  27.255   0.676   4.818
  293XTA   CO1032810  27.308   0.775   4.823
  293XTA   CO1132811  27.469   0.932   4.722
  293XTA    OA732812  27.302   0.820   4.928
  293XTA   HL4632813  27.526   0.945   4.596
  293XTA   HL4732814  27.375   0.979   4.706
  293XTA   HL4832815  27.593   1.160   4.672
  293XTA   HL4932816  27.454   1.190   4.762
  294XTA     NT32817  30.477   3.678   5.037
  294XTA    CN132818  30.415   3.791   4.990
  294XTA     C132819  30.396   3.820   4.855
  294XTA     C232820  30.338   3.938   4.811
  294XTA     C332821  30.293   4.036   4.906
  294XTA     C432822  30.306   4.006   5.043
  294XTA     C532823  30.364   3.884   5.083
  294XTA    CN232824  30.436   3.615   5.148
  294XTA     C632825  30.317   3.535   5.154
  294XTA     C732826  30.268   3.491   5.276
  294XTA     C832827  30.338   3.520   5.394
  294XTA     C932828  30.467   3.572   5.390
  294XTA    C1032829  30.511   3.630   5.268
  294XTA    CN332830  30.548   3.608   4.950
  294XTA    C1132831  30.483   3.508   4.874
  294XTA    C1232832  30.557   3.428   4.778
  294XTA    C1332833  30.700   3.442   4.776
  294XTA    C1432834  30.759   3.553   4.848
  294XTA    C1532835  30.683   3.631   4.937
  294XTA     H132836  30.437   3.753   4.781
  294XTA     H232837  30.323   3.955   4.708
  294XTA     H332838  30.274   4.083   5.111
  294XTA     H432839  30.388   3.860   5.187
  294XTA     H532840  30.262   3.512   5.057
  294XTA     H632841  30.175   3.428   5.278
  294XTA     H732842  30.530   3.580   5.478
  294XTA     H832843  30.605   3.689   5.277
  294XTA     H932844  30.380   3.496   4.889
  294XTA    H1032845  30.502   3.356   4.726
  294XTA    H1132846  30.866   3.568   4.826
  294XTA    H1232847  30.733   3.704   4.992
  294XTA    OA132848  30.253   4.160   4.857
  294XTA    CO132849  30.269   4.280   4.941
  294XTA    OA232850  30.282   3.474   5.510
  294XTA    CO232851  30.353   3.376   5.585
  294XTA    CL132852  30.350   3.240   5.511
  294XTA    CL232853  30.468   3.157   5.558
  294XTA    CL332854  30.553   3.102   5.437
  294XTA    CL432855  30.627   3.217   5.358
  294XTA    CO332856  30.707   3.160   5.246
  294XTA    OA332857  30.803   3.071   5.292
  294XTA    CO432858  30.898   3.150   5.367
  294XTA    CT132859  31.033   3.074   5.355
  294XTA    CL532860  31.141   3.159   5.427
  294XTA    CL632861  31.141   3.166   5.579
  294XTA    OA432862  30.774   3.380   4.684
  294XTA    CO532863  30.720   3.267   4.618
  294XTA    CL732864  30.633   3.320   4.503
  294XTA    CL832865  30.513   3.234   4.461
  294XTA    CL932866  30.433   3.298   4.351
  294XTA   CL1032867  30.323   3.388   4.405
  294XTA    CO632868  30.232   3.425   4.290
  294XTA    OA532869  30.144   3.512   4.352
  294XTA    CO732870  30.058   3.578   4.259
  294XTA    CT232871  29.968   3.677   4.346
  294XTA   CL1132872  30.030   3.806   4.398
  294XTA   CL1232873  30.085   3.892   4.278
  294XTA    HL132874  30.188   4.296   5.009
  294XTA    HL232875  30.377   4.272   4.974
  294XTA    HL332876  30.264   4.361   4.862
  294XTA    HL432877  30.459   3.403   5.608
  294XTA    HL532878  30.305   3.368   5.687
  294XTA    HL632879  30.356   3.267   5.408
  294XTA    HL732880  30.254   3.196   5.536
  294XTA    HL832881  30.422   3.076   5.617
  294XTA    HL932882  30.544   3.193   5.622
  294XTA   HL1032883  30.630   3.029   5.458
  294XTA   HL1132884  30.487   3.037   5.381
  294XTA   HL1232885  30.683   3.257   5.439
  294XTA   HL1332886  30.546   3.284   5.317
  294XTA   HL1432887  30.646   3.100   5.174
  294XTA   HL1532888  30.750   3.248   5.194
  294XTA   HL1632889  30.916   3.246   5.313
  294XTA   HL1732890  30.867   3.171   5.472
  294XTA   HL1832891  31.134   3.260   5.394
  294XTA   HL1932892  31.239   3.122   5.395
  294XTA   HL2032893  31.152   3.077   5.634
  294XTA   HL2132894  31.064   3.232   5.625
  294XTA   HL2232895  31.239   3.213   5.611
  294XTA   HL2332896  30.670   3.205   4.696
  294XTA   HL2432897  30.797   3.202   4.578
  294XTA   HL2532898  30.591   3.421   4.523
  294XTA   HL2632899  30.706   3.323   4.419
  294XTA   HL2732900  30.546   3.129   4.445
  294XTA   HL2832901  30.444   3.229   4.555
  294XTA   HL2932902  30.496   3.340   4.280
  294XTA   HL3032903  30.380   3.220   4.301
  294XTA   HL3132904  30.253   3.341   4.476
  294XTA   HL3232905  30.351   3.483   4.443
  294XTA   HL3332906  30.281   3.478   4.216
  294XTA   HL3432907  30.193   3.337   4.237
  294XTA   HL3532908  29.997   3.508   4.210
  294XTA   HL3632909  30.121   3.626   4.185
  294XTA   HL3732910  30.123   3.778   4.450
  294XTA   HL3832911  29.960   3.851   4.471
  294XTA   HL3932912  30.161   3.838   4.226
  294XTA   HL4032913  30.133   3.984   4.319
  294XTA   HL4132914  30.018   3.918   4.197
  294XTA    CO832915  31.070   3.074   5.209
  294XTA    CO932916  31.010   2.928   5.424
  294XTA    OA632917  31.100   2.873   5.394
  294XTA   HL4232918  31.168   3.023   5.195
  294XTA   HL4332919  30.967   3.011   5.138
  294XTA   HL4432920  29.888   3.500   4.446
  294XTA   HL4532921  30.010   3.571   4.528
  294XTA   CO1032922  29.921   3.599   4.470
  294XTA   CO1132923  29.845   3.723   4.271
  294XTA    OA732924  29.845   3.655   4.526
  294XTA   HL4632925  29.794   3.836   4.337
  294XTA   HL4732926  29.778   3.641   4.265
  294XTA   HL4832927  30.932   2.881   5.368
  294XTA   HL4932928  30.985   2.941   5.530
  295XTA     NT32929  28.911   3.596   1.639
  295XTA    CN132930  28.902   3.469   1.607
  295XTA     C132931  29.020   3.397   1.588
  295XTA     C232932  29.029   3.273   1.519
  295XTA     C332933  28.908   3.205   1.483
  295XTA     C432934  28.784   3.276   1.514
  295XTA     C532935  28.784   3.405   1.571
  295XTA    CN232936  28.870   3.642   1.759
  295XTA     C632937  28.780   3.751   1.760
  295XTA     C732938  28.748   3.811   1.881
  295XTA     C832939  28.797   3.763   2.001
  295XTA     C932940  28.887   3.662   2.002
  295XTA    C1032941  28.930   3.596   1.883
  295XTA    CN332942  28.954   3.688   1.553
  295XTA    C1132943  28.883   3.700   1.432
  295XTA    C1232944  28.918   3.788   1.332
  295XTA    C1332945  29.043   3.856   1.343
  295XTA    C1432946  29.119   3.850   1.458
  295XTA    C1532947  29.070   3.766   1.570
  295XTA     H132948  29.112   3.432   1.627
  295XTA     H232949  29.121   3.221   1.499
  295XTA     H332950  28.690   3.231   1.497
  295XTA     H432951  28.688   3.451   1.584
  295XTA     H532952  28.734   3.795   1.674
  295XTA     H632953  28.679   3.896   1.876
  295XTA     H732954  28.911   3.632   2.105
  295XTA     H832955  28.992   3.508   1.882
  295XTA     H932956  28.802   3.633   1.400
  295XTA    H1032957  28.863   3.794   1.237
  295XTA    H1132958  29.204   3.914   1.470
  295XTA    H1232959  29.129   3.752   1.663
  295XTA    OA132960  28.915   3.087   1.406
  295XTA    CO132961  28.826   3.083   1.292
  295XTA    OA232962  28.771   3.838   2.115
  295XTA    CO232963  28.722   3.964   2.094
  295XTA    CL132964  28.691   4.041   2.221
  295XTA    CL232965  28.604   4.166   2.196
  295XTA    CL332966  28.682   4.296   2.238
  295XTA    CL432967  28.628   4.415   2.170
  295XTA    CO332968  28.700   4.542   2.217
  295XTA    OA332969  28.645   4.650   2.146
  295XTA    CO432970  28.703   4.669   2.016
  295XTA    CT132971  28.604   4.715   1.907
  295XTA    CL532972  28.501   4.598   1.882
  295XTA    CL632973  28.395   4.631   1.775
  295XTA    OA432974  29.084   3.949   1.250
  295XTA    CO532975  28.998   3.960   1.139
  295XTA    CL732976  29.062   4.042   1.026
  295XTA    CL832977  28.994   4.028   0.896
  295XTA    CL932978  29.043   4.107   0.780
  295XTA   CL1032979  29.170   4.053   0.713
  295XTA    CO632980  29.295   4.100   0.782
  295XTA    OA532981  29.295   4.238   0.795
  295XTA    CO732982  29.408   4.300   0.848
  295XTA    CT232983  29.374   4.443   0.892
  295XTA   CL1132984  29.500   4.521   0.934
  295XTA   CL1232985  29.488   4.656   1.012
  295XTA    HL132986  28.841   3.163   1.228
  295XTA    HL232987  28.823   2.988   1.230
  295XTA    HL332988  28.725   3.099   1.332
  295XTA    HL432989  28.786   4.026   2.026
  295XTA    HL532990  28.627   3.959   2.047
  295XTA    HL632991  28.791   4.081   2.261
  295XTA    HL732992  28.645   3.966   2.287
  295XTA    HL832993  28.513   4.162   2.252
  295XTA    HL932994  28.575   4.164   2.094
  295XTA   HL1032995  28.669   4.309   2.344
  295XTA   HL1132996  28.791   4.291   2.231
  295XTA   HL1232997  28.520   4.428   2.183
  295XTA   HL1332998  28.638   4.402   2.060
  295XTA   HL1432999  28.697   4.562   2.321
  295XTA   HL1533000  28.805   4.535   2.185
  295XTA   HL1633001  28.791   4.723   2.017
  295XTA   HL1733002  28.745   4.572   1.979
  295XTA   HL1833003  28.447   4.569   1.974
  295XTA   HL1933004  28.554   4.502   1.866
  295XTA   HL2033005  28.322   4.552   1.757
  295XTA   HL2133006  28.453   4.649   1.683
  295XTA   HL2233007  28.333   4.716   1.803
  295XTA   HL2333008  28.909   4.016   1.177
  295XTA   HL2433009  28.971   3.867   1.099
  295XTA   HL2533010  29.072   4.151   1.046
  295XTA   HL2633011  29.154   3.993   1.022
  295XTA   HL2733012  28.995   3.926   0.867
  295XTA   HL2833013  28.889   4.049   0.902
  295XTA   HL2933014  28.958   4.098   0.716
  295XTA   HL3033015  29.059   4.209   0.805
  295XTA   HL3133016  29.175   3.942   0.707
  295XTA   HL3233017  29.159   4.079   0.616
  295XTA   HL3333018  29.294   4.081   0.891
  295XTA   HL3433019  29.387   4.056   0.739
  295XTA   HL3533020  29.481   4.306   0.777
  295XTA   HL3633021  29.449   4.253   0.939
  295XTA   HL3733022  29.556   4.540   0.839
  295XTA   HL3833023  29.563   4.457   0.989
  295XTA   HL3933024  29.426   4.638   1.107
  295XTA   HL4033025  29.425   4.723   0.943
  295XTA   HL4133026  29.573   4.710   1.038
  295XTA    CO833027  28.705   4.747   1.790
  295XTA    CO933028  28.545   4.853   1.940
  295XTA    OA633029  28.485   4.915   1.824
  295XTA   HL4233030  28.641   4.787   1.706
  295XTA   HL4333031  28.758   4.832   1.823
  295XTA   HL4433032  29.200   4.540   0.980
  295XTA   HL4533033  29.203   4.356   0.971
  295XTA   CO1033034  29.261   4.447   0.992
  295XTA   CO1133035  29.326   4.505   0.768
  295XTA    OA733036  29.302   4.453   1.131
  295XTA   HL4633037  29.283   4.596   0.806
  295XTA   HL4733038  29.242   4.441   0.739
  295XTA   HL4833039  28.628   4.916   1.983
  295XTA   HL4933040  28.470   4.840   2.021
  296XTA     NT33041  30.351   1.218   2.722
  296XTA    CN133042  30.374   1.164   2.845
  296XTA     C133043  30.497   1.106   2.869
  296XTA     C233044  30.525   1.050   2.998
  296XTA     C333045  30.424   1.055   3.103
  296XTA     C433046  30.302   1.107   3.068
  296XTA     C533047  30.275   1.167   2.942
  296XTA    CN233048  30.283   1.145   2.635
  296XTA     C633049  30.333   1.021   2.588
  296XTA     C733050  30.268   0.950   2.486
  296XTA     C833051  30.153   1.004   2.423
  296XTA     C933052  30.098   1.118   2.480
  296XTA    C1033053  30.165   1.196   2.583
  296XTA    CN333054  30.424   1.328   2.678
  296XTA    C1133055  30.551   1.314   2.611
  296XTA    C1233056  30.627   1.428   2.586
  296XTA    C1333057  30.591   1.559   2.637
  296XTA    C1433058  30.466   1.572   2.700
  296XTA    C1533059  30.386   1.457   2.719
  296XTA     H133060  30.576   1.108   2.801
  296XTA     H233061  30.627   1.016   3.009
  296XTA     H333062  30.226   1.094   3.138
  296XTA     H433063  30.176   1.195   2.908
  296XTA     H533064  30.420   0.982   2.634
  296XTA     H633065  30.308   0.855   2.455
  296XTA     H733066  30.005   1.160   2.445
  296XTA     H833067  30.119   1.283   2.626
  296XTA     H933068  30.584   1.217   2.577
  296XTA    H1033069  30.721   1.412   2.533
  296XTA    H1133070  30.428   1.667   2.725
  296XTA    H1233071  30.286   1.460   2.763
  296XTA    OA133072  30.445   1.019   3.234
  296XTA    CO133073  30.572   0.990   3.278
  296XTA    OA233074  30.085   0.943   2.318
  296XTA    CO233075  30.125   0.815   2.277
  296XTA    CL133076  30.020   0.748   2.190
  296XTA    CL233077  29.943   0.844   2.104
  296XTA    CL333078  29.999   0.870   1.968
  296XTA    CL433079  29.923   0.975   1.888
  296XTA    CO333080  29.939   1.115   1.948
  296XTA    OA333081  29.832   1.193   1.890
  296XTA    CO433082  29.824   1.320   1.955
  296XTA    CT133083  29.725   1.421   1.887
  296XTA    CL533084  29.579   1.382   1.920
  296XTA    CL633085  29.515   1.268   1.827
  296XTA    OA433086  30.670   1.668   2.632
  296XTA    CO533087  30.772   1.672   2.536
  296XTA    CL733088  30.853   1.802   2.539
  296XTA    CL833089  30.972   1.811   2.450
  296XTA    CL933090  30.932   1.813   2.297
  296XTA   CL1033091  30.917   1.670   2.237
  296XTA    CO633092  30.915   1.677   2.087
  296XTA    OA533093  30.781   1.722   2.064
  296XTA    CO733094  30.736   1.722   1.928
  296XTA    CT233095  30.607   1.810   1.916
  296XTA   CL1133096  30.643   1.967   1.910
  296XTA   CL1233097  30.513   2.062   1.920
  296XTA    HL133098  30.572   0.981   3.383
  296XTA    HL233099  30.617   0.904   3.227
  296XTA    HL333100  30.629   1.077   3.244
  296XTA    HL433101  30.222   0.812   2.231
  296XTA    HL533102  30.144   0.746   2.362
  296XTA    HL633103  29.956   0.702   2.261
  296XTA    HL733104  30.074   0.673   2.130
  296XTA    HL833105  29.926   0.935   2.161
  296XTA    HL933106  29.842   0.814   2.083
  296XTA   HL1033107  30.112   0.889   1.979
  296XTA   HL1133108  29.976   0.773   1.921
  296XTA   HL1233109  29.821   0.955   1.863
  296XTA   HL1333110  29.965   0.985   1.786
  296XTA   HL1433111  29.925   1.122   2.054
  296XTA   HL1533112  30.037   1.160   1.936
  296XTA   HL1633113  29.785   1.293   2.054
  296XTA   HL1733114  29.922   1.360   1.971
  296XTA   HL1833115  29.514   1.462   1.916
  296XTA   HL1933116  29.579   1.341   2.022
  296XTA   HL2033117  29.510   1.298   1.726
  296XTA   HL2133118  29.413   1.238   1.856
  296XTA   HL2233119  29.577   1.185   1.833
  296XTA   HL2333120  30.721   1.667   2.434
  296XTA   HL2433121  30.834   1.583   2.547
  296XTA   HL2533122  30.786   1.882   2.501
  296XTA   HL2633123  30.880   1.830   2.642
  296XTA   HL2733124  31.016   1.905   2.470
  296XTA   HL2833125  31.046   1.737   2.476
  296XTA   HL2933126  30.849   1.879   2.273
  296XTA   HL3033127  31.014   1.854   2.240
  296XTA   HL3133128  31.002   1.601   2.268
  296XTA   HL3233129  30.823   1.622   2.275
  296XTA   HL3333130  30.982   1.741   2.037
  296XTA   HL3433131  30.929   1.568   2.053
  296XTA   HL3533132  30.707   1.617   1.903
  296XTA   HL3633133  30.811   1.754   1.858
  296XTA   HL3733134  30.698   1.999   1.823
  296XTA   HL3833135  30.708   1.994   1.997
  296XTA   HL3933136  30.458   2.057   1.828
  296XTA   HL4033137  30.542   2.168   1.940
  296XTA   HL4133138  30.441   2.039   2.001
  296XTA    CO833139  29.753   1.438   1.738
  296XTA    CO933140  29.750   1.559   1.952
  296XTA    OA633141  29.883   1.597   1.929
  296XTA   HL4233142  29.717   1.532   1.709
  296XTA   HL4333143  29.862   1.443   1.742
  296XTA   HL4433144  30.569   1.798   2.130
  296XTA   HL4533145  30.426   1.832   2.047
  296XTA   CO1033146  30.518   1.768   2.036
  296XTA   CO1133147  30.526   1.774   1.794
  296XTA    OA733148  30.582   1.801   1.668
  296XTA   HL4633149  30.496   1.670   1.787
  296XTA   HL4733150  30.436   1.832   1.802
  296XTA   HL4833151  29.723   1.557   2.053
  296XTA   HL4933152  29.689   1.633   1.903
  297XTA     NT33153  32.655   4.118  -0.371
  297XTA    CN133154  32.572   4.131  -0.268
  297XTA     C133155  32.556   4.254  -0.192
  297XTA     C233156  32.474   4.261  -0.083
  297XTA     C333157  32.386   4.160  -0.050
  297XTA     C433158  32.389   4.042  -0.125
  297XTA     C533159  32.482   4.028  -0.229
  297XTA    CN233160  32.623   4.167  -0.494
  297XTA     C633161  32.615   4.304  -0.511
  297XTA     C733162  32.558   4.367  -0.627
  297XTA     C833163  32.522   4.283  -0.736
  297XTA     C933164  32.542   4.147  -0.720
  297XTA    C1033165  32.582   4.082  -0.599
  297XTA    CN333166  32.776   4.053  -0.360
  297XTA    C1133167  32.782   3.913  -0.360
  297XTA    C1233168  32.915   3.855  -0.354
  297XTA    C1333169  33.031   3.940  -0.333
  297XTA    C1433170  33.020   4.077  -0.321
  297XTA    C1533171  32.889   4.135  -0.335
  297XTA     H133172  32.619   4.338  -0.219
  297XTA     H233173  32.476   4.347  -0.021
  297XTA     H333174  32.336   3.944  -0.095
  297XTA     H433175  32.481   3.941  -0.293
  297XTA     H533176  32.638   4.367  -0.428
  297XTA     H633177  32.554   4.472  -0.627
  297XTA     H733178  32.514   4.083  -0.804
  297XTA     H833179  32.588   3.975  -0.579
  297XTA     H933180  32.694   3.856  -0.377
  297XTA    H1033181  32.923   3.744  -0.355
  297XTA    H1133182  33.111   4.135  -0.312
  297XTA    H1233183  32.890   4.240  -0.329
  297XTA    OA133184  32.303   4.179   0.055
  297XTA    CO133185  32.202   4.081   0.097
  297XTA    OA233186  32.449   4.327  -0.845
  297XTA    CO233187  32.391   4.465  -0.837
  297XTA    CL133188  32.504   4.566  -0.885
  297XTA    CL233189  32.486   4.716  -0.829
  297XTA    CL333190  32.528   4.730  -0.680
  297XTA    CL433191  32.536   4.873  -0.634
  297XTA    CO333192  32.440   4.905  -0.522
  297XTA    OA333193  32.453   5.047  -0.484
  297XTA    CO433194  32.364   5.099  -0.392
  297XTA    CT133195  32.433   5.226  -0.332
  297XTA    CL533196  32.331   5.286  -0.239
  297XTA    CL633197  32.371   5.414  -0.167
  297XTA    OA433198  33.162   3.883  -0.341
  297XTA    CO533199  33.183   3.786  -0.444
  297XTA    CL733200  33.226   3.878  -0.555
  297XTA    CL833201  33.201   3.812  -0.696
  297XTA    CL933202  33.072   3.860  -0.767
  297XTA   CL1033203  32.953   3.817  -0.679
  297XTA    CO633204  32.824   3.851  -0.751
  297XTA    OA533205  32.816   3.768  -0.867
  297XTA    CO733206  32.684   3.756  -0.917
  297XTA    CT233207  32.686   3.710  -1.061
  297XTA   CL1133208  32.760   3.815  -1.152
  297XTA   CL1233209  32.912   3.813  -1.149
  297XTA    HL133210  32.124   4.114   0.161
  297XTA    HL233211  32.146   4.064   0.003
  297XTA    HL333212  32.241   3.986   0.136
  297XTA    HL433213  32.314   4.460  -0.897
  297XTA    HL533214  32.358   4.477  -0.736
  297XTA    HL633215  32.499   4.554  -0.991
  297XTA    HL733216  32.600   4.526  -0.863
  297XTA    HL833217  32.394   4.762  -0.854
  297XTA    HL933218  32.565   4.768  -0.886
  297XTA   HL1033219  32.452   4.677  -0.627
  297XTA   HL1133220  32.630   4.689  -0.664
  297XTA   HL1233221  32.520   4.942  -0.717
  297XTA   HL1333222  32.639   4.889  -0.609
  297XTA   HL1433223  32.342   4.897  -0.546
  297XTA   HL1533224  32.447   4.841  -0.431
  297XTA   HL1633225  32.270   5.116  -0.441
  297XTA   HL1733226  32.356   5.022  -0.315
  297XTA   HL1833227  32.302   5.214  -0.162
  297XTA   HL1933228  32.250   5.298  -0.302
  297XTA   HL2033229  32.298   5.427  -0.087
  297XTA   HL2133230  32.367   5.494  -0.247
  297XTA   HL2233231  32.469   5.409  -0.121
  297XTA   HL2333232  33.102   3.722  -0.470
  297XTA   HL2433233  33.265   3.730  -0.405
  297XTA   HL2533234  33.177   3.980  -0.556
  297XTA   HL2633235  33.338   3.887  -0.538
  297XTA   HL2733236  33.289   3.822  -0.756
  297XTA   HL2833237  33.197   3.706  -0.671
  297XTA   HL2933238  33.085   3.963  -0.778
  297XTA   HL3033239  33.080   3.830  -0.875
  297XTA   HL3133240  32.959   3.713  -0.655
  297XTA   HL3233241  32.968   3.878  -0.592
  297XTA   HL3333242  32.748   3.824  -0.680
  297XTA   HL3433243  32.819   3.955  -0.771
  297XTA   HL3533244  32.652   3.858  -0.917
  297XTA   HL3633245  32.613   3.704  -0.852
  297XTA   HL3733246  32.722   3.907  -1.114
  297XTA   HL3833247  32.737   3.803  -1.252
  297XTA   HL3933248  32.958   3.868  -1.224
  297XTA   HL4033249  32.953   3.712  -1.151
  297XTA   HL4133250  32.948   3.847  -1.052
  297XTA    CO833251  32.486   5.325  -0.439
  297XTA    CO933252  32.551   5.174  -0.249
  297XTA    OA633253  32.607   5.264  -0.210
  297XTA   HL4233254  32.535   5.267  -0.517
  297XTA   HL4333255  32.586   5.422  -0.395
  297XTA   HL4433256  32.518   3.810  -1.114
  297XTA   HL4533257  32.540   3.688  -1.253
  297XTA   CO1033258  32.540   3.706  -1.116
  297XTA   CO1133259  32.753   3.567  -1.068
  297XTA    OA733260  32.684   3.486  -1.035
  297XTA   HL4633261  32.770   3.555  -1.172
  297XTA   HL4733262  32.847   3.579  -1.015
  297XTA   HL4833263  32.625   5.111  -0.299
  297XTA   HL4933264  32.512   5.117  -0.166
  298XTA     NT33265  31.992   5.147   5.946
  298XTA    CN133266  32.084   5.067   5.882
  298XTA     C133267  32.067   4.927   5.872
  298XTA     C233268  32.152   4.851   5.793
  298XTA     C333269  32.260   4.910   5.725
  298XTA     C433270  32.283   5.049   5.740
  298XTA     C533271  32.192   5.126   5.814
  298XTA    CN233272  32.043   5.249   6.017
  298XTA     C633273  32.058   5.377   5.966
  298XTA     C733274  32.089   5.484   6.050
  298XTA     C833275  32.097   5.462   6.188
  298XTA     C933276  32.080   5.334   6.239
  298XTA    C1033277  32.064   5.223   6.152
  298XTA    CN333278  31.860   5.119   5.953
  298XTA    C1133279  31.813   5.022   6.046
  298XTA    C1233280  31.671   4.993   6.057
  298XTA    C1333281  31.583   5.063   5.974
  298XTA    C1433282  31.635   5.155   5.884
  298XTA    C1533283  31.765   5.192   5.875
  298XTA     H133284  31.990   4.878   5.926
  298XTA     H233285  32.146   4.745   5.783
  298XTA     H333286  32.377   5.094   5.693
  298XTA     H433287  32.202   5.235   5.822
  298XTA     H533288  32.061   5.401   5.859
  298XTA     H633289  32.112   5.580   6.008
  298XTA     H733290  32.094   5.319   6.346
  298XTA     H833291  32.054   5.121   6.196
  298XTA     H933292  31.877   4.969   6.109
  298XTA    H1033293  31.635   4.911   6.124
  298XTA    H1133294  31.561   5.205   5.822
  298XTA    H1233295  31.799   5.265   5.805
  298XTA    OA133296  32.322   4.846   5.618
  298XTA    CO133297  32.364   4.712   5.636
  298XTA    OA233298  32.130   5.558   6.276
  298XTA    CO233299  32.084   5.686   6.253
  298XTA    CL133300  32.120   5.770   6.383
  298XTA    CL233301  32.077   5.914   6.373
  298XTA    CL333302  32.079   5.987   6.508
  298XTA    CL433303  32.015   6.123   6.506
  298XTA    CO333304  32.030   6.193   6.644
  298XTA    OA333305  32.168   6.217   6.665
  298XTA    CO433306  32.225   6.188   6.791
  298XTA    CT133307  32.369   6.247   6.810
  298XTA    CL533308  32.417   6.232   6.957
  298XTA    CL633309  32.372   6.320   7.071
  298XTA    OA433310  31.451   5.036   5.989
  298XTA    CO533311  31.395   5.082   6.112
  298XTA    CL733312  31.359   4.967   6.205
  298XTA    CL833313  31.270   5.018   6.315
  298XTA    CL933314  31.277   4.919   6.431
  298XTA   CL1033315  31.208   4.786   6.400
  298XTA    CO633316  31.249   4.678   6.497
  298XTA    OA533317  31.258   4.556   6.412
  298XTA    CO733318  31.388   4.543   6.352
  298XTA    CT233319  31.387   4.427   6.255
  298XTA   CL1133320  31.502   4.447   6.152
  298XTA   CL1233321  31.476   4.571   6.066
  298XTA    HL133322  32.396   4.670   5.541
  298XTA    HL233323  32.445   4.709   5.707
  298XTA    HL333324  32.275   4.645   5.658
  298XTA    HL433325  32.130   5.723   6.164
  298XTA    HL533326  31.982   5.691   6.234
  298XTA    HL633327  32.228   5.775   6.394
  298XTA    HL733328  32.073   5.722   6.474
  298XTA    HL833329  31.978   5.924   6.322
  298XTA    HL933330  32.152   5.962   6.313
  298XTA   HL1033331  32.023   5.919   6.582
  298XTA   HL1133332  32.179   5.983   6.557
  298XTA   HL1233333  31.912   6.119   6.467
  298XTA   HL1333334  32.070   6.185   6.440
  298XTA   HL1433335  31.966   6.279   6.662
  298XTA   HL1533336  32.008   6.118   6.713
  298XTA   HL1633337  32.157   6.231   6.869
  298XTA   HL1733338  32.223   6.080   6.791
  298XTA   HL1833339  32.525   6.227   6.961
  298XTA   HL1933340  32.386   6.128   6.994
  298XTA   HL2033341  32.407   6.290   7.170
  298XTA   HL2133342  32.262   6.303   7.081
  298XTA   HL2233343  32.402   6.426   7.051
  298XTA   HL2333344  31.305   5.145   6.088
  298XTA   HL2433345  31.461   5.151   6.170
  298XTA   HL2533346  31.322   4.883   6.154
  298XTA   HL2633347  31.446   4.931   6.257
  298XTA   HL2733348  31.309   5.107   6.360
  298XTA   HL2833349  31.167   5.033   6.284
  298XTA   HL2933350  31.385   4.902   6.458
  298XTA   HL3033351  31.229   4.962   6.525
  298XTA   HL3133352  31.101   4.792   6.390
  298XTA   HL3233353  31.247   4.750   6.303
  298XTA   HL3333354  31.339   4.704   6.559
  298XTA   HL3433355  31.164   4.646   6.560
  298XTA   HL3533356  31.455   4.516   6.432
  298XTA   HL3633357  31.423   4.635   6.314
  298XTA   HL3733358  31.522   4.361   6.079
  298XTA   HL3833359  31.600   4.456   6.201
  298XTA   HL3933360  31.453   4.660   6.122
  298XTA   HL4033361  31.390   4.547   6.011
  298XTA   HL4133362  31.557   4.588   5.998
  298XTA    CO833363  32.366   6.395   6.765
  298XTA    CO933364  32.467   6.164   6.725
  298XTA    OA633365  32.275   6.463   6.845
  298XTA   HL4233366  32.339   6.402   6.654
  298XTA   HL4333367  32.458   6.446   6.773
  298XTA   HL4433368  31.184   4.360   6.267
  298XTA   HL4533369  31.207   4.496   6.160
  298XTA   CO1033370  31.251   4.405   6.192
  298XTA   CO1133371  31.420   4.299   6.331
  298XTA    OA733372  31.262   4.310   6.080
  298XTA   HL4633373  31.408   4.215   6.261
  298XTA   HL4733374  31.348   4.281   6.414
  298XTA   HL4833375  32.415   6.136   6.638
  298XTA   HL4933376  32.496   6.072   6.779
  299XTH     NT33377  27.886   6.604   3.856
  299XTH    CN133378  27.825   6.569   3.970
  299XTH     C133379  27.690   6.529   3.966
  299XTH     C233380  27.623   6.480   4.083
  299XTH     C333381  27.700   6.487   4.203
  299XTH     C433382  27.832   6.531   4.202
  299XTH     C533383  27.902   6.557   4.086
  299XTH    CN233384  27.952   6.522   3.782
  299XTH     C633385  28.087   6.503   3.809
  299XTH     C733386  28.146   6.399   3.731
  299XTH     C833387  28.079   6.329   3.625
  299XTH     C933388  27.943   6.356   3.607
  299XTH    C1033389  27.881   6.445   3.692
  299XTH    CN333390  27.859   6.720   3.804
  299XTH    C1133391  27.952   6.820   3.818
  299XTH    C1233392  27.932   6.944   3.754
  299XTH    C1333393  27.830   6.961   3.659
  299XTH    C1433394  27.725   6.865   3.655
  299XTH    C1533395  27.739   6.742   3.725
  299XTH     H133396  27.627   6.537   3.872
  299XTH     H233397  27.522   6.449   4.070
  299XTH     H333398  27.888   6.527   4.293
  299XTH     H433399  27.996   6.599   4.094
  299XTH     H533400  28.137   6.562   3.887
  299XTH     H633401  28.254   6.390   3.757
  299XTH     H733402  27.885   6.300   3.532
  299XTH     H833403  27.773   6.458   3.668
  299XTH     H933404  28.040   6.811   3.881
  299XTH    H1033405  28.012   7.018   3.760
  299XTH    H1133406  27.636   6.885   3.595
  299XTH    H1233407  27.673   6.663   3.718
  299XTH    OA133408  27.650   6.454   4.325
  299XTH    CO133409  27.513   6.413   4.333
  299XTH    OA233410  28.155   6.242   3.552
  299XTH    CO233411  28.168   6.279   3.416
  299XTH    CL133412  28.299   6.218   3.357
  299XTH    CL233413  28.340   6.260   3.220
  299XTH    CL333414  28.344   6.417   3.199
  299XTH    CL433415  28.469   6.477   3.270
  299XTH    CO333416  28.487   6.629   3.254
  299XTH    OA333417  28.369   6.681   3.311
  299XTH    CO433418  28.311   6.788   3.242
  299XTH    CT133419  28.170   6.842   3.299
  299XTH    CL533420  28.090   6.715   3.340
  299XTH    CL633421  27.947   6.736   3.402
  299XTH    OA433422  27.819   7.089   3.608
  299XTH    CO533423  27.728   7.112   3.506
  299XTH    CL733424  27.785   7.081   3.366
  299XTH    CL833425  27.667   7.085   3.263
  299XTH    CL933426  27.701   7.032   3.122
  299XTH   CL1033427  27.698   6.880   3.113
  299XTH    CO633428  27.692   6.842   2.971
  299XTH    OA533429  27.821   6.872   2.920
  299XTH    CO733430  27.899   6.759   2.904
  299XTH    CT233431  28.041   6.793   2.854
  299XTH   CL1133432  28.123   6.664   2.850
  299XTH   CL1233433  28.275   6.683   2.837
  299XTH    HL133434  27.487   6.417   4.441
  299XTH    HL233435  27.451   6.485   4.282
  299XTH    HL333436  27.502   6.315   4.286
  299XTH    HL433437  28.089   6.248   3.351
  299XTH    HL533438  28.175   6.391   3.413
  299XTH    HL633439  28.292   6.107   3.357
  299XTH    HL733440  28.383   6.242   3.422
  299XTH    HL833441  28.264   6.214   3.156
  299XTH    HL933442  28.432   6.217   3.193
  299XTH   HL1033443  28.348   6.447   3.097
  299XTH   HL1133444  28.258   6.473   3.233
  299XTH   HL1233445  28.557   6.419   3.238
  299XTH   HL1333446  28.469   6.446   3.369
  299XTH   HL1433447  28.566   6.669   3.309
  299XTH   HL1533448  28.487   6.663   3.149
  299XTH   HL1633449  28.380   6.862   3.226
  299XTH   HL1733450  28.294   6.741   3.144
  299XTH   HL1833451  28.161   6.663   3.402
  299XTH   HL1933452  28.091   6.641   3.250
  299XTH   HL2033453  27.870   6.743   3.325
  299XTH   HL2133454  27.957   6.813   3.476
  299XTH   HL2233455  27.916   6.647   3.454
  299XTH   HL2333456  27.701   7.214   3.510
  299XTH   HL2433457  27.637   7.056   3.525
  299XTH   HL2533458  27.866   7.144   3.339
  299XTH   HL2633459  27.821   6.982   3.380
  299XTH   HL2733460  27.584   7.028   3.297
  299XTH   HL2833461  27.644   7.188   3.255
  299XTH   HL2933462  27.628   7.070   3.055
  299XTH   HL3033463  27.797   7.073   3.089
  299XTH   HL3133464  27.788   6.838   3.157
  299XTH   HL3233465  27.609   6.845   3.158
  299XTH   HL3333466  27.661   6.735   2.963
  299XTH   HL3433467  27.611   6.895   2.925
  299XTH   HL3533468  27.840   6.692   2.845
  299XTH   HL3633469  27.915   6.708   2.999
  299XTH   HL3733470  28.095   6.604   2.763
  299XTH   HL3833471  28.111   6.599   2.937
  299XTH   HL3933472  28.317   6.576   2.826
  299XTH   HL4033473  28.322   6.730   2.919
  299XTH   HL4133474  28.305   6.723   2.742
  299XTH    CO833475  28.089   6.915   3.188
  299XTH    CO933476  28.189   6.947   3.412
  299XTH    OA633477  28.104   6.841   3.068
  299XTH   HL4233478  28.129   7.016   3.177
  299XTH   HL4333479  27.981   6.926   3.205
  299XTH   HL4433480  28.022   6.989   2.960
  299XTH   HL4533481  28.193   6.939   2.921
  299XTH   CO1033482  28.092   6.909   2.946
  299XTH   CO1133483  28.039   6.860   2.714
  299XTH    OA733484  28.155   6.939   2.681
  299XTH   HL4633485  28.025   6.774   2.649
  299XTH   HL4733486  27.950   6.921   2.717
  299XTH   HL4833487  28.086   6.989   3.422
  299XTH   HL4933488  28.243   6.899   3.495
  300XTA     NT33489  30.675   3.039   3.233
  300XTA    CN133490  30.707   2.956   3.129
  300XTA     C133491  30.644   2.828   3.128
  300XTA     C233492  30.654   2.747   3.014
  300XTA     C333493  30.740   2.789   2.909
  300XTA     C433494  30.802   2.917   2.918
  300XTA     C533495  30.785   3.000   3.028
  300XTA    CN233496  30.547   3.091   3.248
  300XTA     C633497  30.440   3.009   3.291
  300XTA     C733498  30.310   3.059   3.303
  300XTA     C833499  30.283   3.193   3.270
  300XTA     C933500  30.392   3.276   3.236
  300XTA    C1033501  30.521   3.227   3.224
  300XTA    CN333502  30.753   3.018   3.341
  300XTA    C1133503  30.867   3.095   3.355
  300XTA    C1233504  30.958   3.079   3.458
  300XTA    C1333505  30.937   2.983   3.564
  300XTA    C1433506  30.822   2.902   3.548
  300XTA    C1533507  30.731   2.916   3.438
  300XTA     H133508  30.587   2.801   3.218
  300XTA     H233509  30.608   2.652   3.015
  300XTA     H333510  30.866   2.943   2.836
  300XTA     H433511  30.833   3.097   3.036
  300XTA     H533512  30.469   2.905   3.312
  300XTA     H633513  30.238   2.993   3.351
  300XTA     H733514  30.374   3.384   3.221
  300XTA     H833515  30.601   3.279   3.188
  300XTA     H933516  30.895   3.164   3.278
  300XTA    H1033517  31.048   3.131   3.478
  300XTA    H1133518  30.799   2.840   3.631
  300XTA    H1233519  30.642   2.847   3.427
  300XTA    OA133520  30.781   2.699   2.808
  300XTA    CO133521  30.685   2.596   2.787
  300XTA    OA233522  30.154   3.232   3.261
  300XTA    CO233523  30.080   3.221   3.378
  300XTA    CL133524  30.136   3.321   3.486
  300XTA    CL233525  30.093   3.468   3.479
  300XTA    CL333526  30.109   3.568   3.591
  300XTA    CL433527  30.071   3.719   3.560
  300XTA    CO333528  30.051   3.794   3.693
  300XTA    OA333529  29.920   3.775   3.746
  300XTA    CO433530  29.892   3.853   3.861
  300XTA    CT133531  29.751   3.829   3.925
  300XTA    CL533532  29.650   3.935   3.887
  300XTA    CL633533  29.619   4.069   3.955
  300XTA    OA433534  31.037   2.961   3.653
  300XTA    CO533535  31.041   2.836   3.724
  300XTA    CL733536  31.174   2.835   3.801
  300XTA    CL833537  31.293   2.817   3.710
  300XTA    CL933538  31.313   2.677   3.666
  300XTA   CL1033539  31.425   2.656   3.567
  300XTA    CO633540  31.396   2.695   3.428
  300XTA    OA533541  31.383   2.835   3.410
  300XTA    CO733542  31.506   2.902   3.408
  300XTA    CT233543  31.479   3.056   3.382
  300XTA   CL1133544  31.614   3.126   3.350
  300XTA   CL1233545  31.719   3.130   3.454
  300XTA    HL133546  30.681   2.527   2.860
  300XTA    HL233547  30.593   2.642   2.781
  300XTA    HL333548  30.684   2.546   2.695
  300XTA    HL433549  29.975   3.231   3.367
  300XTA    HL533550  30.090   3.116   3.416
  300XTA    HL633551  30.239   3.311   3.473
  300XTA    HL733552  30.121   3.291   3.594
  300XTA    HL833553  29.997   3.482   3.435
  300XTA    HL933554  30.158   3.508   3.398
  300XTA   HL1033555  30.071   3.532   3.683
  300XTA   HL1133556  30.214   3.574   3.606
  300XTA   HL1233557  29.977   3.720   3.517
  300XTA   HL1333558  30.132   3.753   3.482
  300XTA   HL1433559  30.127   3.743   3.751
  300XTA   HL1533560  30.068   3.899   3.676
  300XTA   HL1633561  29.967   3.842   3.941
  300XTA   HL1733562  29.894   3.954   3.835
  300XTA   HL1833563  29.555   3.885   3.906
  300XTA   HL1933564  29.661   3.948   3.782
  300XTA   HL2033565  29.713   4.118   3.974
  300XTA   HL2133566  29.561   4.060   4.043
  300XTA   HL2233567  29.569   4.138   3.890
  300XTA   HL2333568  31.016   2.743   3.677
  300XTA   HL2433569  30.962   2.832   3.804
  300XTA   HL2533570  31.175   2.928   3.860
  300XTA   HL2633571  31.162   2.748   3.870
  300XTA   HL2733572  31.284   2.872   3.618
  300XTA   HL2833573  31.387   2.851   3.752
  300XTA   HL2933574  31.336   2.620   3.759
  300XTA   HL3033575  31.230   2.626   3.612
  300XTA   HL3133576  31.516   2.709   3.594
  300XTA   HL3233577  31.454   2.552   3.573
  300XTA   HL3333578  31.471   2.657   3.356
  300XTA   HL3433579  31.305   2.654   3.397
  300XTA   HL3533580  31.557   2.862   3.326
  300XTA   HL3633581  31.572   2.891   3.500
  300XTA   HL3733582  31.589   3.226   3.311
  300XTA   HL3833583  31.658   3.062   3.266
  300XTA   HL3933584  31.695   3.206   3.528
  300XTA   HL4033585  31.810   3.160   3.405
  300XTA   HL4133586  31.740   3.042   3.512
  300XTA    CO833587  29.761   3.829   4.085
  300XTA    CO933588  29.702   3.688   3.886
  300XTA    OA633589  29.870   3.752   4.134
  300XTA   HL4233590  29.668   3.797   4.132
  300XTA   HL4333591  29.777   3.925   4.127
  300XTA   HL4433592  31.389   3.227   3.461
  300XTA   HL4533593  31.319   3.081   3.509
  300XTA   CO1033594  31.417   3.129   3.500
  300XTA   CO1133595  31.387   3.077   3.255
  300XTA    OA733596  31.475   3.126   3.594
  300XTA   HL4633597  31.352   3.210   3.234
  300XTA   HL4733598  31.281   3.041   3.283
  300XTA   HL4833599  29.675   3.683   3.778
  300XTA   HL4933600  29.778   3.616   3.902
  301XTA     NT33601  26.923   8.000   4.668
  301XTA    CN133602  26.801   8.046   4.648
  301XTA     C133603  26.776   8.138   4.549
  301XTA     C233604  26.647   8.193   4.536
  301XTA     C333605  26.536   8.147   4.613
  301XTA     C433606  26.563   8.044   4.712
  301XTA     C533607  26.695   8.003   4.727
  301XTA    CN233608  26.953   7.877   4.625
  301XTA     C633609  27.022   7.783   4.700
  301XTA     C733610  27.060   7.658   4.658
  301XTA     C833611  27.019   7.616   4.529
  301XTA     C933612  26.932   7.704   4.452
  301XTA    C1033613  26.905   7.828   4.502
  301XTA    CN333614  27.021   8.071   4.729
  301XTA    C1133615  27.149   8.094   4.670
  301XTA    C1233616  27.250   8.162   4.745
  301XTA    C1333617  27.229   8.223   4.873
  301XTA    C1433618  27.109   8.188   4.934
  301XTA    C1533619  27.001   8.118   4.862
  301XTA     H133620  26.846   8.159   4.474
  301XTA     H233621  26.635   8.265   4.460
  301XTA     H333622  26.490   7.990   4.769
  301XTA     H433623  26.718   7.929   4.800
  301XTA     H533624  27.059   7.826   4.789
  301XTA     H633625  27.110   7.590   4.721
  301XTA     H733626  26.899   7.692   4.344
  301XTA     H833627  26.842   7.893   4.437
  301XTA     H933628  27.175   8.077   4.561
  301XTA    H1033629  27.334   8.188   4.691
  301XTA    H1133630  27.092   8.222   5.034
  301XTA    H1233631  26.903   8.103   4.906
  301XTA    OA133632  26.412   8.197   4.595
  301XTA    CO133633  26.319   8.171   4.704
  301XTA    OA233634  27.053   7.489   4.485
  301XTA    CO233635  27.051   7.476   4.342
  301XTA    CL133636  27.139   7.359   4.293
  301XTA    CL233637  27.289   7.382   4.331
  301XTA    CL333638  27.389   7.275   4.291
  301XTA    CL433639  27.535   7.301   4.319
  301XTA    CO333640  27.571   7.291   4.466
  301XTA    OA333641  27.681   7.371   4.500
  301XTA    CO433642  27.810   7.317   4.515
  301XTA    CT133643  27.913   7.379   4.420
  301XTA    CL533644  27.868   7.356   4.272
  301XTA    CL633645  27.880   7.207   4.227
  301XTA    OA433646  27.335   8.293   4.931
  301XTA    CO533647  27.308   8.373   5.044
  301XTA    CL733648  27.438   8.450   5.076
  301XTA    CL833649  27.563   8.371   5.104
  301XTA    CL933650  27.553   8.276   5.213
  301XTA   CL1033651  27.704   8.252   5.261
  301XTA    CO633652  27.783   8.177   5.155
  301XTA    OA533653  27.922   8.191   5.178
  301XTA    CO733654  27.967   8.325   5.137
  301XTA    CT233655  28.083   8.339   5.038
  301XTA   CL1133656  28.083   8.479   4.972
  301XTA   CL1233657  28.196   8.499   4.864
  301XTA    HL133658  26.353   8.209   4.801
  301XTA    HL233659  26.225   8.215   4.672
  301XTA    HL333660  26.308   8.062   4.711
  301XTA    HL433661  26.954   7.471   4.305
  301XTA    HL533662  27.099   7.566   4.297
  301XTA    HL633663  27.135   7.369   4.183
  301XTA    HL733664  27.091   7.269   4.333
  301XTA    HL833665  27.300   7.395   4.440
  301XTA    HL933666  27.316   7.477   4.284
  301XTA   HL1033667  27.369   7.180   4.344
  301XTA   HL1133668  27.370   7.268   4.187
  301XTA   HL1233669  27.549   7.405   4.291
  301XTA   HL1333670  27.606   7.265   4.253
  301XTA   HL1433671  27.487   7.324   4.525
  301XTA   HL1533672  27.588   7.188   4.494
  301XTA   HL1633673  27.841   7.352   4.617
  301XTA   HL1733674  27.817   7.207   4.519
  301XTA   HL1833675  27.931   7.407   4.202
  301XTA   HL1933676  27.773   7.396   4.251
  301XTA   HL2033677  27.984   7.176   4.242
  301XTA   HL2133678  27.862   7.200   4.119
  301XTA   HL2233679  27.822   7.139   4.287
  301XTA   HL2333680  27.274   8.313   5.127
  301XTA   HL2433681  27.229   8.438   5.018
  301XTA   HL2533682  27.454   8.501   4.986
  301XTA   HL2633683  27.402   8.521   5.158
  301XTA   HL2733684  27.598   8.330   5.008
  301XTA   HL2833685  27.636   8.447   5.120
  301XTA   HL2933686  27.489   8.310   5.292
  301XTA   HL3033687  27.510   8.181   5.183
  301XTA   HL3133688  27.751   8.353   5.282
  301XTA   HL3233689  27.706   8.199   5.355
  301XTA   HL3333690  27.753   8.068   5.157
  301XTA   HL3433691  27.755   8.212   5.061
  301XTA   HL3533692  27.983   8.375   5.232
  301XTA   HL3633693  27.882   8.379   5.103
  301XTA   HL3733694  28.075   8.565   5.043
  301XTA   HL3833695  27.993   8.491   4.917
  301XTA   HL3933696  28.155   8.584   4.807
  301XTA   HL4033697  28.219   8.423   4.795
  301XTA   HL4133698  28.289   8.529   4.913
  301XTA    CO833699  28.051   7.330   4.456
  301XTA    CO933700  27.914   7.533   4.438
  301XTA    OA633701  28.063   7.341   4.564
  301XTA   HL4233702  28.122   7.390   4.397
  301XTA   HL4333703  28.071   7.233   4.422
  301XTA   HL4433704  28.159   8.236   4.854
  301XTA   HL4533705  28.089   8.134   4.968
  301XTA   CO1033706  28.075   8.229   4.924
  301XTA   CO1133707  28.218   8.320   5.111
  301XTA    OA733708  27.951   8.237   4.854
  301XTA   HL4633709  28.225   8.217   5.149
  301XTA   HL4733710  28.308   8.338   5.047
  301XTA   HL4833711  27.786   7.584   4.429
  301XTA   HL4933712  27.945   7.559   4.539
  302XTA     NT33713  30.529   5.101   6.085
  302XTA    CN133714  30.640   5.029   6.101
  302XTA     C133715  30.715   4.983   5.993
  302XTA     C233716  30.835   4.909   6.013
  302XTA     C333717  30.883   4.883   6.143
  302XTA     C433718  30.811   4.932   6.245
  302XTA     C533719  30.694   5.010   6.229
  302XTA    CN233720  30.419   5.071   6.158
  302XTA     C633721  30.357   4.944   6.153
  302XTA     C733722  30.247   4.908   6.229
  302XTA     C833723  30.179   5.007   6.308
  302XTA     C933724  30.229   5.137   6.303
  302XTA    C1033725  30.344   5.165   6.238
  302XTA    CN333726  30.532   5.211   6.004
  302XTA    C1133727  30.454   5.216   5.893
  302XTA    C1233728  30.455   5.327   5.804
  302XTA    C1333729  30.538   5.439   5.820
  302XTA    C1433730  30.619   5.431   5.934
  302XTA    C1533731  30.617   5.322   6.025
  302XTA     H133732  30.666   5.000   5.899
  302XTA     H233733  30.884   4.864   5.924
  302XTA     H333734  30.841   4.905   6.349
  302XTA     H433735  30.645   5.069   6.303
  302XTA     H533736  30.410   4.866   6.091
  302XTA     H633737  30.239   4.798   6.242
  302XTA     H733738  30.187   5.215   6.358
  302XTA     H833739  30.392   5.263   6.248
  302XTA     H933740  30.383   5.140   5.867
  302XTA    H1033741  30.386   5.306   5.711
  302XTA    H1133742  30.684   5.519   5.946
  302XTA    H1233743  30.682   5.328   6.108
  302XTA    OA133744  31.000   4.820   6.168
  302XTA    CO133745  31.079   4.793   6.055
  302XTA    OA233746  30.064   4.984   6.385
  302XTA    CO233747  30.029   4.848   6.400
  302XTA    CL133748  29.933   4.814   6.285
  302XTA    CL233749  29.891   4.670   6.270
  302XTA    CL333750  29.789   4.637   6.160
  302XTA    CL433751  29.850   4.642   6.018
  302XTA    CO333752  29.759   4.648   5.897
  302XTA    OA333753  29.713   4.519   5.873
  302XTA    CO433754  29.603   4.508   5.788
  302XTA    CT133755  29.473   4.479   5.866
  302XTA    CL533756  29.474   4.344   5.935
  302XTA    CL633757  29.589   4.314   6.033
  302XTA    OA433758  30.536   5.547   5.737
  302XTA    CO533759  30.657   5.622   5.720
  302XTA    CL733760  30.621   5.766   5.671
  302XTA    CL833761  30.752   5.839   5.623
  302XTA    CL933762  30.717   5.968   5.561
  302XTA   CL1033763  30.667   6.077   5.658
  302XTA    CO633764  30.647   6.214   5.604
  302XTA    OA533765  30.545   6.187   5.500
  302XTA    CO733766  30.409   6.215   5.533
  302XTA    CT233767  30.323   6.197   5.411
  302XTA   CL1133768  30.199   6.287   5.420
  302XTA   CL1233769  30.097   6.253   5.536
  302XTA    HL133770  31.031   4.715   5.998
  302XTA    HL233771  31.087   4.876   5.987
  302XTA    HL333772  31.183   4.764   6.083
  302XTA    HL433773  30.111   4.783   6.411
  302XTA    HL533774  29.977   4.832   6.495
  302XTA    HL633775  29.979   4.852   6.199
  302XTA    HL733776  29.852   4.882   6.290
  302XTA    HL833777  29.855   4.633   6.369
  302XTA    HL933778  29.970   4.600   6.244
  302XTA   HL1033779  29.763   4.532   6.176
  302XTA   HL1133780  29.698   4.693   6.161
  302XTA   HL1233781  29.914   4.554   5.993
  302XTA   HL1333782  29.929   4.719   6.007
  302XTA   HL1433783  29.674   4.699   5.925
  302XTA   HL1533784  29.818   4.675   5.812
  302XTA   HL1633785  29.589   4.598   5.727
  302XTA   HL1733786  29.606   4.426   5.713
  302XTA   HL1833787  29.484   4.266   5.863
  302XTA   HL1933788  29.377   4.314   5.975
  302XTA   HL2033789  29.590   4.393   6.109
  302XTA   HL2133790  29.696   4.316   5.991
  302XTA   HL2233791  29.582   4.215   6.086
  302XTA   HL2333792  30.702   5.582   5.635
  302XTA   HL2433793  30.743   5.620   5.785
  302XTA   HL2533794  30.549   5.761   5.591
  302XTA   HL2633795  30.574   5.821   5.761
  302XTA   HL2733796  30.811   5.857   5.711
  302XTA   HL2833797  30.822   5.778   5.567
  302XTA   HL2933798  30.797   6.018   5.509
  302XTA   HL3033799  30.637   5.946   5.486
  302XTA   HL3133800  30.589   6.047   5.720
  302XTA   HL3233801  30.736   6.073   5.738
  302XTA   HL3333802  30.627   6.291   5.683
  302XTA   HL3433803  30.746   6.232   5.553
  302XTA   HL3533804  30.419   6.320   5.565
  302XTA   HL3633805  30.374   6.146   5.604
  302XTA   HL3733806  30.141   6.277   5.330
  302XTA   HL3833807  30.237   6.390   5.426
  302XTA   HL3933808  30.020   6.325   5.546
  302XTA   HL4033809  30.143   6.245   5.629
  302XTA   HL4133810  30.045   6.162   5.505
  302XTA    CO833811  29.355   4.482   5.768
  302XTA    CO933812  29.440   4.588   5.967
  302XTA    OA633813  29.348   4.570   6.022
  302XTA   HL4233814  29.269   4.459   5.828
  302XTA   HL4333815  29.315   4.606   5.717
  302XTA   HL4433816  30.386   6.000   5.366
  302XTA   HL4533817  30.247   6.037   5.287
  302XTA   CO1033818  30.292   6.046   5.387
  302XTA   CO1133819  30.406   6.241   5.280
  302XTA    OA733820  30.310   6.246   5.176
  302XTA   HL4633821  30.435   6.342   5.298
  302XTA   HL4733822  30.498   6.172   5.263
  302XTA   HL4833823  29.425   4.674   5.906
  302XTA   HL4933824  29.527   4.600   6.028
  303XTA     NT33825  29.995   2.682   6.842
  303XTA    CN133826  29.975   2.618   6.961
  303XTA     C133827  30.074   2.532   7.009
  303XTA     C233828  30.060   2.478   7.138
  303XTA     C333829  29.945   2.507   7.213
  303XTA     C433830  29.848   2.596   7.168
  303XTA     C533831  29.864   2.657   7.046
  303XTA    CN233832  30.105   2.755   6.826
  303XTA     C633833  30.168   2.761   6.701
  303XTA     C733834  30.282   2.840   6.681
  303XTA     C833835  30.333   2.916   6.789
  303XTA     C933836  30.274   2.912   6.914
  303XTA    C1033837  30.158   2.834   6.929
  303XTA    CN333838  29.892   2.696   6.753
  303XTA    C1133839  29.857   2.821   6.693
  303XTA    C1233840  29.739   2.831   6.612
  303XTA    C1333841  29.656   2.720   6.590
  303XTA    C1433842  29.696   2.596   6.650
  303XTA    C1533843  29.808   2.588   6.728
  303XTA     H133844  30.158   2.497   6.947
  303XTA     H233845  30.137   2.410   7.174
  303XTA     H333846  29.768   2.626   7.231
  303XTA     H433847  29.806   2.743   7.010
  303XTA     H533848  30.118   2.701   6.628
  303XTA     H633849  30.332   2.831   6.582
  303XTA     H733850  30.308   2.976   6.999
  303XTA     H833851  30.111   2.857   7.021
  303XTA     H933852  29.919   2.906   6.697
  303XTA    H1033853  29.724   2.924   6.560
  303XTA    H1133854  29.630   2.514   6.647
  303XTA    H1233855  29.817   2.494   6.793
  303XTA    OA133856  29.930   2.446   7.337
  303XTA    CO133857  30.031   2.488   7.423
  303XTA    OA233858  30.441   2.999   6.758
  303XTA    CO233859  30.480   3.085   6.861
  303XTA    CL133860  30.578   3.182   6.798
  303XTA    CL233861  30.522   3.261   6.683
  303XTA    CL333862  30.413   3.355   6.726
  303XTA    CL433863  30.379   3.447   6.616
  303XTA    CO333864  30.247   3.412   6.544
  303XTA    OA333865  30.180   3.525   6.477
  303XTA    CO433866  30.238   3.572   6.358
  303XTA    CT133867  30.160   3.684   6.278
  303XTA    CL533868  30.211   3.701   6.133
  303XTA    CL633869  30.152   3.814   6.041
  303XTA    OA433870  29.557   2.734   6.496
  303XTA    CO533871  29.559   2.631   6.394
  303XTA    CL733872  29.428   2.622   6.315
  303XTA    CL833873  29.309   2.578   6.407
  303XTA    CL933874  29.175   2.593   6.333
  303XTA   CL1033875  29.051   2.544   6.407
  303XTA    CO633876  29.053   2.390   6.398
  303XTA    OA533877  28.972   2.340   6.501
  303XTA    CO733878  28.989   2.201   6.530
  303XTA    CT233879  28.947   2.169   6.679
  303XTA   CL1133880  28.990   2.025   6.718
  303XTA   CL1233881  28.949   1.974   6.854
  303XTA    HL133882  30.132   2.484   7.375
  303XTA    HL233883  30.011   2.587   7.454
  303XTA    HL333884  30.033   2.419   7.512
  303XTA    HL433885  30.392   3.137   6.895
  303XTA    HL533886  30.536   3.035   6.942
  303XTA    HL633887  30.667   3.123   6.771
  303XTA    HL733888  30.616   3.245   6.885
  303XTA    HL833889  30.482   3.196   6.606
  303XTA    HL933890  30.602   3.319   6.635
  303XTA   HL1033891  30.323   3.302   6.774
  303XTA   HL1133892  30.459   3.415   6.804
  303XTA   HL1233893  30.461   3.444   6.539
  303XTA   HL1333894  30.381   3.540   6.677
  303XTA   HL1433895  30.258   3.319   6.485
  303XTA   HL1533896  30.173   3.388   6.627
  303XTA   HL1633897  30.337   3.607   6.381
  303XTA   HL1733898  30.258   3.489   6.294
  303XTA   HL1833899  30.213   3.609   6.075
  303XTA   HL1933900  30.313   3.727   6.153
  303XTA   HL2033901  30.167   3.804   5.931
  303XTA   HL2133902  30.152   3.912   6.080
  303XTA   HL2233903  30.047   3.791   6.033
  303XTA   HL2333904  29.575   2.532   6.435
  303XTA   HL2433905  29.648   2.627   6.321
  303XTA   HL2533906  29.418   2.715   6.252
  303XTA   HL2633907  29.445   2.547   6.241
  303XTA   HL2733908  29.330   2.469   6.429
  303XTA   HL2833909  29.313   2.647   6.493
  303XTA   HL2933910  29.162   2.705   6.316
  303XTA   HL3033911  29.190   2.535   6.233
  303XTA   HL3133912  29.063   2.563   6.512
  303XTA   HL3233913  28.953   2.577   6.378
  303XTA   HL3333914  29.008   2.355   6.305
  303XTA   HL3433915  29.157   2.366   6.409
  303XTA   HL3533916  29.091   2.171   6.528
  303XTA   HL3633917  28.934   2.141   6.457
  303XTA   HL3733918  29.102   2.009   6.717
  303XTA   HL3833919  28.947   1.957   6.648
  303XTA   HL3933920  28.852   1.926   6.844
  303XTA   HL4033921  28.959   2.060   6.924
  303XTA   HL4133922  29.010   1.895   6.897
  303XTA    CO833923  30.164   3.826   6.355
  303XTA    CO933924  30.019   3.641   6.281
  303XTA    OA633925  30.267   3.859   6.334
  303XTA   HL4233926  30.149   3.821   6.459
  303XTA   HL4333927  30.094   3.898   6.311
  303XTA   HL4433928  28.758   2.142   6.590
  303XTA   HL4533929  28.741   2.314   6.695
  303XTA   CO1033930  28.789   2.176   6.687
  303XTA   CO1133931  29.003   2.278   6.772
  303XTA    OA733932  29.114   2.276   6.779
  303XTA   HL4633933  28.968   2.381   6.741
  303XTA   HL4733934  28.955   2.251   6.868
  303XTA   HL4833935  29.929   3.743   6.230
  303XTA   HL4933936  29.981   3.630   6.385
  304XTA     NT33937  31.004   5.223   7.168
  304XTA    CN133938  31.135   5.227   7.133
  304XTA     C133939  31.190   5.139   7.041
  304XTA     C233940  31.313   5.154   6.982
  304XTA     C333941  31.401   5.257   7.028
  304XTA     C433942  31.348   5.344   7.126
  304XTA     C533943  31.219   5.328   7.180
  304XTA    CN233944  30.924   5.323   7.122
  304XTA     C633945  30.884   5.431   7.205
  304XTA     C733946  30.803   5.537   7.168
  304XTA     C833947  30.757   5.535   7.034
  304XTA     C933948  30.797   5.436   6.947
  304XTA    C1033949  30.873   5.327   6.993
  304XTA    CN333950  30.956   5.120   7.241
  304XTA    C1133951  30.858   5.035   7.191
  304XTA    C1233952  30.802   4.927   7.261
  304XTA    C1333953  30.836   4.907   7.395
  304XTA    C1433954  30.925   4.996   7.450
  304XTA    C1533955  30.988   5.096   7.375
  304XTA     H133956  31.126   5.056   7.012
  304XTA     H233957  31.331   5.087   6.897
  304XTA     H333958  31.403   5.433   7.156
  304XTA     H433959  31.183   5.404   7.253
  304XTA     H533960  30.920   5.434   7.309
  304XTA     H633961  30.770   5.609   7.238
  304XTA     H733962  30.751   5.445   6.846
  304XTA     H833963  30.898   5.249   6.924
  304XTA     H933964  30.811   5.041   7.097
  304XTA    H1033965  30.724   4.860   7.218
  304XTA    H1133966  30.952   5.000   7.556
  304XTA    H1233967  31.071   5.150   7.416
  304XTA    OA133968  31.533   5.270   6.995
  304XTA    CO133969  31.564   5.237   6.858
  304XTA    OA233970  30.657   5.616   6.989
  304XTA    CO233971  30.621   5.726   7.072
  304XTA    CL133972  30.718   5.837   7.058
  304XTA    CL233973  30.677   5.929   6.939
  304XTA    CL333974  30.793   5.999   6.856
  304XTA    CL433975  30.895   5.897   6.787
  304XTA    CO333976  31.030   5.956   6.740
  304XTA    OA333977  31.122   5.857   6.708
  304XTA    CO433978  31.199   5.825   6.816
  304XTA    CT133979  31.267   5.683   6.806
  304XTA    CL533980  31.355   5.679   6.679
  304XTA    CL633981  31.430   5.547   6.668
  304XTA    OA433982  30.793   4.795   7.461
  304XTA    CO533983  30.818   4.791   7.600
  304XTA    CL733984  30.751   4.671   7.661
  304XTA    CL833985  30.812   4.548   7.595
  304XTA    CL933986  30.962   4.532   7.649
  304XTA   CL1033987  31.032   4.416   7.587
  304XTA    CO633988  31.059   4.442   7.441
  304XTA    OA533989  31.104   4.318   7.399
  304XTA    CO733990  31.136   4.323   7.257
  304XTA    CT233991  31.168   4.184   7.206
  304XTA   CL1133992  31.260   4.114   7.312
  304XTA   CL1233993  31.378   4.196   7.359
  304XTA    HL133994  31.672   5.237   6.838
  304XTA    HL233995  31.532   5.141   6.847
  304XTA    HL333996  31.491   5.290   6.788
  304XTA    HL433997  30.523   5.755   7.045
  304XTA    HL533998  30.611   5.697   7.177
  304XTA    HL633999  30.816   5.785   7.043
  304XTA    HL734000  30.724   5.894   7.151
  304XTA    HL834001  30.620   6.009   6.991
  304XTA    HL934002  30.608   5.881   6.867
  304XTA   HL1034003  30.737   6.070   6.799
  304XTA   HL1134004  30.845   6.065   6.926
  304XTA   HL1234005  30.841   5.846   6.704
  304XTA   HL1334006  30.902   5.823   6.861
  304XTA   HL1434007  31.020   6.019   6.657
  304XTA   HL1534008  31.077   6.025   6.822
  304XTA   HL1634009  31.267   5.908   6.831
  304XTA   HL1734010  31.138   5.814   6.902
  304XTA   HL1834011  31.431   5.761   6.694
  304XTA   HL1934012  31.296   5.698   6.592
  304XTA   HL2034013  31.500   5.563   6.588
  304XTA   HL2134014  31.359   5.468   6.638
  304XTA   HL2234015  31.472   5.517   6.764
  304XTA   HL2334016  30.770   4.875   7.641
  304XTA   HL2434017  30.923   4.785   7.626
  304XTA   HL2534018  30.764   4.677   7.768
  304XTA   HL2634019  30.640   4.674   7.633
  304XTA   HL2734020  30.747   4.462   7.615
  304XTA   HL2834021  30.803   4.550   7.486
  304XTA   HL2934022  31.032   4.617   7.642
  304XTA   HL3034023  30.947   4.507   7.753
  304XTA   HL3134024  31.115   4.395   7.647
  304XTA   HL3234025  30.961   4.332   7.619
  304XTA   HL3334026  30.968   4.468   7.386
  304XTA   HL3434027  31.141   4.517   7.427
  304XTA   HL3534028  31.217   4.397   7.233
  304XTA   HL3634029  31.053   4.366   7.199
  304XTA   HL3734030  31.294   4.025   7.261
  304XTA   HL3834031  31.192   4.095   7.399
  304XTA   HL3934032  31.340   4.267   7.430
  304XTA   HL4034033  31.427   4.232   7.268
  304XTA   HL4134034  31.463   4.139   7.414
  304XTA    CO834035  31.157   5.564   6.796
  304XTA    CO934036  31.349   5.665   6.935
  304XTA    OA634037  31.435   5.777   6.945
  304XTA   HL4234038  31.087   5.581   6.872
  304XTA   HL4334039  31.199   5.465   6.828
  304XTA   HL4434040  31.252   4.098   7.019
  304XTA   HL4534041  31.174   4.245   6.997
  304XTA   CO1034042  31.233   4.190   7.064
  304XTA   CO1134043  31.045   4.090   7.179
  304XTA    OA734044  31.350   4.269   7.068
  304XTA   HL4634045  30.997   4.047   7.268
  304XTA   HL4734046  31.079   4.006   7.120
  304XTA   HL4834047  31.406   5.569   6.932
  304XTA   HL4934048  31.283   5.664   7.022
  305XTA     NT34049  30.614   5.377   5.319
  305XTA    CN134050  30.633   5.487   5.240
  305XTA     C134051  30.604   5.612   5.293
  305XTA     C234052  30.638   5.733   5.230
  305XTA     C334053  30.687   5.730   5.095
  305XTA     C434054  30.699   5.603   5.032
  305XTA     C534055  30.680   5.483   5.110
  305XTA    CN234056  30.488   5.319   5.305
  305XTA     C634057  30.390   5.332   5.405
  305XTA     C734058  30.262   5.268   5.398
  305XTA     C834059  30.228   5.198   5.282
  305XTA     C934060  30.321   5.189   5.176
  305XTA    C1034061  30.451   5.246   5.189
  305XTA    CN334062  30.710   5.331   5.394
  305XTA    C1134063  30.831   5.298   5.333
  305XTA    C1234064  30.940   5.263   5.408
  305XTA    C1334065  30.936   5.265   5.552
  305XTA    C1434066  30.810   5.283   5.609
  305XTA    C1534067  30.695   5.305   5.530
  305XTA     H134068  30.579   5.619   5.400
  305XTA     H234069  30.637   5.833   5.279
  305XTA     H334070  30.727   5.602   4.929
  305XTA     H434071  30.711   5.389   5.070
  305XTA     H534072  30.416   5.391   5.491
  305XTA     H634073  30.202   5.265   5.492
  305XTA     H734074  30.294   5.136   5.089
  305XTA     H834075  30.517   5.238   5.109
  305XTA     H934076  30.842   5.309   5.223
  305XTA    H1034077  31.035   5.234   5.362
  305XTA    H1134078  30.798   5.281   5.716
  305XTA    H1234079  30.605   5.310   5.585
  305XTA    OA134080  30.729   5.844   5.022
  305XTA    CO134081  30.707   5.970   5.084
  305XTA    OA234082  30.110   5.130   5.296
  305XTA    CO234083  30.119   5.002   5.246
  305XTA    CL134084  30.002   4.914   5.282
  305XTA    CL234085  30.015   4.776   5.229
  305XTA    CL334086  29.895   4.694   5.265
  305XTA    CL434087  29.898   4.560   5.197
  305XTA    CO334088  29.795   4.456   5.247
  305XTA    OA334089  29.662   4.486   5.206
  305XTA    CO434090  29.591   4.570   5.296
  305XTA    CT134091  29.444   4.571   5.246
  305XTA    CL534092  29.361   4.660   5.348
  305XTA    CL634093  29.369   4.813   5.311
  305XTA    OA434094  31.044   5.238   5.631
  305XTA    CO534095  31.030   5.132   5.728
  305XTA    CL734096  31.121   5.166   5.839
  305XTA    CL834097  31.054   5.245   5.955
  305XTA    CL934098  31.094   5.392   5.957
  305XTA   CL1034099  31.011   5.486   5.865
  305XTA    CO634100  31.032   5.632   5.906
  305XTA    OA534101  30.966   5.632   6.034
  305XTA    CO734102  31.004   5.741   6.117
  305XTA    CT234103  30.923   5.720   6.251
  305XTA   CL1134104  30.778   5.789   6.254
  305XTA   CL1234105  30.690   5.750   6.137
  305XTA    HL134106  30.754   5.983   5.182
  305XTA    HL234107  30.756   6.048   5.024
  305XTA    HL334108  30.599   5.978   5.094
  305XTA    HL434109  30.122   5.004   5.138
  305XTA    HL534110  30.216   4.959   5.281
  305XTA    HL634111  29.905   4.951   5.244
  305XTA    HL734112  29.977   4.904   5.388
  305XTA    HL834113  30.099   4.719   5.261
  305XTA    HL934114  30.014   4.790   5.128
  305XTA   HL1034115  29.873   4.687   5.374
  305XTA   HL1134116  29.820   4.755   5.208
  305XTA   HL1234117  30.000   4.511   5.189
  305XTA   HL1334118  29.888   4.575   5.094
  305XTA   HL1434119  29.821   4.363   5.198
  305XTA   HL1534120  29.820   4.449   5.358
  305XTA   HL1634121  29.597   4.540   5.400
  305XTA   HL1734122  29.626   4.666   5.292
  305XTA   HL1834123  29.403   4.646   5.450
  305XTA   HL1934124  29.268   4.615   5.352
  305XTA   HL2034125  29.481   4.829   5.298
  305XTA   HL2134126  29.324   4.876   5.390
  305XTA   HL2234127  29.316   4.853   5.218
  305XTA   HL2334128  31.075   5.049   5.679
  305XTA   HL2434129  30.931   5.100   5.759
  305XTA   HL2534130  31.153   5.066   5.874
  305XTA   HL2634131  31.211   5.223   5.802
  305XTA   HL2734132  30.948   5.232   5.952
  305XTA   HL2834133  31.085   5.189   6.046
  305XTA   HL2934134  31.083   5.432   6.060
  305XTA   HL3034135  31.200   5.394   5.929
  305XTA   HL3134136  31.045   5.472   5.766
  305XTA   HL3234137  30.908   5.461   5.865
  305XTA   HL3334138  31.138   5.659   5.901
  305XTA   HL3434139  30.993   5.700   5.828
  305XTA   HL3534140  30.963   5.827   6.070
  305XTA   HL3634141  31.113   5.744   6.141
  305XTA   HL3734142  30.790   5.898   6.259
  305XTA   HL3834143  30.722   5.756   6.341
  305XTA   HL3934144  30.672   5.639   6.151
  305XTA   HL4034145  30.736   5.781   6.046
  305XTA   HL4134146  30.592   5.797   6.148
  305XTA    CO834147  29.391   4.424   5.265
  305XTA    CO934148  29.417   4.607   5.098
  305XTA    OA634149  29.397   4.384   5.369
  305XTA   HL4234150  29.455   4.358   5.202
  305XTA   HL4334151  29.293   4.413   5.224
  305XTA   HL4434152  31.128   5.730   6.388
  305XTA   HL4534153  30.945   5.805   6.446
  305XTA   CO1034154  31.007   5.798   6.356
  305XTA   CO1134155  30.914   5.577   6.293
  305XTA    OA734156  30.879   5.582   6.401
  305XTA   HL4634157  30.832   5.531   6.236
  305XTA   HL4734158  30.999   5.519   6.273
  305XTA   HL4834159  29.283   4.627   5.075
  305XTA   HL4934160  29.430   4.515   5.041
  306XTA     NT34161  29.077   2.226  -0.979
  306XTA    CN134162  29.094   2.101  -1.037
  306XTA     C134163  29.040   1.984  -0.984
  306XTA     C234164  29.056   1.860  -1.050
  306XTA     C334165  29.133   1.847  -1.164
  306XTA     C434166  29.185   1.963  -1.218
  306XTA     C534167  29.170   2.090  -1.157
  306XTA    CN234168  29.136   2.246  -0.859
  306XTA     C634169  29.279   2.224  -0.842
  306XTA     C734170  29.334   2.260  -0.715
  306XTA     C834171  29.260   2.330  -0.614
  306XTA     C934172  29.126   2.364  -0.642
  306XTA    C1034173  29.067   2.320  -0.762
  306XTA    CN334174  29.038   2.336  -1.050
  306XTA    C1134175  29.126   2.451  -1.067
  306XTA    C1234176  29.085   2.562  -1.145
  306XTA    C1334177  28.959   2.560  -1.211
  306XTA    C1434178  28.886   2.443  -1.211
  306XTA    C1534179  28.928   2.331  -1.132
  306XTA     H134180  28.986   1.987  -0.889
  306XTA     H234181  29.007   1.771  -1.013
  306XTA     H334182  29.240   1.953  -1.307
  306XTA     H434183  29.211   2.182  -1.198
  306XTA     H534184  29.345   2.172  -0.915
  306XTA     H634185  29.442   2.246  -0.694
  306XTA     H734186  29.055   2.414  -0.584
  306XTA     H834187  28.968   2.349  -0.788
  306XTA     H934188  29.219   2.441  -1.015
  306XTA    H1034189  29.149   2.642  -1.167
  306XTA    H1134190  28.795   2.442  -1.270
  306XTA    H1234191  28.861   2.250  -1.121
  306XTA    OA134192  29.152   1.734  -1.236
  306XTA    CO134193  29.031   1.665  -1.246
  306XTA    OA234194  29.327   2.382  -0.509
  306XTA    CO234195  29.261   2.423  -0.394
  306XTA    CL134196  29.180   2.311  -0.333
  306XTA    CL234197  29.108   2.348  -0.207
  306XTA    CL334198  28.991   2.449  -0.223
  306XTA    CL434199  28.921   2.467  -0.093
  306XTA    CO334200  28.784   2.539  -0.105
  306XTA    OA334201  28.688   2.450  -0.152
  306XTA    CO434202  28.581   2.510  -0.224
  306XTA    CT134203  28.472   2.409  -0.272
  306XTA    CL534204  28.524   2.309  -0.364
  306XTA    CL634205  28.423   2.222  -0.429
  306XTA    OA434206  28.928   2.672  -1.285
  306XTA    CO534207  28.860   2.645  -1.404
  306XTA    CL734208  28.877   2.779  -1.484
  306XTA    CL834209  28.817   2.762  -1.625
  306XTA    CL934210  28.828   2.893  -1.713
  306XTA   CL1034211  28.967   2.958  -1.722
  306XTA    CO634212  29.062   2.888  -1.817
  306XTA    OA534213  29.183   2.963  -1.816
  306XTA    CO734214  29.260   2.960  -1.939
  306XTA    CT234215  29.361   3.074  -1.923
  306XTA   CL1134216  29.301   3.204  -1.876
  306XTA   CL1234217  29.187   3.267  -1.957
  306XTA    HL134218  29.000   1.612  -1.155
  306XTA    HL234219  28.953   1.731  -1.268
  306XTA    HL334220  29.049   1.603  -1.329
  306XTA    HL434221  29.328   2.457  -0.311
  306XTA    HL534222  29.195   2.510  -0.408
  306XTA    HL634223  29.256   2.240  -0.307
  306XTA    HL734224  29.107   2.274  -0.411
  306XTA    HL834225  29.187   2.371  -0.135
  306XTA    HL934226  29.060   2.251  -0.183
  306XTA   HL1034227  29.033   2.538  -0.265
  306XTA   HL1134228  28.922   2.410  -0.296
  306XTA   HL1234229  28.987   2.528  -0.032
  306XTA   HL1334230  28.894   2.369  -0.060
  306XTA   HL1434231  28.742   2.579  -0.009
  306XTA   HL1534232  28.794   2.628  -0.171
  306XTA   HL1634233  28.529   2.578  -0.157
  306XTA   HL1734234  28.623   2.562  -0.311
  306XTA   HL1834235  28.599   2.251  -0.309
  306XTA   HL1934236  28.585   2.364  -0.435
  306XTA   HL2034237  28.472   2.143  -0.480
  306XTA   HL2134238  28.361   2.271  -0.502
  306XTA   HL2234239  28.370   2.173  -0.355
  306XTA   HL2334240  28.759   2.612  -1.392
  306XTA   HL2434241  28.911   2.569  -1.461
  306XTA   HL2534242  28.823   2.859  -1.433
  306XTA   HL2634243  28.987   2.797  -1.478
  306XTA   HL2734244  28.866   2.679  -1.677
  306XTA   HL2834245  28.714   2.740  -1.605
  306XTA   HL2934246  28.773   2.880  -1.809
  306XTA   HL3034247  28.764   2.974  -1.669
  306XTA   HL3134248  28.971   3.066  -1.752
  306XTA   HL3234249  29.016   2.954  -1.622
  306XTA   HL3334250  29.087   2.779  -1.781
  306XTA   HL3434251  29.013   2.880  -1.915
  306XTA   HL3534252  29.208   2.975  -2.034
  306XTA   HL3634253  29.317   2.866  -1.945
  306XTA   HL3734254  29.378   3.281  -1.870
  306XTA   HL3834255  29.266   3.195  -1.772
  306XTA   HL3934256  29.090   3.229  -1.933
  306XTA   HL4034257  29.194   3.245  -2.067
  306XTA   HL4134258  29.184   3.372  -1.956
  306XTA    CO834259  28.355   2.495  -0.338
  306XTA    CO934260  28.404   2.352  -0.141
  306XTA    OA634261  28.408   2.560  -0.417
  306XTA   HL4234262  28.303   2.548  -0.265
  306XTA   HL4334263  28.277   2.436  -0.386
  306XTA   HL4434264  29.504   3.023  -2.091
  306XTA   HL4534265  29.355   3.069  -2.146
  306XTA   CO1034266  29.424   3.099  -2.065
  306XTA   CO1134267  29.482   3.030  -1.838
  306XTA    OA734268  29.476   3.227  -2.090
  306XTA   HL4634269  29.447   2.991  -1.739
  306XTA   HL4734270  29.541   2.946  -1.873
  306XTA   HL4834271  28.361   2.461  -0.066
  306XTA   HL4934272  28.313   2.299  -0.172
  307XTA     NT34273  31.280   0.402   4.472
  307XTA    CN134274  31.263   0.369   4.602
  307XTA     C134275  31.327   0.439   4.709
  307XTA     C234276  31.292   0.409   4.843
  307XTA     C334277  31.185   0.320   4.873
  307XTA     C434278  31.139   0.242   4.766
  307XTA     C534279  31.177   0.266   4.633
  307XTA    CN234280  31.281   0.531   4.431
  307XTA     C634281  31.405   0.605   4.441
  307XTA     C734282  31.411   0.746   4.422
  307XTA     C834283  31.293   0.812   4.378
  307XTA     C934284  31.172   0.740   4.370
  307XTA    C1034285  31.167   0.599   4.400
  307XTA    CN334286  31.308   0.317   4.377
  307XTA    C1134287  31.204   0.275   4.289
  307XTA    C1234288  31.215   0.169   4.197
  307XTA    C1334289  31.335   0.095   4.191
  307XTA    C1434290  31.431   0.130   4.282
  307XTA    C1534291  31.426   0.240   4.368
  307XTA     H134292  31.394   0.522   4.682
  307XTA     H234293  31.329   0.469   4.927
  307XTA     H334294  31.069   0.166   4.796
  307XTA     H434295  31.132   0.214   4.543
  307XTA     H534296  31.498   0.568   4.476
  307XTA     H634297  31.502   0.798   4.440
  307XTA     H734298  31.078   0.788   4.344
  307XTA     H834299  31.075   0.545   4.398
  307XTA     H934300  31.104   0.320   4.296
  307XTA    H1034301  31.124   0.135   4.136
  307XTA    H1134302  31.526   0.083   4.275
  307XTA    H1234303  31.512   0.253   4.433
  307XTA    OA134304  31.133   0.299   4.998
  307XTA    CO134305  31.142   0.413   5.081
  307XTA    OA234306  31.286   0.951   4.368
  307XTA    CO234307  31.401   1.018   4.362
  307XTA    CL134308  31.360   1.165   4.367
  307XTA    CL234309  31.479   1.256   4.361
  307XTA    CL334310  31.559   1.270   4.485
  307XTA    CL434311  31.680   1.355   4.451
  307XTA    CO334312  31.757   1.401   4.578
  307XTA    OA334313  31.851   1.505   4.556
  307XTA    CO434314  31.893   1.560   4.680
  307XTA    CT134315  31.951   1.704   4.670
  307XTA    CL534316  32.084   1.683   4.587
  307XTA    CL634317  32.188   1.797   4.586
  307XTA    OA434318  31.366  -0.004   4.106
  307XTA    CO534319  31.320   0.016   3.974
  307XTA    CL734320  31.172  -0.034   3.942
  307XTA    CL834321  31.157  -0.185   3.901
  307XTA    CL934322  31.188  -0.278   4.022
  307XTA   CL1034323  31.083  -0.259   4.130
  307XTA    CO634324  31.120  -0.326   4.263
  307XTA    OA534325  31.043  -0.251   4.356
  307XTA    CO734326  30.998  -0.337   4.460
  307XTA    CT234327  30.948  -0.256   4.581
  307XTA   CL1134328  30.797  -0.212   4.565
  307XTA   CL1234329  30.685  -0.312   4.569
  307XTA    HL134330  31.101   0.495   5.034
  307XTA    HL234331  31.083   0.405   5.173
  307XTA    HL334332  31.239   0.423   5.118
  307XTA    HL434333  31.472   0.996   4.441
  307XTA    HL534334  31.448   0.991   4.264
  307XTA    HL634335  31.297   1.191   4.450
  307XTA    HL734336  31.305   1.186   4.288
  307XTA    HL834337  31.427   1.345   4.329
  307XTA    HL934338  31.531   1.214   4.278
  307XTA   HL1034339  31.500   1.300   4.579
  307XTA   HL1134340  31.592   1.170   4.499
  307XTA   HL1234341  31.636   1.452   4.417
  307XTA   HL1334342  31.740   1.310   4.366
  307XTA   HL1434343  31.687   1.427   4.653
  307XTA   HL1534344  31.808   1.314   4.623
  307XTA   HL1634345  31.803   1.562   4.743
  307XTA   HL1734346  31.964   1.498   4.737
  307XTA   HL1834347  32.068   1.659   4.480
  307XTA   HL1934348  32.124   1.593   4.621
  307XTA   HL2034349  32.142   1.891   4.549
  307XTA   HL2134350  32.269   1.777   4.520
  307XTA   HL2234351  32.235   1.823   4.688
  307XTA   HL2334352  31.388  -0.033   3.905
  307XTA   HL2434353  31.330   0.121   3.961
  307XTA   HL2534354  31.093  -0.014   4.012
  307XTA   HL2634355  31.149   0.011   3.852
  307XTA   HL2734356  31.062  -0.209   3.858
  307XTA   HL2834357  31.242  -0.217   3.837
  307XTA   HL2934358  31.193  -0.378   3.986
  307XTA   HL3034359  31.290  -0.253   4.060
  307XTA   HL3134360  31.081  -0.155   4.166
  307XTA   HL3234361  30.980  -0.281   4.093
  307XTA   HL3334362  31.085  -0.427   4.249
  307XTA   HL3434363  31.223  -0.316   4.281
  307XTA   HL3534364  31.080  -0.393   4.507
  307XTA   HL3634365  30.914  -0.409   4.425
  307XTA   HL3734366  30.783  -0.147   4.469
  307XTA   HL3834367  30.782  -0.153   4.653
  307XTA   HL3934368  30.590  -0.265   4.554
  307XTA   HL4034369  30.699  -0.364   4.663
  307XTA   HL4134370  30.701  -0.386   4.492
  307XTA    CO834371  32.002   1.754   4.808
  307XTA    CO934372  31.851   1.811   4.609
  307XTA    OA634373  31.762   1.814   4.674
  307XTA   HL4234374  31.918   1.758   4.880
  307XTA   HL4334375  32.041   1.891   4.809
  307XTA   HL4434376  31.014  -0.063   4.531
  307XTA   HL4534377  31.020  -0.084   4.702
  307XTA   CO1034378  31.039  -0.139   4.605
  307XTA   CO1134379  30.963  -0.339   4.719
  307XTA    OA734380  31.144  -0.174   4.600
  307XTA   HL4634381  31.091  -0.320   4.784
  307XTA   HL4734382  30.888  -0.317   4.792
  307XTA   HL4834383  31.819   1.784   4.511
  307XTA   HL4934384  31.891   1.910   4.614
  308XTA     NT34385  30.715   5.389   2.712
  308XTA    CN134386  30.759   5.475   2.809
  308XTA     C134387  30.676   5.568   2.874
  308XTA     C234388  30.725   5.645   2.978
  308XTA     C334389  30.857   5.641   3.019
  308XTA     C434390  30.945   5.556   2.950
  308XTA     C534391  30.896   5.476   2.846
  308XTA    CN234392  30.796   5.386   2.598
  308XTA     C634393  30.827   5.506   2.532
  308XTA     C734394  30.919   5.504   2.417
  308XTA     C834395  30.982   5.378   2.384
  308XTA     C934396  30.955   5.261   2.455
  308XTA    C1034397  30.864   5.269   2.560
  308XTA    CN334398  30.619   5.299   2.742
  308XTA    C1134399  30.515   5.275   2.650
  308XTA    C1234400  30.410   5.183   2.685
  308XTA    C1334401  30.419   5.098   2.798
  308XTA    C1434402  30.533   5.114   2.883
  308XTA    C1534403  30.633   5.204   2.848
  308XTA     H134404  30.574   5.577   2.848
  308XTA     H234405  30.654   5.716   3.021
  308XTA     H334406  31.045   5.560   2.978
  308XTA     H434407  30.963   5.407   2.797
  308XTA     H534408  30.779   5.598   2.560
  308XTA     H634409  30.937   5.595   2.356
  308XTA     H734410  31.002   5.162   2.421
  308XTA     H834411  30.841   5.182   2.619
  308XTA     H934412  30.522   5.336   2.562
  308XTA    H1034413  30.332   5.158   2.615
  308XTA    H1134414  30.550   5.042   2.956
  308XTA    H1234415  30.716   5.215   2.914
  308XTA    OA134416  30.898   5.723   3.121
  308XTA    CO134417  31.030   5.721   3.177
  308XTA    OA234418  31.068   5.378   2.282
  308XTA    CO234419  31.145   5.495   2.244
  308XTA    CL134420  31.292   5.444   2.222
  308XTA    CL234421  31.347   5.347   2.332
  308XTA    CL334422  31.488   5.297   2.288
  308XTA    CL434423  31.576   5.253   2.405
  308XTA    CO334424  31.714   5.190   2.369
  308XTA    OA334425  31.812   5.289   2.354
  308XTA    CO434426  31.793   5.361   2.231
  308XTA    CT134427  31.913   5.395   2.154
  308XTA    CL534428  32.000   5.276   2.109
  308XTA    CL634429  31.949   5.173   2.010
  308XTA    OA434430  30.319   5.010   2.827
  308XTA    CO534431  30.320   4.927   2.945
  308XTA    CL734432  30.377   4.785   2.916
  308XTA    CL834433  30.362   4.697   3.041
  308XTA    CL934434  30.401   4.558   3.007
  308XTA   CL1034435  30.419   4.461   3.127
  308XTA    CO634436  30.466   4.324   3.084
  308XTA    OA534437  30.573   4.343   2.993
  308XTA    CO734438  30.608   4.218   2.928
  308XTA    CT234439  30.745   4.218   2.861
  308XTA   CL1134440  30.846   4.175   2.967
  308XTA   CL1234441  30.832   4.221   3.120
  308XTA    HL134442  31.068   5.625   3.218
  308XTA    HL234443  31.114   5.764   3.127
  308XTA    HL334444  31.023   5.773   3.272
  308XTA    HL434445  31.113   5.537   2.143
  308XTA    HL534446  31.146   5.574   2.324
  308XTA    HL634447  31.369   5.514   2.211
  308XTA    HL734448  31.295   5.399   2.123
  308XTA    HL834449  31.285   5.260   2.333
  308XTA    HL934450  31.356   5.387   2.429
  308XTA   HL1034451  31.488   5.228   2.205
  308XTA   HL1134452  31.535   5.384   2.242
  308XTA   HL1234453  31.506   5.177   2.450
  308XTA   HL1334454  31.579   5.335   2.477
  308XTA   HL1434455  31.748   5.136   2.451
  308XTA   HL1534456  31.701   5.116   2.288
  308XTA   HL1634457  31.732   5.305   2.168
  308XTA   HL1734458  31.727   5.450   2.254
  308XTA   HL1834459  32.006   5.222   2.202
  308XTA   HL1934460  32.103   5.292   2.084
  308XTA   HL2034461  31.844   5.147   2.040
  308XTA   HL2134462  32.007   5.078   2.010
  308XTA   HL2234463  31.956   5.212   1.911
  308XTA   HL2334464  30.217   4.915   2.963
  308XTA   HL2434465  30.357   4.977   3.030
  308XTA   HL2534466  30.310   4.755   2.834
  308XTA   HL2634467  30.484   4.800   2.879
  308XTA   HL2734468  30.435   4.723   3.115
  308XTA   HL2834469  30.266   4.709   3.098
  308XTA   HL2934470  30.347   4.502   2.933
  308XTA   HL3034471  30.496   4.558   2.953
  308XTA   HL3134472  30.503   4.503   3.189
  308XTA   HL3234473  30.329   4.455   3.194
  308XTA   HL3334474  30.511   4.264   3.171
  308XTA   HL3434475  30.377   4.257   3.054
  308XTA   HL3534476  30.527   4.196   2.856
  308XTA   HL3634477  30.601   4.137   3.000
  308XTA   HL3734478  30.945   4.209   2.942
  308XTA   HL3834479  30.849   4.072   2.958
  308XTA   HL3934480  30.918   4.202   3.179
  308XTA   HL4034481  30.753   4.158   3.156
  308XTA   HL4134482  30.794   4.319   3.127
  308XTA    CO834483  32.009   5.472   2.244
  308XTA    CO934484  31.881   5.480   2.027
  308XTA    OA634485  32.091   5.563   2.172
  308XTA   HL4234486  32.067   5.397   2.297
  308XTA   HL4334487  31.965   5.537   2.322
  308XTA   HL4434488  30.862   4.347   2.723
  308XTA   HL4534489  30.693   4.400   2.741
  308XTA   CO1034490  30.783   4.354   2.790
  308XTA   CO1134491  30.748   4.103   2.756
  308XTA    OA734492  30.815   4.449   2.890
  308XTA   HL4634493  30.692   4.013   2.801
  308XTA   HL4734494  30.861   4.080   2.731
  308XTA   HL4834495  31.968   5.517   1.979
  308XTA   HL4934496  31.828   5.416   1.954
  309XTA     NT34497  32.059   5.626   0.178
  309XTA    CN134498  31.989   5.512   0.177
  309XTA     C134499  32.047   5.393   0.131
  309XTA     C234500  31.972   5.275   0.132
  309XTA     C334501  31.832   5.282   0.160
  309XTA     C434502  31.780   5.400   0.218
  309XTA     C534503  31.861   5.512   0.228
  309XTA    CN234504  32.060   5.685   0.064
  309XTA     C634505  31.953   5.769   0.029
  309XTA     C734506  31.936   5.808  -0.102
  309XTA     C834507  32.030   5.775  -0.202
  309XTA     C934508  32.148   5.709  -0.163
  309XTA    C1034509  32.164   5.663  -0.032
  309XTA    CN334510  32.145   5.666   0.275
  309XTA    C1134511  32.118   5.789   0.343
  309XTA    C1234512  32.201   5.835   0.452
  309XTA    C1334513  32.310   5.748   0.496
  309XTA    C1434514  32.341   5.635   0.423
  309XTA    C1534515  32.256   5.592   0.312
  309XTA     H134516  32.150   5.389   0.097
  309XTA     H234517  32.027   5.189   0.107
  309XTA     H334518  31.669   5.405   0.232
  309XTA     H434519  31.822   5.607   0.260
  309XTA     H534520  31.884   5.788   0.108
  309XTA     H634521  31.852   5.871  -0.130
  309XTA     H734522  32.223   5.700  -0.240
  309XTA     H834523  32.245   5.601  -0.000
  309XTA     H934524  32.030   5.841   0.304
  309XTA    H1034525  32.180   5.930   0.504
  309XTA    H1134526  32.425   5.570   0.447
  309XTA    H1234527  32.292   5.501   0.264
  309XTA    OA134528  31.753   5.173   0.166
  309XTA    CO134529  31.809   5.060   0.103
  309XTA    OA234530  32.018   5.813  -0.335
  309XTA    CO234531  31.889   5.847  -0.377
  309XTA    CL134532  31.879   5.841  -0.529
  309XTA    CL234533  31.725   5.856  -0.575
  309XTA    CL334534  31.664   5.993  -0.547
  309XTA    CL434535  31.510   5.985  -0.577
  309XTA    CO334536  31.443   6.122  -0.596
  309XTA    OA334537  31.479   6.222  -0.495
  309XTA    CO434538  31.471   6.352  -0.556
  309XTA    CT134539  31.465   6.472  -0.451
  309XTA    CL534540  31.359   6.452  -0.342
  309XTA    CL634541  31.215   6.430  -0.384
  309XTA    OA434542  32.398   5.781   0.599
  309XTA    CO534543  32.352   5.871   0.688
  309XTA    CL734544  32.419   5.846   0.823
  309XTA    CL834545  32.371   5.730   0.907
  309XTA    CL934546  32.415   5.591   0.861
  309XTA   CL1034547  32.305   5.520   0.768
  309XTA    CO634548  32.174   5.494   0.855
  309XTA    OA534549  32.075   5.451   0.763
  309XTA    CO734550  31.954   5.406   0.823
  309XTA    CT234551  31.864   5.350   0.710
  309XTA   CL1134552  31.951   5.267   0.602
  309XTA   CL1234553  31.871   5.198   0.487
  309XTA    HL134554  31.721   4.990   0.090
  309XTA    HL234555  31.851   5.092   0.009
  309XTA    HL334556  31.872   5.014   0.170
  309XTA    HL434557  31.817   5.776  -0.332
  309XTA    HL534558  31.872   5.950  -0.342
  309XTA    HL634559  31.920   5.744  -0.558
  309XTA    HL734560  31.936   5.916  -0.580
  309XTA    HL834561  31.660   5.771  -0.538
  309XTA    HL934562  31.721   5.837  -0.685
  309XTA   HL1034563  31.679   6.022  -0.443
  309XTA   HL1134564  31.706   6.066  -0.617
  309XTA   HL1234565  31.447   5.928  -0.512
  309XTA   HL1334566  31.491   5.929  -0.671
  309XTA   HL1434567  31.477   6.149  -0.694
  309XTA   HL1534568  31.331   6.120  -0.600
  309XTA   HL1634569  31.549   6.361  -0.635
  309XTA   HL1734570  31.383   6.360  -0.618
  309XTA   HL1834571  31.371   6.515  -0.264
  309XTA   HL1934572  31.385   6.368  -0.278
  309XTA   HL2034573  31.134   6.421  -0.316
  309XTA   HL2134574  31.220   6.337  -0.446
  309XTA   HL2234575  31.189   6.515  -0.442
  309XTA   HL2334576  32.249   5.856   0.694
  309XTA   HL2434577  32.383   5.970   0.656
  309XTA   HL2534578  32.524   5.836   0.799
  309XTA   HL2634579  32.409   5.934   0.888
  309XTA   HL2734580  32.428   5.733   0.999
  309XTA   HL2834581  32.270   5.727   0.935
  309XTA   HL2934582  32.515   5.596   0.816
  309XTA   HL3034583  32.433   5.535   0.956
  309XTA   HL3134584  32.277   5.588   0.685
  309XTA   HL3234585  32.351   5.432   0.724
  309XTA   HL3334586  32.197   5.412   0.927
  309XTA   HL3434587  32.141   5.580   0.908
  309XTA   HL3534588  31.900   5.477   0.881
  309XTA   HL3634589  31.972   5.322   0.891
  309XTA   HL3734590  32.017   5.190   0.645
  309XTA   HL3834591  32.017   5.345   0.561
  309XTA   HL3934592  31.805   5.119   0.526
  309XTA   HL4034593  31.946   5.161   0.415
  309XTA   HL4134594  31.806   5.268   0.429
  309XTA    CO834595  31.430   6.602  -0.534
  309XTA    CO934596  31.604   6.495  -0.381
  309XTA    OA634597  31.428   6.707  -0.440
  309XTA   HL4234598  31.334   6.591  -0.587
  309XTA   HL4334599  31.499   6.629  -0.615
  309XTA   HL4434600  31.864   5.517   0.568
  309XTA   HL4534601  31.714   5.429   0.591
  309XTA   CO1034602  31.795   5.471   0.641
  309XTA   CO1134603  31.745   5.266   0.772
  309XTA    OA734604  31.761   5.538   0.719
  309XTA   HL4634605  31.665   5.221   0.666
  309XTA   HL4734606  31.684   5.341   0.826
  309XTA   HL4834607  31.610   6.408  -0.314
  309XTA   HL4934608  31.601   6.586  -0.322
  310XTA     NT34609  29.834   6.525   3.695
  310XTA    CN134610  29.708   6.505   3.733
  310XTA     C134611  29.686   6.389   3.793
  310XTA     C234612  29.560   6.360   3.857
  310XTA     C334613  29.461   6.456   3.833
  310XTA     C434614  29.481   6.573   3.745
  310XTA     C534615  29.606   6.599   3.696
  310XTA    CN234616  29.925   6.573   3.782
  310XTA     C634617  30.022   6.488   3.833
  310XTA     C734618  30.138   6.547   3.894
  310XTA     C834619  30.151   6.687   3.905
  310XTA     C934620  30.042   6.771   3.873
  310XTA    C1034621  29.931   6.716   3.802
  310XTA    CN334622  29.871   6.514   3.561
  310XTA    C1134623  29.929   6.627   3.495
  310XTA    C1234624  29.978   6.626   3.362
  310XTA    C1334625  29.947   6.514   3.284
  310XTA    C1434626  29.889   6.399   3.340
  310XTA    C1534627  29.856   6.398   3.478
  310XTA     H134628  29.759   6.309   3.798
  310XTA     H234629  29.542   6.264   3.905
  310XTA     H334630  29.413   6.641   3.714
  310XTA     H434631  29.636   6.685   3.634
  310XTA     H534632  30.015   6.387   3.811
  310XTA     H634633  30.217   6.476   3.923
  310XTA     H734634  30.064   6.879   3.866
  310XTA     H834635  29.859   6.790   3.755
  310XTA     H934636  29.931   6.717   3.549
  310XTA    H1034637  30.021   6.715   3.320
  310XTA    H1134638  29.873   6.303   3.287
  310XTA    H1234639  29.816   6.301   3.512
  310XTA    OA134640  29.337   6.428   3.890
  310XTA    CO134641  29.287   6.537   3.964
  310XTA    OA234642  30.267   6.753   3.951
  310XTA    CO234643  30.377   6.667   3.972
  310XTA    CL134644  30.500   6.755   3.991
  310XTA    CL234645  30.626   6.684   4.008
  310XTA    CL334646  30.741   6.782   4.047
  310XTA    CL434647  30.870   6.703   4.054
  310XTA    CO334648  30.979   6.776   4.133
  310XTA    OA334649  31.029   6.869   4.043
  310XTA    CO434650  31.157   6.911   4.079
  310XTA    CT134651  31.192   7.024   3.985
  310XTA    CL534652  31.158   7.167   4.038
  310XTA    CL634653  31.182   7.198   4.188
  310XTA    OA434654  29.981   6.516   3.151
  310XTA    CO534655  29.870   6.485   3.063
  310XTA    CL734656  29.912   6.522   2.919
  310XTA    CL834657  29.794   6.524   2.820
  310XTA    CL934658  29.836   6.594   2.687
  310XTA   CL1034659  29.955   6.522   2.619
  310XTA    CO634660  30.003   6.597   2.488
  310XTA    OA534661  30.060   6.719   2.528
  310XTA    CO734662  30.161   6.726   2.630
  310XTA    CT234663  30.245   6.862   2.635
  310XTA   CL1134664  30.317   6.891   2.503
  310XTA   CL1234665  30.448   6.816   2.471
  310XTA    HL134666  29.229   6.504   4.050
  310XTA    HL234667  29.371   6.592   4.012
  310XTA    HL334668  29.250   6.615   3.897
  310XTA    HL434669  30.360   6.604   4.062
  310XTA    HL534670  30.393   6.603   3.887
  310XTA    HL634671  30.487   6.804   4.079
  310XTA    HL734672  30.519   6.817   3.905
  310XTA    HL834673  30.641   6.646   3.910
  310XTA    HL934674  30.612   6.603   4.073
  310XTA   HL1034675  30.743   6.857   3.973
  310XTA   HL1134676  30.717   6.830   4.145
  310XTA   HL1234677  30.908   6.662   3.954
  310XTA   HL1334678  30.856   6.608   4.109
  310XTA   HL1434679  30.940   6.817   4.225
  310XTA   HL1534680  31.060   6.699   4.150
  310XTA   HL1634681  31.168   6.944   4.182
  310XTA   HL1734682  31.231   6.827   4.060
  310XTA   HL1834683  31.052   7.188   4.022
  310XTA   HL1934684  31.212   7.238   3.981
  310XTA   HL2034685  31.288   7.177   4.214
  310XTA   HL2134686  31.115   7.136   4.245
  310XTA   HL2234687  31.170   7.305   4.204
  310XTA   HL2334688  29.784   6.544   3.088
  310XTA   HL2434689  29.847   6.382   3.066
  310XTA   HL2534690  29.962   6.618   2.924
  310XTA   HL2634691  29.986   6.452   2.890
  310XTA   HL2734692  29.767   6.419   2.803
  310XTA   HL2834693  29.713   6.578   2.857
  310XTA   HL2934694  29.749   6.590   2.617
  310XTA   HL3034695  29.859   6.695   2.727
  310XTA   HL3134696  30.038   6.492   2.681
  310XTA   HL3234697  29.911   6.433   2.584
  310XTA   HL3334698  30.081   6.535   2.433
  310XTA   HL3434699  29.925   6.616   2.419
  310XTA   HL3534700  30.224   6.642   2.601
  310XTA   HL3634701  30.124   6.704   2.729
  310XTA   HL3734702  30.336   6.998   2.515
  310XTA   HL3834703  30.248   6.893   2.421
  310XTA   HL3934704  30.511   6.799   2.561
  310XTA   HL4034705  30.495   6.878   2.404
  310XTA   HL4134706  30.433   6.719   2.420
  310XTA    CO834707  31.120   7.011   3.850
  310XTA    CO934708  31.339   7.005   3.956
  310XTA    OA634709  31.415   7.016   4.069
  310XTA   HL4234710  31.122   6.906   3.831
  310XTA   HL4334711  31.012   7.029   3.864
  310XTA   HL4434712  30.397   6.769   2.778
  310XTA   HL4534713  30.401   6.942   2.754
  310XTA   CO1034714  30.334   6.856   2.760
  310XTA   CO1134715  30.151   6.985   2.637
  310XTA    OA734716  30.280   6.864   2.853
  310XTA   HL4634717  30.043   6.974   2.549
  310XTA   HL4734718  30.093   6.962   2.732
  310XTA   HL4834719  31.377   7.095   3.900
  310XTA   HL4934720  31.357   6.920   3.890
  311XTA     NT34721  31.692   1.161   3.852
  311XTA    CN134722  31.636   1.119   3.737
  311XTA     C134723  31.495   1.107   3.731
  311XTA     C234724  31.431   1.057   3.617
  311XTA     C334725  31.507   1.029   3.504
  311XTA     C434726  31.649   1.047   3.508
  311XTA     C534727  31.721   1.089   3.624
  311XTA    CN234728  31.685   1.284   3.901
  311XTA     C634729  31.615   1.304   4.023
  311XTA     C734730  31.631   1.426   4.091
  311XTA     C834731  31.715   1.521   4.050
  311XTA     C934732  31.781   1.512   3.924
  311XTA    C1034733  31.760   1.392   3.850
  311XTA    CN334734  31.758   1.067   3.925
  311XTA    C1134735  31.892   1.090   3.965
  311XTA    C1234736  31.960   0.993   4.040
  311XTA    C1334737  31.894   0.888   4.094
  311XTA    C1434738  31.760   0.862   4.057
  311XTA    C1534739  31.692   0.950   3.971
  311XTA     H134740  31.435   1.140   3.807
  311XTA     H234741  31.325   1.057   3.616
  311XTA     H334742  31.703   1.031   3.423
  311XTA     H434743  31.833   1.097   3.638
  311XTA     H534744  31.546   1.226   4.062
  311XTA     H634745  31.576   1.442   4.181
  311XTA     H734746  31.858   1.586   3.900
  311XTA     H834747  31.817   1.390   3.760
  311XTA     H934748  31.939   1.179   3.928
  311XTA    H1034749  32.062   1.010   4.073
  311XTA    H1134750  31.716   0.778   4.103
  311XTA    H1234751  31.598   0.934   3.937
  311XTA    OA134752  31.456   0.999   3.382
  311XTA    CO134753  31.318   0.993   3.372
  311XTA    OA234754  31.720   1.628   4.138
  311XTA    CO234755  31.846   1.692   4.158
  311XTA    CL134756  31.939   1.623   4.259
  311XTA    CL234757  32.000   1.499   4.202
  311XTA    CL334758  32.106   1.428   4.295
  311XTA    CL434759  32.200   1.332   4.210
  311XTA    CO334760  32.283   1.417   4.117
  311XTA    OA334761  32.421   1.377   4.110
  311XTA    CO434762  32.494   1.466   4.020
  311XTA    CT134763  32.647   1.415   4.008
  311XTA    CL534764  32.730   1.517   3.925
  311XTA    CL634765  32.823   1.618   4.017
  311XTA    OA434766  31.955   0.812   4.192
  311XTA    CO534767  31.892   0.693   4.249
  311XTA    CL734768  32.008   0.607   4.309
  311XTA    CL834769  31.951   0.479   4.369
  311XTA    CL934770  32.060   0.376   4.396
  311XTA   CL1034771  32.137   0.346   4.270
  311XTA    CO634772  32.167   0.190   4.266
  311XTA    OA534773  32.057   0.117   4.215
  311XTA    CO734774  32.072  -0.020   4.245
  311XTA    CT234775  31.938  -0.093   4.209
  311XTA   CL1134776  31.812  -0.013   4.249
  311XTA   CL1234777  31.802   0.045   4.400
  311XTA    HL134778  31.278   1.084   3.420
  311XTA    HL234779  31.276   1.007   3.275
  311XTA    HL334780  31.272   0.909   3.422
  311XTA    HL434781  31.892   1.707   4.067
  311XTA    HL534782  31.829   1.792   4.207
  311XTA    HL634783  31.890   1.603   4.354
  311XTA    HL734784  32.029   1.682   4.282
  311XTA    HL834785  32.056   1.524   4.114
  311XTA    HL934786  31.924   1.431   4.182
  311XTA   HL1034787  32.164   1.496   4.349
  311XTA   HL1134788  32.040   1.358   4.355
  311XTA   HL1234789  32.146   1.246   4.165
  311XTA   HL1334790  32.257   1.287   4.286
  311XTA   HL1434791  32.243   1.416   4.012
  311XTA   HL1534792  32.273   1.521   4.137
  311XTA   HL1634793  32.450   1.452   3.926
  311XTA   HL1734794  32.489   1.568   4.050
  311XTA   HL1834795  32.660   1.580   3.871
  311XTA   HL1934796  32.795   1.477   3.849
  311XTA   HL2034797  32.751   1.680   4.068
  311XTA   HL2134798  32.896   1.678   3.955
  311XTA   HL2234799  32.885   1.565   4.090
  311XTA   HL2334800  31.842   0.641   4.170
  311XTA   HL2434801  31.826   0.720   4.331
  311XTA   HL2534802  32.078   0.600   4.228
  311XTA   HL2634803  32.073   0.658   4.388
  311XTA   HL2734804  31.896   0.502   4.465
  311XTA   HL2834805  31.881   0.433   4.300
  311XTA   HL2934806  32.121   0.416   4.475
  311XTA   HL3034807  32.008   0.286   4.427
  311XTA   HL3134808  32.085   0.369   4.183
  311XTA   HL3234809  32.235   0.397   4.268
  311XTA   HL3334810  32.246   0.186   4.197
  311XTA   HL3434811  32.185   0.156   4.370
  311XTA   HL3534812  32.081  -0.024   4.354
  311XTA   HL3634813  32.171  -0.050   4.205
  311XTA   HL3734814  31.725  -0.078   4.239
  311XTA   HL3834815  31.794   0.062   4.181
  311XTA   HL3934816  31.869   0.126   4.436
  311XTA   HL4034817  31.810  -0.034   4.471
  311XTA   HL4134818  31.690   0.068   4.411
  311XTA    CO834819  32.661   1.283   3.930
  311XTA    CO934820  32.706   1.387   4.146
  311XTA    OA634821  32.678   1.484   4.240
  311XTA   HL4234822  32.617   1.193   3.983
  311XTA   HL4334823  32.769   1.248   3.927
  311XTA   HL4434824  31.823  -0.283   4.272
  311XTA   HL4534825  31.997  -0.313   4.237
  311XTA   CO1034826  31.927  -0.236   4.277
  311XTA   CO1134827  31.927  -0.116   4.060
  311XTA    OA734828  31.955  -0.226   4.415
  311XTA   HL4634829  31.820  -0.120   4.028
  311XTA   HL4734830  31.966  -0.210   4.030
  311XTA   HL4834831  32.814   1.347   4.147
  311XTA   HL4934832  32.648   1.302   4.190
  312XTA     NT34833  31.607   5.504   6.223
  312XTA    CN134834  31.598   5.512   6.087
  312XTA     C134835  31.711   5.544   6.005
  312XTA     C234836  31.708   5.547   5.864
  312XTA     C334837  31.585   5.506   5.806
  312XTA     C434838  31.476   5.481   5.885
  312XTA     C534839  31.475   5.481   6.021
  312XTA    CN234840  31.610   5.381   6.278
  312XTA     C634841  31.514   5.341   6.377
  312XTA     C734842  31.525   5.223   6.444
  312XTA     C834843  31.642   5.148   6.429
  312XTA     C934844  31.739   5.182   6.331
  312XTA    C1034845  31.722   5.301   6.254
  312XTA    CN334846  31.626   5.612   6.307
  312XTA    C1134847  31.753   5.647   6.356
  312XTA    C1234848  31.774   5.751   6.447
  312XTA    C1334849  31.664   5.842   6.473
  312XTA    C1434850  31.536   5.809   6.419
  312XTA    C1534851  31.520   5.698   6.335
  312XTA     H134852  31.805   5.553   6.059
  312XTA     H234853  31.797   5.562   5.809
  312XTA     H334854  31.383   5.454   5.835
  312XTA     H434855  31.381   5.459   6.072
  312XTA     H534856  31.430   5.403   6.394
  312XTA     H634857  31.444   5.187   6.508
  312XTA     H734858  31.826   5.114   6.321
  312XTA     H834859  31.796   5.333   6.180
  312XTA     H934860  31.835   5.579   6.329
  312XTA    H1034861  31.877   5.762   6.496
  312XTA    H1134862  31.459   5.873   6.449
  312XTA    H1234863  31.421   5.672   6.294
  312XTA    OA134864  31.577   5.509   5.670
  312XTA    CO134865  31.461   5.446   5.606
  312XTA    OA234866  31.648   5.034   6.512
  312XTA    CO234867  31.716   4.919   6.462
  312XTA    CL134868  31.862   4.916   6.516
  312XTA    CL234869  31.944   4.815   6.422
  312XTA    CL334870  31.929   4.673   6.465
  312XTA    CL434871  32.002   4.577   6.365
  312XTA    CO334872  32.027   4.430   6.424
  312XTA    OA334873  31.916   4.395   6.510
  312XTA    CO434874  31.811   4.331   6.440
  312XTA    CT134875  31.711   4.271   6.541
  312XTA    CL534876  31.782   4.154   6.620
  312XTA    CL634877  31.879   4.077   6.532
  312XTA    OA434878  31.690   5.943   6.561
  312XTA    CO534879  31.597   6.048   6.563
  312XTA    CL734880  31.657   6.146   6.649
  312XTA    CL834881  31.558   6.251   6.713
  312XTA    CL934882  31.459   6.196   6.821
  312XTA   CL1034883  31.507   6.086   6.915
  312XTA    CO634884  31.636   6.118   6.998
  312XTA    OA534885  31.674   6.005   7.080
  312XTA    CO734886  31.709   5.885   7.003
  312XTA    CT234887  31.653   5.760   7.073
  312XTA   CL1134888  31.704   5.637   6.997
  312XTA   CL1234889  31.707   5.652   6.841
  312XTA    HL134890  31.378   5.509   5.625
  312XTA    HL234891  31.478   5.426   5.496
  312XTA    HL334892  31.450   5.351   5.648
  312XTA    HL434893  31.662   4.827   6.501
  312XTA    HL534894  31.712   4.916   6.353
  312XTA    HL634895  31.862   4.894   6.622
  312XTA    HL734896  31.901   5.017   6.502
  312XTA    HL834897  32.050   4.835   6.425
  312XTA    HL934898  31.907   4.816   6.314
  312XTA   HL1034899  31.979   4.653   6.562
  312XTA   HL1134900  31.821   4.645   6.473
  312XTA   HL1234901  32.098   4.629   6.349
  312XTA   HL1334902  31.946   4.576   6.275
  312XTA   HL1434903  32.055   4.352   6.351
  312XTA   HL1534904  32.128   4.431   6.478
  312XTA   HL1634905  31.765   4.404   6.372
  312XTA   HL1734906  31.848   4.261   6.367
  312XTA   HL1834907  31.710   4.075   6.638
  312XTA   HL1934908  31.825   4.183   6.711
  312XTA   HL2034909  31.968   4.137   6.514
  312XTA   HL2134910  31.827   4.054   6.441
  312XTA   HL2234911  31.903   3.983   6.578
  312XTA   HL2334912  31.495   6.018   6.591
  312XTA   HL2434913  31.591   6.100   6.463
  312XTA   HL2534914  31.705   6.093   6.730
  312XTA   HL2634915  31.737   6.205   6.593
  312XTA   HL2734916  31.611   6.329   6.770
  312XTA   HL2834917  31.495   6.297   6.628
  312XTA   HL2934918  31.433   6.285   6.876
  312XTA   HL3034919  31.373   6.155   6.770
  312XTA   HL3134920  31.431   6.062   6.981
  312XTA   HL3234921  31.520   5.997   6.855
  312XTA   HL3334922  31.716   6.146   6.923
  312XTA   HL3434923  31.622   6.200   7.069
  312XTA   HL3534924  31.817   5.879   7.007
  312XTA   HL3634925  31.678   5.894   6.893
  312XTA   HL3734926  31.632   5.556   7.025
  312XTA   HL3834927  31.805   5.603   7.025
  312XTA   HL3934928  31.714   5.556   6.789
  312XTA   HL4034929  31.788   5.711   6.805
  312XTA   HL4134930  31.611   5.690   6.801
  312XTA    CO834931  31.589   4.223   6.463
  312XTA    CO934932  31.661   4.395   6.625
  312XTA    OA634933  31.552   4.291   6.384
  312XTA   HL4234934  31.509   4.207   6.536
  312XTA   HL4334935  31.612   4.126   6.419
  312XTA   HL4434936  31.477   5.852   7.132
  312XTA   HL4534937  31.473   5.674   7.130
  312XTA   CO1034938  31.504   5.762   7.071
  312XTA   CO1134939  31.710   5.745   7.214
  312XTA    OA734940  31.643   5.634   7.272
  312XTA   HL4634941  31.818   5.735   7.199
  312XTA   HL4734942  31.695   5.843   7.265
  312XTA   HL4834943  31.762   4.449   6.703
  312XTA   HL4934944  31.633   4.473   6.564
  313XTA     NT34945  29.639   8.047   1.087
  313XTA    CN134946  29.691   7.954   1.004
  313XTA     C134947  29.823   7.966   0.958
  313XTA     C234948  29.885   7.868   0.882
  313XTA     C334949  29.815   7.752   0.845
  313XTA     C434950  29.681   7.736   0.883
  313XTA     C534951  29.625   7.836   0.967
  313XTA    CN234952  29.533   8.109   1.034
  313XTA     C634953  29.404   8.065   1.075
  313XTA     C734954  29.291   8.134   1.029
  313XTA     C834955  29.301   8.236   0.932
  313XTA     C934956  29.424   8.273   0.888
  313XTA    C1034957  29.544   8.216   0.940
  313XTA    CN334958  29.666   8.054   1.219
  313XTA    C1134959  29.685   7.935   1.290
  313XTA    C1234960  29.695   7.930   1.432
  313XTA    C1334961  29.679   8.049   1.505
  313XTA    C1434962  29.650   8.165   1.435
  313XTA    C1534963  29.652   8.172   1.294
  313XTA     H134964  29.882   8.054   0.980
  313XTA     H234965  29.987   7.883   0.850
  313XTA     H334966  29.618   7.652   0.851
  313XTA     H434967  29.531   7.832   1.003
  313XTA     H534968  29.396   7.980   1.143
  313XTA     H634969  29.194   8.088   1.052
  313XTA     H734970  29.430   8.353   0.817
  313XTA     H834971  29.636   8.245   0.904
  313XTA     H934972  29.683   7.849   1.230
  313XTA    H1034973  29.709   7.833   1.479
  313XTA    H1134974  29.631   8.258   1.488
  313XTA    H1234975  29.621   8.263   1.246
  313XTA    OA134976  29.860   7.659   0.749
  313XTA    CO134977  29.998   7.627   0.756
  313XTA    OA234978  29.197   8.308   0.879
  313XTA    CO234979  29.073   8.292   0.934
  313XTA    CL134980  28.980   8.419   0.903
  313XTA    CL234981  28.832   8.391   0.938
  313XTA    CL334982  28.798   8.357   1.086
  313XTA    CL434983  28.648   8.327   1.095
  313XTA    CO334984  28.605   8.289   1.235
  313XTA    OA334985  28.557   8.391   1.326
  313XTA    CO434986  28.480   8.348   1.435
  313XTA    CT134987  28.419   8.467   1.519
  313XTA    CL534988  28.545   8.523   1.596
  313XTA    CL634989  28.510   8.646   1.680
  313XTA    OA434990  29.681   8.052   1.643
  313XTA    CO534991  29.759   7.959   1.712
  313XTA    CL734992  29.783   7.994   1.861
  313XTA    CL834993  29.647   7.980   1.939
  313XTA    CL934994  29.592   7.838   1.947
  313XTA   CL1034995  29.703   7.739   2.008
  313XTA    CO634996  29.688   7.587   1.983
  313XTA    OA534997  29.662   7.552   1.846
  313XTA    CO734998  29.613   7.415   1.823
  313XTA    CT234999  29.617   7.403   1.667
  313XTA   CL1135000  29.531   7.505   1.597
  313XTA   CL1235001  29.387   7.515   1.651
  313XTA    HL135002  30.033   7.618   0.651
  313XTA    HL235003  30.072   7.683   0.809
  313XTA    HL335004  30.003   7.523   0.795
  313XTA    HL435005  29.035   8.192   0.901
  313XTA    HL535006  29.080   8.292   1.047
  313XTA    HL635007  29.002   8.430   0.796
  313XTA    HL735008  29.020   8.508   0.954
  313XTA    HL835009  28.804   8.305   0.884
  313XTA    HL935010  28.766   8.482   0.918
  313XTA   HL1035011  28.854   8.269   1.121
  313XTA   HL1135012  28.833   8.446   1.149
  313XTA   HL1235013  28.629   8.243   1.031
  313XTA   HL1335014  28.578   8.407   1.060
  313XTA   HL1435015  28.524   8.226   1.223
  313XTA   HL1535016  28.677   8.223   1.283
  313XTA   HL1635017  28.398   8.294   1.396
  313XTA   HL1735018  28.535   8.282   1.503
  313XTA   HL1835019  28.617   8.560   1.526
  313XTA   HL1935020  28.592   8.449   1.655
  313XTA   HL2035021  28.475   8.725   1.617
  313XTA   HL2135022  28.598   8.691   1.720
  313XTA   HL2235023  28.454   8.628   1.765
  313XTA   HL2335024  29.858   7.960   1.650
  313XTA   HL2435025  29.701   7.866   1.696
  313XTA   HL2535026  29.854   7.919   1.891
  313XTA   HL2635027  29.829   8.092   1.875
  313XTA   HL2735028  29.666   8.015   2.042
  313XTA   HL2835029  29.560   8.041   1.895
  313XTA   HL2935030  29.513   7.834   2.027
  313XTA   HL3035031  29.557   7.802   1.846
  313XTA   HL3135032  29.806   7.761   1.978
  313XTA   HL3235033  29.715   7.770   2.118
  313XTA   HL3335034  29.774   7.541   2.024
  313XTA   HL3435035  29.599   7.551   2.035
  313XTA   HL3535036  29.512   7.419   1.872
  313XTA   HL3635037  29.679   7.337   1.871
  313XTA   HL3735038  29.529   7.484   1.490
  313XTA   HL3835039  29.590   7.594   1.603
  313XTA   HL3935040  29.378   7.609   1.702
  313XTA   HL4035041  29.357   7.432   1.715
  313XTA   HL4135042  29.312   7.540   1.566
  313XTA    CO835043  28.298   8.417   1.606
  313XTA    CO935044  28.354   8.577   1.423
  313XTA    OA635045  28.298   8.542   1.324
  313XTA   HL4235046  28.339   8.358   1.684
  313XTA   HL4335047  28.223   8.508   1.676
  313XTA   HL4435048  29.617   7.177   1.681
  313XTA   HL4535049  29.464   7.246   1.683
  313XTA   CO1035050  29.564   7.259   1.634
  313XTA   CO1135051  29.769   7.414   1.627
  313XTA    OA735052  29.574   7.244   1.493
  313XTA   HL4635053  29.807   7.515   1.656
  313XTA   HL4735054  29.837   7.344   1.682
  313XTA   HL4835055  28.443   8.631   1.382
  313XTA   HL4935056  28.295   8.657   1.487
  314XTA     NT35057  32.599   5.202  -2.166
  314XTA    CN135058  32.713   5.254  -2.219
  314XTA     C135059  32.828   5.271  -2.141
  314XTA     C235060  32.940   5.339  -2.190
  314XTA     C335061  32.946   5.380  -2.329
  314XTA     C435062  32.835   5.347  -2.415
  314XTA     C535063  32.717   5.290  -2.355
  314XTA    CN235064  32.563   5.249  -2.050
  314XTA     C635065  32.615   5.195  -1.926
  314XTA     C735066  32.577   5.246  -1.796
  314XTA     C835067  32.488   5.359  -1.789
  314XTA     C935068  32.434   5.412  -1.907
  314XTA    C1035069  32.465   5.350  -2.033
  314XTA    CN335070  32.553   5.075  -2.187
  314XTA    C1135071  32.645   4.974  -2.222
  314XTA    C1235072  32.595   4.851  -2.264
  314XTA    C1335073  32.461   4.823  -2.252
  314XTA    C1435074  32.368   4.928  -2.228
  314XTA    C1535075  32.414   5.054  -2.196
  314XTA     H135076  32.836   5.239  -2.039
  314XTA     H235077  33.016   5.370  -2.124
  314XTA     H335078  32.833   5.378  -2.522
  314XTA     H435079  32.634   5.270  -2.417
  314XTA     H535080  32.689   5.123  -1.921
  314XTA     H635081  32.613   5.202  -1.716
  314XTA     H735082  32.374   5.506  -1.902
  314XTA     H835083  32.428   5.401  -2.122
  314XTA     H935084  32.752   4.991  -2.225
  314XTA    H1035085  32.667   4.781  -2.298
  314XTA    H1135086  32.268   4.901  -2.222
  314XTA    H1235087  32.344   5.140  -2.177
  314XTA    OA135088  33.039   5.465  -2.381
  314XTA    CO135089  33.079   5.571  -2.297
  314XTA    OA235090  32.450   5.404  -1.664
  314XTA    CO235091  32.313   5.453  -1.644
  314XTA    CL135092  32.324   5.607  -1.650
  314XTA    CL235093  32.277   5.674  -1.520
  314XTA    CL335094  32.120   5.682  -1.507
  314XTA    CL435095  32.079   5.780  -1.404
  314XTA    CO335096  32.138   5.744  -1.271
  314XTA    OA335097  32.097   5.612  -1.244
  314XTA    CO435098  32.164   5.572  -1.128
  314XTA    CT135099  32.150   5.419  -1.116
  314XTA    CL535100  32.218   5.340  -1.227
  314XTA    CL635101  32.367   5.369  -1.249
  314XTA    OA435102  32.416   4.700  -2.294
  314XTA    CO535103  32.297   4.654  -2.224
  314XTA    CL735104  32.299   4.490  -2.244
  314XTA    CL835105  32.425   4.443  -2.159
  314XTA    CL935106  32.392   4.441  -2.013
  314XTA   CL1035107  32.514   4.412  -1.921
  314XTA    CO635108  32.568   4.274  -1.934
  314XTA    OA535109  32.695   4.262  -1.864
  314XTA    CO735110  32.767   4.152  -1.917
  314XTA    CT235111  32.911   4.161  -1.863
  314XTA   CL1135112  32.993   4.031  -1.894
  314XTA   CL1235113  32.942   3.902  -1.823
  314XTA    HL135114  33.160   5.632  -2.341
  314XTA    HL235115  32.992   5.637  -2.297
  314XTA    HL335116  33.114   5.545  -2.196
  314XTA    HL435117  32.245   5.403  -1.710
  314XTA    HL535118  32.287   5.425  -1.542
  314XTA    HL635119  32.255   5.631  -1.728
  314XTA    HL735120  32.419   5.631  -1.685
  314XTA    HL835121  32.308   5.778  -1.535
  314XTA    HL935122  32.338   5.628  -1.445
  314XTA   HL1035123  32.077   5.703  -1.602
  314XTA   HL1135124  32.088   5.579  -1.477
  314XTA   HL1235125  31.975   5.781  -1.392
  314XTA   HL1335126  32.116   5.882  -1.434
  314XTA   HL1435127  32.245   5.766  -1.249
  314XTA   HL1535128  32.085   5.794  -1.199
  314XTA   HL1635129  32.270   5.598  -1.118
  314XTA   HL1735130  32.115   5.618  -1.045
  314XTA   HL1835131  32.170   5.367  -1.324
  314XTA   HL1935132  32.204   5.233  -1.222
  314XTA   HL2035133  32.408   5.297  -1.324
  314XTA   HL2135134  32.423   5.355  -1.151
  314XTA   HL2235135  32.396   5.470  -1.289
  314XTA   HL2335136  32.215   4.699  -2.280
  314XTA   HL2435137  32.286   4.687  -2.123
  314XTA   HL2535138  32.208   4.442  -2.202
  314XTA   HL2635139  32.309   4.463  -2.346
  314XTA   HL2735140  32.464   4.354  -2.210
  314XTA   HL2835141  32.508   4.511  -2.181
  314XTA   HL2935142  32.351   4.539  -1.978
  314XTA   HL3035143  32.310   4.367  -2.007
  314XTA   HL3135144  32.586   4.481  -1.950
  314XTA   HL3235145  32.490   4.434  -1.823
  314XTA   HL3335146  32.504   4.207  -1.881
  314XTA   HL3435147  32.575   4.239  -2.044
  314XTA   HL3535148  32.766   4.142  -2.023
  314XTA   HL3635149  32.704   4.068  -1.885
  314XTA   HL3735150  33.096   4.037  -1.875
  314XTA   HL3835151  32.987   4.006  -2.008
  314XTA   HL3935152  32.993   3.890  -1.725
  314XTA   HL4035153  32.952   3.821  -1.890
  314XTA   HL4135154  32.844   3.907  -1.779
  314XTA    CO835155  31.992   5.386  -1.110
  314XTA    CO935156  32.201   5.363  -0.982
  314XTA    OA635157  32.286   5.449  -0.914
  314XTA   HL4235158  31.950   5.427  -1.203
  314XTA   HL4335159  31.980   5.283  -1.117
  314XTA   HL4435160  32.811   4.093  -1.657
  314XTA   HL4535161  33.003   4.141  -1.660
  314XTA   CO1035162  32.908   4.182  -1.713
  314XTA   CO1135163  32.980   4.284  -1.921
  314XTA    OA735164  33.012   4.278  -2.035
  314XTA   HL4635165  32.898   4.355  -1.906
  314XTA   HL4735166  33.071   4.318  -1.859
  314XTA   HL4835167  32.269   5.280  -0.987
  314XTA   HL4935168  32.121   5.335  -0.920
  315XTA     NT35169  29.948   7.030   4.560
  315XTA    CN135170  30.025   7.052   4.454
  315XTA     C135171  29.983   7.013   4.328
  315XTA     C235172  30.066   7.049   4.216
  315XTA     C335173  30.192   7.114   4.236
  315XTA     C435174  30.236   7.148   4.372
  315XTA     C535175  30.148   7.117   4.476
  315XTA    CN235176  29.984   6.945   4.659
  315XTA     C635177  29.947   6.810   4.647
  315XTA     C735178  29.975   6.721   4.760
  315XTA     C835179  30.036   6.766   4.876
  315XTA     C935180  30.081   6.899   4.878
  315XTA    C1035181  30.058   6.989   4.771
  315XTA    CN335182  29.829   7.091   4.561
  315XTA    C1135183  29.822   7.231   4.589
  315XTA    C1235184  29.695   7.296   4.614
  315XTA    C1335185  29.575   7.220   4.598
  315XTA    C1435186  29.584   7.079   4.566
  315XTA    C1535187  29.711   7.023   4.544
  315XTA     H135188  29.885   6.972   4.303
  315XTA     H235189  30.030   7.024   4.120
  315XTA     H335190  30.331   7.194   4.387
  315XTA     H435191  30.176   7.133   4.579
  315XTA     H535192  29.907   6.767   4.559
  315XTA     H635193  29.947   6.618   4.759
  315XTA     H735194  30.130   6.949   4.960
  315XTA     H835195  30.075   7.094   4.769
  315XTA     H935196  29.916   7.290   4.598
  315XTA    H1035197  29.695   7.394   4.658
  315XTA    H1135198  29.495   7.019   4.563
  315XTA    H1235199  29.717   6.919   4.517
  315XTA    OA135200  30.279   7.137   4.128
  315XTA    CO135201  30.267   7.053   4.018
  315XTA    OA235202  30.061   6.674   4.981
  315XTA    CO235203  30.072   6.735   5.108
  315XTA    CL135204  30.046   6.629   5.220
  315XTA    CL235205  29.905   6.578   5.214
  315XTA    CL335206  29.875   6.475   5.325
  315XTA    CL435207  29.736   6.406   5.301
  315XTA    CO335208  29.744   6.278   5.217
  315XTA    OA335209  29.830   6.290   5.095
  315XTA    CO435210  29.852   6.167   5.023
  315XTA    CT135211  29.817   6.188   4.876
  315XTA    CL535212  29.663   6.212   4.866
  315XTA    CL635213  29.594   6.226   4.729
  315XTA    OA435214  29.453   7.282   4.612
  315XTA    CO535215  29.336   7.203   4.628
  315XTA    CL735216  29.282   7.160   4.492
  315XTA    CL835217  29.171   7.051   4.514
  315XTA    CL935218  29.149   6.971   4.389
  315XTA   CL1035219  29.045   6.852   4.401
  315XTA    CO635220  29.062   6.770   4.273
  315XTA    OA535221  28.954   6.683   4.244
  315XTA    CO735222  28.987   6.586   4.143
  315XTA    CT235223  28.905   6.453   4.155
  315XTA   CL1135224  28.961   6.333   4.093
  315XTA   CL1235225  28.979   6.340   3.939
  315XTA    HL135226  30.346   7.042   3.944
  315XTA    HL235227  30.246   6.950   4.059
  315XTA    HL335228  30.192   7.083   3.949
  315XTA    HL435229  30.174   6.777   5.120
  315XTA    HL535230  30.003   6.822   5.110
  315XTA    HL635231  30.052   6.682   5.321
  315XTA    HL735232  30.123   6.547   5.231
  315XTA    HL835233  29.887   6.524   5.131
  315XTA    HL935234  29.830   6.657   5.218
  315XTA   HL1035235  29.959   6.400   5.327
  315XTA   HL1135236  29.867   6.523   5.427
  315XTA   HL1235237  29.663   6.470   5.256
  315XTA   HL1335238  29.684   6.374   5.394
  315XTA   HL1435239  29.789   6.197   5.276
  315XTA   HL1535240  29.641   6.240   5.191
  315XTA   HL1635241  29.947   6.124   5.032
  315XTA   HL1735242  29.783   6.093   5.061
  315XTA   HL1835243  29.627   6.293   4.924
  315XTA   HL1935244  29.613   6.130   4.920
  315XTA   HL2035245  29.491   6.240   4.743
  315XTA   HL2135246  29.612   6.138   4.668
  315XTA   HL2235247  29.624   6.318   4.682
  315XTA   HL2335248  29.258   7.265   4.681
  315XTA   HL2435249  29.354   7.125   4.699
  315XTA   HL2535250  29.233   7.242   4.433
  315XTA   HL2635251  29.360   7.123   4.424
  315XTA   HL2735252  29.208   6.990   4.600
  315XTA   HL2835253  29.081   7.093   4.551
  315XTA   HL2935254  29.135   7.037   4.306
  315XTA   HL3035255  29.245   6.923   4.368
  315XTA   HL3135256  29.061   6.786   4.482
  315XTA   HL3235257  28.944   6.889   4.412
  315XTA   HL3335258  29.064   6.836   4.189
  315XTA   HL3435259  29.161   6.729   4.279
  315XTA   HL3535260  29.087   6.559   4.166
  315XTA   HL3635261  28.982   6.635   4.054
  315XTA   HL3735262  28.897   6.250   4.121
  315XTA   HL3835263  29.054   6.311   4.138
  315XTA   HL3935264  28.884   6.308   3.899
  315XTA   HL4035265  29.058   6.283   3.887
  315XTA   HL4135266  28.999   6.435   3.903
  315XTA    CO835267  29.862   6.068   4.798
  315XTA    CO935268  29.903   6.314   4.827
  315XTA    OA635269  29.793   5.946   4.836
  315XTA   HL4235270  29.970   6.061   4.808
  315XTA   HL4335271  29.854   6.094   4.693
  315XTA   HL4435272  28.733   6.593   4.124
  315XTA   HL4535273  28.780   6.501   3.982
  315XTA   CO1035274  28.768   6.492   4.090
  315XTA   CO1135275  28.882   6.429   4.302
  315XTA    OA735276  28.675   6.389   4.121
  315XTA   HL4635277  28.806   6.358   4.327
  315XTA   HL4735278  28.842   6.521   4.349
  315XTA   HL4835279  29.873   6.336   4.723
  315XTA   HL4935280  29.877   6.402   4.891
  316XTA     NT35281  28.483   5.654   3.366
  316XTA    CN135282  28.564   5.641   3.258
  316XTA     C135283  28.596   5.512   3.215
  316XTA     C235284  28.680   5.497   3.097
  316XTA     C335285  28.702   5.606   3.015
  316XTA     C435286  28.667   5.738   3.062
  316XTA     C535287  28.596   5.755   3.183
  316XTA    CN235288  28.364   5.592   3.382
  316XTA     C635289  28.352   5.496   3.483
  316XTA     C735290  28.225   5.441   3.512
  316XTA     C835291  28.110   5.477   3.443
  316XTA     C935292  28.124   5.569   3.336
  316XTA    C1035293  28.252   5.627   3.310
  316XTA    CN335294  28.511   5.746   3.460
  316XTA    C1135295  28.610   5.737   3.560
  316XTA    C1235296  28.631   5.840   3.655
  316XTA    C1335297  28.555   5.962   3.648
  316XTA    C1435298  28.456   5.970   3.551
  316XTA    C1535299  28.444   5.872   3.454
  316XTA     H135300  28.563   5.424   3.281
  316XTA     H235301  28.713   5.401   3.062
  316XTA     H335302  28.666   5.828   3.000
  316XTA     H435303  28.561   5.855   3.209
  316XTA     H535304  28.440   5.478   3.542
  316XTA     H635305  28.221   5.364   3.585
  316XTA     H735306  28.046   5.585   3.263
  316XTA     H835307  28.270   5.701   3.226
  316XTA     H935308  28.682   5.652   3.548
  316XTA    H1035309  28.714   5.831   3.716
  316XTA    H1135310  28.394   6.054   3.556
  316XTA    H1235311  28.361   5.872   3.380
  316XTA    OA135312  28.775   5.583   2.905
  316XTA    CO135313  28.744   5.666   2.796
  316XTA    OA235314  27.989   5.424   3.484
  316XTA    CO235315  27.872   5.501   3.456
  316XTA    CL135316  27.872   5.630   3.541
  316XTA    CL235317  27.755   5.722   3.528
  316XTA    CL335318  27.783   5.874   3.552
  316XTA    CL435319  27.813   5.912   3.698
  316XTA    CO335320  27.877   6.048   3.724
  316XTA    OA335321  27.925   6.072   3.856
  316XTA    CO435322  28.036   5.990   3.893
  316XTA    CT135323  28.099   6.052   4.017
  316XTA    CL535324  28.008   6.073   4.148
  316XTA    CL635325  27.913   5.960   4.183
  316XTA    OA435326  28.577   6.073   3.737
  316XTA    CO535327  28.648   6.034   3.854
  316XTA    CL735328  28.551   5.961   3.953
  316XTA    CL835329  28.620   5.910   4.079
  316XTA    CL935330  28.745   5.987   4.133
  316XTA   CL1035331  28.788   5.924   4.273
  316XTA    CO635332  28.916   5.989   4.330
  316XTA    OA535333  29.017   5.996   4.234
  316XTA    CO735334  29.142   6.061   4.275
  316XTA    CT235335  29.244   6.014   4.168
  316XTA   CL1135336  29.374   6.097   4.187
  316XTA   CL1235337  29.369   6.242   4.150
  316XTA    HL135338  28.728   5.770   2.815
  316XTA    HL235339  28.831   5.658   2.725
  316XTA    HL335340  28.660   5.628   2.752
  316XTA    HL435341  27.867   5.538   3.355
  316XTA    HL535342  27.783   5.443   3.475
  316XTA    HL635343  27.959   5.690   3.517
  316XTA    HL735344  27.875   5.602   3.646
  316XTA    HL835345  27.673   5.691   3.585
  316XTA    HL935346  27.716   5.733   3.430
  316XTA   HL1035347  27.867   5.889   3.491
  316XTA   HL1135348  27.696   5.929   3.503
  316XTA   HL1235349  27.880   5.831   3.740
  316XTA   HL1335350  27.720   5.905   3.752
  316XTA   HL1435351  27.959   6.060   3.657
  316XTA   HL1535352  27.803   6.119   3.692
  316XTA   HL1635353  28.018   5.885   3.915
  316XTA   HL1735354  28.108   5.995   3.809
  316XTA   HL1835355  27.952   6.171   4.135
  316XTA   HL1935356  28.085   6.089   4.228
  316XTA   HL2035357  27.896   5.905   4.093
  316XTA   HL2135358  27.808   5.998   4.200
  316XTA   HL2235359  27.946   5.882   4.251
  316XTA   HL2335360  28.686   6.127   3.897
  316XTA   HL2435361  28.744   5.986   3.833
  316XTA   HL2535362  28.475   6.032   3.971
  316XTA   HL2635363  28.499   5.881   3.901
  316XTA   HL2735364  28.543   5.917   4.154
  316XTA   HL2835365  28.644   5.810   4.061
  316XTA   HL2935366  28.837   5.997   4.068
  316XTA   HL3035367  28.718   6.089   4.159
  316XTA   HL3135368  28.696   5.931   4.332
  316XTA   HL3235369  28.804   5.820   4.254
  316XTA   HL3335370  28.904   6.097   4.361
  316XTA   HL3435371  28.940   5.926   4.418
  316XTA   HL3535372  29.182   6.048   4.384
  316XTA   HL3635373  29.137   6.171   4.266
  316XTA   HL3735374  29.454   6.052   4.129
  316XTA   HL3835375  29.415   6.100   4.291
  316XTA   HL3935376  29.466   6.296   4.167
  316XTA   HL4035377  29.286   6.303   4.202
  316XTA   HL4135378  29.340   6.256   4.041
  316XTA    CO835379  28.158   6.186   3.966
  316XTA    CO935380  28.218   5.959   4.046
  316XTA    OA635381  28.180   5.851   4.065
  316XTA   HL4235382  28.214   6.169   3.882
  316XTA   HL4335383  28.056   6.278   3.927
  316XTA   HL4435384  29.123   5.940   4.008
  316XTA   HL4535385  29.122   6.107   4.002
  316XTA   CO1035386  29.194   6.025   4.018
  316XTA   CO1135387  29.262   5.866   4.186
  316XTA    OA735388  29.295   6.019   3.918
  316XTA   HL4635389  29.170   5.814   4.173
  316XTA   HL4735390  29.331   5.840   4.104
  316XTA   HL4835391  28.268   5.992   4.143
  316XTA   HL4935392  28.294   5.959   3.962
  317XTA     NT35393  25.938   6.074   1.159
  317XTA    CN135394  25.857   5.980   1.211
  317XTA     C135395  25.721   5.992   1.201
  317XTA     C235396  25.637   5.893   1.252
  317XTA     C335397  25.689   5.773   1.311
  317XTA     C435398  25.831   5.756   1.315
  317XTA     C535399  25.913   5.869   1.277
  317XTA    CN235400  25.969   6.066   1.024
  317XTA     C635401  25.910   6.159   0.940
  317XTA     C735402  25.935   6.163   0.797
  317XTA     C835403  26.018   6.060   0.747
  317XTA     C935404  26.074   5.960   0.834
  317XTA    C1035405  26.053   5.960   0.972
  317XTA    CN335406  25.956   6.194   1.218
  317XTA    C1135407  25.849   6.280   1.253
  317XTA    C1235408  25.868   6.413   1.281
  317XTA    C1335409  25.998   6.463   1.297
  317XTA    C1435410  26.108   6.376   1.284
  317XTA    C1535411  26.085   6.248   1.232
  317XTA     H135412  25.674   6.074   1.150
  317XTA     H235413  25.527   5.907   1.239
  317XTA     H335414  25.873   5.676   1.374
  317XTA     H435415  26.019   5.872   1.300
  317XTA     H535416  25.845   6.232   0.986
  317XTA     H635417  25.897   6.231   0.730
  317XTA     H735418  26.145   5.882   0.804
  317XTA     H835419  26.096   5.887   1.035
  317XTA     H935420  25.750   6.249   1.233
  317XTA    H1035421  25.786   6.480   1.298
  317XTA    H1135422  26.211   6.401   1.299
  317XTA    H1235423  26.172   6.189   1.228
  317XTA    OA135424  25.607   5.681   1.370
  317XTA    CO135425  25.661   5.550   1.401
  317XTA    OA235426  26.036   6.048   0.610
  317XTA    CO235427  26.159   6.011   0.554
  317XTA    CL135428  26.269   6.114   0.573
  317XTA    CL235429  26.408   6.080   0.526
  317XTA    CL335430  26.450   5.956   0.597
  317XTA    CL435431  26.457   5.975   0.746
  317XTA    CO335432  26.494   5.855   0.833
  317XTA    OA335433  26.493   5.900   0.967
  317XTA    CO435434  26.515   5.790   1.056
  317XTA    CT135435  26.540   5.841   1.196
  317XTA    CL535436  26.444   5.955   1.236
  317XTA    CL635437  26.452   6.002   1.382
  317XTA    OA435438  26.036   6.588   1.334
  317XTA    CO535439  25.934   6.674   1.380
  317XTA    CL735440  26.005   6.805   1.413
  317XTA    CL835441  26.117   6.784   1.506
  317XTA    CL935442  26.176   6.912   1.569
  317XTA   CL1035443  26.307   6.882   1.640
  317XTA    CO635444  26.368   7.004   1.711
  317XTA    OA535445  26.399   7.098   1.616
  317XTA    CO735446  26.541   7.082   1.584
  317XTA    CT235447  26.586   7.181   1.477
  317XTA   CL1135448  26.500   7.158   1.350
  317XTA   CL1235449  26.370   7.243   1.331
  317XTA    HL135450  25.577   5.483   1.429
  317XTA    HL235451  25.716   5.507   1.318
  317XTA    HL335452  25.731   5.558   1.482
  317XTA    HL435453  26.188   5.919   0.604
  317XTA    HL535454  26.157   5.973   0.449
  317XTA    HL635455  26.260   6.153   0.672
  317XTA    HL735456  26.227   6.194   0.516
  317XTA    HL835457  26.490   6.159   0.540
  317XTA    HL935458  26.410   6.054   0.418
  317XTA   HL1035459  26.388   5.877   0.576
  317XTA   HL1135460  26.548   5.920   0.566
  317XTA   HL1235461  26.363   6.008   0.800
  317XTA   HL1335462  26.537   6.053   0.764
  317XTA   HL1435463  26.424   5.780   0.793
  317XTA   HL1535464  26.590   5.809   0.804
  317XTA   HL1635465  26.430   5.724   1.058
  317XTA   HL1735466  26.601   5.729   1.029
  317XTA   HL1835467  26.342   5.930   1.201
  317XTA   HL1935468  26.480   6.039   1.164
  317XTA   HL2035469  26.463   5.932   1.458
  317XTA   HL2135470  26.367   6.063   1.415
  317XTA   HL2235471  26.534   6.073   1.390
  317XTA   HL2335472  25.895   6.630   1.469
  317XTA   HL2435473  25.866   6.694   1.294
  317XTA   HL2535474  26.037   6.866   1.326
  317XTA   HL2635475  25.935   6.866   1.469
  317XTA   HL2735476  26.089   6.717   1.586
  317XTA   HL2835477  26.198   6.730   1.452
  317XTA   HL2935478  26.191   6.975   1.490
  317XTA   HL3035479  26.105   6.962   1.632
  317XTA   HL3135480  26.285   6.802   1.709
  317XTA   HL3235481  26.377   6.837   1.565
  317XTA   HL3335482  26.298   7.032   1.789
  317XTA   HL3435483  26.454   6.982   1.777
  317XTA   HL3535484  26.555   6.977   1.543
  317XTA   HL3635485  26.599   7.095   1.676
  317XTA   HL3735486  26.465   7.061   1.323
  317XTA   HL3835487  26.564   7.181   1.256
  317XTA   HL3935488  26.306   7.207   1.253
  317XTA   HL4035489  26.400   7.350   1.315
  317XTA   HL4135490  26.307   7.245   1.418
  317XTA    CO835491  26.690   5.889   1.219
  317XTA    CO935492  26.505   5.718   1.287
  317XTA    OA635493  26.564   5.604   1.226
  317XTA   HL4235494  26.684   5.915   1.332
  317XTA   HL4335495  26.760   5.804   1.204
  317XTA   HL4435496  26.769   7.225   1.363
  317XTA   HL4535497  26.803   7.178   1.531
  317XTA   CO1035498  26.738   7.158   1.440
  317XTA   CO1135499  26.573   7.325   1.533
  317XTA    OA735500  26.758   7.054   1.402
  317XTA   HL4635501  26.657   7.336   1.639
  317XTA   HL4735502  26.597   7.399   1.453
  317XTA   HL4835503  26.403   5.693   1.287
  317XTA   HL4935504  26.550   5.731   1.392
  318XTA     NT35505  28.502   5.315   6.589
  318XTA    CN135506  28.552   5.271   6.706
  318XTA     C135507  28.688   5.303   6.740
  318XTA     C235508  28.745   5.247   6.856
  318XTA     C335509  28.665   5.168   6.940
  318XTA     C435510  28.532   5.142   6.911
  318XTA     C535511  28.471   5.186   6.790
  318XTA    CN235512  28.421   5.424   6.599
  318XTA     C635513  28.282   5.408   6.578
  318XTA     C735514  28.192   5.517   6.601
  318XTA     C835515  28.236   5.642   6.648
  318XTA     C935516  28.373   5.661   6.664
  318XTA    C1035517  28.459   5.555   6.643
  318XTA    CN335518  28.536   5.269   6.467
  318XTA    C1135519  28.506   5.137   6.421
  318XTA    C1235520  28.574   5.086   6.307
  318XTA    C1335521  28.642   5.172   6.213
  318XTA    C1435522  28.650   5.312   6.251
  318XTA    C1535523  28.611   5.357   6.384
  318XTA     H135524  28.741   5.367   6.671
  318XTA     H235525  28.839   5.277   6.890
  318XTA     H335526  28.477   5.076   6.979
  318XTA     H435527  28.369   5.168   6.760
  318XTA     H535528  28.239   5.315   6.550
  318XTA     H635529  28.083   5.506   6.583
  318XTA     H735530  28.418   5.760   6.693
  318XTA     H835531  28.566   5.571   6.655
  318XTA     H935532  28.449   5.069   6.483
  318XTA    H1035533  28.564   4.977   6.291
  318XTA    H1135534  28.685   5.385   6.185
  318XTA    H1235535  28.626   5.460   6.414
  318XTA    OA135536  28.704   5.105   7.051
  318XTA    CO135537  28.849   5.079   7.053
  318XTA    OA235538  28.141   5.739   6.664
  318XTA    CO235539  28.170   5.836   6.766
  318XTA    CL135540  28.094   5.966   6.726
  318XTA    CL235541  28.099   6.078   6.837
  318XTA    CL335542  28.218   6.174   6.845
  318XTA    CL435543  28.353   6.116   6.864
  318XTA    CO335544  28.455   6.238   6.878
  318XTA    OA335545  28.429   6.334   6.970
  318XTA    CO435546  28.467   6.301   7.099
  318XTA    CT135547  28.452   6.426   7.192
  318XTA    CL535548  28.464   6.559   7.108
  318XTA    CL635549  28.502   6.691   7.177
  318XTA    OA435550  28.685   5.120   6.094
  318XTA    CO535551  28.733   5.215   5.997
  318XTA    CL735552  28.788   5.141   5.871
  318XTA    CL835553  28.859   5.243   5.775
  318XTA    CL935554  28.751   5.302   5.688
  318XTA   CL1035555  28.789   5.444   5.634
  318XTA    CO635556  28.682   5.507   5.542
  318XTA    OA535557  28.681   5.457   5.413
  318XTA    CO735558  28.574   5.516   5.340
  318XTA    CT235559  28.429   5.466   5.379
  318XTA   CL1135560  28.434   5.311   5.414
  318XTA   CL1235561  28.500   5.234   5.294
  318XTA    HL135562  28.897   5.036   6.958
  318XTA    HL235563  28.901   5.176   7.076
  318XTA    HL335564  28.863   5.009   7.135
  318XTA    HL435565  28.157   5.785   6.869
  318XTA    HL535566  28.273   5.868   6.762
  318XTA    HL635567  27.992   5.943   6.695
  318XTA    HL735568  28.141   6.017   6.643
  318XTA    HL835569  28.074   6.042   6.939
  318XTA    HL935570  28.009   6.134   6.827
  318XTA   HL1035571  28.221   6.231   6.745
  318XTA   HL1135572  28.194   6.241   6.925
  318XTA   HL1235573  28.376   6.066   6.777
  318XTA   HL1335574  28.368   6.053   6.952
  318XTA   HL1435575  28.556   6.208   6.896
  318XTA   HL1535576  28.443   6.275   6.772
  318XTA   HL1635577  28.411   6.213   7.134
  318XTA   HL1735578  28.571   6.269   7.101
  318XTA   HL1835579  28.378   6.572   7.040
  318XTA   HL1935580  28.543   6.538   7.037
  318XTA   HL2035581  28.602   6.716   7.137
  318XTA   HL2135582  28.507   6.674   7.281
  318XTA   HL2235583  28.435   6.776   7.147
  318XTA   HL2335584  28.822   5.263   6.040
  318XTA   HL2435585  28.662   5.297   5.965
  318XTA   HL2535586  28.851   5.054   5.907
  318XTA   HL2635587  28.704   5.084   5.827
  318XTA   HL2735588  28.909   5.319   5.826
  318XTA   HL2835589  28.935   5.204   5.707
  318XTA   HL2935590  28.713   5.237   5.606
  318XTA   HL3035591  28.671   5.308   5.754
  318XTA   HL3135592  28.802   5.506   5.723
  318XTA   HL3235593  28.897   5.435   5.586
  318XTA   HL3335594  28.589   5.488   5.596
  318XTA   HL3435595  28.701   5.617   5.531
  318XTA   HL3535596  28.590   5.477   5.240
  318XTA   HL3635597  28.584   5.624   5.338
  318XTA   HL3735598  28.332   5.277   5.416
  318XTA   HL3835599  28.486   5.297   5.511
  318XTA   HL3935600  28.463   5.251   5.193
  318XTA   HL4035601  28.472   5.130   5.306
  318XTA   HL4135602  28.610   5.259   5.288
  318XTA    CO835603  28.548   6.418   7.311
  318XTA    CO935604  28.305   6.427   7.240
  318XTA    OA635605  28.282   6.335   7.295
  318XTA   HL4235606  28.518   6.485   7.384
  318XTA   HL4335607  28.534   6.297   7.382
  318XTA   HL4435608  28.343   5.566   5.210
  318XTA   HL4535609  28.255   5.411   5.252
  318XTA   CO1035610  28.316   5.497   5.291
  318XTA   CO1135611  28.360   5.550   5.487
  318XTA    OA735612  28.240   5.549   5.404
  318XTA   HL4635613  28.345   5.504   5.587
  318XTA   HL4735614  28.412   5.648   5.495
  318XTA   HL4835615  28.237   6.435   7.155
  318XTA   HL4935616  28.295   6.514   7.308
  319XTA     NT35617  29.930   7.712   5.974
  319XTA    CN135618  30.056   7.705   5.919
  319XTA     C135619  30.100   7.576   5.876
  319XTA     C235620  30.235   7.558   5.841
  319XTA     C335621  30.321   7.675   5.842
  319XTA     C435622  30.267   7.799   5.870
  319XTA     C535623  30.134   7.813   5.915
  319XTA    CN235624  29.895   7.628   6.073
  319XTA     C635625  29.980   7.638   6.185
  319XTA     C735626  29.964   7.548   6.288
  319XTA     C835627  29.862   7.447   6.286
  319XTA     C935628  29.773   7.444   6.176
  319XTA    C1035629  29.788   7.538   6.073
  319XTA    CN335630  29.835   7.788   5.915
  319XTA    C1135631  29.802   7.750   5.788
  319XTA    C1235632  29.683   7.806   5.728
  319XTA    C1335633  29.604   7.900   5.799
  319XTA    C1435634  29.655   7.952   5.920
  319XTA    C1535635  29.771   7.891   5.982
  319XTA     H135636  30.027   7.497   5.889
  319XTA     H235637  30.259   7.467   5.799
  319XTA     H335638  30.330   7.888   5.872
  319XTA     H435639  30.090   7.903   5.948
  319XTA     H535640  30.063   7.708   6.186
  319XTA     H635641  30.041   7.551   6.362
  319XTA     H735642  29.706   7.360   6.167
  319XTA     H835643  29.720   7.534   5.987
  319XTA     H935644  29.867   7.674   5.744
  319XTA    H1035645  29.652   7.781   5.625
  319XTA    H1135646  29.613   8.040   5.966
  319XTA    H1235647  29.808   7.923   6.077
  319XTA    OA135648  30.454   7.661   5.801
  319XTA    CO135649  30.502   7.527   5.770
  319XTA    OA235650  29.865   7.350   6.387
  319XTA    CO235651  29.781   7.241   6.370
  319XTA    CL135652  29.804   7.164   6.505
  319XTA    CL235653  29.733   7.204   6.634
  319XTA    CL335654  29.584   7.228   6.624
  319XTA    CL435655  29.498   7.103   6.583
  319XTA    CO335656  29.369   7.151   6.530
  319XTA    OA335657  29.304   7.051   6.455
  319XTA    CO435658  29.243   6.946   6.528
  319XTA    CT135659  29.152   6.855   6.437
  319XTA    CL535660  29.041   6.939   6.370
  319XTA    CL635661  28.937   6.860   6.298
  319XTA    OA435662  29.496   7.966   5.742
  319XTA    CO535663  29.424   7.888   5.646
  319XTA    CL735664  29.285   7.950   5.633
  319XTA    CL835665  29.198   7.868   5.533
  319XTA    CL935666  29.057   7.914   5.527
  319XTA   CL1035667  28.982   7.868   5.651
  319XTA    CO635668  28.835   7.918   5.657
  319XTA    OA535669  28.776   7.873   5.776
  319XTA    CO735670  28.644   7.921   5.787
  319XTA    CT235671  28.588   7.866   5.912
  319XTA   CL1135672  28.466   7.947   5.966
  319XTA   CL1235673  28.503   8.095   6.003
  319XTA    HL135674  30.609   7.546   5.756
  319XTA    HL235675  30.486   7.458   5.854
  319XTA    HL335676  30.455   7.478   5.685
  319XTA    HL435677  29.678   7.273   6.349
  319XTA    HL535678  29.814   7.186   6.284
  319XTA    HL635679  29.916   7.147   6.529
  319XTA    HL735680  29.759   7.067   6.481
  319XTA    HL835681  29.778   7.293   6.669
  319XTA    HL935682  29.737   7.141   6.715
  319XTA   HL1035683  29.541   7.272   6.715
  319XTA   HL1135684  29.569   7.305   6.543
  319XTA   HL1235685  29.486   7.037   6.670
  319XTA   HL1335686  29.548   7.053   6.501
  319XTA   HL1435687  29.314   7.182   6.614
  319XTA   HL1535688  29.383   7.245   6.473
  319XTA   HL1635689  29.306   6.891   6.592
  319XTA   HL1735690  29.175   6.998   6.596
  319XTA   HL1835691  29.087   7.004   6.300
  319XTA   HL1935692  28.981   7.002   6.435
  319XTA   HL2035693  28.984   6.819   6.214
  319XTA   HL2135694  28.850   6.914   6.272
  319XTA   HL2235695  28.890   6.777   6.356
  319XTA   HL2335696  29.424   7.785   5.672
  319XTA   HL2435697  29.476   7.901   5.551
  319XTA   HL2535698  29.245   7.941   5.733
  319XTA   HL2635699  29.288   8.053   5.605
  319XTA   HL2735700  29.234   7.873   5.428
  319XTA   HL2835701  29.200   7.761   5.559
  319XTA   HL2935702  29.053   8.023   5.519
  319XTA   HL3035703  29.008   7.876   5.444
  319XTA   HL3135704  28.983   7.761   5.672
  319XTA   HL3235705  29.031   7.921   5.735
  319XTA   HL3335706  28.824   8.023   5.656
  319XTA   HL3435707  28.777   7.877   5.571
  319XTA   HL3535708  28.577   7.894   5.708
  319XTA   HL3635709  28.635   8.025   5.804
  319XTA   HL3735710  28.421   7.899   6.054
  319XTA   HL3835711  28.391   7.950   5.877
  319XTA   HL3935712  28.585   8.104   6.075
  319XTA   HL4035713  28.420   8.150   6.057
  319XTA   HL4135714  28.538   8.150   5.917
  319XTA    CO835715  29.103   6.747   6.529
  319XTA    CO935716  29.229   6.790   6.323
  319XTA    OA635717  29.014   6.790   6.626
  319XTA   HL4235718  29.190   6.699   6.586
  319XTA   HL4335719  29.045   6.671   6.478
  319XTA   HL4435720  28.765   7.776   6.000
  319XTA   HL4535721  28.734   7.956   6.007
  319XTA   CO1035722  28.689   7.858   6.023
  319XTA   CO1135723  28.544   7.725   5.876
  319XTA    OA735724  28.650   7.843   6.126
  319XTA   HL4635725  28.520   7.649   5.988
  319XTA   HL4735726  28.627   7.670   5.825
  319XTA   HL4835727  29.321   6.760   6.369
  319XTA   HL4935728  29.250   6.864   6.250
  320XTA     NT35729  33.508   6.453   7.398
  320XTA    CN135730  33.623   6.506   7.442
  320XTA     C135731  33.661   6.638   7.415
  320XTA     C235732  33.781   6.688   7.475
  320XTA     C335733  33.878   6.600   7.533
  320XTA     C435734  33.837   6.465   7.544
  320XTA     C535735  33.706   6.420   7.510
  320XTA    CN235736  33.492   6.393   7.279
  320XTA     C635737  33.510   6.252   7.268
  320XTA     C735738  33.495   6.189   7.144
  320XTA     C835739  33.469   6.265   7.026
  320XTA     C935740  33.445   6.406   7.041
  320XTA    C1035741  33.458   6.467   7.168
  320XTA    CN335742  33.388   6.466   7.465
  320XTA    C1135743  33.382   6.445   7.600
  320XTA    C1235744  33.256   6.463   7.669
  320XTA    C1335745  33.139   6.499   7.597
  320XTA    C1435746  33.146   6.527   7.459
  320XTA    C1535747  33.267   6.510   7.397
  320XTA     H135748  33.595   6.698   7.352
  320XTA     H235749  33.818   6.783   7.464
  320XTA     H335750  33.910   6.388   7.578
  320XTA     H435751  33.690   6.312   7.513
  320XTA     H535752  33.533   6.193   7.359
  320XTA     H635753  33.509   6.084   7.140
  320XTA     H735754  33.416   6.466   6.956
  320XTA     H835755  33.429   6.573   7.181
  320XTA     H935756  33.468   6.409   7.647
  320XTA    H1035757  33.249   6.448   7.774
  320XTA    H1135758  33.068   6.560   7.395
  320XTA    H1235759  33.262   6.521   7.290
  320XTA    OA135760  33.995   6.647   7.571
  320XTA    CO135761  34.107   6.566   7.592
  320XTA    OA235762  33.452   6.210   6.899
  320XTA    CO235763  33.418   6.075   6.895
  320XTA    CL135764  33.401   6.032   6.745
  320XTA    CL235765  33.359   5.891   6.713
  320XTA    CL335766  33.210   5.861   6.734
  320XTA    CL435767  33.128   5.894   6.607
  320XTA    CO335768  33.071   6.037   6.600
  320XTA    OA335769  32.974   6.055   6.704
  320XTA    CO435770  32.960   6.194   6.737
  320XTA    CT135771  32.829   6.249   6.676
  320XTA    CL535772  32.823   6.396   6.702
  320XTA    CL635773  32.907   6.483   6.606
  320XTA    OA435774  33.017   6.509   7.663
  320XTA    CO535775  32.895   6.535   7.599
  320XTA    CL735776  32.782   6.459   7.673
  320XTA    CL835777  32.642   6.493   7.624
  320XTA    CL935778  32.533   6.437   7.708
  320XTA   CL1035779  32.392   6.477   7.669
  320XTA    CO635780  32.279   6.440   7.775
  320XTA    OA535781  32.149   6.461   7.722
  320XTA    CO735782  32.045   6.446   7.820
  320XTA    CT235783  31.904   6.436   7.765
  320XTA   CL1135784  31.890   6.530   7.638
  320XTA   CL1235785  31.944   6.681   7.664
  320XTA    HL135786  34.196   6.622   7.637
  320XTA    HL235787  34.096   6.489   7.682
  320XTA    HL335788  34.133   6.505   7.508
  320XTA    HL435789  33.473   6.011   6.952
  320XTA    HL535790  33.319   6.078   6.945
  320XTA    HL635791  33.486   6.060   6.694
  320XTA    HL735792  33.346   6.114   6.707
  320XTA    HL835793  33.417   5.830   6.785
  320XTA    HL935794  33.394   5.852   6.615
  320XTA   HL1035795  33.205   5.753   6.753
  320XTA   HL1135796  33.173   5.908   6.822
  320XTA   HL1235797  33.039   5.832   6.610
  320XTA   HL1335798  33.175   5.867   6.515
  320XTA   HL1435799  33.157   6.105   6.610
  320XTA   HL1535800  33.033   6.034   6.505
  320XTA   HL1635801  32.943   6.192   6.843
  320XTA   HL1735802  33.045   6.252   6.719
  320XTA   HL1835803  32.850   6.421   6.802
  320XTA   HL1935804  32.717   6.431   6.703
  320XTA   HL2035805  32.940   6.573   6.656
  320XTA   HL2135806  32.856   6.511   6.517
  320XTA   HL2235807  32.994   6.417   6.586
  320XTA   HL2335808  32.883   6.492   7.499
  320XTA   HL2435809  32.879   6.642   7.593
  320XTA   HL2535810  32.807   6.354   7.674
  320XTA   HL2635811  32.788   6.476   7.779
  320XTA   HL2735812  32.635   6.600   7.618
  320XTA   HL2835813  32.628   6.454   7.521
  320XTA   HL2935814  32.541   6.329   7.706
  320XTA   HL3035815  32.555   6.475   7.809
  320XTA   HL3135816  32.381   6.581   7.642
  320XTA   HL3235817  32.371   6.439   7.570
  320XTA   HL3335818  32.298   6.337   7.809
  320XTA   HL3435819  32.280   6.499   7.875
  320XTA   HL3535820  32.059   6.536   7.883
  320XTA   HL3635821  32.057   6.366   7.890
  320XTA   HL3735822  31.783   6.537   7.609
  320XTA   HL3835823  31.945   6.487   7.557
  320XTA   HL3935824  31.875   6.734   7.734
  320XTA   HL4035825  31.916   6.725   7.573
  320XTA   HL4135826  32.046   6.694   7.687
  320XTA    CO835827  32.705   6.172   6.740
  320XTA    CO935828  32.824   6.212   6.524
  320XTA    OA635829  32.588   6.234   6.683
  320XTA   HL4235830  32.698   6.181   6.845
  320XTA   HL4335831  32.702   6.070   6.721
  320XTA   HL4435832  31.819   6.410   7.954
  320XTA   HL4535833  31.831   6.577   7.922
  320XTA   CO1035834  31.810   6.481   7.876
  320XTA   CO1135835  31.880   6.284   7.732
  320XTA    OA735836  31.704   6.494   7.841
  320XTA   HL4635837  31.746   6.280   7.700
  320XTA   HL4735838  31.905   6.225   7.818
  320XTA   HL4835839  32.919   6.233   6.472
  320XTA   HL4935840  32.819   6.105   6.508
  321XTA     NT35841  31.555   4.515   5.600
  321XTA    CN135842  31.624   4.632   5.584
  321XTA     C135843  31.645   4.680   5.445
  321XTA     C235844  31.728   4.792   5.411
  321XTA     C335845  31.766   4.871   5.517
  321XTA     C435846  31.746   4.830   5.653
  321XTA     C535847  31.684   4.707   5.689
  321XTA    CN235848  31.626   4.403   5.602
  321XTA     C635849  31.683   4.355   5.483
  321XTA     C735850  31.759   4.238   5.484
  321XTA     C835851  31.769   4.160   5.599
  321XTA     C935852  31.700   4.201   5.710
  321XTA    C1035853  31.627   4.322   5.717
  321XTA    CN335854  31.422   4.510   5.583
  321XTA    C1135855  31.364   4.446   5.466
  321XTA    C1235856  31.227   4.421   5.463
  321XTA    C1335857  31.150   4.470   5.569
  321XTA    C1435858  31.204   4.534   5.686
  321XTA    C1535859  31.340   4.562   5.685
  321XTA     H135860  31.584   4.637   5.368
  321XTA     H235861  31.744   4.829   5.306
  321XTA     H335862  31.782   4.899   5.726
  321XTA     H435863  31.666   4.679   5.794
  321XTA     H535864  31.674   4.422   5.396
  321XTA     H635865  31.815   4.218   5.397
  321XTA     H735866  31.706   4.134   5.794
  321XTA     H835867  31.575   4.361   5.806
  321XTA     H935868  31.428   4.418   5.382
  321XTA    H1035869  31.184   4.373   5.372
  321XTA    H1135870  31.140   4.560   5.773
  321XTA    H1235871  31.402   4.603   5.757
  321XTA    OA135872  31.839   4.980   5.486
  321XTA    CO135873  31.895   5.054   5.588
  321XTA    OA235874  31.842   4.046   5.610
  321XTA    CO235875  31.899   3.991   5.491
  321XTA    CL135876  31.919   3.840   5.516
  321XTA    CL235877  31.782   3.766   5.544
  321XTA    CL335878  31.787   3.619   5.566
  321XTA    CL435879  31.845   3.549   5.446
  321XTA    CO335880  31.914   3.419   5.490
  321XTA    OA335881  31.816   3.352   5.573
  321XTA    CO435882  31.708   3.286   5.499
  321XTA    CT135883  31.599   3.233   5.592
  321XTA    CL535884  31.487   3.155   5.508
  321XTA    CL635885  31.529   3.046   5.403
  321XTA    OA435886  31.011   4.458   5.566
  321XTA    CO535887  30.951   4.375   5.472
  321XTA    CL735888  30.798   4.368   5.484
  321XTA    CL835889  30.758   4.306   5.610
  321XTA    CL935890  30.785   4.153   5.618
  321XTA   CL1035891  30.716   4.097   5.741
  321XTA    CO635892  30.777   4.155   5.873
  321XTA    OA535893  30.917   4.183   5.888
  321XTA    CO735894  30.988   4.072   5.946
  321XTA    CT235895  31.136   4.112   5.971
  321XTA   CL1135896  31.210   4.117   5.836
  321XTA   CL1235897  31.362   4.148   5.842
  321XTA    HL135898  31.959   5.133   5.546
  321XTA    HL235899  31.811   5.103   5.640
  321XTA    HL335900  31.949   4.984   5.655
  321XTA    HL435901  31.830   4.002   5.408
  321XTA    HL535902  31.986   4.050   5.473
  321XTA    HL635903  31.992   3.830   5.595
  321XTA    HL735904  31.956   3.797   5.424
  321XTA    HL835905  31.714   3.785   5.460
  321XTA    HL935906  31.732   3.823   5.625
  321XTA   HL1035907  31.849   3.608   5.653
  321XTA   HL1135908  31.682   3.587   5.575
  321XTA   HL1235909  31.913   3.613   5.383
  321XTA   HL1335910  31.755   3.537   5.375
  321XTA   HL1435911  31.952   3.351   5.408
  321XTA   HL1535912  31.997   3.434   5.545
  321XTA   HL1635913  31.670   3.355   5.424
  321XTA   HL1735914  31.772   3.206   5.444
  321XTA   HL1835915  31.429   3.235   5.463
  321XTA   HL1935916  31.429   3.101   5.582
  321XTA   HL2035917  31.450   2.980   5.374
  321XTA   HL2135918  31.623   2.996   5.432
  321XTA   HL2235919  31.555   3.111   5.322
  321XTA   HL2335920  30.998   4.276   5.474
  321XTA   HL2435921  30.971   4.409   5.376
  321XTA   HL2535922  30.756   4.473   5.473
  321XTA   HL2635923  30.772   4.303   5.399
  321XTA   HL2735924  30.818   4.367   5.677
  321XTA   HL2835925  30.653   4.330   5.623
  321XTA   HL2935926  30.753   4.109   5.521
  321XTA   HL3035927  30.895   4.132   5.621
  321XTA   HL3135928  30.609   4.109   5.730
  321XTA   HL3235929  30.731   3.992   5.756
  321XTA   HL3335930  30.720   4.249   5.883
  321XTA   HL3435931  30.753   4.091   5.954
  321XTA   HL3535932  30.981   3.980   5.887
  321XTA   HL3635933  30.940   4.052   6.043
  321XTA   HL3735934  31.163   4.197   5.784
  321XTA   HL3835935  31.196   4.034   5.771
  321XTA   HL3935936  31.380   4.248   5.877
  321XTA   HL4035937  31.391   4.152   5.740
  321XTA   HL4135938  31.427   4.090   5.900
  321XTA    CO835939  31.539   3.352   5.660
  321XTA    CO935940  31.667   3.142   5.693
  321XTA    OA635941  31.749   3.224   5.780
  321XTA   HL4235942  31.478   3.301   5.733
  321XTA   HL4335943  31.619   3.414   5.715
  321XTA   HL4435944  31.195   3.912   6.013
  321XTA   HL4535945  31.309   4.046   6.070
  321XTA   CO1035946  31.203   4.009   6.062
  321XTA   CO1135947  31.140   4.252   6.036
  321XTA    OA735948  31.140   4.017   6.190
  321XTA   HL4635949  31.096   4.325   5.972
  321XTA   HL4735950  31.070   4.235   6.116
  321XTA   HL4835951  31.730   3.076   5.639
  321XTA   HL4935952  31.585   3.080   5.735
  322XTA     NT35953  29.853   5.758   6.024
  322XTA    CN135954  29.901   5.642   5.970
  322XTA     C135955  30.001   5.637   5.871
  322XTA     C235956  30.051   5.520   5.818
  322XTA     C335957  30.013   5.394   5.869
  322XTA     C435958  29.918   5.397   5.977
  322XTA     C535959  29.866   5.517   6.025
  322XTA    CN235960  29.927   5.819   6.125
  322XTA     C635961  29.885   5.817   6.257
  322XTA     C735962  29.958   5.883   6.353
  322XTA     C835963  30.077   5.957   6.327
  322XTA     C935964  30.111   5.965   6.193
  322XTA    C1035965  30.044   5.896   6.091
  322XTA    CN335966  29.761   5.837   5.965
  322XTA    C1135967  29.787   5.929   5.866
  322XTA    C1235968  29.684   6.005   5.813
  322XTA    C1335969  29.557   6.005   5.867
  322XTA    C1435970  29.534   5.915   5.977
  322XTA    C1535971  29.636   5.835   6.026
  322XTA     H135972  30.028   5.738   5.838
  322XTA     H235973  30.133   5.525   5.749
  322XTA     H335974  29.876   5.311   6.028
  322XTA     H435975  29.802   5.500   6.112
  322XTA     H535976  29.788   5.773   6.275
  322XTA     H635977  29.925   5.879   6.460
  322XTA     H735978  30.203   6.023   6.179
  322XTA     H835979  30.080   5.911   5.990
  322XTA     H935980  29.893   5.943   5.823
  322XTA    H1035981  29.718   6.075   5.740
  322XTA    H1135982  29.434   5.923   6.012
  322XTA    H1235983  29.624   5.759   6.108
  322XTA    OA135984  30.085   5.289   5.817
  322XTA    CO135985  30.103   5.177   5.904
  322XTA    OA235986  30.148   6.001   6.438
  322XTA    CO235987  30.281   5.956   6.439
  322XTA    CL135988  30.379   6.062   6.493
  322XTA    CL235989  30.529   6.023   6.500
  322XTA    CL335990  30.619   6.143   6.536
  322XTA    CL435991  30.761   6.119   6.484
  322XTA    CO335992  30.869   6.225   6.528
  322XTA    OA335993  31.003   6.194   6.488
  322XTA    CO435994  31.034   6.201   6.349
  322XTA    CT135995  31.162   6.116   6.316
  322XTA    CL535996  31.286   6.174   6.385
  322XTA    CL635997  31.345   6.299   6.316
  322XTA    OA435998  29.456   6.096   5.825
  322XTA    CO535999  29.480   6.172   5.709
  322XTA    CL736000  29.375   6.277   5.684
  322XTA    CL836001  29.235   6.212   5.641
  322XTA    CL936002  29.117   6.233   5.747
  322XTA   CL1036003  29.137   6.123   5.852
  322XTA    CO636004  29.003   6.080   5.930
  322XTA    OA536005  29.035   5.975   6.026
  322XTA    CO736006  29.049   5.847   5.979
  322XTA    CT236007  29.069   5.730   6.072
  322XTA   CL1136008  28.943   5.717   6.159
  322XTA   CL1236009  28.915   5.576   6.209
  322XTA    HL136010  30.168   5.200   5.979
  322XTA    HL236011  30.008   5.129   5.950
  322XTA    HL336012  30.147   5.091   5.848
  322XTA    HL436013  30.290   5.878   6.510
  322XTA    HL536014  30.301   5.923   6.338
  322XTA    HL636015  30.343   6.084   6.595
  322XTA    HL736016  30.361   6.155   6.440
  322XTA    HL836017  30.557   5.978   6.397
  322XTA    HL936018  30.542   5.944   6.575
  322XTA   HL1036019  30.580   6.227   6.477
  322XTA   HL1136020  30.612   6.189   6.635
  322XTA   HL1236021  30.760   6.117   6.370
  322XTA   HL1336022  30.804   6.029   6.531
  322XTA   HL1436023  30.841   6.321   6.484
  322XTA   HL1536024  30.871   6.241   6.638
  322XTA   HL1636025  30.948   6.163   6.295
  322XTA   HL1736026  31.044   6.296   6.297
  322XTA   HL1836027  31.365   6.099   6.387
  322XTA   HL1936028  31.264   6.183   6.487
  322XTA   HL2036029  31.366   6.293   6.209
  322XTA   HL2136030  31.439   6.314   6.363
  322XTA   HL2236031  31.290   6.398   6.319
  322XTA   HL2336032  29.500   6.102   5.621
  322XTA   HL2436033  29.577   6.222   5.720
  322XTA   HL2536034  29.359   6.341   5.768
  322XTA   HL2636035  29.397   6.351   5.617
  322XTA   HL2736036  29.205   6.262   5.548
  322XTA   HL2836037  29.257   6.106   5.619
  322XTA   HL2936038  29.133   6.338   5.787
  322XTA   HL3036039  29.018   6.219   5.705
  322XTA   HL3136040  29.192   6.036   5.811
  322XTA   HL3236041  29.203   6.166   5.927
  322XTA   HL3336042  28.975   6.173   5.987
  322XTA   HL3436043  28.923   6.060   5.855
  322XTA   HL3536044  29.120   5.845   5.896
  322XTA   HL3636045  28.959   5.839   5.920
  322XTA   HL3736046  28.857   5.743   6.096
  322XTA   HL3836047  28.945   5.780   6.246
  322XTA   HL3936048  28.889   5.512   6.130
  322XTA   HL4036049  28.825   5.588   6.267
  322XTA   HL4136050  28.988   5.539   6.286
  322XTA    CO836051  31.194   6.093   6.167
  322XTA    CO936052  31.142   5.968   6.363
  322XTA    OA636053  31.047   5.929   6.319
  322XTA   HL4236054  31.179   6.191   6.121
  322XTA   HL4336055  31.108   5.999   6.110
  322XTA   HL4436056  29.280   5.773   6.087
  322XTA   HL4536057  29.186   5.852   6.211
  322XTA   CO1036058  29.196   5.755   6.160
  322XTA   CO1136059  29.104   5.605   5.986
  322XTA    OA736060  29.228   5.607   5.918
  322XTA   HL4636061  29.094   5.515   6.039
  322XTA   HL4736062  29.023   5.586   5.920
  322XTA   HL4836063  31.139   5.962   6.476
  322XTA   HL4936064  31.226   5.912   6.329
  323XTA     NT36065  29.394  -2.783   1.371
  323XTA    CN136066  29.286  -2.844   1.310
  323XTA     C136067  29.217  -2.952   1.368
  323XTA     C236068  29.109  -3.016   1.296
  323XTA     C336069  29.070  -2.973   1.170
  323XTA     C436070  29.134  -2.867   1.116
  323XTA     C536071  29.244  -2.802   1.181
  323XTA    CN236072  29.394  -2.651   1.376
  323XTA     C636073  29.496  -2.582   1.309
  323XTA     C736074  29.500  -2.437   1.316
  323XTA     C836075  29.398  -2.364   1.386
  323XTA     C936076  29.297  -2.442   1.446
  323XTA    C1036077  29.294  -2.581   1.443
  323XTA    CN336078  29.495  -2.846   1.437
  323XTA    C1136079  29.595  -2.909   1.365
  323XTA    C1236080  29.701  -2.952   1.441
  323XTA    C1336081  29.705  -2.952   1.584
  323XTA    C1436082  29.588  -2.912   1.653
  323XTA    C1536083  29.481  -2.855   1.577
  323XTA     H136084  29.247  -2.993   1.463
  323XTA     H236085  29.056  -3.101   1.334
  323XTA     H336086  29.114  -2.817   1.028
  323XTA     H436087  29.292  -2.726   1.127
  323XTA     H536088  29.576  -2.632   1.258
  323XTA     H636089  29.581  -2.386   1.266
  323XTA     H736090  29.218  -2.383   1.491
  323XTA     H836091  29.221  -2.630   1.498
  323XTA     H936092  29.589  -2.919   1.258
  323XTA    H1036093  29.785  -2.989   1.384
  323XTA    H1136094  29.582  -2.915   1.755
  323XTA    H1236095  29.391  -2.813   1.622
  323XTA    OA136096  28.976  -3.050   1.107
  323XTA    CO136097  28.965  -3.027   0.968
  323XTA    OA236098  29.397  -2.226   1.393
  323XTA    CO236099  29.522  -2.172   1.429
  323XTA    CL136100  29.549  -2.163   1.587
  323XTA    CL236101  29.532  -2.297   1.656
  323XTA    CL336102  29.646  -2.403   1.634
  323XTA    CL436103  29.629  -2.531   1.719
  323XTA    CO336104  29.750  -2.627   1.709
  323XTA    OA336105  29.875  -2.568   1.737
  323XTA    CO436106  29.885  -2.526   1.874
  323XTA    CT136107  30.031  -2.562   1.923
  323XTA    CL536108  30.048  -2.713   1.943
  323XTA    CL636109  30.186  -2.763   1.995
  323XTA    OA436110  29.816  -2.997   1.652
  323XTA    CO536111  29.928  -3.054   1.592
  323XTA    CL736112  30.016  -2.959   1.510
  323XTA    CL836113  30.068  -2.852   1.601
  323XTA    CL936114  30.178  -2.775   1.533
  323XTA   CL1036115  30.130  -2.689   1.412
  323XTA    CO636116  30.067  -2.551   1.452
  323XTA    OA536117  30.162  -2.459   1.494
  323XTA    CO736118  30.099  -2.334   1.507
  323XTA    CT236119  30.179  -2.240   1.599
  323XTA   CL1136120  30.091  -2.122   1.647
  323XTA   CL1236121  30.133  -2.053   1.776
  323XTA    HL136122  29.058  -3.031   0.913
  323XTA    HL236123  28.897  -3.094   0.914
  323XTA    HL336124  28.914  -2.930   0.946
  323XTA    HL436125  29.599  -2.229   1.375
  323XTA    HL536126  29.525  -2.061   1.394
  323XTA    HL636127  29.479  -2.094   1.630
  323XTA    HL736128  29.648  -2.119   1.600
  323XTA    HL836129  29.432  -2.334   1.634
  323XTA    HL936130  29.527  -2.277   1.764
  323XTA   HL1036131  29.658  -2.440   1.534
  323XTA   HL1136132  29.741  -2.368   1.675
  323XTA   HL1236133  29.538  -2.576   1.685
  323XTA   HL1336134  29.619  -2.508   1.824
  323XTA   HL1436135  29.734  -2.699   1.787
  323XTA   HL1536136  29.764  -2.672   1.612
  323XTA   HL1636137  29.880  -2.416   1.865
  323XTA   HL1736138  29.803  -2.567   1.938
  323XTA   HL1836139  30.020  -2.774   1.857
  323XTA   HL1936140  29.966  -2.750   2.012
  323XTA   HL2036141  30.257  -2.752   1.906
  323XTA   HL2136142  30.169  -2.867   2.024
  323XTA   HL2236143  30.218  -2.708   2.077
  323XTA   HL2336144  29.889  -3.138   1.532
  323XTA   HL2436145  29.986  -3.098   1.674
  323XTA   HL2536146  30.095  -3.015   1.458
  323XTA   HL2636147  29.957  -2.907   1.435
  323XTA   HL2736148  29.992  -2.786   1.637
  323XTA   HL2836149  30.105  -2.887   1.697
  323XTA   HL2936150  30.225  -2.710   1.605
  323XTA   HL3036151  30.247  -2.842   1.483
  323XTA   HL3136152  30.213  -2.675   1.334
  323XTA   HL3236153  30.052  -2.749   1.363
  323XTA   HL3336154  30.021  -2.507   1.358
  323XTA   HL3436155  29.996  -2.564   1.533
  323XTA   HL3536156  29.996  -2.349   1.536
  323XTA   HL3636157  30.091  -2.294   1.411
  323XTA   HL3736158  29.990  -2.144   1.655
  323XTA   HL3836159  30.098  -2.049   1.567
  323XTA   HL3936160  30.239  -2.027   1.775
  323XTA   HL4036161  30.122  -2.124   1.855
  323XTA   HL4136162  30.067  -1.967   1.789
  323XTA    CO836163  30.054  -2.489   2.060
  323XTA    CO936164  30.133  -2.507   1.829
  323XTA    OA636165  30.141  -2.369   1.819
  323XTA   HL4236166  30.009  -2.558   2.133
  323XTA   HL4336167  30.154  -2.481   2.097
  323XTA   HL4436168  30.383  -2.253   1.508
  323XTA   HL4536169  30.281  -2.129   1.430
  323XTA   CO1036170  30.301  -2.184   1.524
  323XTA   CO1136171  30.233  -2.319   1.722
  323XTA    OA736172  30.374  -2.087   1.602
  323XTA   HL4636173  30.293  -2.403   1.691
  323XTA   HL4736174  30.296  -2.249   1.769
  323XTA   HL4836175  30.105  -2.554   1.733
  323XTA   HL4936176  30.234  -2.549   1.853
  324XTA     NT36177  32.055  -0.417   3.570
  324XTA    CN136178  32.107  -0.390   3.452
  324XTA     C136179  32.139  -0.258   3.417
  324XTA     C236180  32.188  -0.223   3.283
  324XTA     C336181  32.202  -0.331   3.193
  324XTA     C436182  32.164  -0.458   3.228
  324XTA     C536183  32.122  -0.490   3.358
  324XTA    CN236184  32.142  -0.451   3.664
  324XTA     C636185  32.227  -0.352   3.728
  324XTA     C736186  32.319  -0.381   3.827
  324XTA     C836187  32.342  -0.513   3.869
  324XTA     C936188  32.266  -0.612   3.804
  324XTA    C1036189  32.167  -0.584   3.705
  324XTA    CN336190  31.926  -0.395   3.598
  324XTA    C1136191  31.890  -0.270   3.638
  324XTA    C1236192  31.756  -0.242   3.668
  324XTA    C1336193  31.659  -0.347   3.674
  324XTA    C1436194  31.702  -0.475   3.637
  324XTA    C1536195  31.831  -0.500   3.598
  324XTA     H136196  32.117  -0.177   3.484
  324XTA     H236197  32.203  -0.123   3.244
  324XTA     H336198  32.175  -0.542   3.156
  324XTA     H436199  32.092  -0.590   3.379
  324XTA     H536200  32.228  -0.247   3.696
  324XTA     H636201  32.372  -0.303   3.876
  324XTA     H736202  32.276  -0.717   3.827
  324XTA     H836203  32.102  -0.652   3.658
  324XTA     H936204  31.949  -0.181   3.627
  324XTA    H1036205  31.730  -0.141   3.690
  324XTA    H1136206  31.636  -0.556   3.636
  324XTA    H1236207  31.869  -0.600   3.575
  324XTA    OA136208  32.248  -0.312   3.067
  324XTA    CO136209  32.213  -0.189   3.007
  324XTA    OA236210  32.435  -0.546   3.971
  324XTA    CO236211  32.497  -0.431   4.042
  324XTA    CL136212  32.407  -0.360   4.147
  324XTA    CL236213  32.476  -0.294   4.268
  324XTA    CL336214  32.372  -0.221   4.348
  324XTA    CL436215  32.429  -0.103   4.437
  324XTA    CO336216  32.526  -0.153   4.552
  324XTA    OA336217  32.453  -0.208   4.652
  324XTA    CO436218  32.464  -0.341   4.669
  324XTA    CT136219  32.401  -0.385   4.804
  324XTA    CL536220  32.495  -0.333   4.919
  324XTA    CL636221  32.450  -0.349   5.071
  324XTA    OA436222  31.531  -0.321   3.716
  324XTA    CO536223  31.495  -0.412   3.810
  324XTA    CL736224  31.566  -0.384   3.943
  324XTA    CL836225  31.521  -0.490   4.047
  324XTA    CL936226  31.578  -0.485   4.195
  324XTA   CL1036227  31.532  -0.370   4.282
  324XTA    CO636228  31.543  -0.400   4.433
  324XTA    OA536229  31.533  -0.276   4.514
  324XTA    CO736230  31.419  -0.208   4.498
  324XTA    CT236231  31.380  -0.121   4.616
  324XTA   CL1136232  31.486  -0.003   4.628
  324XTA   CL1236233  31.618  -0.039   4.688
  324XTA    HL136234  32.101  -0.165   3.019
  324XTA    HL236235  32.258  -0.114   3.050
  324XTA    HL336236  32.240  -0.181   2.895
  324XTA    HL436237  32.580  -0.475   4.090
  324XTA    HL536238  32.557  -0.361   3.979
  324XTA    HL636239  32.358  -0.446   4.185
  324XTA    HL736240  32.342  -0.291   4.090
  324XTA    HL836241  32.542  -0.226   4.221
  324XTA    HL936242  32.543  -0.359   4.324
  324XTA   HL1036243  32.303  -0.187   4.280
  324XTA   HL1136244  32.310  -0.279   4.411
  324XTA   HL1236245  32.343  -0.041   4.477
  324XTA   HL1336246  32.502  -0.044   4.381
  324XTA   HL1436247  32.604  -0.214   4.509
  324XTA   HL1536248  32.583  -0.073   4.590
  324XTA   HL1636249  32.422  -0.392   4.579
  324XTA   HL1736250  32.570  -0.363   4.675
  324XTA   HL1836251  32.520  -0.238   4.889
  324XTA   HL1936252  32.591  -0.386   4.908
  324XTA   HL2036253  32.534  -0.305   5.126
  324XTA   HL2136254  32.442  -0.452   5.110
  324XTA   HL2236255  32.358  -0.286   5.076
  324XTA   HL2336256  31.532  -0.520   3.790
  324XTA   HL2436257  31.386  -0.410   3.825
  324XTA   HL2536258  31.673  -0.386   3.926
  324XTA   HL2636259  31.535  -0.280   3.961
  324XTA   HL2736260  31.414  -0.489   4.048
  324XTA   HL2836261  31.551  -0.587   4.011
  324XTA   HL2936262  31.553  -0.575   4.248
  324XTA   HL3036263  31.690  -0.475   4.201
  324XTA   HL3136264  31.591  -0.287   4.256
  324XTA   HL3236265  31.421  -0.352   4.275
  324XTA   HL3336266  31.454  -0.455   4.464
  324XTA   HL3436267  31.629  -0.456   4.472
  324XTA   HL3536268  31.336  -0.279   4.477
  324XTA   HL3636269  31.428  -0.154   4.399
  324XTA   HL3736270  31.450   0.075   4.690
  324XTA   HL3836271  31.495   0.050   4.529
  324XTA   HL3936272  31.665  -0.114   4.624
  324XTA   HL4036273  31.613  -0.073   4.791
  324XTA   HL4136274  31.686   0.053   4.681
  324XTA    CO836275  32.381  -0.537   4.819
  324XTA    CO936276  32.258  -0.321   4.816
  324XTA    OA636277  32.482  -0.588   4.818
  324XTA   HL4236278  32.332  -0.573   4.726
  324XTA   HL4336279  32.323  -0.572   4.902
  324XTA   HL4436280  31.340  -0.305   4.737
  324XTA   HL4536281  31.486  -0.247   4.763
  324XTA   CO1036282  31.388  -0.210   4.741
  324XTA   CO1136283  31.239  -0.066   4.606
  324XTA    OA736284  31.349  -0.150   4.831
  324XTA   HL4636285  31.232   0.008   4.490
  324XTA   HL4736286  31.218   0.004   4.684
  324XTA   HL4836287  32.199  -0.356   4.934
  324XTA   HL4936288  32.264  -0.214   4.807
  325XTA     NT36289  31.509   0.480   6.354
  325XTA    CN136290  31.421   0.545   6.427
  325XTA     C136291  31.356   0.657   6.373
  325XTA     C236292  31.260   0.723   6.455
  325XTA     C336293  31.240   0.694   6.591
  325XTA     C436294  31.320   0.586   6.645
  325XTA     C536295  31.408   0.517   6.563
  325XTA    CN236296  31.502   0.347   6.334
  325XTA     C636297  31.592   0.260   6.396
  325XTA     C736298  31.591   0.129   6.362
  325XTA     C836299  31.495   0.077   6.267
  325XTA     C936300  31.407   0.167   6.212
  325XTA    C1036301  31.409   0.300   6.249
  325XTA    CN336302  31.606   0.549   6.296
  325XTA    C1136303  31.720   0.580   6.366
  325XTA    C1236304  31.838   0.617   6.296
  325XTA    C1336305  31.831   0.647   6.155
  325XTA    C1436306  31.702   0.625   6.093
  325XTA    C1536307  31.599   0.559   6.158
  325XTA     H136308  31.357   0.674   6.271
  325XTA     H236309  31.196   0.795   6.410
  325XTA     H336310  31.316   0.556   6.746
  325XTA     H436311  31.466   0.436   6.608
  325XTA     H536312  31.675   0.295   6.461
  325XTA     H636313  31.659   0.072   6.415
  325XTA     H736314  31.332   0.126   6.147
  325XTA     H836315  31.336   0.360   6.196
  325XTA     H936316  31.714   0.575   6.476
  325XTA    H1036317  31.927   0.623   6.354
  325XTA    H1136318  31.690   0.640   5.988
  325XTA    H1236319  31.510   0.539   6.103
  325XTA    OA136320  31.137   0.740   6.671
  325XTA    CO136321  31.043   0.827   6.618
  325XTA    OA236322  31.482  -0.054   6.226
  325XTA    CO236323  31.603  -0.122   6.224
  325XTA    CL136324  31.587  -0.246   6.138
  325XTA    CL236325  31.715  -0.324   6.107
  325XTA    CL336326  31.711  -0.433   5.990
  325XTA    CL436327  31.632  -0.561   6.028
  325XTA    CO336328  31.481  -0.548   6.004
  325XTA    OA336329  31.401  -0.658   6.039
  325XTA    CO436330  31.413  -0.761   5.937
  325XTA    CT136331  31.312  -0.872   5.964
  325XTA    CL536332  31.341  -0.977   5.853
  325XTA    CL636333  31.279  -1.116   5.876
  325XTA    OA436334  31.943   0.690   6.086
  325XTA    CO536335  32.070   0.693   6.150
  325XTA    CL736336  32.074   0.823   6.237
  325XTA    CL836337  32.193   0.857   6.314
  325XTA    CL936338  32.329   0.843   6.238
  325XTA   CL1036339  32.337   0.932   6.114
  325XTA    CO636340  32.437   0.885   6.007
  325XTA    OA536341  32.375   0.769   5.947
  325XTA    CO736342  32.440   0.732   5.828
  325XTA    CT236343  32.336   0.648   5.743
  325XTA   CL1136344  32.403   0.581   5.624
  325XTA   CL1236345  32.495   0.682   5.541
  325XTA    HL136346  30.954   0.830   6.684
  325XTA    HL236347  31.080   0.923   6.597
  325XTA    HL336348  30.989   0.792   6.528
  325XTA    HL436349  31.681  -0.062   6.176
  325XTA    HL536350  31.637  -0.150   6.320
  325XTA    HL636351  31.544  -0.211   6.039
  325XTA    HL736352  31.506  -0.303   6.182
  325XTA    HL836353  31.767  -0.376   6.190
  325XTA    HL936354  31.774  -0.242   6.071
  325XTA   HL1036355  31.665  -0.395   5.907
  325XTA   HL1136356  31.808  -0.465   5.961
  325XTA   HL1236357  31.646  -0.590   6.135
  325XTA   HL1336358  31.680  -0.633   5.963
  325XTA   HL1436359  31.444  -0.472   6.069
  325XTA   HL1536360  31.457  -0.511   5.902
  325XTA   HL1636361  31.393  -0.719   5.842
  325XTA   HL1736362  31.514  -0.799   5.938
  325XTA   HL1836363  31.446  -0.986   5.842
  325XTA   HL1936364  31.314  -0.947   5.755
  325XTA   HL2036365  31.287  -1.173   5.781
  325XTA   HL2136366  31.166  -1.122   5.896
  325XTA   HL2236367  31.330  -1.171   5.967
  325XTA   HL2336368  32.155   0.706   6.073
  325XTA   HL2436369  32.101   0.609   6.206
  325XTA   HL2536370  32.064   0.898   6.168
  325XTA   HL2636371  32.001   0.828   6.318
  325XTA   HL2736372  32.194   0.961   6.357
  325XTA   HL2836373  32.198   0.782   6.400
  325XTA   HL2936374  32.415   0.872   6.300
  325XTA   HL3036375  32.349   0.743   6.201
  325XTA   HL3136376  32.238   0.938   6.068
  325XTA   HL3236377  32.356   1.039   6.143
  325XTA   HL3336378  32.445   0.965   5.931
  325XTA   HL3436379  32.536   0.876   6.053
  325XTA   HL3536380  32.533   0.684   5.841
  325XTA   HL3636381  32.466   0.817   5.762
  325XTA   HL3736382  32.315   0.537   5.558
  325XTA   HL3836383  32.467   0.503   5.658
  325XTA   HL3936384  32.536   0.636   5.452
  325XTA   HL4036385  32.582   0.717   5.602
  325XTA   HL4136386  32.430   0.763   5.514
  325XTA    CO836387  31.170  -0.821   5.973
  325XTA    CO936388  31.352  -0.936   6.103
  325XTA    OA636389  31.108  -0.900   6.013
  325XTA   HL4236390  31.121  -0.787   5.883
  325XTA   HL4336391  31.173  -0.736   6.042
  325XTA   HL4436392  32.265   0.841   5.658
  325XTA   HL4536393  32.170   0.795   5.781
  325XTA   CO1036394  32.219   0.748   5.701
  325XTA   CO1136395  32.270   0.538   5.834
  325XTA    OA736396  32.218   0.426   5.762
  325XTA   HL4636397  32.336   0.501   5.920
  325XTA   HL4736398  32.185   0.585   5.879
  325XTA   HL4836399  31.326  -0.843   6.214
  325XTA   HL4936400  31.292  -1.021   6.123
  326XTA     NT36401  30.443  -1.188   7.735
  326XTA    CN136402  30.350  -1.279   7.718
  326XTA     C136403  30.381  -1.416   7.693
  326XTA     C236404  30.275  -1.512   7.699
  326XTA     C336405  30.138  -1.472   7.716
  326XTA     C436406  30.113  -1.333   7.734
  326XTA     C536407  30.213  -1.239   7.735
  326XTA    CN236408  30.530  -1.191   7.838
  326XTA     C636409  30.498  -1.130   7.962
  326XTA     C736410  30.589  -1.123   8.068
  326XTA     C836411  30.708  -1.194   8.066
  326XTA     C936412  30.733  -1.277   7.953
  326XTA    C1036413  30.649  -1.271   7.836
  326XTA    CN336414  30.499  -1.131   7.627
  326XTA    C1136415  30.543  -1.208   7.514
  326XTA    C1236416  30.608  -1.148   7.401
  326XTA    C1336417  30.639  -1.008   7.408
  326XTA    C1436418  30.581  -0.935   7.513
  326XTA    C1536419  30.512  -0.993   7.620
  326XTA     H136420  30.480  -1.442   7.668
  326XTA     H236421  30.297  -1.618   7.676
  326XTA     H336422  30.011  -1.306   7.758
  326XTA     H436423  30.187  -1.137   7.764
  326XTA     H536424  30.399  -1.073   7.963
  326XTA     H636425  30.559  -1.057   8.149
  326XTA     H736426  30.817  -1.338   7.942
  326XTA     H836427  30.671  -1.335   7.759
  326XTA     H936428  30.519  -1.312   7.511
  326XTA    H1036429  30.640  -1.214   7.320
  326XTA    H1136430  30.601  -0.831   7.532
  326XTA    H1236431  30.487  -0.935   7.707
  326XTA    OA136432  30.038  -1.560   7.719
  326XTA    CO136433  29.994  -1.577   7.852
  326XTA    OA236434  30.800  -1.176   8.171
  326XTA    CO236435  30.899  -1.275   8.186
  326XTA    CL136436  30.993  -1.221   8.296
  326XTA    CL236437  31.105  -1.317   8.336
  326XTA    CL336438  31.213  -1.253   8.418
  326XTA    CL436439  31.344  -1.334   8.433
  326XTA    CO336440  31.461  -1.270   8.507
  326XTA    OA336441  31.490  -1.146   8.448
  326XTA    CO436442  31.589  -1.073   8.518
  326XTA    CT136443  31.600  -0.929   8.476
  326XTA    CL536444  31.703  -0.862   8.576
  326XTA    CL636445  31.636  -0.813   8.705
  326XTA    OA436446  30.730  -0.949   7.327
  326XTA    CO536447  30.849  -1.020   7.285
  326XTA    CL736448  30.948  -1.030   7.400
  326XTA    CL836449  30.913  -1.134   7.506
  326XTA    CL936450  31.027  -1.137   7.609
  326XTA   CL1036451  30.974  -1.159   7.754
  326XTA    CO636452  31.077  -1.118   7.855
  326XTA    OA536453  31.147  -1.226   7.913
  326XTA    CO736454  31.247  -1.289   7.836
  326XTA    CT236455  31.297  -1.412   7.917
  326XTA   CL1136456  31.185  -1.499   7.971
  326XTA   CL1236457  31.066  -1.529   7.873
  326XTA    HL136458  29.899  -1.637   7.861
  326XTA    HL236459  30.073  -1.627   7.910
  326XTA    HL336460  29.967  -1.493   7.906
  326XTA    HL436461  30.861  -1.373   8.214
  326XTA    HL536462  30.947  -1.289   8.090
  326XTA    HL636463  30.930  -1.198   8.386
  326XTA    HL736464  31.038  -1.127   8.266
  326XTA    HL836465  31.159  -1.350   8.246
  326XTA    HL936466  31.074  -1.407   8.388
  326XTA   HL1036467  31.229  -1.158   8.375
  326XTA   HL1136468  31.179  -1.225   8.518
  326XTA   HL1236469  31.370  -1.345   8.330
  326XTA   HL1336470  31.323  -1.427   8.484
  326XTA   HL1436471  31.452  -1.265   8.614
  326XTA   HL1536472  31.545  -1.341   8.488
  326XTA   HL1636473  31.565  -1.051   8.623
  326XTA   HL1736474  31.689  -1.120   8.522
  326XTA   HL1836475  31.776  -0.789   8.532
  326XTA   HL1936476  31.775  -0.938   8.613
  326XTA   HL2036477  31.541  -0.752   8.694
  326XTA   HL2136478  31.706  -0.755   8.757
  326XTA   HL2236479  31.602  -0.896   8.768
  326XTA   HL2336480  30.893  -0.965   7.201
  326XTA   HL2436481  30.811  -1.117   7.238
  326XTA   HL2536482  31.044  -1.048   7.349
  326XTA   HL2636483  30.950  -0.926   7.437
  326XTA   HL2736484  30.822  -1.118   7.565
  326XTA   HL2836485  30.907  -1.228   7.458
  326XTA   HL2936486  31.103  -1.210   7.600
  326XTA   HL3036487  31.071  -1.037   7.607
  326XTA   HL3136488  30.889  -1.091   7.773
  326XTA   HL3236489  30.947  -1.265   7.757
  326XTA   HL3336490  31.143  -1.036   7.826
  326XTA   HL3436491  31.022  -1.073   7.938
  326XTA   HL3536492  31.335  -1.223   7.818
  326XTA   HL3636493  31.194  -1.324   7.750
  326XTA   HL3736494  31.133  -1.440   8.054
  326XTA   HL3836495  31.226  -1.588   8.016
  326XTA   HL3936496  31.107  -1.552   7.770
  326XTA   HL4036497  30.986  -1.445   7.865
  326XTA   HL4136498  31.015  -1.627   7.894
  326XTA    CO836499  31.469  -0.866   8.471
  326XTA    CO936500  31.666  -0.920   8.332
  326XTA    OA636501  31.484  -0.760   8.455
  326XTA   HL4236502  31.410  -0.885   8.562
  326XTA   HL4336503  31.416  -0.912   8.379
  326XTA   HL4436504  31.323  -1.330   8.115
  326XTA   HL4536505  31.438  -1.450   8.084
  326XTA   CO1036506  31.389  -1.365   8.035
  326XTA   CO1136507  31.381  -1.493   7.828
  326XTA    OA736508  31.461  -1.286   7.998
  326XTA   HL4636509  31.498  -1.429   7.795
  326XTA   HL4736510  31.325  -1.510   7.739
  326XTA   HL4836511  31.687  -0.780   8.304
  326XTA   HL4936512  31.775  -0.949   8.350
  327XTA     NT36513  32.936  -0.096   5.183
  327XTA    CN136514  33.070  -0.100   5.174
  327XTA     C136515  33.138   0.025   5.173
  327XTA     C236516  33.280   0.032   5.168
  327XTA     C336517  33.357  -0.086   5.160
  327XTA     C436518  33.288  -0.210   5.154
  327XTA     C536519  33.151  -0.217   5.157
  327XTA    CN236520  32.864  -0.050   5.076
  327XTA     C636521  32.842  -0.140   4.966
  327XTA     C736522  32.747  -0.092   4.871
  327XTA     C836523  32.695   0.040   4.872
  327XTA     C936524  32.711   0.116   4.990
  327XTA    C1036525  32.805   0.072   5.091
  327XTA    CN336526  32.878  -0.163   5.286
  327XTA    C1136527  32.876  -0.306   5.294
  327XTA    C1236528  32.820  -0.375   5.404
  327XTA    C1336529  32.754  -0.299   5.513
  327XTA    C1436530  32.754  -0.158   5.502
  327XTA    C1536531  32.815  -0.091   5.390
  327XTA     H136532  33.076   0.110   5.163
  327XTA     H236533  33.331   0.128   5.167
  327XTA     H336534  33.344  -0.298   5.141
  327XTA     H436535  33.102  -0.312   5.164
  327XTA     H536536  32.890  -0.232   4.977
  327XTA     H636537  32.727  -0.163   4.788
  327XTA     H736538  32.663   0.211   4.996
  327XTA     H836539  32.825   0.122   5.176
  327XTA     H936540  32.918  -0.378   5.222
  327XTA    H1036541  32.820  -0.479   5.391
  327XTA    H1136542  32.701  -0.093   5.572
  327XTA    H1236543  32.810   0.013   5.381
  327XTA    OA136544  33.496  -0.091   5.149
  327XTA    CO136545  33.558   0.028   5.110
  327XTA    OA236546  32.601   0.069   4.781
  327XTA    CO236547  32.576   0.202   4.753
  327XTA    CL136548  32.521   0.234   4.617
  327XTA    CL236549  32.528   0.385   4.583
  327XTA    CL336550  32.463   0.425   4.446
  327XTA    CL436551  32.484   0.572   4.412
  327XTA    CO336552  32.470   0.598   4.263
  327XTA    OA336553  32.505   0.725   4.221
  327XTA    CO436554  32.644   0.758   4.227
  327XTA    CT136555  32.690   0.889   4.154
  327XTA    CL536556  32.637   1.007   4.233
  327XTA    CL636557  32.487   1.024   4.232
  327XTA    OA436558  32.702  -0.365   5.621
  327XTA    CO536559  32.667  -0.507   5.626
  327XTA    CL736560  32.574  -0.566   5.511
  327XTA    CL836561  32.441  -0.497   5.521
  327XTA    CL936562  32.336  -0.561   5.423
  327XTA   CL1036563  32.234  -0.455   5.380
  327XTA    CO636564  32.098  -0.505   5.327
  327XTA    OA536565  31.999  -0.494   5.422
  327XTA    CO736566  32.020  -0.589   5.524
  327XTA    CT236567  31.902  -0.571   5.622
  327XTA   CL1136568  31.774  -0.611   5.544
  327XTA   CL1236569  31.638  -0.601   5.618
  327XTA    HL136570  33.667   0.008   5.103
  327XTA    HL236571  33.520   0.067   5.016
  327XTA    HL336572  33.552   0.103   5.189
  327XTA    HL436573  32.511   0.232   4.839
  327XTA    HL536574  32.677   0.253   4.763
  327XTA    HL636575  32.415   0.196   4.612
  327XTA    HL736576  32.580   0.177   4.543
  327XTA    HL836577  32.634   0.408   4.579
  327XTA    HL936578  32.479   0.428   4.671
  327XTA   HL1036579  32.505   0.361   4.372
  327XTA   HL1136580  32.353   0.405   4.444
  327XTA   HL1236581  32.584   0.602   4.446
  327XTA   HL1336582  32.415   0.627   4.473
  327XTA   HL1436583  32.506   0.516   4.199
  327XTA   HL1536584  32.364   0.606   4.244
  327XTA   HL1636585  32.676   0.755   4.331
  327XTA   HL1736586  32.696   0.674   4.184
  327XTA   HL1836587  32.681   1.095   4.190
  327XTA   HL1936588  32.669   1.003   4.337
  327XTA   HL2036589  32.446   1.017   4.129
  327XTA   HL2136590  32.461   1.116   4.275
  327XTA   HL2236591  32.435   0.948   4.296
  327XTA   HL2336592  32.629  -0.541   5.722
  327XTA   HL2436593  32.765  -0.552   5.614
  327XTA   HL2536594  32.611  -0.546   5.412
  327XTA   HL2636595  32.562  -0.671   5.525
  327XTA   HL2736596  32.410  -0.500   5.621
  327XTA   HL2836597  32.449  -0.394   5.503
  327XTA   HL2936598  32.379  -0.622   5.336
  327XTA   HL3036599  32.287  -0.639   5.470
  327XTA   HL3136600  32.202  -0.394   5.465
  327XTA   HL3236601  32.281  -0.401   5.295
  327XTA   HL3336602  32.061  -0.452   5.254
  327XTA   HL3436603  32.105  -0.605   5.296
  327XTA   HL3536604  32.111  -0.569   5.583
  327XTA   HL3636605  32.018  -0.691   5.486
  327XTA   HL3736606  31.791  -0.714   5.502
  327XTA   HL3836607  31.770  -0.548   5.456
  327XTA   HL3936608  31.614  -0.494   5.635
  327XTA   HL4036609  31.641  -0.655   5.712
  327XTA   HL4136610  31.547  -0.646   5.568
  327XTA    CO836611  32.633   0.882   4.015
  327XTA    CO936612  32.844   0.885   4.148
  327XTA    OA636613  32.683   0.988   3.936
  327XTA   HL4236614  32.527   0.866   4.019
  327XTA   HL4336615  32.663   0.786   3.971
  327XTA   HL4436616  31.900  -0.361   5.584
  327XTA   HL4536617  31.801  -0.393   5.714
  327XTA   CO1036618  31.901  -0.423   5.671
  327XTA   CO1136619  31.923  -0.672   5.736
  327XTA    OA736620  31.904  -0.807   5.694
  327XTA   HL4636621  32.024  -0.675   5.775
  327XTA   HL4736622  31.856  -0.650   5.823
  327XTA   HL4836623  32.883   0.804   4.084
  327XTA   HL4936624  32.879   0.980   4.107
  328XTA     NT36625  30.807  -2.714   0.400
  328XTA    CN136626  30.789  -2.848   0.396
  328XTA     C136627  30.849  -2.918   0.294
  328XTA     C236628  30.842  -3.059   0.289
  328XTA     C336629  30.790  -3.137   0.396
  328XTA     C436630  30.734  -3.064   0.501
  328XTA     C536631  30.739  -2.923   0.505
  328XTA    CN236632  30.893  -2.649   0.485
  328XTA     C636633  31.027  -2.687   0.474
  328XTA     C736634  31.120  -2.616   0.563
  328XTA     C836635  31.080  -2.518   0.653
  328XTA     C936636  30.942  -2.487   0.671
  328XTA    C1036637  30.850  -2.558   0.583
  328XTA    CN336638  30.750  -2.640   0.303
  328XTA    C1136639  30.613  -2.618   0.303
  328XTA    C1236640  30.553  -2.546   0.198
  328XTA    C1336641  30.627  -2.483   0.097
  328XTA    C1436642  30.764  -2.506   0.097
  328XTA    C1536643  30.828  -2.582   0.196
  328XTA     H136644  30.898  -2.861   0.215
  328XTA     H236645  30.877  -3.113   0.201
  328XTA     H336646  30.688  -3.123   0.585
  328XTA     H436647  30.710  -2.875   0.593
  328XTA     H536648  31.070  -2.761   0.407
  328XTA     H636649  31.224  -2.646   0.542
  328XTA     H736650  30.922  -2.410   0.747
  328XTA     H836651  30.745  -2.539   0.605
  328XTA     H936652  30.560  -2.645   0.395
  328XTA    H1036653  30.454  -2.519   0.222
  328XTA    H1136654  30.816  -2.453   0.022
  328XTA    H1236655  30.937  -2.588   0.171
  328XTA    OA136656  30.774  -3.276   0.395
  328XTA    CO136657  30.770  -3.338   0.265
  328XTA    OA236658  31.176  -2.465   0.744
  328XTA    CO236659  31.162  -2.334   0.781
  328XTA    CL136660  31.293  -2.279   0.833
  328XTA    CL236661  31.277  -2.134   0.884
  328XTA    CL336662  31.259  -2.041   0.760
  328XTA    CL436663  31.277  -1.892   0.796
  328XTA    CO336664  31.277  -1.808   0.665
  328XTA    OA336665  31.395  -1.839   0.597
  328XTA    CO436666  31.401  -1.812   0.456
  328XTA    CT136667  31.523  -1.889   0.388
  328XTA    CL536668  31.515  -1.869   0.235
  328XTA    CL636669  31.527  -1.727   0.186
  328XTA    OA436670  30.571  -2.400   0.002
  328XTA    CO536671  30.437  -2.350   0.025
  328XTA    CL736672  30.421  -2.205  -0.036
  328XTA    CL836673  30.280  -2.137  -0.025
  328XTA    CL936674  30.287  -2.001  -0.079
  328XTA   CL1036675  30.147  -1.942  -0.102
  328XTA    CO636676  30.077  -1.910   0.025
  328XTA    OA536677  29.952  -1.839   0.008
  328XTA    CO736678  29.882  -1.826   0.137
  328XTA    CT236679  29.734  -1.802   0.109
  328XTA   CL1136680  29.669  -1.936   0.062
  328XTA   CL1236681  29.714  -1.992  -0.076
  328XTA    HL136682  30.866  -3.349   0.220
  328XTA    HL236683  30.747  -3.441   0.257
  328XTA    HL336684  30.693  -3.293   0.203
  328XTA    HL436685  31.130  -2.281   0.689
  328XTA    HL536686  31.089  -2.329   0.859
  328XTA    HL636687  31.375  -2.276   0.761
  328XTA    HL736688  31.320  -2.333   0.924
  328XTA    HL836689  31.366  -2.110   0.940
  328XTA    HL936690  31.194  -2.128   0.952
  328XTA   HL1036691  31.339  -2.058   0.681
  328XTA   HL1136692  31.154  -2.046   0.725
  328XTA   HL1236693  31.372  -1.882   0.849
  328XTA   HL1336694  31.199  -1.862   0.871
  328XTA   HL1436695  31.197  -1.820   0.592
  328XTA   HL1536696  31.265  -1.701   0.682
  328XTA   HL1636697  31.303  -1.842   0.406
  328XTA   HL1736698  31.407  -1.706   0.461
  328XTA   HL1836699  31.425  -1.915   0.190
  328XTA   HL1936700  31.593  -1.930   0.188
  328XTA   HL2036701  31.447  -1.663   0.229
  328XTA   HL2136702  31.529  -1.731   0.075
  328XTA   HL2236703  31.615  -1.665   0.207
  328XTA   HL2336704  30.407  -2.344   0.128
  328XTA   HL2436705  30.367  -2.423  -0.022
  328XTA   HL2536706  30.497  -2.148   0.015
  328XTA   HL2636707  30.441  -2.205  -0.144
  328XTA   HL2736708  30.209  -2.203  -0.077
  328XTA   HL2836709  30.248  -2.138   0.080
  328XTA   HL2936710  30.352  -1.945  -0.013
  328XTA   HL3036711  30.344  -2.002  -0.175
  328XTA   HL3136712  30.152  -1.841  -0.150
  328XTA   HL3236713  30.096  -2.005  -0.173
  328XTA   HL3336714  30.044  -2.002   0.079
  328XTA   HL3436715  30.147  -1.856   0.085
  328XTA   HL3536716  29.926  -1.749   0.198
  328XTA   HL3636717  29.884  -1.922   0.195
  328XTA   HL3736718  29.558  -1.918   0.055
  328XTA   HL3836719  29.679  -2.007   0.144
  328XTA   HL3936720  29.666  -1.945  -0.157
  328XTA   HL4036721  29.686  -2.096  -0.074
  328XTA   HL4136722  29.821  -1.981  -0.092
  328XTA    CO836723  31.498  -2.043   0.412
  328XTA    CO936724  31.664  -1.861   0.454
  328XTA    OA636725  31.372  -2.076   0.345
  328XTA   HL4236726  31.502  -2.063   0.523
  328XTA   HL4336727  31.572  -2.112   0.366
  328XTA   HL4436728  29.747  -1.598   0.040
  328XTA   HL4536729  29.783  -1.712  -0.077
  328XTA   CO1036730  29.714  -1.692  -0.001
  328XTA   CO1136731  29.662  -1.755   0.237
  328XTA    OA736732  29.580  -1.674  -0.044
  328XTA   HL4636733  29.699  -1.663   0.273
  328XTA   HL4736734  29.683  -1.826   0.319
  328XTA   HL4836735  31.699  -1.759   0.426
  328XTA   HL4936736  31.659  -1.846   0.565
  329XTA     NT36737  30.985  -1.824  -1.460
  329XTA    CN136738  31.066  -1.792  -1.559
  329XTA     C136739  31.072  -1.655  -1.597
  329XTA     C236740  31.171  -1.613  -1.688
  329XTA     C336741  31.264  -1.702  -1.741
  329XTA     C436742  31.258  -1.837  -1.704
  329XTA     C536743  31.158  -1.886  -1.617
  329XTA    CN236744  31.027  -1.798  -1.333
  329XTA     C636745  30.998  -1.679  -1.267
  329XTA     C736746  31.038  -1.662  -1.135
  329XTA     C836747  31.096  -1.768  -1.064
  329XTA     C936748  31.120  -1.891  -1.133
  329XTA    C1036749  31.083  -1.907  -1.267
  329XTA    CN336750  30.853  -1.835  -1.484
  329XTA    C1136751  30.787  -1.958  -1.446
  329XTA    C1236752  30.653  -1.967  -1.476
  329XTA    C1336753  30.579  -1.870  -1.548
  329XTA    C1436754  30.647  -1.752  -1.582
  329XTA    C1536755  30.784  -1.737  -1.557
  329XTA     H136756  31.004  -1.575  -1.550
  329XTA     H236757  31.170  -1.510  -1.711
  329XTA     H336758  31.317  -1.908  -1.756
  329XTA     H436759  31.145  -1.991  -1.611
  329XTA     H536760  30.942  -1.602  -1.311
  329XTA     H636761  31.011  -1.573  -1.094
  329XTA     H736762  31.158  -1.982  -1.087
  329XTA     H836763  31.099  -1.994  -1.318
  329XTA     H936764  30.839  -2.033  -1.384
  329XTA    H1036765  30.595  -2.057  -1.448
  329XTA    H1136766  30.587  -1.684  -1.632
  329XTA    H1236767  30.835  -1.651  -1.599
  329XTA    OA136768  31.355  -1.648  -1.832
  329XTA    CO136769  31.490  -1.686  -1.802
  329XTA    OA236770  31.145  -1.761  -0.932
  329XTA    CO236771  31.138  -1.639  -0.868
  329XTA    CL136772  31.252  -1.538  -0.899
  329XTA    CL236773  31.382  -1.591  -0.861
  329XTA    CL336774  31.496  -1.493  -0.894
  329XTA    CL436775  31.637  -1.542  -0.870
  329XTA    CO336776  31.667  -1.667  -0.956
  329XTA    OA336777  31.807  -1.659  -1.012
  329XTA    CO436778  31.817  -1.760  -1.114
  329XTA    CT136779  31.965  -1.776  -1.159
  329XTA    CL536780  31.978  -1.861  -1.293
  329XTA    CL636781  31.925  -2.005  -1.288
  329XTA    OA436782  30.446  -1.874  -1.585
  329XTA    CO536783  30.387  -2.005  -1.562
  329XTA    CL736784  30.241  -1.999  -1.616
  329XTA    CL836785  30.144  -2.085  -1.542
  329XTA    CL936786  29.999  -2.057  -1.588
  329XTA   CL1036787  29.948  -1.915  -1.556
  329XTA    CO636788  29.903  -1.896  -1.407
  329XTA    OA536789  30.022  -1.856  -1.334
  329XTA    CO736790  30.072  -1.723  -1.370
  329XTA    CT236791  30.175  -1.680  -1.259
  329XTA   CL1136792  30.127  -1.711  -1.117
  329XTA   CL1236793  29.974  -1.702  -1.088
  329XTA    HL136794  31.490  -1.791  -1.783
  329XTA    HL236795  31.551  -1.658  -1.890
  329XTA    HL336796  31.524  -1.629  -1.724
  329XTA    HL436797  31.046  -1.584  -0.888
  329XTA    HL536798  31.153  -1.650  -0.767
  329XTA    HL636799  31.241  -1.444  -0.839
  329XTA    HL736800  31.254  -1.504  -1.001
  329XTA    HL836801  31.396  -1.689  -0.909
  329XTA    HL936802  31.392  -1.601  -0.753
  329XTA   HL1036803  31.486  -1.460  -0.998
  329XTA   HL1136804  31.486  -1.407  -0.824
  329XTA   HL1236805  31.646  -1.581  -0.773
  329XTA   HL1336806  31.708  -1.464  -0.877
  329XTA   HL1436807  31.653  -1.756  -0.893
  329XTA   HL1536808  31.590  -1.671  -1.037
  329XTA   HL1636809  31.791  -1.859  -1.080
  329XTA   HL1736810  31.760  -1.732  -1.203
  329XTA   HL1836811  32.083  -1.888  -1.317
  329XTA   HL1936812  31.931  -1.808  -1.380
  329XTA   HL2036813  31.816  -2.007  -1.265
  329XTA   HL2136814  31.988  -2.061  -1.220
  329XTA   HL2236815  31.929  -2.044  -1.389
  329XTA   HL2336816  30.379  -2.018  -1.452
  329XTA   HL2436817  30.449  -2.076  -1.612
  329XTA   HL2536818  30.213  -1.898  -1.599
  329XTA   HL2636819  30.242  -2.020  -1.728
  329XTA   HL2736820  30.167  -2.189  -1.560
  329XTA   HL2836821  30.160  -2.067  -1.435
  329XTA   HL2936822  29.979  -2.077  -1.689
  329XTA   HL3036823  29.941  -2.137  -1.541
  329XTA   HL3136824  30.006  -1.832  -1.601
  329XTA   HL3236825  29.856  -1.909  -1.618
  329XTA   HL3336826  29.834  -1.812  -1.396
  329XTA   HL3436827  29.860  -1.985  -1.363
  329XTA   HL3536828  29.986  -1.655  -1.385
  329XTA   HL3636829  30.123  -1.705  -1.462
  329XTA   HL3736830  30.184  -1.650  -1.050
  329XTA   HL3836831  30.150  -1.804  -1.087
  329XTA   HL3936832  29.912  -1.778  -1.143
  329XTA   HL4036833  29.938  -1.609  -1.112
  329XTA   HL4136834  29.956  -1.715  -0.979
  329XTA    CO836835  32.046  -1.833  -1.037
  329XTA    CO936836  32.029  -1.634  -1.182
  329XTA    OA636837  32.010  -1.965  -1.003
  329XTA   HL4236838  32.018  -1.770  -0.952
  329XTA   HL4336839  32.150  -1.828  -1.057
  329XTA   HL4436840  30.105  -1.476  -1.252
  329XTA   HL4536841  30.277  -1.495  -1.216
  329XTA   CO1036842  30.192  -1.528  -1.275
  329XTA   CO1136843  30.315  -1.750  -1.293
  329XTA    OA736844  30.212  -1.487  -1.406
  329XTA   HL4636845  30.365  -1.713  -1.379
  329XTA   HL4736846  30.300  -1.857  -1.311
  329XTA   HL4836847  31.960  -1.557  -1.175
  329XTA   HL4936848  32.093  -1.617  -1.095
  330XTA     NT36849  27.161  -1.652   5.482
  330XTA    CN136850  27.241  -1.550   5.438
  330XTA     C136851  27.263  -1.425   5.507
  330XTA     C236852  27.329  -1.321   5.439
  330XTA     C336853  27.372  -1.342   5.303
  330XTA     C436854  27.352  -1.462   5.237
  330XTA     C536855  27.286  -1.561   5.308
  330XTA    CN236856  27.213  -1.777   5.482
  330XTA     C636857  27.345  -1.806   5.524
  330XTA     C736858  27.388  -1.942   5.524
  330XTA     C836859  27.310  -2.045   5.470
  330XTA     C936860  27.179  -2.014   5.427
  330XTA    C1036861  27.130  -1.881   5.432
  330XTA    CN336862  27.056  -1.629   5.565
  330XTA    C1136863  26.937  -1.570   5.518
  330XTA    C1236864  26.830  -1.539   5.608
  330XTA    C1336865  26.845  -1.577   5.746
  330XTA    C1436866  26.961  -1.638   5.793
  330XTA    C1536867  27.070  -1.667   5.704
  330XTA     H136868  27.214  -1.398   5.601
  330XTA     H236869  27.347  -1.225   5.488
  330XTA     H336870  27.391  -1.479   5.138
  330XTA     H436871  27.280  -1.653   5.253
  330XTA     H536872  27.413  -1.731   5.554
  330XTA     H636873  27.488  -1.966   5.554
  330XTA     H736874  27.109  -2.088   5.392
  330XTA     H836875  27.035  -1.869   5.401
  330XTA     H936876  26.934  -1.543   5.413
  330XTA    H1036877  26.740  -1.500   5.563
  330XTA    H1136878  26.976  -1.657   5.900
  330XTA    H1236879  27.163  -1.718   5.737
  330XTA    OA136880  27.430  -1.238   5.234
  330XTA    CO136881  27.408  -1.242   5.097
  330XTA    OA236882  27.372  -2.170   5.464
  330XTA    CO236883  27.291  -2.287   5.463
  330XTA    CL136884  27.374  -2.412   5.493
  330XTA    CL236885  27.382  -2.443   5.649
  330XTA    CL336886  27.482  -2.563   5.664
  330XTA    CL436887  27.484  -2.640   5.796
  330XTA    CO336888  27.551  -2.774   5.784
  330XTA    OA336889  27.504  -2.833   5.662
  330XTA    CO436890  27.567  -2.956   5.634
  330XTA    CT136891  27.505  -3.029   5.508
  330XTA    CL536892  27.535  -3.183   5.512
  330XTA    CL636893  27.684  -3.204   5.511
  330XTA    OA436894  26.755  -1.544   5.839
  330XTA    CO536895  26.679  -1.420   5.818
  330XTA    CL736896  26.623  -1.388   5.948
  330XTA    CL836897  26.576  -1.239   5.958
  330XTA    CL936898  26.531  -1.197   6.101
  330XTA   CL1036899  26.618  -1.231   6.226
  330XTA    CO636900  26.754  -1.167   6.220
  330XTA    OA536901  26.832  -1.246   6.308
  330XTA    CO736902  26.872  -1.369   6.254
  330XTA    CT236903  26.989  -1.421   6.340
  330XTA   CL1136904  27.110  -1.316   6.335
  330XTA   CL1236905  27.248  -1.369   6.376
  330XTA    HL136906  27.478  -1.305   5.046
  330XTA    HL236907  27.306  -1.262   5.070
  330XTA    HL336908  27.425  -1.141   5.073
  330XTA    HL436909  27.202  -2.279   5.535
  330XTA    HL536910  27.236  -2.299   5.374
  330XTA    HL636911  27.476  -2.400   5.451
  330XTA    HL736912  27.334  -2.503   5.443
  330XTA    HL836913  27.283  -2.471   5.688
  330XTA    HL936914  27.418  -2.360   5.712
  330XTA   HL1036915  27.459  -2.631   5.591
  330XTA   HL1136916  27.580  -2.531   5.638
  330XTA   HL1236917  27.387  -2.667   5.840
  330XTA   HL1336918  27.534  -2.579   5.869
  330XTA   HL1436919  27.657  -2.776   5.793
  330XTA   HL1536920  27.516  -2.836   5.864
  330XTA   HL1636921  27.671  -2.940   5.623
  330XTA   HL1736922  27.573  -3.025   5.716
  330XTA   HL1836923  27.489  -3.234   5.430
  330XTA   HL1936924  27.495  -3.221   5.605
  330XTA   HL2036925  27.745  -3.122   5.480
  330XTA   HL2136926  27.720  -3.285   5.446
  330XTA   HL2236927  27.725  -3.223   5.611
  330XTA   HL2336928  26.603  -1.434   5.742
  330XTA   HL2436929  26.758  -1.348   5.794
  330XTA   HL2536930  26.539  -1.454   5.957
  330XTA   HL2636931  26.697  -1.418   6.025
  330XTA   HL2736932  26.660  -1.181   5.926
  330XTA   HL2836933  26.488  -1.210   5.890
  330XTA   HL2936934  26.504  -1.086   6.100
  330XTA   HL3036935  26.440  -1.251   6.103
  330XTA   HL3136936  26.563  -1.201   6.314
  330XTA   HL3236937  26.639  -1.335   6.219
  330XTA   HL3336938  26.804  -1.168   6.124
  330XTA   HL3436939  26.755  -1.068   6.262
  330XTA   HL3536940  26.908  -1.359   6.149
  330XTA   HL3636941  26.791  -1.441   6.260
  330XTA   HL3736942  27.077  -1.233   6.398
  330XTA   HL3836943  27.127  -1.286   6.228
  330XTA   HL3936944  27.318  -1.283   6.362
  330XTA   HL4036945  27.279  -1.447   6.302
  330XTA   HL4136946  27.257  -1.418   6.471
  330XTA    CO836947  27.577  -2.978   5.379
  330XTA    CO936948  27.347  -3.014   5.490
  330XTA    OA636949  27.286  -3.067   5.564
  330XTA   HL4236950  27.679  -2.959   5.408
  330XTA   HL4336951  27.605  -3.091   5.295
  330XTA   HL4436952  27.093  -1.540   6.184
  330XTA   HL4536953  26.955  -1.618   6.263
  330XTA   CO1036954  27.040  -1.556   6.282
  330XTA   CO1136955  26.948  -1.451   6.487
  330XTA    OA736956  26.815  -1.505   6.488
  330XTA   HL4636957  27.014  -1.516   6.537
  330XTA   HL4736958  26.948  -1.362   6.545
  330XTA   HL4836959  27.323  -3.058   5.395
  330XTA   HL4936960  27.320  -2.900   5.484
  331XTA     NT36961  31.757  -2.325   2.705
  331XTA    CN136962  31.713  -2.300   2.830
  331XTA     C136963  31.574  -2.302   2.861
  331XTA     C236964  31.525  -2.276   2.993
  331XTA     C336965  31.614  -2.278   3.094
  331XTA     C436966  31.754  -2.272   3.070
  331XTA     C536967  31.803  -2.273   2.937
  331XTA    CN236968  31.782  -2.230   2.624
  331XTA     C636969  31.892  -2.137   2.631
  331XTA     C736970  31.931  -2.070   2.520
  331XTA     C836971  31.863  -2.075   2.397
  331XTA     C936972  31.738  -2.147   2.402
  331XTA    C1036973  31.701  -2.232   2.508
  331XTA    CN336974  31.827  -2.444   2.682
  331XTA    C1136975  31.752  -2.566   2.677
  331XTA    C1236976  31.822  -2.683   2.653
  331XTA    C1336977  31.960  -2.688   2.633
  331XTA    C1436978  32.037  -2.567   2.636
  331XTA    C1536979  31.965  -2.450   2.655
  331XTA     H136980  31.497  -2.332   2.786
  331XTA     H236981  31.415  -2.284   3.007
  331XTA     H336982  31.827  -2.281   3.150
  331XTA     H436983  31.905  -2.258   2.914
  331XTA     H536984  31.956  -2.129   2.721
  331XTA     H636985  32.021  -2.012   2.524
  331XTA     H736986  31.677  -2.135   2.316
  331XTA     H836987  31.624  -2.308   2.494
  331XTA     H936988  31.641  -2.568   2.689
  331XTA    H1036989  31.770  -2.779   2.642
  331XTA    H1136990  32.141  -2.575   2.610
  331XTA    H1236991  32.032  -2.371   2.662
  331XTA    OA136992  31.564  -2.299   3.223
  331XTA    CO136993  31.647  -2.366   3.314
  331XTA    OA236994  31.911  -2.007   2.290
  331XTA    CO236995  31.837  -2.007   2.175
  331XTA    CL136996  31.908  -1.911   2.071
  331XTA    CL236997  31.822  -1.862   1.949
  331XTA    CL336998  31.750  -1.970   1.867
  331XTA    CL436999  31.841  -2.049   1.776
  331XTA    CO337000  31.947  -2.137   1.847
  331XTA    OA337001  31.999  -2.236   1.758
  331XTA    CO437002  32.098  -2.321   1.822
  331XTA    CT137003  32.151  -2.432   1.727
  331XTA    CL537004  32.038  -2.502   1.642
  331XTA    CL637005  31.914  -2.527   1.722
  331XTA    OA437006  32.028  -2.799   2.608
  331XTA    CO537007  32.011  -2.906   2.708
  331XTA    CL737008  32.139  -2.974   2.748
  331XTA    CL837009  32.229  -2.886   2.838
  331XTA    CL937010  32.348  -2.971   2.879
  331XTA   CL1037011  32.483  -2.897   2.889
  331XTA    CO637012  32.596  -2.998   2.926
  331XTA    OA537013  32.714  -2.925   2.896
  331XTA    CO737014  32.832  -2.975   2.943
  331XTA    CT237015  32.958  -2.895   2.906
  331XTA   CL1137016  33.084  -2.919   2.993
  331XTA   CL1237017  33.130  -3.062   2.995
  331XTA    HL137018  31.711  -2.283   3.350
  331XTA    HL237019  31.589  -2.395   3.400
  331XTA    HL337020  31.699  -2.451   3.269
  331XTA    HL437021  31.825  -2.109   2.130
  331XTA    HL537022  31.738  -1.965   2.192
  331XTA    HL637023  31.992  -1.966   2.041
  331XTA    HL737024  31.955  -1.822   2.110
  331XTA    HL837025  31.879  -1.792   1.886
  331XTA    HL937026  31.752  -1.803   1.998
  331XTA   HL1037027  31.700  -2.038   1.942
  331XTA   HL1137028  31.668  -1.927   1.810
  331XTA   HL1237029  31.878  -1.986   1.701
  331XTA   HL1337030  31.781  -2.124   1.722
  331XTA   HL1437031  32.029  -2.071   1.874
  331XTA   HL1537032  31.895  -2.188   1.935
  331XTA   HL1637033  32.176  -2.252   1.863
  331XTA   HL1737034  32.059  -2.373   1.913
  331XTA   HL1837035  32.084  -2.588   1.609
  331XTA   HL1937036  32.014  -2.448   1.556
  331XTA   HL2037037  31.931  -2.540   1.828
  331XTA   HL2137038  31.852  -2.606   1.684
  331XTA   HL2237039  31.859  -2.429   1.722
  331XTA   HL2337040  31.943  -2.972   2.659
  331XTA   HL2437041  31.950  -2.879   2.790
  331XTA   HL2537042  32.115  -3.072   2.799
  331XTA   HL2637043  32.205  -3.004   2.662
  331XTA   HL2737044  32.252  -2.788   2.788
  331XTA   HL2837045  32.180  -2.852   2.928
  331XTA   HL2937046  32.328  -3.020   2.974
  331XTA   HL3037047  32.357  -3.057   2.814
  331XTA   HL3137048  32.505  -2.857   2.793
  331XTA   HL3237049  32.486  -2.814   2.961
  331XTA   HL3337050  32.596  -3.019   3.031
  331XTA   HL3437051  32.589  -3.092   2.875
  331XTA   HL3537052  32.842  -3.065   2.900
  331XTA   HL3637053  32.832  -3.004   3.051
  331XTA   HL3737054  33.064  -2.881   3.097
  331XTA   HL3837055  33.172  -2.857   2.976
  331XTA   HL3937056  33.219  -3.084   3.053
  331XTA   HL4037057  33.146  -3.096   2.894
  331XTA   HL4137058  33.049  -3.134   3.039
  331XTA    CO837059  32.213  -2.548   1.802
  331XTA    CO937060  32.269  -2.374   1.629
  331XTA    OA637061  32.352  -2.334   1.681
  331XTA   HL4237062  32.129  -2.606   1.834
  331XTA   HL4337063  32.279  -2.637   1.716
  331XTA   HL4437064  32.860  -2.704   2.857
  331XTA   HL4537065  33.024  -2.692   2.870
  331XTA   CO1037066  32.940  -2.738   2.920
  331XTA   CO1137067  32.984  -2.911   2.760
  331XTA    OA737068  32.877  -2.860   2.674
  331XTA   HL4637069  33.073  -2.860   2.725
  331XTA   HL4737070  33.008  -3.013   2.742
  331XTA   HL4837071  32.229  -2.304   1.563
  331XTA   HL4937072  32.315  -2.465   1.578
  332XTA     NT37073  32.702  -1.802   2.622
  332XTA    CN137074  32.693  -1.769   2.492
  332XTA     C137075  32.809  -1.763   2.402
  332XTA     C237076  32.795  -1.708   2.275
  332XTA     C337077  32.673  -1.667   2.225
  332XTA     C437078  32.561  -1.686   2.302
  332XTA     C537079  32.570  -1.728   2.437
  332XTA    CN237080  32.608  -1.876   2.676
  332XTA     C637081  32.595  -2.012   2.644
  332XTA     C737082  32.486  -2.086   2.688
  332XTA     C837083  32.398  -2.027   2.782
  332XTA     C937084  32.409  -1.894   2.814
  332XTA    C1037085  32.512  -1.818   2.760
  332XTA    CN337086  32.791  -1.743   2.709
  332XTA    C1137087  32.784  -1.605   2.728
  332XTA    C1237088  32.866  -1.541   2.822
  332XTA    C1337089  32.964  -1.614   2.887
  332XTA    C1437090  32.968  -1.754   2.875
  332XTA    C1537091  32.886  -1.819   2.786
  332XTA     H137092  32.898  -1.809   2.437
  332XTA     H237093  32.880  -1.688   2.211
  332XTA     H337094  32.460  -1.670   2.263
  332XTA     H437095  32.485  -1.725   2.498
  332XTA     H537096  32.671  -2.054   2.579
  332XTA     H637097  32.474  -2.192   2.666
  332XTA     H737098  32.348  -1.851   2.888
  332XTA     H837099  32.525  -1.712   2.777
  332XTA     H937100  32.718  -1.550   2.665
  332XTA    H1037101  32.863  -1.433   2.837
  332XTA    H1137102  33.045  -1.813   2.929
  332XTA    H1237103  32.903  -1.926   2.745
  332XTA    OA137104  32.676  -1.629   2.087
  332XTA    CO137105  32.552  -1.602   2.036
  332XTA    OA237106  32.292  -2.094   2.829
  332XTA    CO237107  32.303  -2.236   2.836
  332XTA    CL137108  32.174  -2.283   2.913
  332XTA    CL237109  32.199  -2.429   2.949
  332XTA    CL337110  32.297  -2.463   3.065
  332XTA    CL437111  32.335  -2.609   3.083
  332XTA    CO337112  32.413  -2.648   3.207
  332XTA    OA337113  32.543  -2.605   3.176
  332XTA    CO437114  32.643  -2.619   3.281
  332XTA    CT137115  32.785  -2.594   3.224
  332XTA    CL537116  32.897  -2.612   3.331
  332XTA    CL637117  32.921  -2.754   3.372
  332XTA    OA437118  33.040  -1.564   2.990
  332XTA    CO537119  33.035  -1.429   3.024
  332XTA    CL737120  33.141  -1.400   3.132
  332XTA    CL837121  33.122  -1.476   3.262
  332XTA    CL937122  33.252  -1.466   3.354
  332XTA   CL1037123  33.282  -1.334   3.413
  332XTA    CO637124  33.418  -1.321   3.485
  332XTA    OA537125  33.520  -1.376   3.403
  332XTA    CO737126  33.654  -1.327   3.429
  332XTA    CT237127  33.756  -1.376   3.331
  332XTA   CL1137128  33.699  -1.355   3.186
  332XTA   CL1237129  33.680  -1.212   3.138
  332XTA    HL137130  32.566  -1.572   1.933
  332XTA    HL237131  32.479  -1.684   2.037
  332XTA    HL337132  32.512  -1.517   2.090
  332XTA    HL437133  32.317  -2.262   2.730
  332XTA    HL537134  32.392  -2.255   2.893
  332XTA    HL637135  32.093  -2.276   2.840
  332XTA    HL737136  32.144  -2.229   2.997
  332XTA    HL837137  32.236  -2.474   2.850
  332XTA    HL937138  32.101  -2.477   2.960
  332XTA   HL1037139  32.388  -2.410   3.037
  332XTA   HL1137140  32.264  -2.417   3.159
  332XTA   HL1237141  32.393  -2.642   2.995
  332XTA   HL1337142  32.246  -2.674   3.084
  332XTA   HL1437143  32.367  -2.602   3.295
  332XTA   HL1537144  32.414  -2.756   3.219
  332XTA   HL1637145  32.617  -2.544   3.361
  332XTA   HL1737146  32.634  -2.718   3.331
  332XTA   HL1837147  32.883  -2.555   3.430
  332XTA   HL1937148  32.986  -2.582   3.287
  332XTA   HL2037149  33.007  -2.806   3.318
  332XTA   HL2137150  32.836  -2.814   3.350
  332XTA   HL2237151  32.947  -2.770   3.476
  332XTA   HL2337152  32.930  -1.402   3.057
  332XTA   HL2437153  33.069  -1.366   2.943
  332XTA   HL2537154  33.231  -1.442   3.080
  332XTA   HL2637155  33.154  -1.293   3.142
  332XTA   HL2737156  33.039  -1.429   3.323
  332XTA   HL2837157  33.102  -1.584   3.255
  332XTA   HL2937158  33.240  -1.529   3.437
  332XTA   HL3037159  33.339  -1.499   3.300
  332XTA   HL3137160  33.277  -1.256   3.342
  332XTA   HL3237161  33.201  -1.297   3.483
  332XTA   HL3337162  33.434  -1.217   3.500
  332XTA   HL3437163  33.426  -1.365   3.576
  332XTA   HL3537164  33.693  -1.365   3.522
  332XTA   HL3637165  33.666  -1.214   3.439
  332XTA   HL3737166  33.603  -1.401   3.181
  332XTA   HL3837167  33.759  -1.406   3.117
  332XTA   HL3937168  33.643  -1.229   3.038
  332XTA   HL4037169  33.764  -1.149   3.123
  332XTA   HL4137170  33.603  -1.165   3.199
  332XTA    CO837171  32.793  -2.442   3.178
  332XTA    CO937172  32.816  -2.679   3.098
  332XTA    OA637173  32.914  -2.665   3.044
  332XTA   HL4237174  32.894  -2.427   3.150
  332XTA   HL4337175  32.711  -2.414   3.064
  332XTA   HL4437176  33.849  -1.571   3.267
  332XTA   HL4537177  33.806  -1.552   3.461
  332XTA   CO1037178  33.783  -1.531   3.355
  332XTA   CO1137179  33.886  -1.295   3.362
  332XTA    OA737180  33.692  -1.596   3.341
  332XTA   HL4637181  33.995  -1.328   3.279
  332XTA   HL4737182  33.863  -1.201   3.329
  332XTA   HL4837183  32.724  -2.659   3.037
  332XTA   HL4937184  32.806  -2.787   3.126
  333XTA     NT37185  32.336  -1.016   5.504
  333XTA    CN137186  32.373  -0.933   5.601
  333XTA     C137187  32.502  -0.947   5.653
  333XTA     C237188  32.547  -0.864   5.757
  333XTA     C337189  32.464  -0.764   5.813
  333XTA     C437190  32.334  -0.752   5.767
  333XTA     C537191  32.292  -0.835   5.661
  333XTA    CN237192  32.251  -0.969   5.415
  333XTA     C637193  32.301  -0.923   5.288
  333XTA     C737194  32.209  -0.880   5.183
  333XTA     C837195  32.069  -0.890   5.207
  333XTA     C937196  32.023  -0.943   5.329
  333XTA    C1037197  32.106  -0.974   5.438
  333XTA    CN337198  32.351  -1.147   5.515
  333XTA    C1137199  32.282  -1.224   5.620
  333XTA    C1237200  32.285  -1.365   5.608
  333XTA    C1337201  32.381  -1.423   5.528
  333XTA    C1437202  32.458  -1.351   5.437
  333XTA    C1537203  32.433  -1.215   5.424
  333XTA     H137204  32.566  -1.025   5.622
  333XTA     H237205  32.647  -0.879   5.803
  333XTA     H337206  32.260  -0.697   5.813
  333XTA     H437207  32.188  -0.836   5.631
  333XTA     H537208  32.396  -0.926   5.267
  333XTA     H637209  32.240  -0.835   5.091
  333XTA     H737210  31.913  -0.954   5.340
  333XTA     H837211  32.075  -1.015   5.532
  333XTA     H937212  32.227  -1.166   5.693
  333XTA    H1037213  32.219  -1.429   5.666
  333XTA    H1137214  32.530  -1.405   5.370
  333XTA    H1237215  32.479  -1.170   5.341
  333XTA    OA137216  32.507  -0.683   5.914
  333XTA    CO137217  32.551  -0.764   6.023
  333XTA    OA237218  31.991  -0.853   5.099
  333XTA    CO237219  31.864  -0.796   5.135
  333XTA    CL137220  31.746  -0.876   5.083
  333XTA    CL237221  31.707  -0.993   5.183
  333XTA    CL337222  31.632  -0.948   5.309
  333XTA    CL437223  31.589  -1.059   5.402
  333XTA    CO337224  31.533  -1.019   5.540
  333XTA    OA337225  31.622  -0.978   5.645
  333XTA    CO437226  31.744  -1.052   5.645
  333XTA    CT137227  31.821  -1.036   5.779
  333XTA    CL537228  31.959  -1.116   5.784
  333XTA    CL637229  31.928  -1.269   5.760
  333XTA    OA437230  32.392  -1.559   5.515
  333XTA    CO537231  32.276  -1.635   5.549
  333XTA    CL737232  32.286  -1.758   5.452
  333XTA    CL837233  32.190  -1.876   5.488
  333XTA    CL937234  32.184  -1.921   5.632
  333XTA   CL1037235  32.314  -1.987   5.687
  333XTA    CO637236  32.314  -1.995   5.838
  333XTA    OA537237  32.419  -2.073   5.889
  333XTA    CO737238  32.546  -2.048   5.822
  333XTA    CT237239  32.661  -2.140   5.871
  333XTA   CL1137240  32.632  -2.283   5.837
  333XTA   CL1237241  32.591  -2.304   5.684
  333XTA    HL137242  32.465  -0.828   6.052
  333XTA    HL237243  32.639  -0.830   5.997
  333XTA    HL337244  32.582  -0.705   6.114
  333XTA    HL437245  31.860  -0.763   5.234
  333XTA    HL537246  31.873  -0.698   5.089
  333XTA    HL637247  31.755  -0.921   4.989
  333XTA    HL737248  31.662  -0.807   5.076
  333XTA    HL837249  31.786  -1.068   5.197
  333XTA    HL937250  31.635  -1.053   5.131
  333XTA   HL1037251  31.692  -0.887   5.382
  333XTA   HL1137252  31.533  -0.899   5.289
  333XTA   HL1237253  31.671  -1.130   5.416
  333XTA   HL1337254  31.510  -1.117   5.347
  333XTA   HL1437255  31.459  -0.938   5.517
  333XTA   HL1537256  31.488  -1.112   5.582
  333XTA   HL1637257  31.716  -1.158   5.621
  333XTA   HL1737258  31.811  -1.018   5.564
  333XTA   HL1837259  32.011  -1.108   5.878
  333XTA   HL1937260  32.032  -1.084   5.710
  333XTA   HL2037261  31.874  -1.293   5.665
  333XTA   HL2137262  31.863  -1.306   5.841
  333XTA   HL2237263  32.013  -1.333   5.781
  333XTA   HL2337264  32.189  -1.579   5.519
  333XTA   HL2437265  32.273  -1.658   5.654
  333XTA   HL2537266  32.278  -1.728   5.346
  333XTA   HL2637267  32.389  -1.790   5.469
  333XTA   HL2737268  32.097  -1.836   5.462
  333XTA   HL2837269  32.222  -1.960   5.424
  333XTA   HL2937270  32.168  -1.828   5.693
  333XTA   HL3037271  32.097  -1.974   5.649
  333XTA   HL3137272  32.313  -2.086   5.638
  333XTA   HL3237273  32.396  -1.920   5.652
  333XTA   HL3337274  32.320  -1.893   5.877
  333XTA   HL3437275  32.216  -2.033   5.869
  333XTA   HL3537276  32.582  -1.947   5.845
  333XTA   HL3637277  32.553  -2.055   5.715
  333XTA   HL3737278  32.539  -2.305   5.880
  333XTA   HL3837279  32.710  -2.351   5.866
  333XTA   HL3937280  32.565  -2.411   5.668
  333XTA   HL4037281  32.665  -2.275   5.613
  333XTA   HL4137282  32.506  -2.240   5.661
  333XTA    CO837283  31.721  -1.088   5.892
  333XTA    CO937284  31.847  -0.889   5.796
  333XTA    OA637285  31.785  -1.093   5.985
  333XTA   HL4237286  31.672  -1.180   5.862
  333XTA   HL4337287  31.644  -1.017   5.904
  333XTA   HL4437288  32.582  -2.161   6.079
  333XTA   HL4537289  32.751  -2.202   6.050
  333XTA   CO1037290  32.672  -2.127   6.020
  333XTA   CO1137291  32.792  -2.101   5.809
  333XTA    OA737292  32.719  -2.000   6.070
  333XTA   HL4637293  32.836  -2.021   5.865
  333XTA   HL4737294  32.855  -2.185   5.818
  333XTA   HL4837295  31.933  -0.859   5.906
  333XTA   HL4937296  31.756  -0.840   5.832
  334XTA     NT37297  30.717   0.786   6.278
  334XTA    CN137298  30.589   0.750   6.267
  334XTA     C137299  30.492   0.830   6.199
  334XTA     C237300  30.359   0.788   6.198
  334XTA     C337301  30.322   0.660   6.237
  334XTA     C437302  30.423   0.573   6.291
  334XTA     C537303  30.548   0.623   6.323
  334XTA    CN237304  30.814   0.722   6.209
  334XTA     C637305  30.814   0.742   6.068
  334XTA     C737306  30.912   0.677   5.993
  334XTA     C837307  31.011   0.593   6.051
  334XTA     C937308  31.014   0.588   6.190
  334XTA    C1037309  30.924   0.655   6.266
  334XTA    CN337310  30.759   0.884   6.367
  334XTA    C1137311  30.809   1.009   6.326
  334XTA    C1237312  30.823   1.110   6.424
  334XTA    C1337313  30.798   1.079   6.558
  334XTA    C1437314  30.745   0.955   6.598
  334XTA    C1537315  30.734   0.854   6.500
  334XTA     H137316  30.522   0.926   6.151
  334XTA     H237317  30.285   0.861   6.157
  334XTA     H337318  30.391   0.475   6.307
  334XTA     H437319  30.622   0.557   6.369
  334XTA     H537320  30.734   0.794   6.022
  334XTA     H637321  30.898   0.695   5.887
  334XTA     H737322  31.095   0.540   6.242
  334XTA     H837323  30.928   0.652   6.374
  334XTA     H937324  30.820   1.020   6.220
  334XTA    H1037325  30.879   1.205   6.403
  334XTA    H1137326  30.725   0.937   6.699
  334XTA    H1237327  30.707   0.760   6.537
  334XTA    OA137328  30.184   0.633   6.225
  334XTA    CO137329  30.135   0.503   6.266
  334XTA    OA237330  31.107   0.523   5.984
  334XTA    CO237331  31.134   0.549   5.849
  334XTA    CL137332  31.271   0.471   5.829
  334XTA    CL237333  31.346   0.531   5.704
  334XTA    CL337334  31.478   0.466   5.682
  334XTA    CL437335  31.571   0.536   5.596
  334XTA    CO337336  31.702   0.458   5.584
  334XTA    OA337337  31.771   0.519   5.476
  334XTA    CO437338  31.858   0.618   5.527
  334XTA    CT137339  31.965   0.681   5.431
  334XTA    CL537340  31.898   0.772   5.326
  334XTA    CL637341  31.853   0.909   5.370
  334XTA    OA437342  30.824   1.157   6.665
  334XTA    CO537343  30.886   1.283   6.642
  334XTA    CL737344  30.934   1.338   6.780
  334XTA    CL837345  31.064   1.272   6.839
  334XTA    CL937346  31.179   1.262   6.736
  334XTA   CL1037347  31.211   1.392   6.673
  334XTA    CO637348  31.344   1.380   6.604
  334XTA    OA537349  31.326   1.327   6.477
  334XTA    CO737350  31.442   1.270   6.423
  334XTA    CT237351  31.452   1.118   6.435
  334XTA   CL1137352  31.583   1.072   6.369
  334XTA   CL1237353  31.592   0.925   6.364
  334XTA    HL137354  30.127   0.487   6.378
  334XTA    HL237355  30.034   0.488   6.219
  334XTA    HL337356  30.205   0.428   6.236
  334XTA    HL437357  31.053   0.513   5.790
  334XTA    HL537358  31.152   0.652   5.837
  334XTA    HL637359  31.253   0.365   5.820
  334XTA    HL737360  31.333   0.471   5.916
  334XTA    HL837361  31.367   0.628   5.746
  334XTA    HL937362  31.277   0.525   5.618
  334XTA   HL1037363  31.523   0.447   5.778
  334XTA   HL1137364  31.456   0.372   5.638
  334XTA   HL1237365  31.574   0.643   5.629
  334XTA   HL1337366  31.526   0.533   5.493
  334XTA   HL1437367  31.763   0.457   5.678
  334XTA   HL1537368  31.684   0.350   5.561
  334XTA   HL1637369  31.797   0.696   5.580
  334XTA   HL1737370  31.915   0.568   5.604
  334XTA   HL1837371  31.809   0.728   5.292
  334XTA   HL1937372  31.961   0.784   5.239
  334XTA   HL2037373  31.940   0.971   5.394
  334XTA   HL2137374  31.783   0.900   5.456
  334XTA   HL2237375  31.802   0.953   5.285
  334XTA   HL2337376  30.816   1.343   6.584
  334XTA   HL2437377  30.976   1.264   6.583
  334XTA   HL2537378  30.936   1.449   6.780
  334XTA   HL2637379  30.852   1.321   6.858
  334XTA   HL2737380  31.106   1.339   6.920
  334XTA   HL2837381  31.041   1.183   6.882
  334XTA   HL2937382  31.267   1.228   6.796
  334XTA   HL3037383  31.161   1.188   6.665
  334XTA   HL3137384  31.128   1.424   6.620
  334XTA   HL3237385  31.212   1.458   6.760
  334XTA   HL3337386  31.414   1.461   6.604
  334XTA   HL3437387  31.413   1.320   6.664
  334XTA   HL3537388  31.527   1.323   6.451
  334XTA   HL3637389  31.416   1.297   6.322
  334XTA   HL3737390  31.668   1.106   6.424
  334XTA   HL3837391  31.609   1.111   6.270
  334XTA   HL3937392  31.686   0.888   6.330
  334XTA   HL4037393  31.525   0.894   6.287
  334XTA   HL4137394  31.558   0.856   6.453
  334XTA    CO837395  32.044   0.569   5.363
  334XTA    CO937396  32.064   0.769   5.515
  334XTA    OA637397  32.121   0.687   5.616
  334XTA   HL4237398  31.957   0.511   5.323
  334XTA   HL4337399  32.085   0.508   5.448
  334XTA   HL4437400  31.225   1.075   6.397
  334XTA   HL4537401  31.345   0.949   6.363
  334XTA   CO1037402  31.328   1.055   6.354
  334XTA   CO1137403  31.446   1.077   6.577
  334XTA    OA737404  31.556   1.127   6.650
  334XTA   HL4637405  31.354   1.105   6.623
  334XTA   HL4737406  31.445   0.969   6.590
  334XTA   HL4837407  32.012   0.845   5.561
  334XTA   HL4937408  32.138   0.823   5.447
  335XTA     NT37409  32.962  -0.888   3.866
  335XTA    CN137410  32.936  -0.752   3.868
  335XTA     C137411  33.041  -0.654   3.849
  335XTA     C237412  33.014  -0.521   3.864
  335XTA     C337413  32.877  -0.481   3.867
  335XTA     C437414  32.780  -0.574   3.890
  335XTA     C537415  32.805  -0.712   3.896
  335XTA    CN237416  33.025  -0.943   3.973
  335XTA     C637417  32.952  -0.968   4.094
  335XTA     C737418  33.014  -1.020   4.214
  335XTA     C837419  33.149  -1.044   4.207
  335XTA     C937420  33.220  -1.039   4.083
  335XTA    C1037421  33.152  -0.997   3.963
  335XTA    CN337422  32.911  -0.968   3.768
  335XTA    C1137423  32.986  -0.986   3.648
  335XTA    C1237424  32.936  -1.057   3.536
  335XTA    C1337425  32.808  -1.114   3.546
  335XTA    C1437426  32.738  -1.103   3.673
  335XTA    C1537427  32.780  -1.020   3.783
  335XTA     H137428  33.137  -0.695   3.821
  335XTA     H237429  33.092  -0.446   3.850
  335XTA     H337430  32.678  -0.546   3.909
  335XTA     H437431  32.723  -0.781   3.913
  335XTA     H537432  32.850  -0.938   4.103
  335XTA     H637433  32.954  -1.035   4.309
  335XTA     H737434  33.324  -1.067   4.074
  335XTA     H837435  33.211  -0.989   3.875
  335XTA     H937436  33.086  -0.947   3.642
  335XTA    H1037437  32.992  -1.082   3.447
  335XTA    H1137438  32.636  -1.138   3.680
  335XTA    H1237439  32.717  -1.019   3.871
  335XTA    OA137440  32.838  -0.349   3.856
  335XTA    CO137441  32.934  -0.242   3.878
  335XTA    OA237442  33.211  -1.081   4.327
  335XTA    CO237443  33.340  -1.141   4.319
  335XTA    CL137444  33.381  -1.195   4.455
  335XTA    CL237445  33.332  -1.339   4.487
  335XTA    CL337446  33.425  -1.408   4.577
  335XTA    CL437447  33.425  -1.353   4.728
  335XTA    CO337448  33.527  -1.432   4.814
  335XTA    OA337449  33.652  -1.421   4.748
  335XTA    CO437450  33.756  -1.505   4.790
  335XTA    CT137451  33.866  -1.494   4.682
  335XTA    CL537452  33.985  -1.585   4.704
  335XTA    CL637453  34.097  -1.590   4.592
  335XTA    OA437454  32.761  -1.180   3.433
  335XTA    CO537455  32.623  -1.168   3.422
  335XTA    CL737456  32.588  -1.195   3.270
  335XTA    CL837457  32.433  -1.172   3.243
  335XTA    CL937458  32.366  -1.040   3.285
  335XTA   CL1037459  32.432  -0.921   3.212
  335XTA    CO637460  32.353  -0.793   3.247
  335XTA    OA537461  32.446  -0.690   3.206
  335XTA    CO737462  32.441  -0.660   3.066
  335XTA    CT237463  32.571  -0.578   3.034
  335XTA   CL1137464  32.686  -0.659   3.085
  335XTA   CL1237465  32.830  -0.605   3.070
  335XTA    HL137466  32.886  -0.146   3.875
  335XTA    HL237467  32.982  -0.259   3.971
  335XTA    HL337468  33.017  -0.216   3.803
  335XTA    HL437469  33.327  -1.223   4.253
  335XTA    HL537470  33.408  -1.074   4.269
  335XTA    HL637471  33.347  -1.122   4.528
  335XTA    HL737472  33.483  -1.198   4.471
  335XTA    HL837473  33.340  -1.398   4.396
  335XTA    HL937474  33.224  -1.337   4.520
  335XTA   HL1037475  33.420  -1.518   4.561
  335XTA   HL1137476  33.522  -1.400   4.538
  335XTA   HL1237477  33.322  -1.356   4.775
  335XTA   HL1337478  33.461  -1.254   4.733
  335XTA   HL1437479  33.530  -1.380   4.907
  335XTA   HL1537480  33.504  -1.535   4.843
  335XTA   HL1637481  33.785  -1.498   4.894
  335XTA   HL1737482  33.717  -1.614   4.789
  335XTA   HL1837483  33.943  -1.681   4.733
  335XTA   HL1937484  34.046  -1.551   4.791
  335XTA   HL2037485  34.042  -1.635   4.509
  335XTA   HL2137486  34.179  -1.656   4.626
  335XTA   HL2237487  34.140  -1.490   4.574
  335XTA   HL2337488  32.579  -1.071   3.458
  335XTA   HL2437489  32.570  -1.248   3.480
  335XTA   HL2537490  32.637  -1.121   3.203
  335XTA   HL2637491  32.608  -1.297   3.236
  335XTA   HL2737492  32.417  -1.184   3.141
  335XTA   HL2837493  32.385  -1.253   3.295
  335XTA   HL2937494  32.258  -1.043   3.259
  335XTA   HL3037495  32.365  -1.025   3.392
  335XTA   HL3137496  32.536  -0.920   3.248
  335XTA   HL3237497  32.425  -0.935   3.107
  335XTA   HL3337498  32.249  -0.793   3.210
  335XTA   HL3437499  32.356  -0.788   3.354
  335XTA   HL3537500  32.354  -0.594   3.046
  335XTA   HL3637501  32.428  -0.750   3.009
  335XTA   HL3737502  32.684  -0.764   3.050
  335XTA   HL3837503  32.675  -0.682   3.191
  335XTA   HL3937504  32.862  -0.627   2.964
  335XTA   HL4037505  32.897  -0.652   3.129
  335XTA   HL4137506  32.820  -0.504   3.089
  335XTA    CO837507  33.914  -1.346   4.692
  335XTA    CO937508  33.808  -1.512   4.542
  335XTA    OA637509  33.787  -1.624   4.534
  335XTA   HL4237510  33.980  -1.329   4.603
  335XTA   HL4337511  33.809  -1.251   4.674
  335XTA   HL4437512  32.461  -0.407   3.076
  335XTA   HL4537513  32.563  -0.442   3.212
  335XTA   CO1037514  32.555  -0.444   3.101
  335XTA   CO1137515  32.575  -0.560   2.882
  335XTA    OA737516  32.654  -0.354   3.058
  335XTA   HL4637517  32.670  -0.514   2.864
  335XTA   HL4737518  32.497  -0.487   2.864
  335XTA   HL4837519  33.868  -1.469   4.458
  335XTA   HL4937520  33.712  -1.457   4.532
  336XTA     NT37521  30.422  -1.469  -0.010
  336XTA    CN137522  30.468  -1.379   0.081
  336XTA     C137523  30.382  -1.319   0.177
  336XTA     C237524  30.438  -1.249   0.282
  336XTA     C337525  30.581  -1.236   0.295
  336XTA     C437526  30.667  -1.296   0.195
  336XTA     C537527  30.609  -1.365   0.086
  336XTA    CN237528  30.308  -1.439  -0.068
  336XTA     C637529  30.198  -1.518  -0.041
  336XTA     C737530  30.069  -1.483  -0.093
  336XTA     C837531  30.050  -1.365  -0.161
  336XTA     C937532  30.166  -1.278  -0.192
  336XTA    C1037533  30.295  -1.321  -0.150
  336XTA    CN337534  30.496  -1.575  -0.055
  336XTA    C1137535  30.507  -1.692   0.032
  336XTA    C1237536  30.591  -1.800  -0.006
  336XTA    C1337537  30.666  -1.798  -0.124
  336XTA    C1437538  30.644  -1.690  -0.213
  336XTA    C1537539  30.562  -1.576  -0.176
  336XTA     H137540  30.270  -1.324   0.181
  336XTA     H237541  30.368  -1.198   0.347
  336XTA     H337542  30.774  -1.290   0.206
  336XTA     H437543  30.677  -1.405   0.010
  336XTA     H537544  30.215  -1.616   0.007
  336XTA     H637545  29.988  -1.555  -0.088
  336XTA     H737546  30.156  -1.187  -0.247
  336XTA     H837547  30.384  -1.264  -0.162
  336XTA     H937548  30.452  -1.692   0.126
  336XTA    H1037549  30.601  -1.872   0.068
  336XTA    H1137550  30.702  -1.685  -0.304
  336XTA    H1237551  30.549  -1.486  -0.240
  336XTA    OA137552  30.641  -1.148   0.385
  336XTA    CO137553  30.549  -1.078   0.474
  336XTA    OA237554  29.918  -1.341  -0.200
  336XTA    CO237555  29.856  -1.241  -0.125
  336XTA    CL137556  29.776  -1.144  -0.220
  336XTA    CL237557  29.689  -1.040  -0.150
  336XTA    CL337558  29.556  -1.097  -0.086
  336XTA    CL437559  29.429  -1.106  -0.183
  336XTA    CO337560  29.428  -1.213  -0.296
  336XTA    OA337561  29.430  -1.341  -0.240
  336XTA    CO437562  29.455  -1.451  -0.328
  336XTA    CT137563  29.448  -1.587  -0.239
  336XTA    CL537564  29.329  -1.601  -0.140
  336XTA    CL637565  29.192  -1.576  -0.200
  336XTA    OA437566  30.750  -1.899  -0.157
  336XTA    CO537567  30.775  -2.001  -0.059
  336XTA    CL737568  30.873  -2.103  -0.112
  336XTA    CL837569  30.803  -2.198  -0.209
  336XTA    CL937570  30.885  -2.257  -0.326
  336XTA   CL1037571  30.937  -2.151  -0.424
  336XTA    CO637572  30.827  -2.102  -0.527
  336XTA    OA537573  30.868  -1.988  -0.597
  336XTA    CO737574  30.773  -1.941  -0.691
  336XTA    CT237575  30.692  -1.827  -0.636
  336XTA   CL1137576  30.795  -1.723  -0.610
  336XTA   CL1237577  30.738  -1.580  -0.592
  336XTA    HL137578  30.494  -1.155   0.533
  336XTA    HL237579  30.609  -1.012   0.537
  336XTA    HL337580  30.478  -1.005   0.424
  336XTA    HL437581  29.789  -1.289  -0.057
  336XTA    HL537582  29.925  -1.178  -0.070
  336XTA    HL637583  29.718  -1.207  -0.280
  336XTA    HL737584  29.853  -1.091  -0.278
  336XTA    HL837585  29.662  -0.953  -0.215
  336XTA    HL937586  29.766  -1.008  -0.075
  336XTA   HL1037587  29.573  -1.204  -0.059
  336XTA   HL1137588  29.534  -1.033   0.001
  336XTA   HL1237589  29.415  -1.010  -0.226
  336XTA   HL1337590  29.340  -1.131  -0.119
  336XTA   HL1437591  29.335  -1.194  -0.344
  336XTA   HL1537592  29.506  -1.194  -0.367
  336XTA   HL1637593  29.382  -1.455  -0.403
  336XTA   HL1737594  29.561  -1.441  -0.373
  336XTA   HL1837595  29.356  -1.523  -0.073
  336XTA   HL1937596  29.326  -1.690  -0.084
  336XTA   HL2037597  29.178  -1.473  -0.233
  336XTA   HL2137598  29.113  -1.586  -0.127
  336XTA   HL2237599  29.189  -1.640  -0.289
  336XTA   HL2337600  30.677  -2.055  -0.027
  336XTA   HL2437601  30.813  -1.948   0.026
  336XTA   HL2537602  30.950  -2.036  -0.156
  336XTA   HL2637603  30.911  -2.168  -0.028
  336XTA   HL2737604  30.757  -2.275  -0.152
  336XTA   HL2837605  30.719  -2.143  -0.257
  336XTA   HL2937606  30.970  -2.308  -0.279
  336XTA   HL3037607  30.816  -2.319  -0.380
  336XTA   HL3137608  30.970  -2.073  -0.354
  336XTA   HL3237609  31.019  -2.191  -0.488
  336XTA   HL3337610  30.804  -2.187  -0.596
  336XTA   HL3437611  30.740  -2.078  -0.467
  336XTA   HL3537612  30.706  -2.018  -0.740
  336XTA   HL3637613  30.834  -1.897  -0.774
  336XTA   HL3737614  30.866  -1.721  -0.699
  336XTA   HL3837615  30.845  -1.727  -0.515
  336XTA   HL3937616  30.811  -1.504  -0.567
  336XTA   HL4037617  30.670  -1.592  -0.506
  336XTA   HL4137618  30.683  -1.554  -0.683
  336XTA    CO837619  29.583  -1.594  -0.166
  336XTA    CO937620  29.454  -1.705  -0.341
  336XTA    OA637621  29.438  -1.831  -0.278
  336XTA   HL4237622  29.656  -1.629  -0.237
  336XTA   HL4337623  29.611  -1.492  -0.127
  336XTA   HL4437624  30.558  -1.771  -0.457
  336XTA   HL4537625  30.683  -1.914  -0.407
  336XTA   CO1037626  30.602  -1.859  -0.509
  336XTA   CO1137627  30.586  -1.778  -0.743
  336XTA    OA737628  30.638  -1.754  -0.836
  336XTA   HL4637629  30.532  -1.868  -0.754
  336XTA   HL4737630  30.511  -1.702  -0.721
  336XTA   HL4837631  29.543  -1.700  -0.395
  336XTA   HL4937632  29.377  -1.700  -0.410
  337XTA     NT37633  30.181  -0.071   1.503
  337XTA    CN137634  30.068   0.003   1.516
  337XTA     C137635  30.040   0.040   1.653
  337XTA     C237636  29.916   0.104   1.684
  337XTA     C337637  29.822   0.138   1.584
  337XTA     C437638  29.853   0.101   1.447
  337XTA     C537639  29.975   0.038   1.409
  337XTA    CN237640  30.277  -0.029   1.424
  337XTA     C637641  30.304  -0.101   1.305
  337XTA     C737642  30.395  -0.047   1.209
  337XTA     C837643  30.470   0.072   1.242
  337XTA     C937644  30.435   0.142   1.360
  337XTA    C1037645  30.342   0.095   1.453
  337XTA    CN337646  30.187  -0.190   1.555
  337XTA    C1137647  30.111  -0.294   1.501
  337XTA    C1237648  30.110  -0.419   1.559
  337XTA    C1337649  30.202  -0.453   1.660
  337XTA    C1437650  30.284  -0.349   1.713
  337XTA    C1537651  30.276  -0.220   1.663
  337XTA     H137652  30.100   0.016   1.732
  337XTA     H237653  29.898   0.122   1.795
  337XTA     H337654  29.786   0.120   1.369
  337XTA     H437655  29.986  -0.007   1.305
  337XTA     H537656  30.248  -0.192   1.287
  337XTA     H637657  30.410  -0.102   1.123
  337XTA     H737658  30.492   0.229   1.386
  337XTA     H837659  30.314   0.155   1.543
  337XTA     H937660  30.047  -0.280   1.412
  337XTA    H1037661  30.042  -0.487   1.523
  337XTA    H1137662  30.357  -0.367   1.795
  337XTA    H1237663  30.332  -0.142   1.700
  337XTA    OA137664  29.702   0.206   1.628
  337XTA    CO137665  29.595   0.228   1.536
  337XTA    OA237666  30.560   0.127   1.144
  337XTA    CO237667  30.523   0.112   1.010
  337XTA    CL137668  30.567   0.231   0.927
  337XTA    CL237669  30.513   0.223   0.785
  337XTA    CL337670  30.582   0.340   0.711
  337XTA    CL437671  30.529   0.358   0.562
  337XTA    CO337672  30.379   0.397   0.558
  337XTA    OA337673  30.367   0.519   0.631
  337XTA    CO437674  30.248   0.527   0.715
  337XTA    CT137675  30.251   0.675   0.763
  337XTA    CL537676  30.234   0.774   0.647
  337XTA    CL637677  30.345   0.796   0.542
  337XTA    OA437678  30.196  -0.573   1.724
  337XTA    CO537679  30.070  -0.601   1.796
  337XTA    CL737680  30.092  -0.738   1.861
  337XTA    CL837681  30.076  -0.850   1.763
  337XTA    CL937682  30.183  -0.864   1.660
  337XTA   CL1037683  30.169  -0.982   1.561
  337XTA    CO637684  30.148  -1.115   1.626
  337XTA    OA537685  30.137  -1.202   1.513
  337XTA    CO737686  30.005  -1.229   1.477
  337XTA    CT237687  29.995  -1.265   1.334
  337XTA   CL1137688  29.860  -1.331   1.307
  337XTA   CL1237689  29.814  -1.456   1.378
  337XTA    HL137690  29.569   0.134   1.485
  337XTA    HL237691  29.515   0.268   1.598
  337XTA    HL337692  29.624   0.310   1.468
  337XTA    HL437693  30.558   0.012   0.979
  337XTA    HL537694  30.414   0.094   0.997
  337XTA    HL637695  30.670   0.237   0.925
  337XTA    HL737696  30.533   0.330   0.965
  337XTA    HL837697  30.406   0.232   0.778
  337XTA    HL937698  30.537   0.129   0.738
  337XTA   HL1037699  30.572   0.432   0.761
  337XTA   HL1137700  30.686   0.323   0.709
  337XTA   HL1237701  30.554   0.265   0.504
  337XTA   HL1337702  30.587   0.435   0.513
  337XTA   HL1437703  30.365   0.404   0.449
  337XTA   HL1537704  30.306   0.317   0.595
  337XTA   HL1637705  30.158   0.513   0.651
  337XTA   HL1737706  30.236   0.442   0.786
  337XTA   HL1837707  30.208   0.876   0.692
  337XTA   HL1937708  30.145   0.754   0.588
  337XTA   HL2037709  30.341   0.904   0.505
  337XTA   HL2137710  30.319   0.730   0.466
  337XTA   HL2237711  30.447   0.781   0.579
  337XTA   HL2337712  29.984  -0.602   1.721
  337XTA   HL2437713  30.051  -0.526   1.867
  337XTA   HL2537714  30.192  -0.736   1.903
  337XTA   HL2637715  30.022  -0.753   1.942
  337XTA   HL2737716  30.055  -0.940   1.808
  337XTA   HL2837717  29.987  -0.815   1.714
  337XTA   HL2937718  30.179  -0.781   1.595
  337XTA   HL3037719  30.293  -0.862   1.694
  337XTA   HL3137720  30.085  -0.961   1.498
  337XTA   HL3237721  30.258  -0.981   1.497
  337XTA   HL3337722  30.235  -1.144   1.686
  337XTA   HL3437723  30.064  -1.110   1.686
  337XTA   HL3537724  29.945  -1.146   1.490
  337XTA   HL3637725  29.969  -1.314   1.542
  337XTA   HL3737726  29.838  -1.341   1.200
  337XTA   HL3837727  29.788  -1.252   1.323
  337XTA   HL3937728  29.710  -1.465   1.349
  337XTA   HL4037729  29.830  -1.458   1.486
  337XTA   HL4137730  29.865  -1.548   1.346
  337XTA    CO837731  30.379   0.707   0.837
  337XTA    CO937732  30.126   0.693   0.850
  337XTA    OA637733  30.363   0.825   0.915
  337XTA   HL4237734  30.463   0.715   0.772
  337XTA   HL4337735  30.398   0.632   0.909
  337XTA   HL4437736  30.054  -1.385   1.146
  337XTA   HL4537737  30.201  -1.343   1.285
  337XTA   CO1037738  30.093  -1.373   1.279
  337XTA   CO1137739  30.023  -1.134   1.254
  337XTA    OA737740  29.938  -1.065   1.265
  337XTA   HL4637741  30.109  -1.082   1.297
  337XTA   HL4737742  30.034  -1.159   1.148
  337XTA   HL4837743  30.033   0.676   0.793
  337XTA   HL4937744  30.124   0.801   0.881
  338XTA     NT37745  33.565   1.979   4.404
  338XTA    CN137746  33.677   2.053   4.417
  338XTA     C137747  33.722   2.122   4.303
  338XTA     C237748  33.837   2.204   4.314
  338XTA     C337749  33.895   2.231   4.441
  338XTA     C437750  33.853   2.155   4.551
  338XTA     C537751  33.742   2.075   4.541
  338XTA    CN237752  33.541   1.896   4.302
  338XTA     C637753  33.448   1.940   4.210
  338XTA     C737754  33.395   1.857   4.111
  338XTA     C837755  33.438   1.721   4.105
  338XTA     C937756  33.536   1.680   4.196
  338XTA    C1037757  33.595   1.765   4.295
  338XTA    CN337758  33.460   1.993   4.489
  338XTA    C1137759  33.408   2.119   4.523
  338XTA    C1237760  33.324   2.135   4.633
  338XTA    C1337761  33.295   2.023   4.714
  338XTA    C1437762  33.348   1.895   4.678
  338XTA    C1537763  33.433   1.886   4.569
  338XTA     H137764  33.675   2.112   4.209
  338XTA     H237765  33.886   2.244   4.224
  338XTA     H337766  33.899   2.160   4.645
  338XTA     H437767  33.701   2.011   4.619
  338XTA     H537768  33.397   2.033   4.218
  338XTA     H637769  33.316   1.900   4.043
  338XTA     H737770  33.574   1.587   4.208
  338XTA     H837771  33.659   1.713   4.361
  338XTA     H937772  33.440   2.206   4.472
  338XTA    H1037773  33.287   2.243   4.651
  338XTA    H1137774  33.314   1.800   4.718
  338XTA    H1237775  33.468   1.789   4.534
  338XTA    OA137776  34.000   2.313   4.469
  338XTA    CO137777  34.069   2.360   4.361
  338XTA    OA237778  33.388   1.635   4.005
  338XTA    CO237779  33.368   1.499   4.048
  338XTA    CL137780  33.248   1.496   4.143
  338XTA    CL237781  33.270   1.526   4.296
  338XTA    CL337782  33.145   1.499   4.376
  338XTA    CL437783  33.160   1.547   4.519
  338XTA    CO337784  33.030   1.533   4.605
  338XTA    OA337785  32.923   1.597   4.540
  338XTA    CO437786  32.794   1.549   4.587
  338XTA    CT137787  32.688   1.569   4.470
  338XTA    CL537788  32.700   1.713   4.415
  338XTA    CL637789  32.683   1.829   4.506
  338XTA    OA437790  33.244   2.043   4.841
  338XTA    CO537791  33.153   1.944   4.893
  338XTA    CL737792  33.089   1.995   5.029
  338XTA    CL837793  32.950   2.062   5.009
  338XTA    CL937794  32.913   2.174   4.907
  338XTA   CL1037795  32.980   2.297   4.950
  338XTA    CO637796  32.936   2.422   4.881
  338XTA    OA537797  32.990   2.536   4.947
  338XTA    CO737798  33.111   2.578   4.879
  338XTA    CT237799  33.192   2.682   4.961
  338XTA   CL1137800  33.100   2.798   4.982
  338XTA   CL1237801  33.169   2.931   5.029
  338XTA    HL137802  34.137   2.440   4.393
  338XTA    HL237803  34.138   2.283   4.326
  338XTA    HL337804  34.011   2.400   4.284
  338XTA    HL437805  33.358   1.431   3.962
  338XTA    HL537806  33.455   1.464   4.095
  338XTA    HL637807  33.202   1.399   4.135
  338XTA    HL737808  33.168   1.554   4.092
  338XTA    HL837809  33.296   1.631   4.306
  338XTA    HL937810  33.351   1.453   4.329
  338XTA   HL1037811  33.061   1.558   4.337
  338XTA   HL1137812  33.112   1.392   4.379
  338XTA   HL1237813  33.190   1.656   4.522
  338XTA   HL1337814  33.228   1.486   4.567
  338XTA   HL1437815  33.009   1.425   4.610
  338XTA   HL1537816  33.042   1.564   4.711
  338XTA   HL1637817  32.797   1.442   4.631
  338XTA   HL1737818  32.775   1.612   4.669
  338XTA   HL1837819  32.620   1.721   4.334
  338XTA   HL1937820  32.801   1.713   4.375
  338XTA   HL2037821  32.728   1.915   4.462
  338XTA   HL2137822  32.728   1.811   4.611
  338XTA   HL2237823  32.577   1.845   4.523
  338XTA   HL2337824  33.216   1.853   4.917
  338XTA   HL2437825  33.072   1.916   4.835
  338XTA   HL2537826  33.084   1.907   5.093
  338XTA   HL2637827  33.159   2.055   5.086
  338XTA   HL2737828  32.891   1.975   4.981
  338XTA   HL2837829  32.917   2.092   5.114
  338XTA   HL2937830  32.938   2.136   4.814
  338XTA   HL3037831  32.803   2.183   4.900
  338XTA   HL3137832  32.967   2.318   5.055
  338XTA   HL3237833  33.086   2.289   4.948
  338XTA   HL3337834  32.958   2.426   4.778
  338XTA   HL3437835  32.826   2.427   4.882
  338XTA   HL3537836  33.069   2.627   4.787
  338XTA   HL3637837  33.173   2.496   4.845
  338XTA   HL3737838  33.020   2.756   5.049
  338XTA   HL3837839  33.040   2.816   4.893
  338XTA   HL3937840  33.094   3.007   5.053
  338XTA   HL4037841  33.223   2.970   4.946
  338XTA   HL4137842  33.231   2.903   5.114
  338XTA    CO837843  32.540   1.551   4.507
  338XTA    CO937844  32.721   1.464   4.366
  338XTA    OA637845  32.509   1.429   4.576
  338XTA   HL4237846  32.474   1.570   4.419
  338XTA   HL4337847  32.518   1.632   4.580
  338XTA   HL4437848  33.267   2.755   4.775
  338XTA   HL4537849  33.370   2.792   4.912
  338XTA   CO1037850  33.312   2.715   4.864
  338XTA   CO1137851  33.267   2.632   5.089
  338XTA    OA737852  33.178   2.628   5.200
  338XTA   HL4637853  33.306   2.534   5.069
  338XTA   HL4737854  33.344   2.704   5.125
  338XTA   HL4837855  32.834   1.462   4.357
  338XTA   HL4937856  32.702   1.364   4.405
  339XTA     NT37857  31.503  -1.647   2.248
  339XTA    CN137858  31.627  -1.610   2.267
  339XTA     C137859  31.663  -1.490   2.203
  339XTA     C237860  31.796  -1.451   2.191
  339XTA     C337861  31.899  -1.536   2.243
  339XTA     C437862  31.866  -1.655   2.305
  339XTA     C537863  31.728  -1.694   2.308
  339XTA    CN237864  31.419  -1.629   2.348
  339XTA     C637865  31.288  -1.593   2.322
  339XTA     C737866  31.198  -1.560   2.421
  339XTA     C837867  31.240  -1.571   2.557
  339XTA     C937868  31.371  -1.616   2.587
  339XTA    C1037869  31.460  -1.646   2.482
  339XTA    CN337870  31.474  -1.728   2.142
  339XTA    C1137871  31.485  -1.865   2.151
  339XTA    C1237872  31.442  -1.935   2.039
  339XTA    C1337873  31.409  -1.879   1.917
  339XTA    C1437874  31.407  -1.743   1.910
  339XTA    C1537875  31.441  -1.662   2.021
  339XTA     H137876  31.587  -1.412   2.175
  339XTA     H237877  31.816  -1.363   2.136
  339XTA     H337878  31.935  -1.728   2.342
  339XTA     H437879  31.699  -1.790   2.350
  339XTA     H537880  31.261  -1.583   2.215
  339XTA     H637881  31.096  -1.537   2.399
  339XTA     H737882  31.410  -1.622   2.687
  339XTA     H837883  31.563  -1.671   2.499
  339XTA     H937884  31.521  -1.921   2.235
  339XTA    H1037885  31.437  -2.045   2.046
  339XTA    H1137886  31.377  -1.697   1.812
  339XTA    H1237887  31.442  -1.552   2.013
  339XTA    OA137888  32.027  -1.499   2.236
  339XTA    CO137889  32.126  -1.600   2.251
  339XTA    OA237890  31.150  -1.557   2.658
  339XTA    CO237891  31.206  -1.530   2.794
  339XTA    CL137892  31.099  -1.475   2.881
  339XTA    CL237893  31.110  -1.498   3.030
  339XTA    CL337894  30.974  -1.517   3.096
  339XTA    CL437895  30.963  -1.497   3.248
  339XTA    CO337896  30.821  -1.472   3.288
  339XTA    OA337897  30.756  -1.592   3.241
  339XTA    CO437898  30.615  -1.583   3.248
  339XTA    CT137899  30.561  -1.721   3.199
  339XTA    CL537900  30.636  -1.782   3.083
  339XTA    CL637901  30.654  -1.696   2.962
  339XTA    OA437902  31.387  -1.949   1.803
  339XTA    CO537903  31.417  -2.087   1.807
  339XTA    CL737904  31.395  -2.153   1.671
  339XTA    CL837905  31.247  -2.203   1.637
  339XTA    CL937906  31.142  -2.090   1.639
  339XTA   CL1037907  30.999  -2.123   1.606
  339XTA    CO637908  30.918  -1.997   1.620
  339XTA    OA537909  30.781  -2.009   1.613
  339XTA    CO737910  30.697  -1.886   1.623
  339XTA    CT237911  30.555  -1.925   1.660
  339XTA   CL1137912  30.558  -2.002   1.796
  339XTA   CL1237913  30.563  -1.918   1.923
  339XTA    HL137914  32.229  -1.555   2.236
  339XTA    HL237915  32.121  -1.640   2.353
  339XTA    HL337916  32.109  -1.673   2.171
  339XTA    HL437917  31.241  -1.614   2.848
  339XTA    HL537918  31.283  -1.457   2.785
  339XTA    HL637919  31.005  -1.533   2.853
  339XTA    HL737920  31.066  -1.370   2.863
  339XTA    HL837921  31.147  -1.400   3.076
  339XTA    HL937922  31.178  -1.584   3.045
  339XTA   HL1037923  30.910  -1.447   3.042
  339XTA   HL1137924  30.942  -1.614   3.062
  339XTA   HL1237925  31.027  -1.418   3.286
  339XTA   HL1337926  30.995  -1.594   3.298
  339XTA   HL1437927  30.804  -1.468   3.395
  339XTA   HL1537928  30.780  -1.383   3.242
  339XTA   HL1637929  30.578  -1.557   3.342
  339XTA   HL1737930  30.578  -1.508   3.183
  339XTA   HL1837931  30.588  -1.872   3.055
  339XTA   HL1937932  30.740  -1.808   3.113
  339XTA   HL2037933  30.702  -1.600   2.986
  339XTA   HL2137934  30.558  -1.690   2.916
  339XTA   HL2237935  30.711  -1.734   2.880
  339XTA   HL2337936  31.361  -2.135   1.883
  339XTA   HL2437937  31.524  -2.102   1.831
  339XTA   HL2537938  31.423  -2.083   1.592
  339XTA   HL2637939  31.449  -2.250   1.668
  339XTA   HL2737940  31.257  -2.256   1.542
  339XTA   HL2837941  31.209  -2.280   1.710
  339XTA   HL2937942  31.143  -2.042   1.739
  339XTA   HL3037943  31.177  -2.015   1.570
  339XTA   HL3137944  30.992  -2.160   1.507
  339XTA   HL3237945  30.964  -2.196   1.681
  339XTA   HL3337946  30.936  -1.952   1.717
  339XTA   HL3437947  30.958  -1.920   1.553
  339XTA   HL3537948  30.702  -1.822   1.537
  339XTA   HL3637949  30.741  -1.837   1.703
  339XTA   HL3737950  30.644  -2.075   1.797
  339XTA   HL3837951  30.475  -2.075   1.799
  339XTA   HL3937952  30.560  -1.980   2.009
  339XTA   HL4037953  30.493  -1.838   1.915
  339XTA   HL4137954  30.663  -1.865   1.928
  339XTA    CO837955  30.406  -1.718   3.170
  339XTA    CO937956  30.562  -1.819   3.318
  339XTA    OA637957  30.667  -1.815   3.367
  339XTA   HL4237958  30.376  -1.824   3.159
  339XTA   HL4337959  30.346  -1.673   3.280
  339XTA   HL4437960  30.562  -2.104   1.545
  339XTA   HL4537961  30.476  -1.977   1.456
  339XTA   CO1037962  30.493  -2.028   1.555
  339XTA   CO1137963  30.469  -1.804   1.680
  339XTA    OA737964  30.462  -1.736   1.555
  339XTA   HL4637965  30.381  -1.834   1.733
  339XTA   HL4737966  30.516  -1.735   1.746
  339XTA   HL4837967  30.529  -1.916   3.285
  339XTA   HL4937968  30.499  -1.769   3.393
  340XTA     NT37969  31.617   2.365   4.080
  340XTA    CN137970  31.494   2.356   4.029
  340XTA     C137971  31.407   2.469   4.035
  340XTA     C237972  31.274   2.461   3.996
  340XTA     C337973  31.221   2.334   3.961
  340XTA     C437974  31.301   2.217   3.964
  340XTA     C537975  31.438   2.234   3.982
  340XTA    CN237976  31.715   2.402   4.002
  340XTA     C637977  31.709   2.535   3.949
  340XTA     C737978  31.822   2.587   3.882
  340XTA     C837979  31.919   2.502   3.837
  340XTA     C937980  31.926   2.368   3.878
  340XTA    C1037981  31.820   2.317   3.969
  340XTA    CN337982  31.638   2.334   4.209
  340XTA    C1137983  31.704   2.426   4.284
  340XTA    C1237984  31.718   2.412   4.422
  340XTA    C1337985  31.664   2.294   4.485
  340XTA    C1437986  31.620   2.190   4.408
  340XTA    C1537987  31.600   2.218   4.272
  340XTA     H137988  31.438   2.572   4.062
  340XTA     H237989  31.220   2.554   3.998
  340XTA     H337990  31.262   2.123   3.949
  340XTA     H437991  31.505   2.151   3.989
  340XTA     H537992  31.618   2.593   3.974
  340XTA     H637993  31.827   2.688   3.853
  340XTA     H737994  32.012   2.311   3.843
  340XTA     H837995  31.823   2.219   4.018
  340XTA     H937996  31.747   2.507   4.238
  340XTA    H1037997  31.767   2.497   4.477
  340XTA    H1137998  31.588   2.099   4.459
  340XTA    H1237999  31.538   2.144   4.230
  340XTA    OA138000  31.087   2.311   3.951
  340XTA    CO138001  31.000   2.422   3.940
  340XTA    OA238002  32.006   2.546   3.736
  340XTA    CO238003  31.976   2.644   3.640
  340XTA    CL138004  31.896   2.566   3.540
  340XTA    CL238005  31.880   2.639   3.407
  340XTA    CL338006  31.783   2.576   3.308
  340XTA    CL438007  31.853   2.469   3.229
  340XTA    CO338008  31.790   2.428   3.096
  340XTA    OA338009  31.662   2.379   3.116
  340XTA    CO438010  31.612   2.352   2.983
  340XTA    CT138011  31.475   2.292   2.998
  340XTA    CL538012  31.399   2.270   2.861
  340XTA    CL638013  31.417   2.387   2.767
  340XTA    OA438014  31.667   2.284   4.629
  340XTA    CO538015  31.533   2.311   4.668
  340XTA    CL738016  31.518   2.300   4.822
  340XTA    CL838017  31.369   2.309   4.886
  340XTA    CL938018  31.299   2.166   4.877
  340XTA   CL1038019  31.334   2.070   4.990
  340XTA    CO638020  31.355   1.923   4.953
  340XTA    OA538021  31.461   1.938   4.866
  340XTA    CO738022  31.486   1.807   4.812
  340XTA    CT238023  31.520   1.816   4.659
  340XTA   CL1138024  31.529   1.675   4.596
  340XTA   CL1238025  31.399   1.585   4.610
  340XTA    HL138026  30.898   2.385   3.945
  340XTA    HL238027  31.014   2.494   4.018
  340XTA    HL338028  31.028   2.474   3.854
  340XTA    HL438029  31.934   2.734   3.669
  340XTA    HL538030  32.069   2.674   3.591
  340XTA    HL638031  31.799   2.539   3.572
  340XTA    HL738032  31.943   2.473   3.518
  340XTA    HL838033  31.978   2.651   3.362
  340XTA    HL938034  31.848   2.744   3.416
  340XTA   HL1038035  31.685   2.543   3.351
  340XTA   HL1138036  31.763   2.658   3.237
  340XTA   HL1238037  31.857   2.381   3.295
  340XTA   HL1338038  31.950   2.497   3.212
  340XTA   HL1438039  31.783   2.525   3.045
  340XTA   HL1538040  31.854   2.358   3.051
  340XTA   HL1638041  31.604   2.441   2.920
  340XTA   HL1738042  31.678   2.284   2.927
  340XTA   HL1838043  31.296   2.260   2.876
  340XTA   HL1938044  31.430   2.175   2.812
  340XTA   HL2038045  31.425   2.481   2.820
  340XTA   HL2138046  31.319   2.388   2.705
  340XTA   HL2238047  31.510   2.382   2.710
  340XTA   HL2338048  31.463   2.249   4.621
  340XTA   HL2438049  31.506   2.411   4.630
  340XTA   HL2538050  31.574   2.215   4.852
  340XTA   HL2638051  31.586   2.377   4.858
  340XTA   HL2738052  31.382   2.349   4.990
  340XTA   HL2838053  31.310   2.386   4.844
  340XTA   HL2938054  31.197   2.194   4.896
  340XTA   HL3038055  31.317   2.124   4.773
  340XTA   HL3138056  31.417   2.115   5.045
  340XTA   HL3238057  31.252   2.092   5.057
  340XTA   HL3338058  31.382   1.861   5.037
  340XTA   HL3438059  31.263   1.882   4.903
  340XTA   HL3538060  31.399   1.742   4.831
  340XTA   HL3638061  31.577   1.757   4.857
  340XTA   HL3738062  31.614   1.629   4.642
  340XTA   HL3838063  31.558   1.672   4.489
  340XTA   HL3938064  31.411   1.498   4.540
  340XTA   HL4038065  31.299   1.627   4.597
  340XTA   HL4138066  31.391   1.530   4.712
  340XTA    CO838067  31.391   2.383   3.088
  340XTA    CO938068  31.471   2.160   3.073
  340XTA    OA638069  31.284   2.377   3.081
  340XTA   HL4238070  31.424   2.482   3.076
  340XTA   HL4338071  31.419   2.358   3.184
  340XTA   HL4438072  31.639   2.017   4.707
  340XTA   HL4538073  31.663   1.918   4.541
  340XTA   CO1038074  31.648   1.893   4.641
  340XTA   CO1138075  31.411   1.889   4.587
  340XTA    OA738076  31.405   1.877   4.480
  340XTA   HL4638077  31.322   1.836   4.616
  340XTA   HL4738078  31.414   1.994   4.618
  340XTA   HL4838079  31.503   2.188   3.206
  340XTA   HL4938080  31.370   2.120   3.078
  341XTH     NT38081  33.105   2.320   3.976
  341XTH    CN138082  33.070   2.221   4.065
  341XTH     C138083  32.958   2.139   4.049
  341XTH     C238084  32.928   2.034   4.135
  341XTH     C338085  33.006   2.015   4.246
  341XTH     C438086  33.128   2.093   4.268
  341XTH     C538087  33.162   2.191   4.170
  341XTH    CN238088  33.206   2.297   3.889
  341XTH     C638089  33.212   2.171   3.825
  341XTH     C738090  33.312   2.137   3.726
  341XTH     C838091  33.388   2.246   3.681
  341XTH     C938092  33.381   2.369   3.749
  341XTH    C1038093  33.290   2.396   3.847
  341XTH    CN338094  33.036   2.438   3.979
  341XTH    C1138095  33.089   2.544   4.054
  341XTH    C1238096  33.029   2.668   4.056
  341XTH    C1338097  32.913   2.693   3.975
  341XTH    C1438098  32.871   2.591   3.891
  341XTH    C1538099  32.933   2.465   3.888
  341XTH     H138100  32.880   2.165   3.977
  341XTH     H238101  32.839   1.979   4.116
  341XTH     H338102  33.182   2.081   4.359
  341XTH     H438103  33.252   2.247   4.191
  341XTH     H538104  33.141   2.100   3.859
  341XTH     H638105  33.335   2.041   3.682
  341XTH     H738106  33.449   2.450   3.721
  341XTH     H838107  33.282   2.492   3.894
  341XTH     H938108  33.174   2.524   4.121
  341XTH    H1038109  33.076   2.749   4.111
  341XTH    H1138110  32.798   2.608   3.816
  341XTH    H1238111  32.898   2.395   3.817
  341XTH    OA138112  32.959   1.930   4.343
  341XTH    CO138113  33.039   1.911   4.454
  341XTH    OA238114  33.473   2.238   3.573
  341XTH    CO238115  33.443   2.143   3.466
  341XTH    CL138116  33.566   2.142   3.367
  341XTH    CL238117  33.677   2.046   3.395
  341XTH    CL338118  33.727   2.067   3.539
  341XTH    CL438119  33.839   2.170   3.568
  341XTH    CO338120  33.876   2.158   3.719
  341XTH    OA338121  33.987   2.083   3.753
  341XTH    CO438122  33.988   1.943   3.731
  341XTH    CT138123  34.123   1.879   3.773
  341XTH    CL538124  34.241   1.963   3.717
  341XTH    CL638125  34.218   2.000   3.574
  341XTH    OA438126  32.843   2.810   3.971
  341XTH    CO538127  32.844   2.888   4.086
  341XTH    CL738128  32.728   2.985   4.063
  341XTH    CL838129  32.653   3.024   4.190
  341XTH    CL938130  32.570   3.148   4.171
  341XTH   CL1038131  32.492   3.185   4.295
  341XTH    CO638132  32.573   3.259   4.404
  341XTH    OA538133  32.674   3.171   4.457
  341XTH    CO738134  32.708   3.201   4.591
  341XTH    CT238135  32.820   3.103   4.633
  341XTH   CL1138136  32.766   2.961   4.636
  341XTH   CL1238137  32.861   2.862   4.695
  341XTH    HL138138  33.069   1.997   4.516
  341XTH    HL238139  32.974   1.847   4.514
  341XTH    HL338140  33.124   1.853   4.432
  341XTH    HL438141  33.442   2.034   3.500
  341XTH    HL538142  33.359   2.163   3.403
  341XTH    HL638143  33.603   2.246   3.373
  341XTH    HL738144  33.526   2.131   3.265
  341XTH    HL838145  33.755   2.071   3.320
  341XTH    HL938146  33.650   1.943   3.371
  341XTH   HL1038147  33.649   2.083   3.615
  341XTH   HL1138148  33.765   1.970   3.564
  341XTH   HL1238149  33.816   2.273   3.537
  341XTH   HL1338150  33.930   2.139   3.513
  341XTH   HL1438151  33.901   2.254   3.764
  341XTH   HL1538152  33.780   2.132   3.763
  341XTH   HL1638153  33.906   1.900   3.781
  341XTH   HL1738154  33.973   1.928   3.624
  341XTH   HL1838155  34.328   1.900   3.735
  341XTH   HL1938156  34.271   2.053   3.767
  341XTH   HL2038157  34.307   2.058   3.547
  341XTH   HL2138158  34.141   2.066   3.565
  341XTH   HL2238159  34.197   1.914   3.511
  341XTH   HL2338160  32.942   2.929   4.105
  341XTH   HL2438161  32.820   2.820   4.168
  341XTH   HL2538162  32.749   3.071   3.999
  341XTH   HL2638163  32.645   2.931   4.003
  341XTH   HL2738164  32.584   2.946   4.212
  341XTH   HL2838165  32.722   3.030   4.277
  341XTH   HL2938166  32.634   3.229   4.139
  341XTH   HL3038167  32.505   3.128   4.084
  341XTH   HL3138168  32.404   3.244   4.267
  341XTH   HL3238169  32.442   3.093   4.336
  341XTH   HL3338170  32.617   3.349   4.360
  341XTH   HL3438171  32.511   3.276   4.487
  341XTH   HL3538172  32.620   3.201   4.655
  341XTH   HL3638173  32.753   3.304   4.594
  341XTH   HL3738174  32.745   2.931   4.530
  341XTH   HL3838175  32.677   2.959   4.699
  341XTH   HL3938176  32.839   2.873   4.800
  341XTH   HL4038177  32.964   2.888   4.684
  341XTH   HL4138178  32.836   2.758   4.661
  341XTH    CO838179  34.129   1.728   3.734
  341XTH    CO938180  34.138   1.888   3.928
  341XTH    OA638181  34.050   1.835   3.977
  341XTH   HL4238182  34.232   1.692   3.744
  341XTH   HL4338183  34.070   1.650   3.828
  341XTH   HL4438184  32.945   3.249   4.781
  341XTH   HL4538185  32.943   3.051   4.812
  341XTH   CO1038186  32.877   3.130   4.777
  341XTH   CO1138187  32.940   3.103   4.533
  341XTH    OA738188  32.989   3.202   4.529
  341XTH   HL4638189  33.029   3.046   4.556
  341XTH   HL4738190  32.902   3.063   4.438
  341XTH   HL4838191  34.119   1.994   3.953
  341XTH   HL4938192  34.238   1.856   3.957
  342XTA     NT38193  30.323   2.319   7.730
  342XTA    CN138194  30.337   2.283   7.599
  342XTA     C138195  30.464   2.264   7.540
  342XTA     C238196  30.474   2.202   7.417
  342XTA     C338197  30.358   2.164   7.349
  342XTA     C438198  30.230   2.183   7.404
  342XTA     C538199  30.219   2.243   7.531
  342XTA    CN238200  30.274   2.437   7.780
  342XTA     C638201  30.136   2.451   7.800
  342XTA     C738202  30.084   2.572   7.848
  342XTA     C838203  30.169   2.678   7.875
  342XTA     C938204  30.304   2.665   7.849
  342XTA    C1038205  30.359   2.545   7.807
  342XTA    CN338206  30.353   2.227   7.821
  342XTA    C1138207  30.468   2.251   7.902
  342XTA    C1238208  30.511   2.149   7.990
  342XTA    C1338209  30.440   2.028   8.010
  342XTA    C1438210  30.319   2.015   7.932
  342XTA    C1538211  30.277   2.113   7.836
  342XTA     H138212  30.556   2.291   7.594
  342XTA     H238213  30.570   2.179   7.375
  342XTA     H338214  30.142   2.157   7.359
  342XTA     H438215  30.128   2.246   7.587
  342XTA     H538216  30.072   2.371   7.771
  342XTA     H638217  29.976   2.582   7.875
  342XTA     H738218  30.372   2.746   7.873
  342XTA     H838219  30.473   2.528   7.801
  342XTA     H938220  30.518   2.343   7.892
  342XTA    H1038221  30.592   2.171   8.053
  342XTA    H1138222  30.257   1.926   7.949
  342XTA    H1238223  30.201   2.096   7.766
  342XTA    OA138224  30.361   2.084   7.234
  342XTA    CO138225  30.487   2.028   7.196
  342XTA    OA238226  30.136   2.802   7.934
  342XTA    CO238227  30.190   2.814   8.070
  342XTA    CL138228  30.088   2.902   8.137
  342XTA    CL238229  29.971   2.813   8.185
  342XTA    CL338230  29.859   2.786   8.078
  342XTA    CL438231  29.752   2.689   8.108
  342XTA    CO338232  29.669   2.651   7.989
  342XTA    OA338233  29.582   2.757   7.947
  342XTA    CO438234  29.496   2.707   7.841
  342XTA    CT138235  29.402   2.823   7.802
  342XTA    CL538236  29.305   2.885   7.909
  342XTA    CL638237  29.210   2.792   7.988
  342XTA    OA438238  30.472   1.937   8.103
  342XTA    CO538239  30.596   1.953   8.174
  342XTA    CL738240  30.715   1.912   8.076
  342XTA    CL838241  30.857   1.909   8.131
  342XTA    CL938242  30.967   1.861   8.029
  342XTA   CL1038243  30.945   1.718   7.969
  342XTA    CO638244  31.029   1.686   7.849
  342XTA    OA538245  30.995   1.753   7.732
  342XTA    CO738246  30.888   1.698   7.663
  342XTA    CT238247  30.902   1.773   7.528
  342XTA   CL1138248  30.880   1.926   7.552
  342XTA   CL1238249  30.767   1.970   7.652
  342XTA    HL138250  30.471   1.965   7.106
  342XTA    HL238251  30.561   2.108   7.182
  342XTA    HL338252  30.531   1.959   7.273
  342XTA    HL438253  30.197   2.716   8.120
  342XTA    HL538254  30.289   2.865   8.067
  342XTA    HL638255  30.050   2.979   8.065
  342XTA    HL738256  30.134   2.955   8.218
  342XTA    HL838257  29.924   2.855   8.269
  342XTA    HL938258  30.009   2.724   8.218
  342XTA   HL1038259  29.813   2.883   8.059
  342XTA   HL1138260  29.907   2.764   7.989
  342XTA   HL1238261  29.694   2.728   8.194
  342XTA   HL1338262  29.807   2.598   8.133
  342XTA   HL1438263  29.731   2.623   7.910
  342XTA   HL1538264  29.606   2.568   8.022
  342XTA   HL1638265  29.547   2.673   7.747
  342XTA   HL1738266  29.438   2.624   7.870
  342XTA   HL1838267  29.239   2.955   7.870
  342XTA   HL1938268  29.361   2.949   7.975
  342XTA   HL2038269  29.274   2.726   8.043
  342XTA   HL2138270  29.142   2.729   7.926
  342XTA   HL2238271  29.145   2.853   8.043
  342XTA   HL2338272  30.582   1.890   8.267
  342XTA   HL2438273  30.615   2.050   8.214
  342XTA   HL2538274  30.685   1.824   8.024
  342XTA   HL2638275  30.722   1.981   7.986
  342XTA   HL2738276  30.882   2.008   8.155
  342XTA   HL2838277  30.851   1.838   8.212
  342XTA   HL2938278  30.965   1.928   7.944
  342XTA   HL3038279  31.065   1.866   8.068
  342XTA   HL3138280  30.965   1.643   8.054
  342XTA   HL3238281  30.839   1.714   7.938
  342XTA   HL3338282  31.133   1.716   7.868
  342XTA   HL3438283  31.037   1.580   7.828
  342XTA   HL3538284  30.789   1.712   7.700
  342XTA   HL3638285  30.913   1.590   7.655
  342XTA   HL3738286  30.864   1.967   7.451
  342XTA   HL3838287  30.972   1.974   7.589
  342XTA   HL3938288  30.781   1.927   7.754
  342XTA   HL4038289  30.661   1.962   7.621
  342XTA   HL4138290  30.772   2.079   7.645
  342XTA    CO838291  29.337   2.787   7.663
  342XTA    CO938292  29.486   2.930   7.731
  342XTA    OA638293  29.450   2.860   7.615
  342XTA   HL4238294  29.239   2.830   7.641
  342XTA   HL4338295  29.319   2.679   7.655
  342XTA   HL4438296  30.799   1.753   7.329
  342XTA   HL4538297  30.799   1.609   7.419
  342XTA   CO1038298  30.790   1.713   7.433
  342XTA   CO1138299  31.036   1.749   7.456
  342XTA    OA738300  30.653   1.747   7.472
  342XTA   HL4638301  31.068   1.642   7.454
  342XTA   HL4738302  31.114   1.784   7.515
  342XTA   HL4838303  29.593   2.930   7.755
  342XTA   HL4938304  29.438   3.022   7.754
  343XTA     NT38305  29.848   0.286   0.349
  343XTA    CN138306  29.962   0.221   0.323
  343XTA     C138307  30.048   0.273   0.231
  343XTA     C238308  30.174   0.222   0.211
  343XTA     C338309  30.211   0.096   0.277
  343XTA     C438310  30.113   0.037   0.365
  343XTA     C538311  29.992   0.103   0.395
  343XTA    CN238312  29.729   0.241   0.302
  343XTA     C638313  29.668   0.308   0.199
  343XTA     C738314  29.544   0.266   0.148
  343XTA     C838315  29.469   0.171   0.215
  343XTA     C938316  29.527   0.099   0.321
  343XTA    C1038317  29.656   0.134   0.368
  343XTA    CN338318  29.842   0.375   0.455
  343XTA    C1138319  29.832   0.508   0.417
  343XTA    C1238320  29.830   0.614   0.509
  343XTA    C1338321  29.841   0.586   0.651
  343XTA    C1438322  29.869   0.448   0.690
  343XTA    C1538323  29.872   0.349   0.593
  343XTA     H138324  30.020   0.368   0.177
  343XTA     H238325  30.234   0.264   0.136
  343XTA     H338326  30.141  -0.049   0.431
  343XTA     H438327  29.924   0.055   0.471
  343XTA     H538328  29.701   0.397   0.147
  343XTA     H638329  29.499   0.319   0.061
  343XTA     H738330  29.472   0.019   0.358
  343XTA     H838331  29.697   0.071   0.450
  343XTA     H938332  29.816   0.528   0.315
  343XTA    H1038333  29.823   0.716   0.478
  343XTA    H1138334  29.868   0.435   0.796
  343XTA    H1238335  29.899   0.248   0.629
  343XTA    OA138336  30.331   0.034   0.260
  343XTA    CO138337  30.391   0.051   0.135
  343XTA    OA238338  29.350   0.129   0.151
  343XTA    CO238339  29.250   0.062   0.219
  343XTA    CL138340  29.121   0.126   0.200
  343XTA    CL238341  29.103   0.241   0.313
  343XTA    CL338342  28.973   0.325   0.300
  343XTA    CL438343  28.848   0.245   0.336
  343XTA    CO338344  28.732   0.348   0.366
  343XTA    OA338345  28.764   0.452   0.458
  343XTA    CO438346  28.814   0.407   0.588
  343XTA    CT138347  28.828   0.532   0.678
  343XTA    CL538348  28.887   0.486   0.812
  343XTA    CL638349  29.041   0.448   0.803
  343XTA    OA438350  29.837   0.682   0.748
  343XTA    CO538351  29.817   0.817   0.725
  343XTA    CL738352  29.828   0.890   0.857
  343XTA    CL838353  29.729   0.848   0.965
  343XTA    CL938354  29.757   0.909   1.100
  343XTA   CL1038355  29.656   0.869   1.213
  343XTA    CO638356  29.681   0.942   1.348
  343XTA    OA538357  29.645   1.080   1.344
  343XTA    CO738358  29.664   1.151   1.464
  343XTA    CT238359  29.698   1.292   1.421
  343XTA   CL1138360  29.563   1.344   1.366
  343XTA   CL1238361  29.566   1.488   1.309
  343XTA    HL138362  30.338   0.005   0.053
  343XTA    HL238363  30.419   0.155   0.108
  343XTA    HL338364  30.486  -0.004   0.145
  343XTA    HL438365  29.246  -0.035   0.171
  343XTA    HL538366  29.267   0.037   0.318
  343XTA    HL638367  29.041   0.052   0.211
  343XTA    HL738368  29.117   0.167   0.100
  343XTA    HL838369  29.184   0.307   0.302
  343XTA    HL938370  29.118   0.185   0.404
  343XTA   HL1038371  28.981   0.410   0.367
  343XTA   HL1138372  28.975   0.354   0.195
  343XTA   HL1238373  28.862   0.187   0.430
  343XTA   HL1338374  28.816   0.167   0.271
  343XTA   HL1438375  28.693   0.395   0.275
  343XTA   HL1538376  28.646   0.290   0.407
  343XTA   HL1638377  28.747   0.346   0.635
  343XTA   HL1738378  28.915   0.360   0.581
  343XTA   HL1838379  28.821   0.405   0.854
  343XTA   HL1938380  28.875   0.571   0.878
  343XTA   HL2038381  29.079   0.381   0.728
  343XTA   HL2138382  29.057   0.406   0.896
  343XTA   HL2238383  29.102   0.539   0.809
  343XTA   HL2338384  29.722   0.852   0.688
  343XTA   HL2438385  29.893   0.863   0.664
  343XTA   HL2538386  29.919   0.882   0.911
  343XTA   HL2638387  29.807   0.992   0.824
  343XTA   HL2738388  29.626   0.867   0.952
  343XTA   HL2838389  29.738   0.739   0.969
  343XTA   HL2938390  29.860   0.875   1.131
  343XTA   HL3038391  29.755   1.015   1.084
  343XTA   HL3138392  29.548   0.893   1.184
  343XTA   HL3238393  29.668   0.764   1.235
  343XTA   HL3338394  29.618   0.889   1.423
  343XTA   HL3438395  29.784   0.933   1.374
  343XTA   HL3538396  29.751   1.108   1.518
  343XTA   HL3638397  29.579   1.143   1.530
  343XTA   HL3738398  29.482   1.332   1.441
  343XTA   HL3838399  29.539   1.276   1.283
  343XTA   HL3938400  29.584   1.563   1.388
  343XTA   HL4038401  29.460   1.504   1.271
  343XTA   HL4138402  29.633   1.499   1.234
  343XTA    CO838403  28.689   0.595   0.708
  343XTA    CO938404  28.913   0.634   0.593
  343XTA    OA638405  28.957   0.745   0.679
  343XTA   HL4238406  28.698   0.658   0.796
  343XTA   HL4338407  28.642   0.638   0.623
  343XTA   HL4438408  29.834   1.388   1.283
  343XTA   HL4538409  29.735   1.267   1.185
  343XTA   CO1038410  29.800   1.288   1.307
  343XTA   CO1138411  29.754   1.378   1.539
  343XTA    OA738412  29.722   1.341   1.638
  343XTA   HL4638413  29.865   1.361   1.537
  343XTA   HL4738414  29.725   1.475   1.509
  343XTA   HL4838415  28.862   0.680   0.511
  343XTA   HL4938416  28.998   0.586   0.545
  344XTA     NT38417  26.436   1.658   4.090
  344XTA    CN138418  26.480   1.776   4.040
  344XTA     C138419  26.418   1.897   4.072
  344XTA     C238420  26.478   2.016   4.026
  344XTA     C338421  26.599   2.020   3.955
  344XTA     C438422  26.659   1.895   3.919
  344XTA     C538423  26.609   1.778   3.966
  344XTA    CN238424  26.328   1.610   4.029
  344XTA     C638425  26.200   1.665   4.051
  344XTA     C738426  26.079   1.604   4.004
  344XTA     C838427  26.090   1.487   3.927
  344XTA     C938428  26.214   1.430   3.906
  344XTA    C1038429  26.330   1.476   3.971
  344XTA    CN338430  26.472   1.613   4.212
  344XTA    C1138431  26.443   1.679   4.333
  344XTA    C1238432  26.500   1.635   4.461
  344XTA    C1338433  26.584   1.524   4.463
  344XTA    C1438434  26.611   1.460   4.338
  344XTA    C1538435  26.556   1.504   4.216
  344XTA     H138436  26.329   1.905   4.125
  344XTA     H238437  26.421   2.108   4.034
  344XTA     H338438  26.750   1.892   3.862
  344XTA     H438439  26.655   1.683   3.940
  344XTA     H538440  26.198   1.749   4.121
  344XTA     H638441  25.979   1.649   4.033
  344XTA     H738442  26.208   1.340   3.846
  344XTA     H838443  26.425   1.425   3.955
  344XTA     H938444  26.394   1.772   4.335
  344XTA    H1038445  26.482   1.691   4.550
  344XTA    H1138446  26.670   1.368   4.331
  344XTA    H1238447  26.569   1.451   4.120
  344XTA    OA138448  26.637   2.137   3.897
  344XTA    CO138449  26.763   2.145   3.836
  344XTA    OA238450  25.969   1.434   3.887
  344XTA    CO238451  25.971   1.345   3.776
  344XTA    CL138452  25.969   1.199   3.820
  344XTA    CL238453  25.831   1.153   3.868
  344XTA    CL338454  25.821   1.005   3.906
  344XTA    CL438455  25.848   0.978   4.054
  344XTA    CO338456  25.896   0.839   4.090
  344XTA    OA338457  26.001   0.810   3.999
  344XTA    CO438458  26.122   0.887   4.011
  344XTA    CT138459  26.244   0.833   3.926
  344XTA    CL538460  26.354   0.939   3.919
  344XTA    CL638461  26.312   1.073   3.860
  344XTA    OA438462  26.631   1.475   4.581
  344XTA    CO538463  26.771   1.445   4.574
  344XTA    CL738464  26.830   1.498   4.707
  344XTA    CL838465  26.818   1.649   4.719
  344XTA    CL938466  26.880   1.703   4.844
  344XTA   CL1038467  26.885   1.854   4.867
  344XTA    CO638468  26.746   1.909   4.873
  344XTA    OA538469  26.753   2.048   4.907
  344XTA    CO738470  26.632   2.108   4.925
  344XTA    CT238471  26.633   2.253   4.971
  344XTA   CL1138472  26.502   2.324   4.943
  344XTA   CL1238473  26.375   2.258   5.008
  344XTA    HL138474  26.809   2.238   3.792
  344XTA    HL238475  26.834   2.088   3.895
  344XTA    HL338476  26.750   2.094   3.745
  344XTA    HL438477  25.881   1.373   3.719
  344XTA    HL538478  26.050   1.371   3.707
  344XTA    HL638479  26.045   1.187   3.897
  344XTA    HL738480  26.009   1.140   3.732
  344XTA    HL838481  25.769   1.166   3.780
  344XTA    HL938482  25.792   1.221   3.940
  344XTA   HL1038483  25.718   0.974   3.895
  344XTA   HL1138484  25.883   0.942   3.842
  344XTA   HL1238485  25.768   0.992   4.124
  344XTA   HL1338486  25.932   1.041   4.086
  344XTA   HL1438487  25.931   0.822   4.195
  344XTA   HL1538488  25.822   0.763   4.055
  344XTA   HL1638489  26.096   0.998   4.003
  344XTA   HL1738490  26.139   0.884   4.113
  344XTA   HL1838491  26.441   0.905   3.864
  344XTA   HL1938492  26.377   0.957   4.023
  344XTA   HL2038493  26.244   1.121   3.920
  344XTA   HL2138494  26.251   1.060   3.770
  344XTA   HL2238495  26.406   1.132   3.845
  344XTA   HL2338496  26.822   1.488   4.488
  344XTA   HL2438497  26.797   1.335   4.561
  344XTA   HL2538498  26.792   1.452   4.797
  344XTA   HL2638499  26.938   1.474   4.704
  344XTA   HL2738500  26.866   1.701   4.634
  344XTA   HL2838501  26.709   1.680   4.703
  344XTA   HL2938502  26.817   1.663   4.919
  344XTA   HL3038503  26.976   1.658   4.864
  344XTA   HL3138504  26.927   1.870   4.967
  344XTA   HL3238505  26.949   1.913   4.806
  344XTA   HL3338506  26.700   1.904   4.776
  344XTA   HL3438507  26.688   1.854   4.947
  344XTA   HL3538508  26.573   2.044   4.992
  344XTA   HL3638509  26.584   2.110   4.829
  344XTA   HL3738510  26.495   2.326   4.840
  344XTA   HL3838511  26.502   2.427   4.961
  344XTA   HL3938512  26.288   2.318   4.999
  344XTA   HL4038513  26.394   2.249   5.111
  344XTA   HL4138514  26.354   2.160   4.972
  344XTA    CO838515  26.200   0.798   3.782
  344XTA    CO938516  26.302   0.711   4.002
  344XTA    OA638517  26.146   0.697   3.775
  344XTA   HL4238518  26.288   0.802   3.731
  344XTA   HL4338519  26.149   0.874   3.728
  344XTA   HL4438520  26.709   2.313   4.759
  344XTA   HL4538521  26.730   2.442   4.921
  344XTA   CO1038522  26.734   2.340   4.894
  344XTA   CO1138523  26.692   2.261   5.119
  344XTA    OA738524  26.708   2.365   5.157
  344XTA   HL4638525  26.628   2.211   5.188
  344XTA   HL4738526  26.782   2.196   5.116
  344XTA   HL4838527  26.293   0.721   4.141
  344XTA   HL4938528  26.225   0.633   3.983
  345XTA     NT38529  29.593   1.306   0.201
  345XTA    CN138530  29.661   1.409   0.153
  345XTA     C138531  29.616   1.544   0.164
  345XTA     C238532  29.695   1.655   0.116
  345XTA     C338533  29.825   1.625   0.068
  345XTA     C438534  29.869   1.491   0.049
  345XTA     C538535  29.788   1.383   0.092
  345XTA    CN238536  29.549   1.222   0.100
  345XTA     C638537  29.478   1.274  -0.011
  345XTA     C738538  29.468   1.205  -0.127
  345XTA     C838539  29.500   1.071  -0.134
  345XTA     C938540  29.553   1.010  -0.023
  345XTA    C1038541  29.591   1.086   0.092
  345XTA    CN338542  29.562   1.293   0.328
  345XTA    C1138543  29.457   1.369   0.383
  345XTA    C1238544  29.418   1.349   0.516
  345XTA    C1338545  29.502   1.271   0.600
  345XTA    C1438546  29.608   1.190   0.545
  345XTA    C1538547  29.629   1.205   0.409
  345XTA     H138548  29.513   1.556   0.207
  345XTA     H238549  29.662   1.756   0.127
  345XTA     H338550  29.967   1.478   0.015
  345XTA     H438551  29.831   1.282   0.094
  345XTA     H538552  29.447   1.376  -0.003
  345XTA     H638553  29.436   1.253  -0.218
  345XTA     H738554  29.570   0.908  -0.017
  345XTA     H838555  29.641   1.039   0.173
  345XTA     H938556  29.396   1.438   0.328
  345XTA    H1038557  29.351   1.418   0.574
  345XTA    H1138558  29.664   1.128   0.614
  345XTA    H1238559  29.706   1.146   0.354
  345XTA    OA138560  29.912   1.726   0.032
  345XTA    CO138561  30.048   1.717   0.075
  345XTA    OA238562  29.487   0.990  -0.245
  345XTA    CO238563  29.498   1.048  -0.369
  345XTA    CL138564  29.477   0.947  -0.477
  345XTA    CL238565  29.328   0.910  -0.502
  345XTA    CL338566  29.308   0.817  -0.616
  345XTA    CL438567  29.157   0.769  -0.632
  345XTA    CO338568  29.118   0.659  -0.531
  345XTA    OA338569  28.998   0.609  -0.574
  345XTA    CO438570  28.964   0.482  -0.515
  345XTA    CT138571  28.823   0.452  -0.561
  345XTA    CL538572  28.809   0.453  -0.714
  345XTA    CL638573  28.912   0.371  -0.790
  345XTA    OA438574  29.476   1.272   0.731
  345XTA    CO538575  29.578   1.246   0.824
  345XTA    CL738576  29.524   1.257   0.966
  345XTA    CL838577  29.384   1.189   0.993
  345XTA    CL938578  29.353   1.157   1.135
  345XTA   CL1038579  29.204   1.110   1.145
  345XTA    CO638580  29.182   0.989   1.059
  345XTA    OA538581  29.116   1.015   0.936
  345XTA    CO738582  29.095   0.904   0.858
  345XTA    CT238583  29.072   0.947   0.709
  345XTA   CL1138584  29.193   1.030   0.659
  345XTA   CL1238585  29.186   1.089   0.517
  345XTA    HL138586  30.116   1.756  -0.004
  345XTA    HL238587  30.062   1.783   0.156
  345XTA    HL338588  30.076   1.612   0.098
  345XTA    HL438589  29.423   1.134  -0.377
  345XTA    HL538590  29.592   1.103  -0.374
  345XTA    HL638591  29.533   0.854  -0.457
  345XTA    HL738592  29.517   0.979  -0.575
  345XTA    HL838593  29.277   1.003  -0.525
  345XTA    HL938594  29.279   0.885  -0.406
  345XTA   HL1038595  29.329   0.874  -0.706
  345XTA   HL1138596  29.376   0.734  -0.609
  345XTA   HL1238597  29.146   0.737  -0.735
  345XTA   HL1338598  29.082   0.846  -0.628
  345XTA   HL1438599  29.200   0.590  -0.536
  345XTA   HL1538600  29.109   0.697  -0.431
  345XTA   HL1638601  29.033   0.398  -0.545
  345XTA   HL1738602  28.974   0.501  -0.409
  345XTA   HL1838603  28.798   0.553  -0.758
  345XTA   HL1938604  28.714   0.406  -0.743
  345XTA   HL2038605  28.888   0.362  -0.892
  345XTA   HL2138606  28.929   0.273  -0.752
  345XTA   HL2238607  29.017   0.414  -0.782
  345XTA   HL2338608  29.666   1.309   0.816
  345XTA   HL2438609  29.617   1.143   0.809
  345XTA   HL2538610  29.605   1.220   1.040
  345XTA   HL2638611  29.524   1.365   0.991
  345XTA   HL2738612  29.300   1.243   0.947
  345XTA   HL2838613  29.380   1.096   0.936
  345XTA   HL2938614  29.419   1.082   1.171
  345XTA   HL3038615  29.361   1.253   1.189
  345XTA   HL3138616  29.185   1.085   1.252
  345XTA   HL3238617  29.134   1.177   1.106
  345XTA   HL3338618  29.268   0.922   1.057
  345XTA   HL3438619  29.108   0.940   1.130
  345XTA   HL3538620  29.007   0.855   0.885
  345XTA   HL3638621  29.180   0.836   0.852
  345XTA   HL3738622  29.292   0.974   0.669
  345XTA   HL3838623  29.201   1.118   0.723
  345XTA   HL3938624  29.101   1.155   0.502
  345XTA   HL4038625  29.171   1.009   0.448
  345XTA   HL4138626  29.285   1.132   0.484
  345XTA    CO838627  28.731   0.552  -0.499
  345XTA    CO938628  28.768   0.318  -0.506
  345XTA    OA638629  28.594   0.535  -0.537
  345XTA   HL4238630  28.769   0.647  -0.531
  345XTA   HL4338631  28.718   0.556  -0.392
  345XTA   HL4438632  28.953   1.122   0.737
  345XTA   HL4538633  28.892   1.023   0.607
  345XTA   CO1038634  28.940   1.020   0.701
  345XTA   CO1138635  29.054   0.823   0.619
  345XTA    OA738636  28.827   0.959   0.766
  345XTA   HL4638637  29.143   0.761   0.618
  345XTA   HL4738638  29.026   0.853   0.518
  345XTA   HL4838639  28.819   0.225  -0.553
  345XTA   HL4938640  28.668   0.301  -0.538
  346XTA     NT38641  31.413   1.724   0.763
  346XTA    CN138642  31.470   1.705   0.640
  346XTA     C138643  31.409   1.754   0.526
  346XTA     C238644  31.472   1.750   0.399
  346XTA     C338645  31.591   1.683   0.390
  346XTA     C438646  31.652   1.624   0.505
  346XTA     C538647  31.589   1.637   0.628
  346XTA    CN238648  31.450   1.810   0.861
  346XTA     C638649  31.522   1.771   0.974
  346XTA     C738650  31.567   1.866   1.069
  346XTA     C838651  31.524   1.997   1.063
  346XTA     C938652  31.445   2.036   0.952
  346XTA    C1038653  31.405   1.945   0.850
  346XTA    CN338654  31.307   1.642   0.789
  346XTA    C1138655  31.328   1.526   0.854
  346XTA    C1238656  31.221   1.440   0.893
  346XTA    C1338657  31.089   1.478   0.858
  346XTA    C1438658  31.069   1.588   0.773
  346XTA    C1538659  31.176   1.667   0.735
  346XTA     H138660  31.315   1.796   0.539
  346XTA     H238661  31.429   1.797   0.311
  346XTA     H338662  31.744   1.574   0.496
  346XTA     H438663  31.639   1.589   0.713
  346XTA     H538664  31.561   1.667   0.975
  346XTA     H638665  31.640   1.836   1.143
  346XTA     H738666  31.421   2.143   0.939
  346XTA     H838667  31.363   1.969   0.753
  346XTA     H938668  31.426   1.484   0.882
  346XTA    H1038669  31.234   1.343   0.946
  346XTA    H1138670  30.971   1.615   0.725
  346XTA    H1238671  31.174   1.751   0.664
  346XTA    OA138672  31.655   1.668   0.266
  346XTA    CO138673  31.624   1.745   0.152
  346XTA    OA238674  31.588   2.088   1.155
  346XTA    CO238675  31.534   2.218   1.158
  346XTA    CL138676  31.583   2.271   1.292
  346XTA    CL238677  31.519   2.407   1.318
  346XTA    CL338678  31.558   2.459   1.457
  346XTA    CL438679  31.528   2.605   1.484
  346XTA    CO338680  31.658   2.688   1.459
  346XTA    OA338681  31.705   2.693   1.326
  346XTA    CO438682  31.839   2.666   1.313
  346XTA    CT138683  31.893   2.684   1.173
  346XTA    CL538684  31.807   2.603   1.067
  346XTA    CL638685  31.800   2.449   1.092
  346XTA    OA438686  30.989   1.399   0.909
  346XTA    CO538687  30.855   1.441   0.897
  346XTA    CL738688  30.755   1.321   0.925
  346XTA    CL838689  30.772   1.276   1.062
  346XTA    CL938690  30.713   1.141   1.101
  346XTA   CL1038691  30.735   1.102   1.250
  346XTA    CO638692  30.761   0.947   1.276
  346XTA    OA538693  30.664   0.873   1.205
  346XTA    CO738694  30.533   0.886   1.249
  346XTA    CT238695  30.441   0.811   1.145
  346XTA   CL1138696  30.452   0.661   1.160
  346XTA   CL1238697  30.459   0.601   1.309
  346XTA    HL138698  31.528   1.712   0.120
  346XTA    HL238699  31.629   1.845   0.186
  346XTA    HL338700  31.697   1.729   0.072
  346XTA    HL438701  31.577   2.276   1.077
  346XTA    HL538702  31.424   2.222   1.144
  346XTA    HL638703  31.689   2.277   1.280
  346XTA    HL738704  31.563   2.199   1.370
  346XTA    HL838705  31.412   2.415   1.322
  346XTA    HL938706  31.555   2.482   1.243
  346XTA   HL1038707  31.522   2.385   1.527
  346XTA   HL1138708  31.667   2.450   1.462
  346XTA   HL1238709  31.513   2.618   1.581
  346XTA   HL1338710  31.436   2.643   1.432
  346XTA   HL1438711  31.654   2.791   1.496
  346XTA   HL1538712  31.736   2.647   1.521
  346XTA   HL1638713  31.893   2.739   1.377
  346XTA   HL1738714  31.854   2.566   1.361
  346XTA   HL1838715  31.843   2.622   0.967
  346XTA   HL1938716  31.708   2.635   1.079
  346XTA   HL2038717  31.893   2.413   1.075
  346XTA   HL2138718  31.727   2.395   1.025
  346XTA   HL2238719  31.773   2.428   1.194
  346XTA   HL2338720  30.833   1.466   0.794
  346XTA   HL2438721  30.840   1.525   0.956
  346XTA   HL2538722  30.654   1.348   0.907
  346XTA   HL2638723  30.777   1.237   0.855
  346XTA   HL2738724  30.878   1.265   1.079
  346XTA   HL2838725  30.732   1.351   1.121
  346XTA   HL2938726  30.607   1.143   1.071
  346XTA   HL3038727  30.766   1.068   1.043
  346XTA   HL3138728  30.817   1.162   1.292
  346XTA   HL3238729  30.650   1.129   1.312
  346XTA   HL3338730  30.854   0.926   1.232
  346XTA   HL3438731  30.774   0.906   1.383
  346XTA   HL3538732  30.489   0.982   1.243
  346XTA   HL3638733  30.526   0.851   1.355
  346XTA   HL3738734  30.532   0.610   1.108
  346XTA   HL3838735  30.362   0.618   1.115
  346XTA   HL3938736  30.550   0.635   1.361
  346XTA   HL4038737  30.455   0.493   1.318
  346XTA   HL4138738  30.372   0.628   1.373
  346XTA    CO838739  32.045   2.659   1.169
  346XTA    CO938740  31.878   2.833   1.141
  346XTA    OA638741  31.929   2.903   1.216
  346XTA   HL4238742  32.083   2.667   1.063
  346XTA   HL4338743  32.129   2.766   1.207
  346XTA   HL4438744  30.567   0.799   0.960
  346XTA   HL4538745  30.498   0.948   0.984
  346XTA   CO1038746  30.477   0.847   1.000
  346XTA   CO1138747  30.286   0.856   1.168
  346XTA    OA738748  30.277   0.994   1.150
  346XTA   HL4638749  30.221   0.799   1.107
  346XTA   HL4738750  30.264   0.845   1.274
  346XTA   HL4838751  31.776   2.855   1.133
  346XTA   HL4938752  31.919   2.856   1.044
  347XTA     NT38753  31.849   2.172   0.719
  347XTA    CN138754  31.943   2.218   0.626
  347XTA     C138755  32.024   2.326   0.665
  347XTA     C238756  32.120   2.377   0.577
  347XTA     C338757  32.146   2.320   0.451
  347XTA     C438758  32.068   2.206   0.412
  347XTA     C538759  31.967   2.164   0.498
  347XTA    CN238760  31.880   2.083   0.814
  347XTA     C638761  31.865   2.108   0.952
  347XTA     C738762  31.877   1.997   1.038
  347XTA     C838763  31.922   1.871   0.995
  347XTA     C938764  31.971   1.862   0.859
  347XTA    C1038765  31.950   1.966   0.770
  347XTA    CN338766  31.722   2.198   0.687
  347XTA    C1138767  31.645   2.096   0.627
  347XTA    C1238768  31.517   2.123   0.577
  347XTA    C1338769  31.456   2.248   0.594
  347XTA    C1438770  31.527   2.351   0.660
  347XTA    C1538771  31.662   2.325   0.710
  347XTA     H138772  32.018   2.381   0.757
  347XTA     H238773  32.169   2.469   0.611
  347XTA     H338774  32.082   2.144   0.320
  347XTA     H438775  31.902   2.087   0.456
  347XTA     H538776  31.836   2.207   0.988
  347XTA     H638777  31.839   2.010   1.134
  347XTA     H738778  32.007   1.765   0.823
  347XTA     H838779  31.980   1.952   0.667
  347XTA     H938780  31.680   1.991   0.626
  347XTA    H1038781  31.466   2.037   0.530
  347XTA    H1138782  31.484   2.454   0.668
  347XTA    H1238783  31.723   2.397   0.761
  347XTA    OA138784  32.249   2.380   0.376
  347XTA    CO138785  32.316   2.301   0.279
  347XTA    OA238786  31.912   1.764   1.082
  347XTA    CO238787  31.869   1.644   1.023
  347XTA    CL138788  31.967   1.532   1.013
  347XTA    CL238789  31.926   1.442   0.907
  347XTA    CL338790  31.789   1.372   0.923
  347XTA    CL438791  31.755   1.281   0.795
  347XTA    CO338792  31.610   1.236   0.793
  347XTA    OA338793  31.551   1.173   0.905
  347XTA    CO438794  31.415   1.142   0.877
  347XTA    CT138795  31.337   1.080   0.999
  347XTA    CL538796  31.357   1.154   1.140
  347XTA    CL638797  31.503   1.171   1.180
  347XTA    OA438798  31.325   2.276   0.576
  347XTA    CO538799  31.246   2.165   0.519
  347XTA    CL738800  31.104   2.219   0.505
  347XTA    CL838801  31.038   2.249   0.644
  347XTA    CL938802  30.889   2.260   0.636
  347XTA   CL1038803  30.824   2.294   0.773
  347XTA    CO638804  30.865   2.436   0.808
  347XTA    OA538805  30.770   2.482   0.903
  347XTA    CO738806  30.820   2.593   0.976
  347XTA    CT238807  30.701   2.683   1.020
  347XTA   CL1138808  30.645   2.755   0.890
  347XTA   CL1238809  30.527   2.846   0.901
  347XTA    HL138810  32.262   2.281   0.183
  347XTA    HL238811  32.406   2.356   0.252
  347XTA    HL338812  32.344   2.203   0.325
  347XTA    HL438813  31.789   1.597   1.076
  347XTA    HL538814  31.824   1.658   0.922
  347XTA    HL638815  31.966   1.480   1.108
  347XTA    HL738816  32.075   1.574   1.014
  347XTA    HL838817  31.998   1.369   0.896
  347XTA    HL938818  31.922   1.501   0.816
  347XTA   HL1038819  31.767   1.314   1.012
  347XTA   HL1138820  31.720   1.458   0.919
  347XTA   HL1238821  31.824   1.192   0.793
  347XTA   HL1338822  31.763   1.339   0.699
  347XTA   HL1438823  31.557   1.324   0.780
  347XTA   HL1538824  31.595   1.171   0.705
  347XTA   HL1638825  31.369   1.235   0.844
  347XTA   HL1738826  31.407   1.071   0.795
  347XTA   HL1838827  31.310   1.097   1.215
  347XTA   HL1938828  31.310   1.256   1.140
  347XTA   HL2038829  31.547   1.240   1.106
  347XTA   HL2138830  31.552   1.077   1.185
  347XTA   HL2238831  31.514   1.227   1.274
  347XTA   HL2338832  31.236   2.075   0.581
  347XTA   HL2438833  31.281   2.146   0.421
  347XTA   HL2538834  31.109   2.313   0.446
  347XTA   HL2638835  31.048   2.145   0.455
  347XTA   HL2738836  31.070   2.177   0.716
  347XTA   HL2838837  31.072   2.344   0.682
  347XTA   HL2938838  30.851   2.339   0.564
  347XTA   HL3038839  30.844   2.176   0.596
  347XTA   HL3138840  30.717   2.278   0.758
  347XTA   HL3238841  30.881   2.225   0.836
  347XTA   HL3338842  30.967   2.436   0.847
  347XTA   HL3438843  30.862   2.496   0.722
  347XTA   HL3538844  30.895   2.651   0.918
  347XTA   HL3638845  30.870   2.549   1.057
  347XTA   HL3738846  30.613   2.681   0.819
  347XTA   HL3838847  30.732   2.807   0.848
  347XTA   HL3938848  30.554   2.942   0.945
  347XTA   HL4038849  30.449   2.799   0.964
  347XTA   HL4138850  30.485   2.861   0.802
  347XTA    CO838851  31.395   0.944   1.015
  347XTA    CO938852  31.185   1.062   0.968
  347XTA    OA638853  31.360   0.863   0.904
  347XTA   HL4238854  31.366   0.897   1.100
  347XTA   HL4338855  31.503   0.954   1.016
  347XTA   HL4438856  30.828   2.857   1.080
  347XTA   HL4538857  30.663   2.840   1.157
  347XTA   CO1038858  30.757   2.785   1.127
  347XTA   CO1138859  30.588   2.595   1.081
  347XTA    OA738860  30.495   2.667   1.162
  347XTA   HL4638861  30.532   2.538   1.006
  347XTA   HL4738862  30.627   2.516   1.146
  347XTA   HL4838863  31.140   0.985   1.020
  347XTA   HL4938864  31.134   1.150   1.002
  348XTA     NT38865  31.085   3.015   6.833
  348XTA    CN138866  31.197   2.980   6.762
  348XTA     C138867  31.285   2.886   6.817
  348XTA     C238868  31.402   2.859   6.756
  348XTA     C338869  31.442   2.925   6.634
  348XTA     C438870  31.356   3.023   6.575
  348XTA     C538871  31.237   3.054   6.644
  348XTA    CN238872  30.977   2.938   6.867
  348XTA     C638873  30.969   2.877   6.987
  348XTA     C738874  30.855   2.800   7.022
  348XTA     C838875  30.756   2.772   6.930
  348XTA     C938876  30.774   2.825   6.797
  348XTA    C1038877  30.879   2.915   6.764
  348XTA    CN338878  31.079   3.139   6.899
  348XTA    C1138879  30.956   3.217   6.902
  348XTA    C1238880  30.956   3.344   6.965
  348XTA    C1338881  31.063   3.385   7.045
  348XTA    C1438882  31.183   3.308   7.037
  348XTA    C1538883  31.193   3.184   6.965
  348XTA     H138884  31.271   2.837   6.907
  348XTA     H238885  31.466   2.787   6.803
  348XTA     H338886  31.377   3.089   6.488
  348XTA     H438887  31.179   3.132   6.606
  348XTA     H538888  31.052   2.897   7.059
  348XTA     H638889  30.857   2.749   7.117
  348XTA     H738890  30.708   2.804   6.719
  348XTA     H838891  30.875   2.963   6.671
  348XTA     H938892  30.861   3.184   6.848
  348XTA    H1038893  30.860   3.405   6.969
  348XTA    H1138894  31.268   3.343   7.096
  348XTA    H1238895  31.285   3.133   6.964
  348XTA    OA138896  31.560   2.895   6.569
  348XTA    CO138897  31.672   2.866   6.660
  348XTA    OA238898  30.659   2.679   6.968
  348XTA    CO238899  30.624   2.668   7.108
  348XTA    CL138900  30.493   2.579   7.111
  348XTA    CL238901  30.523   2.430   7.111
  348XTA    CL338902  30.402   2.343   7.047
  348XTA    CL438903  30.421   2.301   6.895
  348XTA    CO338904  30.438   2.418   6.792
  348XTA    OA338905  30.421   2.356   6.666
  348XTA    CO438906  30.513   2.409   6.576
  348XTA    CT138907  30.469   2.352   6.439
  348XTA    CL538908  30.327   2.386   6.386
  348XTA    CL638909  30.276   2.529   6.425
  348XTA    OA438910  31.051   3.506   7.105
  348XTA    CO538911  31.165   3.558   7.171
  348XTA    CL738912  31.128   3.673   7.258
  348XTA    CL838913  31.092   3.638   7.404
  348XTA    CL938914  31.081   3.771   7.481
  348XTA   CL1038915  31.064   3.744   7.631
  348XTA    CO638916  30.948   3.639   7.653
  348XTA    OA538917  30.830   3.684   7.591
  348XTA    CO738918  30.726   3.591   7.603
  348XTA    CT238919  30.600   3.657   7.667
  348XTA   CL1138920  30.542   3.758   7.581
  348XTA   CL1238921  30.414   3.826   7.617
  348XTA    HL138922  31.661   2.767   6.709
  348XTA    HL238923  31.777   2.872   6.606
  348XTA    HL338924  31.687   2.952   6.727
  348XTA    HL438925  30.699   2.628   7.165
  348XTA    HL538926  30.594   2.763   7.147
  348XTA    HL638927  30.427   2.605   7.027
  348XTA    HL738928  30.433   2.597   7.208
  348XTA    HL838929  30.531   2.413   7.214
  348XTA    HL938930  30.613   2.415   7.058
  348XTA   HL1038931  30.393   2.258   7.117
  348XTA   HL1138932  30.311   2.396   7.072
  348XTA   HL1238933  30.340   2.240   6.862
  348XTA   HL1338934  30.511   2.239   6.884
  348XTA   HL1438935  30.369   2.507   6.807
  348XTA   HL1538936  30.540   2.450   6.810
  348XTA   HL1638937  30.487   2.514   6.568
  348XTA   HL1738938  30.615   2.387   6.593
  348XTA   HL1838939  30.258   2.321   6.433
  348XTA   HL1938940  30.314   2.370   6.281
  348XTA   HL2038941  30.285   2.539   6.535
  348XTA   HL2138942  30.178   2.557   6.386
  348XTA   HL2238943  30.332   2.606   6.375
  348XTA   HL2338944  31.225   3.589   7.086
  348XTA   HL2438945  31.220   3.490   7.240
  348XTA   HL2538946  31.213   3.738   7.260
  348XTA   HL2638947  31.046   3.726   7.215
  348XTA   HL2738948  30.994   3.605   7.393
  348XTA   HL2838949  31.156   3.565   7.446
  348XTA   HL2938950  31.178   3.827   7.470
  348XTA   HL3038951  30.996   3.832   7.447
  348XTA   HL3138952  31.157   3.697   7.672
  348XTA   HL3238953  31.041   3.841   7.680
  348XTA   HL3338954  30.979   3.547   7.612
  348XTA   HL3438955  30.935   3.631   7.759
  348XTA   HL3538956  30.758   3.519   7.678
  348XTA   HL3638957  30.698   3.558   7.504
  348XTA   HL3738958  30.529   3.713   7.478
  348XTA   HL3838959  30.615   3.834   7.562
  348XTA   HL3938960  30.397   3.903   7.543
  348XTA   HL4038961  30.409   3.874   7.715
  348XTA   HL4138962  30.322   3.769   7.612
  348XTA    CO838963  30.490   2.202   6.427
  348XTA    CO938964  30.575   2.418   6.344
  348XTA    OA638965  30.438   2.159   6.339
  348XTA   HL4238966  30.459   2.156   6.522
  348XTA   HL4338967  30.591   2.169   6.415
  348XTA   HL4438968  30.557   3.758   7.851
  348XTA   HL4538969  30.676   3.635   7.878
  348XTA   CO1038970  30.642   3.713   7.806
  348XTA   CO1138971  30.501   3.541   7.692
  348XTA    OA738972  30.739   3.817   7.803
  348XTA   HL4638973  30.429   3.522   7.614
  348XTA   HL4738974  30.434   3.568   7.772
  348XTA   HL4838975  30.564   2.371   6.215
  348XTA   HL4938976  30.554   2.529   6.337
  349XTA     NT38977  33.863  -0.644  -0.355
  349XTA    CN138978  33.927  -0.541  -0.420
  349XTA     C138979  34.063  -0.510  -0.382
  349XTA     C238980  34.122  -0.388  -0.421
  349XTA     C338981  34.056  -0.306  -0.512
  349XTA     C438982  33.932  -0.346  -0.557
  349XTA     C538983  33.863  -0.462  -0.513
  349XTA    CN238984  33.918  -0.761  -0.322
  349XTA     C638985  33.915  -0.867  -0.417
  349XTA     C738986  33.992  -0.985  -0.402
  349XTA     C838987  34.071  -0.999  -0.287
  349XTA     C938988  34.074  -0.893  -0.193
  349XTA    C1038989  33.999  -0.775  -0.212
  349XTA    CN338990  33.747  -0.615  -0.291
  349XTA    C1138991  33.739  -0.495  -0.212
  349XTA    C1238992  33.615  -0.454  -0.165
  349XTA    C1338993  33.498  -0.528  -0.192
  349XTA    C1438994  33.510  -0.652  -0.256
  349XTA    C1538995  33.635  -0.694  -0.306
  349XTA     H138996  34.117  -0.553  -0.307
  349XTA     H238997  34.219  -0.382  -0.380
  349XTA     H338998  33.889  -0.288  -0.631
  349XTA     H438999  33.764  -0.499  -0.548
  349XTA     H539000  33.850  -0.856  -0.505
  349XTA     H639001  33.993  -1.061  -0.474
  349XTA     H739002  34.134  -0.904  -0.106
  349XTA     H839003  34.008  -0.699  -0.142
  349XTA     H939004  33.822  -0.428  -0.213
  349XTA    H1039005  33.604  -0.355  -0.133
  349XTA    H1139006  33.425  -0.710  -0.262
  349XTA    H1239007  33.642  -0.791  -0.365
  349XTA    OA139008  34.102  -0.192  -0.565
  349XTA    CO139009  34.183  -0.112  -0.478
  349XTA    OA239010  34.149  -1.105  -0.267
  349XTA    CO239011  34.151  -1.200  -0.372
  349XTA    CL139012  34.274  -1.282  -0.336
  349XTA    CL239013  34.407  -1.206  -0.336
  349XTA    CL339014  34.521  -1.299  -0.296
  349XTA    CL439015  34.648  -1.223  -0.291
  349XTA    CO339016  34.768  -1.308  -0.257
  349XTA    OA339017  34.756  -1.336  -0.117
  349XTA    CO439018  34.829  -1.452  -0.090
  349XTA    CT139019  34.849  -1.464   0.061
  349XTA    CL539020  34.944  -1.365   0.122
  349XTA    CL639021  35.086  -1.366   0.053
  349XTA    OA439022  33.379  -0.471  -0.158
  349XTA    CO539023  33.308  -0.424  -0.271
  349XTA    CL739024  33.175  -0.366  -0.222
  349XTA    CL839025  33.084  -0.325  -0.341
  349XTA    CL939026  33.123  -0.197  -0.415
  349XTA   CL1039027  33.108  -0.072  -0.327
  349XTA    CO639028  33.170   0.060  -0.378
  349XTA    OA539029  33.313   0.047  -0.386
  349XTA    CO739030  33.377   0.163  -0.439
  349XTA    CT239031  33.513   0.150  -0.367
  349XTA   CL1139032  33.518   0.199  -0.218
  349XTA   CL1239033  33.440   0.117  -0.119
  349XTA    HL139034  34.129  -0.104  -0.381
  349XTA    HL239035  34.288  -0.147  -0.474
  349XTA    HL339036  34.185  -0.014  -0.521
  349XTA    HL439037  34.064  -1.271  -0.378
  349XTA    HL539038  34.169  -1.161  -0.471
  349XTA    HL639039  34.280  -1.362  -0.412
  349XTA    HL739040  34.267  -1.326  -0.239
  349XTA    HL839041  34.407  -1.131  -0.258
  349XTA    HL939042  34.436  -1.171  -0.431
  349XTA   HL1039043  34.502  -1.341  -0.201
  349XTA   HL1139044  34.527  -1.391  -0.355
  349XTA   HL1239045  34.645  -1.131  -0.226
  349XTA   HL1339046  34.674  -1.187  -0.388
  349XTA   HL1439047  34.775  -1.379  -0.327
  349XTA   HL1539048  34.859  -1.249  -0.280
  349XTA   HL1639049  34.768  -1.525  -0.144
  349XTA   HL1739050  34.922  -1.460  -0.141
  349XTA   HL1839051  34.959  -1.393   0.225
  349XTA   HL1939052  34.884  -1.273   0.115
  349XTA   HL2039053  35.073  -1.347  -0.054
  349XTA   HL2139054  35.125  -1.469   0.061
  349XTA   HL2239055  35.153  -1.286   0.103
  349XTA   HL2339056  33.294  -0.507  -0.344
  349XTA   HL2439057  33.373  -0.346  -0.322
  349XTA   HL2539058  33.132  -0.445  -0.164
  349XTA   HL2639059  33.181  -0.279  -0.160
  349XTA   HL2739060  33.079  -0.404  -0.427
  349XTA   HL2839061  32.983  -0.317  -0.295
  349XTA   HL2939062  33.229  -0.199  -0.439
  349XTA   HL3039063  33.064  -0.174  -0.505
  349XTA   HL3139064  32.999  -0.063  -0.299
  349XTA   HL3239065  33.154  -0.081  -0.226
  349XTA   HL3339066  33.130   0.076  -0.473
  349XTA   HL3439067  33.151   0.145  -0.323
  349XTA   HL3539068  33.326   0.263  -0.419
  349XTA   HL3639069  33.394   0.163  -0.541
  349XTA   HL3739070  33.495   0.311  -0.201
  349XTA   HL3839071  33.625   0.203  -0.189
  349XTA   HL3939072  33.342   0.105  -0.167
  349XTA   HL4039073  33.430   0.168  -0.018
  349XTA   HL4139074  33.485   0.014  -0.106
  349XTA    CO839075  34.866  -1.603   0.103
  349XTA    CO939076  34.720  -1.457   0.147
  349XTA    OA639077  34.750  -1.591   0.191
  349XTA   HL4239078  34.959  -1.609   0.170
  349XTA   HL4339079  34.859  -1.690   0.039
  349XTA   HL4439080  33.590   0.279  -0.527
  349XTA   HL4539081  33.676   0.290  -0.379
  349XTA   CO1039082  33.618   0.221  -0.443
  349XTA   CO1139083  33.591   0.020  -0.391
  349XTA    OA739084  33.685   0.090  -0.462
  349XTA   HL4639085  33.619  -0.037  -0.306
  349XTA   HL4739086  33.547  -0.046  -0.462
  349XTA   HL4839087  34.626  -1.451   0.087
  349XTA   HL4939088  34.734  -1.374   0.219
  350XTA     NT39089  32.669   2.433   1.611
  350XTA    CN139090  32.798   2.458   1.646
  350XTA     C139091  32.892   2.349   1.645
  350XTA     C239092  33.030   2.380   1.666
  350XTA     C339093  33.080   2.511   1.683
  350XTA     C439094  32.989   2.620   1.675
  350XTA     C539095  32.847   2.588   1.662
  350XTA    CN239096  32.583   2.390   1.699
  350XTA     C639097  32.537   2.480   1.804
  350XTA     C739098  32.442   2.438   1.896
  350XTA     C839099  32.381   2.313   1.875
  350XTA     C939100  32.421   2.221   1.777
  350XTA    C1039101  32.520   2.259   1.682
  350XTA    CN339102  32.619   2.484   1.497
  350XTA    C1139103  32.547   2.602   1.487
  350XTA    C1239104  32.501   2.658   1.363
  350XTA    C1339105  32.516   2.589   1.241
  350XTA    C1439106  32.582   2.469   1.252
  350XTA    C1539107  32.633   2.414   1.373
  350XTA     H139108  32.865   2.245   1.640
  350XTA     H239109  33.100   2.299   1.671
  350XTA     H339110  33.015   2.721   1.687
  350XTA     H439111  32.776   2.669   1.661
  350XTA     H539112  32.579   2.577   1.818
  350XTA     H639113  32.396   2.499   1.971
  350XTA     H739114  32.365   2.132   1.774
  350XTA     H839115  32.552   2.194   1.606
  350XTA     H939116  32.536   2.666   1.575
  350XTA    H1039117  32.459   2.753   1.376
  350XTA    H1139118  32.591   2.413   1.158
  350XTA    H1239119  32.697   2.327   1.365
  350XTA    OA139120  33.216   2.525   1.706
  350XTA    CO139121  33.251   2.657   1.750
  350XTA    OA239122  32.269   2.271   1.948
  350XTA    CO239123  32.241   2.341   2.066
  350XTA    CL139124  32.135   2.250   2.135
  350XTA    CL239125  32.104   2.298   2.271
  350XTA    CL339126  32.224   2.285   2.374
  350XTA    CL439127  32.184   2.332   2.515
  350XTA    CO339128  32.293   2.384   2.607
  350XTA    OA339129  32.351   2.274   2.667
  350XTA    CO439130  32.493   2.296   2.670
  350XTA    CT139131  32.567   2.196   2.763
  350XTA    CL539132  32.544   2.054   2.707
  350XTA    CL639133  32.601   1.941   2.791
  350XTA    OA439134  32.479   2.634   1.115
  350XTA    CO539135  32.419   2.760   1.103
  350XTA    CL739136  32.525   2.871   1.093
  350XTA    CL839137  32.462   3.007   1.096
  350XTA    CL939138  32.556   3.109   1.158
  350XTA   CL1039139  32.486   3.232   1.204
  350XTA    CO639140  32.566   3.350   1.263
  350XTA    OA539141  32.514   3.482   1.227
  350XTA    CO739142  32.544   3.521   1.091
  350XTA    CT239143  32.463   3.642   1.042
  350XTA   CL1139144  32.492   3.679   0.902
  350XTA   CL1239145  32.530   3.566   0.809
  350XTA    HL139146  33.361   2.669   1.744
  350XTA    HL239147  33.203   2.728   1.678
  350XTA    HL339148  33.216   2.685   1.851
  350XTA    HL439149  32.328   2.355   2.133
  350XTA    HL539150  32.208   2.445   2.050
  350XTA    HL639151  32.175   2.151   2.144
  350XTA    HL739152  32.050   2.239   2.056
  350XTA    HL839153  32.015   2.245   2.305
  350XTA    HL939154  32.085   2.405   2.258
  350XTA   HL1039155  32.251   2.179   2.373
  350XTA   HL1139156  32.307   2.358   2.344
  350XTA   HL1239157  32.129   2.256   2.560
  350XTA   HL1339158  32.116   2.415   2.499
  350XTA   HL1439159  32.361   2.448   2.556
  350XTA   HL1539160  32.246   2.444   2.684
  350XTA   HL1639161  32.533   2.278   2.566
  350XTA   HL1739162  32.512   2.402   2.698
  350XTA   HL1839163  32.580   2.051   2.600
  350XTA   HL1939164  32.438   2.046   2.701
  350XTA   HL2039165  32.553   1.951   2.893
  350XTA   HL2139166  32.712   1.933   2.799
  350XTA   HL2239167  32.573   1.844   2.754
  350XTA   HL2339168  32.353   2.788   1.187
  350XTA   HL2439169  32.354   2.751   1.017
  350XTA   HL2539170  32.587   2.848   1.179
  350XTA   HL2639171  32.590   2.847   1.006
  350XTA   HL2739172  32.434   3.036   0.993
  350XTA   HL2839173  32.378   3.011   1.159
  350XTA   HL2939174  32.605   3.073   1.258
  350XTA   HL3039175  32.642   3.139   1.100
  350XTA   HL3139176  32.437   3.278   1.122
  350XTA   HL3239177  32.397   3.209   1.266
  350XTA   HL3339178  32.557   3.364   1.371
  350XTA   HL3439179  32.669   3.344   1.229
  350XTA   HL3539180  32.519   3.426   1.032
  350XTA   HL3639181  32.643   3.536   1.060
  350XTA   HL3739182  32.576   3.747   0.911
  350XTA   HL3839183  32.409   3.731   0.853
  350XTA   HL3939184  32.616   3.506   0.849
  350XTA   HL4039185  32.567   3.601   0.716
  350XTA   HL4139186  32.440   3.518   0.781
  350XTA    CO839187  32.533   2.216   2.910
  350XTA    CO939188  32.712   2.224   2.752
  350XTA    OA639189  32.392   2.187   2.922
  350XTA   HL4239190  32.540   2.321   2.939
  350XTA   HL4339191  32.584   2.154   2.983
  350XTA   HL4439192  32.438   3.853   1.096
  350XTA   HL4539193  32.444   3.746   1.236
  350XTA   CO1039194  32.485   3.760   1.133
  350XTA   CO1139195  32.317   3.599   1.064
  350XTA    OA739196  32.592   3.774   1.139
  350XTA   HL4639197  32.272   3.533   0.946
  350XTA   HL4739198  32.302   3.517   1.137
  350XTA   HL4839199  32.724   2.327   2.792
  350XTA   HL4939200  32.768   2.170   2.817
  351XTA     NT39201  35.242   3.874   3.547
  351XTA    CN139202  35.336   3.806   3.478
  351XTA     C139203  35.481   3.820   3.500
  351XTA     C239204  35.570   3.747   3.421
  351XTA     C339205  35.522   3.674   3.310
  351XTA     C439206  35.386   3.647   3.290
  351XTA     C539207  35.294   3.717   3.370
  351XTA    CN239208  35.220   4.007   3.522
  351XTA     C639209  35.195   4.062   3.395
  351XTA     C739210  35.147   4.195   3.380
  351XTA     C839211  35.141   4.278   3.489
  351XTA     C939212  35.180   4.231   3.616
  351XTA    C1039213  35.216   4.094   3.634
  351XTA    CN339214  35.145   3.808   3.613
  351XTA    C1139215  35.017   3.791   3.563
  351XTA    C1239216  34.921   3.731   3.644
  351XTA    C1339217  34.945   3.676   3.769
  351XTA    C1439218  35.072   3.704   3.826
  351XTA    C1539219  35.170   3.766   3.743
  351XTA     H139220  35.505   3.899   3.576
  351XTA     H239221  35.671   3.755   3.456
  351XTA     H339222  35.343   3.582   3.210
  351XTA     H439223  35.188   3.706   3.360
  351XTA     H539224  35.213   3.998   3.308
  351XTA     H639225  35.122   4.227   3.283
  351XTA     H739226  35.190   4.288   3.712
  351XTA     H839227  35.236   4.054   3.733
  351XTA     H939228  34.980   3.823   3.463
  351XTA    H1039229  34.826   3.712   3.600
  351XTA    H1139230  35.106   3.671   3.919
  351XTA    H1239231  35.273   3.803   3.777
  351XTA    OA139232  35.617   3.625   3.223
  351XTA    CO139233  35.731   3.567   3.279
  351XTA    OA239234  35.100   4.405   3.467
  351XTA    CO239235  35.155   4.507   3.551
  351XTA    CL139236  35.095   4.642   3.508
  351XTA    CL239237  34.940   4.642   3.507
  351XTA    CL339238  34.868   4.776   3.507
  351XTA    CL439239  34.726   4.770   3.581
  351XTA    CO339240  34.749   4.794   3.737
  351XTA    OA339241  34.823   4.913   3.755
  351XTA    CO439242  34.761   5.034   3.706
  351XTA    CT139243  34.855   5.153   3.739
  351XTA    CL539244  34.794   5.272   3.662
  351XTA    CL639245  34.730   5.245   3.528
  351XTA    OA439246  34.867   3.585   3.831
  351XTA    CO539247  34.728   3.569   3.773
  351XTA    CL739248  34.636   3.692   3.795
  351XTA    CL839249  34.500   3.683   3.722
  351XTA    CL939250  34.417   3.812   3.708
  351XTA   CL1039251  34.366   3.866   3.840
  351XTA    CO639252  34.362   4.017   3.834
  351XTA    OA539253  34.275   4.057   3.726
  351XTA    CO739254  34.277   4.201   3.698
  351XTA    CT239255  34.293   4.227   3.544
  351XTA   CL1139256  34.285   4.382   3.521
  351XTA   CL1239257  34.393   4.471   3.579
  351XTA    HL139258  35.796   3.546   3.196
  351XTA    HL239259  35.789   3.628   3.352
  351XTA    HL339260  35.707   3.477   3.333
  351XTA    HL439261  35.137   4.487   3.658
  351XTA    HL539262  35.262   4.512   3.524
  351XTA    HL639263  35.130   4.691   3.414
  351XTA    HL739264  35.127   4.717   3.582
  351XTA    HL839265  34.921   4.583   3.593
  351XTA    HL939266  34.900   4.580   3.424
  351XTA   HL1039267  34.935   4.847   3.552
  351XTA   HL1139268  34.861   4.808   3.402
  351XTA   HL1239269  34.669   4.675   3.572
  351XTA   HL1339270  34.659   4.842   3.537
  351XTA   HL1439271  34.647   4.811   3.767
  351XTA   HL1539272  34.781   4.707   3.795
  351XTA   HL1639273  34.767   5.014   3.597
  351XTA   HL1739274  34.655   5.054   3.732
  351XTA   HL1839275  34.876   5.340   3.645
  351XTA   HL1939276  34.735   5.325   3.737
  351XTA   HL2039277  34.805   5.192   3.471
  351XTA   HL2139278  34.705   5.335   3.465
  351XTA   HL2239279  34.640   5.181   3.534
  351XTA   HL2339280  34.682   3.490   3.828
  351XTA   HL2439281  34.729   3.529   3.671
  351XTA   HL2539282  34.614   3.713   3.902
  351XTA   HL2639283  34.687   3.784   3.754
  351XTA   HL2739284  34.521   3.635   3.624
  351XTA   HL2839285  34.433   3.613   3.773
  351XTA   HL2939286  34.484   3.886   3.657
  351XTA   HL3039287  34.337   3.794   3.635
  351XTA   HL3139288  34.269   3.826   3.877
  351XTA   HL3239289  34.438   3.847   3.917
  351XTA   HL3339290  34.313   4.046   3.927
  351XTA   HL3439291  34.457   4.073   3.818
  351XTA   HL3539292  34.348   4.257   3.755
  351XTA   HL3639293  34.185   4.243   3.728
  351XTA   HL3739294  34.195   4.416   3.562
  351XTA   HL3839295  34.280   4.400   3.412
  351XTA   HL3939296  34.490   4.454   3.532
  351XTA   HL4039297  34.411   4.466   3.687
  351XTA   HL4139298  34.370   4.574   3.576
  351XTA    CO839299  34.999   5.131   3.700
  351XTA    CO939300  34.858   5.185   3.888
  351XTA    OA639301  35.015   5.146   3.598
  351XTA   HL4239302  35.029   5.021   3.715
  351XTA   HL4339303  35.066   5.189   3.769
  351XTA   HL4439304  34.200   4.055   3.477
  351XTA   HL4539305  34.089   4.174   3.537
  351XTA   CO1039306  34.171   4.160   3.469
  351XTA   CO1139307  34.428   4.179   3.506
  351XTA    OA739308  34.452   4.215   3.368
  351XTA   HL4639309  34.512   4.233   3.556
  351XTA   HL4739310  34.438   4.072   3.510
  351XTA   HL4839311  34.933   5.085   3.953
  351XTA   HL4939312  34.897   5.289   3.898
  352XTA     NT39313  31.588   3.019   7.169
  352XTA    CN139314  31.457   3.033   7.215
  352XTA     C139315  31.372   2.935   7.179
  352XTA     C239316  31.240   2.930   7.227
  352XTA     C339317  31.188   3.042   7.293
  352XTA     C439318  31.269   3.150   7.317
  352XTA     C539319  31.405   3.142   7.287
  352XTA    CN239320  31.659   2.899   7.174
  352XTA     C639321  31.704   2.854   7.302
  352XTA     C739322  31.785   2.737   7.311
  352XTA     C839323  31.824   2.666   7.193
  352XTA     C939324  31.776   2.705   7.071
  352XTA    C1039325  31.695   2.823   7.061
  352XTA    CN339326  31.649   3.117   7.097
  352XTA    C1139327  31.593   3.146   6.974
  352XTA    C1239328  31.640   3.253   6.901
  352XTA    C1339329  31.760   3.318   6.947
  352XTA    C1439330  31.825   3.284   7.057
  352XTA    C1539331  31.764   3.186   7.137
  352XTA     H139332  31.415   2.853   7.115
  352XTA     H239333  31.174   2.847   7.211
  352XTA     H339334  31.230   3.238   7.363
  352XTA     H439335  31.467   3.222   7.309
  352XTA     H539336  31.691   2.910   7.394
  352XTA     H639337  31.820   2.700   7.409
  352XTA     H739338  31.802   2.645   6.984
  352XTA     H839339  31.658   2.865   6.972
  352XTA     H939340  31.513   3.092   6.946
  352XTA    H1039341  31.605   3.284   6.807
  352XTA    H1139342  31.920   3.332   7.088
  352XTA    H1239343  31.813   3.166   7.230
  352XTA    OA139344  31.057   3.035   7.326
  352XTA    CO139345  30.992   3.158   7.320
  352XTA    OA239346  31.909   2.560   7.195
  352XTA    CO239347  31.917   2.473   7.306
  352XTA    CL139348  32.021   2.510   7.410
  352XTA    CL239349  32.061   2.389   7.494
  352XTA    CL339350  32.135   2.430   7.614
  352XTA    CL439351  32.183   2.309   7.698
  352XTA    CO339352  32.202   2.344   7.846
  352XTA    OA339353  32.073   2.383   7.891
  352XTA    CO439354  32.071   2.419   8.025
  352XTA    CT139355  31.932   2.491   8.043
  352XTA    CL539356  31.925   2.610   7.937
  352XTA    CL639357  32.042   2.706   7.952
  352XTA    OA439358  31.806   3.429   6.878
  352XTA    CO539359  31.744   3.464   6.756
  352XTA    CL739360  31.820   3.569   6.684
  352XTA    CL839361  31.732   3.659   6.591
  352XTA    CL939362  31.625   3.753   6.665
  352XTA   CL1039363  31.538   3.820   6.564
  352XTA    CO639364  31.441   3.922   6.625
  352XTA    OA539365  31.351   3.985   6.531
  352XTA    CO739366  31.230   3.893   6.524
  352XTA    CT239367  31.130   3.949   6.426
  352XTA   CL1139368  31.104   4.098   6.451
  352XTA   CL1239369  31.017   4.133   6.569
  352XTA    HL139370  30.884   3.157   7.350
  352XTA    HL239371  31.036   3.223   7.397
  352XTA    HL339372  30.999   3.206   7.223
  352XTA    HL439373  31.824   2.455   7.361
  352XTA    HL539374  31.949   2.382   7.253
  352XTA    HL639375  31.983   2.596   7.464
  352XTA    HL739376  32.110   2.543   7.361
  352XTA    HL839377  32.117   2.320   7.439
  352XTA    HL939378  31.970   2.338   7.530
  352XTA   HL1039379  32.220   2.483   7.576
  352XTA   HL1139380  32.070   2.485   7.669
  352XTA   HL1239381  32.277   2.268   7.653
  352XTA   HL1339382  32.112   2.232   7.694
  352XTA   HL1439383  32.252   2.260   7.903
  352XTA   HL1539384  32.261   2.438   7.844
  352XTA   HL1639385  32.101   2.342   8.090
  352XTA   HL1739386  32.154   2.489   8.037
  352XTA   HL1839387  31.832   2.669   7.953
  352XTA   HL1939388  31.934   2.580   7.832
  352XTA   HL2039389  32.029   2.765   8.046
  352XTA   HL2139390  32.034   2.779   7.867
  352XTA   HL2239391  32.147   2.667   7.951
  352XTA   HL2339392  31.643   3.503   6.771
  352XTA   HL2439393  31.733   3.383   6.680
  352XTA   HL2539394  31.862   3.637   6.753
  352XTA   HL2639395  31.900   3.527   6.624
  352XTA   HL2739396  31.805   3.727   6.537
  352XTA   HL2839397  31.682   3.603   6.512
  352XTA   HL2939398  31.558   3.699   6.725
  352XTA   HL3039399  31.679   3.828   6.719
  352XTA   HL3139400  31.597   3.882   6.499
  352XTA   HL3239401  31.484   3.746   6.501
  352XTA   HL3339402  31.384   3.873   6.708
  352XTA   HL3439403  31.500   4.007   6.660
  352XTA   HL3539404  31.181   3.879   6.613
  352XTA   HL3639405  31.254   3.793   6.500
  352XTA   HL3739406  31.052   4.133   6.360
  352XTA   HL3839407  31.196   4.159   6.458
  352XTA   HL3939408  31.007   4.244   6.572
  352XTA   HL4039409  31.055   4.089   6.663
  352XTA   HL4139410  30.916   4.095   6.553
  352XTA    CO839411  31.921   2.533   8.193
  352XTA    CO939412  31.826   2.384   8.008
  352XTA    OA639413  31.725   2.432   8.017
  352XTA   HL4239414  31.818   2.576   8.195
  352XTA   HL4339415  31.926   2.422   8.283
  352XTA   HL4439416  30.967   3.877   6.511
  352XTA   HL4539417  30.925   3.918   6.348
  352XTA   CO1039418  30.999   3.875   6.412
  352XTA   CO1139419  31.201   3.943   6.286
  352XTA    OA739420  31.027   3.739   6.370
  352XTA   HL4639421  31.218   3.834   6.257
  352XTA   HL4739422  31.299   3.986   6.294
  352XTA   HL4839423  31.830   2.301   8.076
  352XTA   HL4939424  31.835   2.335   7.904
  353XTA     NT39425  28.210   1.426   3.206
  353XTA    CN139426  28.207   1.475   3.328
  353XTA     C139427  28.081   1.504   3.396
  353XTA     C239428  28.084   1.554   3.529
  353XTA     C339429  28.209   1.575   3.593
  353XTA     C439430  28.332   1.559   3.526
  353XTA     C539431  28.328   1.505   3.399
  353XTA    CN239432  28.169   1.303   3.175
  353XTA     C639433  28.046   1.272   3.113
  353XTA     C739434  28.014   1.141   3.067
  353XTA     C839435  28.104   1.036   3.104
  353XTA     C939436  28.216   1.068   3.180
  353XTA    C1039437  28.245   1.193   3.223
  353XTA    CN339438  28.262   1.509   3.114
  353XTA    C1139439  28.388   1.486   3.058
  353XTA    C1239440  28.453   1.568   2.964
  353XTA    C1339441  28.392   1.695   2.941
  353XTA    C1439442  28.270   1.728   3.000
  353XTA    C1539443  28.197   1.632   3.077
  353XTA     H139444  27.993   1.482   3.340
  353XTA     H239445  27.986   1.575   3.575
  353XTA     H339446  28.423   1.573   3.574
  353XTA     H439447  28.428   1.484   3.356
  353XTA     H539448  27.984   1.360   3.091
  353XTA     H639449  27.918   1.131   3.012
  353XTA     H739450  28.274   0.985   3.212
  353XTA     H839451  28.326   1.199   3.289
  353XTA     H939452  28.444   1.396   3.072
  353XTA    H1039453  28.550   1.536   2.916
  353XTA    H1139454  28.219   1.826   2.985
  353XTA    H1239455  28.102   1.653   3.115
  353XTA    OA139456  28.209   1.638   3.721
  353XTA    CO139457  28.333   1.703   3.756
  353XTA    OA239458  28.088   0.907   3.068
  353XTA    CO239459  27.994   0.874   2.967
  353XTA    CL139460  27.853   0.871   3.024
  353XTA    CL239461  27.753   0.901   2.923
  353XTA    CL339462  27.620   0.928   2.992
  353XTA    CL439463  27.511   0.968   2.893
  353XTA    CO339464  27.369   0.933   2.939
  353XTA    OA339465  27.348   0.796   2.941
  353XTA    CO439466  27.304   0.749   2.814
  353XTA    CT139467  27.270   0.601   2.816
  353XTA    CL539468  27.395   0.525   2.876
  353XTA    CL639469  27.385   0.367   2.887
  353XTA    OA439470  28.458   1.794   2.861
  353XTA    CO539471  28.599   1.780   2.827
  353XTA    CL739472  28.661   1.917   2.791
  353XTA    CL839473  28.803   1.905   2.733
  353XTA    CL939474  28.865   2.041   2.689
  353XTA   CL1039475  28.992   2.017   2.612
  353XTA    CO639476  28.974   1.986   2.460
  353XTA    OA539477  28.948   2.117   2.398
  353XTA    CO739478  28.982   2.104   2.254
  353XTA    CT239479  28.946   2.244   2.195
  353XTA   CL1139480  28.956   2.229   2.040
  353XTA   CL1239481  29.097   2.220   1.979
  353XTA    HL139482  28.369   1.754   3.668
  353XTA    HL239483  28.320   1.784   3.828
  353XTA    HL339484  28.408   1.637   3.792
  353XTA    HL439485  28.015   0.927   2.876
  353XTA    HL539486  28.019   0.770   2.952
  353XTA    HL639487  27.857   0.947   3.102
  353XTA    HL739488  27.829   0.782   3.072
  353XTA    HL839489  27.745   0.819   2.856
  353XTA    HL939490  27.791   0.978   2.868
  353XTA   HL1039491  27.581   0.849   3.055
  353XTA   HL1139492  27.634   1.010   3.061
  353XTA   HL1239493  27.535   0.903   2.807
  353XTA   HL1339494  27.520   1.074   2.866
  353XTA   HL1439495  27.340   0.975   3.035
  353XTA   HL1539496  27.301   0.980   2.867
  353XTA   HL1639497  27.213   0.804   2.793
  353XTA   HL1739498  27.387   0.762   2.745
  353XTA   HL1839499  27.425   0.567   2.969
  353XTA   HL1939500  27.479   0.544   2.816
  353XTA   HL2039501  27.485   0.315   2.921
  353XTA   HL2139502  27.369   0.319   2.790
  353XTA   HL2239503  27.304   0.341   2.958
  353XTA   HL2339504  28.596   1.707   2.745
  353XTA   HL2439505  28.659   1.735   2.907
  353XTA   HL2539506  28.596   1.968   2.721
  353XTA   HL2639507  28.670   1.979   2.873
  353XTA   HL2739508  28.868   1.859   2.805
  353XTA   HL2839509  28.796   1.831   2.654
  353XTA   HL2939510  28.785   2.092   2.630
  353XTA   HL3039511  28.882   2.114   2.766
  353XTA   HL3139512  29.045   2.113   2.625
  353XTA   HL3239513  29.046   1.942   2.661
  353XTA   HL3339514  29.068   1.943   2.424
  353XTA   HL3439515  28.901   1.905   2.439
  353XTA   HL3539516  28.918   2.027   2.213
  353XTA   HL3639517  29.091   2.095   2.248
  353XTA   HL3739518  28.906   2.316   2.010
  353XTA   HL3839519  28.889   2.155   1.997
  353XTA   HL3939520  29.170   2.281   2.033
  353XTA   HL4039521  29.107   2.251   1.876
  353XTA   HL4139522  29.135   2.112   1.981
  353XTA    CO839523  27.233   0.545   2.678
  353XTA    CO939524  27.152   0.575   2.915
  353XTA    OA639525  27.026   0.608   2.874
  353XTA   HL4239526  27.225   0.440   2.700
  353XTA   HL4339527  27.320   0.549   2.612
  353XTA   HL4439528  29.054   2.429   2.164
  353XTA   HL4539529  28.984   2.414   2.319
  353XTA   CO1039530  29.034   2.361   2.240
  353XTA   CO1139531  28.795   2.265   2.230
  353XTA    OA739532  29.133   2.331   2.282
  353XTA   HL4639533  28.712   2.177   2.159
  353XTA   HL4739534  28.769   2.256   2.339
  353XTA   HL4839535  27.168   0.622   3.012
  353XTA   HL4939536  27.148   0.468   2.927
  354XTA     NT39537  31.569  -2.293   3.999
  354XTA    CN139538  31.434  -2.310   4.015
  354XTA     C139539  31.363  -2.219   4.107
  354XTA     C239540  31.224  -2.230   4.115
  354XTA     C339541  31.154  -2.331   4.044
  354XTA     C439542  31.222  -2.432   3.971
  354XTA     C539543  31.362  -2.412   3.948
  354XTA    CN239544  31.622  -2.244   3.885
  354XTA     C639545  31.730  -2.316   3.835
  354XTA     C739546  31.799  -2.279   3.718
  354XTA     C839547  31.783  -2.149   3.665
  354XTA     C939548  31.679  -2.075   3.725
  354XTA    C1039549  31.586  -2.120   3.824
  354XTA    CN339550  31.653  -2.330   4.099
  354XTA    C1139551  31.715  -2.229   4.176
  354XTA    C1239552  31.816  -2.260   4.265
  354XTA    C1339553  31.845  -2.392   4.295
  354XTA    C1439554  31.772  -2.493   4.234
  354XTA    C1539555  31.677  -2.467   4.131
  354XTA     H139556  31.424  -2.143   4.160
  354XTA     H239557  31.172  -2.153   4.167
  354XTA     H339558  31.174  -2.519   3.923
  354XTA     H439559  31.402  -2.490   3.894
  354XTA     H539560  31.755  -2.401   3.889
  354XTA     H639561  31.874  -2.346   3.678
  354XTA     H739562  31.656  -1.976   3.690
  354XTA     H839563  31.510  -2.052   3.851
  354XTA     H939564  31.689  -2.124   4.155
  354XTA    H1039565  31.865  -2.184   4.320
  354XTA    H1139566  31.800  -2.594   4.254
  354XTA    H1239567  31.624  -2.554   4.081
  354XTA    OA139568  31.016  -2.323   4.055
  354XTA    CO139569  30.945  -2.443   4.023
  354XTA    OA239570  31.853  -2.095   3.559
  354XTA    CO239571  31.958  -2.175   3.515
  354XTA    CL139572  32.029  -2.101   3.401
  354XTA    CL239573  32.163  -2.169   3.375
  354XTA    CL339574  32.227  -2.098   3.252
  354XTA    CL439575  32.371  -2.146   3.232
  354XTA    CO339576  32.437  -2.059   3.127
  354XTA    OA339577  32.493  -1.954   3.203
  354XTA    CO439578  32.533  -1.844   3.130
  354XTA    CT139579  32.622  -1.757   3.223
  354XTA    CL539580  32.620  -1.611   3.173
  354XTA    CL639581  32.480  -1.549   3.143
  354XTA    OA439582  31.959  -2.436   4.369
  354XTA    CO539583  32.080  -2.427   4.294
  354XTA    CL739584  32.210  -2.451   4.384
  354XTA    CL839585  32.332  -2.454   4.288
  354XTA    CL939586  32.472  -2.405   4.352
  354XTA   CL1039587  32.510  -2.497   4.470
  354XTA    CO639588  32.634  -2.455   4.541
  354XTA    OA539589  32.617  -2.468   4.679
  354XTA    CO739590  32.573  -2.346   4.735
  354XTA    CT239591  32.542  -2.356   4.883
  354XTA   CL1139592  32.538  -2.214   4.942
  354XTA   CL1239593  32.454  -2.115   4.860
  354XTA    HL139594  30.838  -2.423   4.040
  354XTA    HL239595  30.946  -2.495   3.924
  354XTA    HL339596  30.986  -2.516   4.088
  354XTA    HL439597  32.025  -2.186   3.603
  354XTA    HL539598  31.920  -2.272   3.483
  354XTA    HL639599  32.054  -1.997   3.429
  354XTA    HL739600  31.951  -2.109   3.322
  354XTA    HL839601  32.151  -2.273   3.334
  354XTA    HL939602  32.231  -2.163   3.455
  354XTA   HL1039603  32.160  -2.102   3.161
  354XTA   HL1139604  32.230  -1.990   3.276
  354XTA   HL1239605  32.368  -2.246   3.206
  354XTA   HL1339606  32.431  -2.152   3.324
  354XTA   HL1439607  32.514  -2.118   3.074
  354XTA   HL1539608  32.366  -2.026   3.053
  354XTA   HL1639609  32.592  -1.897   3.057
  354XTA   HL1739610  32.443  -1.790   3.094
  354XTA   HL1839611  32.667  -1.612   3.070
  354XTA   HL1939612  32.681  -1.546   3.238
  354XTA   HL2039613  32.435  -1.605   3.057
  354XTA   HL2139614  32.485  -1.435   3.119
  354XTA   HL2239615  32.411  -1.556   3.227
  354XTA   HL2339616  32.092  -2.336   4.240
  354XTA   HL2439617  32.067  -2.496   4.213
  354XTA   HL2539618  32.227  -2.359   4.448
  354XTA   HL2639619  32.209  -2.532   4.452
  354XTA   HL2739620  32.340  -2.560   4.251
  354XTA   HL2839621  32.303  -2.393   4.202
  354XTA   HL2939622  32.556  -2.397   4.289
  354XTA   HL3039623  32.455  -2.299   4.388
  354XTA   HL3139624  32.439  -2.494   4.549
  354XTA   HL3239625  32.511  -2.604   4.444
  354XTA   HL3339626  32.717  -2.525   4.516
  354XTA   HL3439627  32.675  -2.353   4.519
  354XTA   HL3539628  32.486  -2.313   4.675
  354XTA   HL3639629  32.654  -2.269   4.717
  354XTA   HL3739630  32.637  -2.179   4.958
  354XTA   HL3839631  32.506  -2.220   5.048
  354XTA   HL3939632  32.495  -2.024   4.906
  354XTA   HL4039633  32.350  -2.130   4.883
  354XTA   HL4139634  32.471  -2.112   4.749
  354XTA    CO839635  32.764  -1.819   3.229
  354XTA    CO939636  32.558  -1.759   3.366
  354XTA    OA639637  32.756  -1.949   3.283
  354XTA   HL4239638  32.827  -1.775   3.306
  354XTA   HL4339639  32.811  -1.836   3.132
  354XTA   HL4439640  32.651  -2.540   4.929
  354XTA   HL4539641  32.760  -2.405   4.914
  354XTA   CO1039642  32.659  -2.431   4.958
  354XTA   CO1139643  32.415  -2.428   4.920
  354XTA    OA739644  32.660  -2.422   5.062
  354XTA   HL4639645  32.375  -2.389   5.050
  354XTA   HL4739646  32.338  -2.369   4.868
  354XTA   HL4839647  32.462  -1.705   3.355
  354XTA   HL4939648  32.548  -1.861   3.386
  355XTA     NT39649  29.792   4.753   1.684
  355XTA    CN139650  29.716   4.859   1.733
  355XTA     C139651  29.658   4.952   1.649
  355XTA     C239652  29.585   5.060   1.694
  355XTA     C339653  29.569   5.088   1.830
  355XTA     C439654  29.629   5.005   1.919
  355XTA     C539655  29.702   4.888   1.873
  355XTA    CN239656  29.743   4.634   1.722
  355XTA     C639657  29.805   4.570   1.833
  355XTA     C739658  29.769   4.436   1.871
  355XTA     C839659  29.658   4.386   1.806
  355XTA     C939660  29.593   4.453   1.707
  355XTA    C1039661  29.631   4.578   1.667
  355XTA    CN339662  29.919   4.765   1.652
  355XTA    C1139663  29.974   4.735   1.524
  355XTA    C1239664  30.110   4.763   1.491
  355XTA    C1339665  30.184   4.832   1.590
  355XTA    C1439666  30.138   4.848   1.722
  355XTA    C1539667  30.005   4.813   1.760
  355XTA     H139668  29.694   4.955   1.544
  355XTA     H239669  29.518   5.123   1.633
  355XTA     H339670  29.620   5.026   2.022
  355XTA     H439671  29.744   4.834   1.957
  355XTA     H539672  29.891   4.619   1.882
  355XTA     H639673  29.826   4.403   1.956
  355XTA     H739674  29.495   4.410   1.666
  355XTA     H839675  29.575   4.627   1.585
  355XTA     H939676  29.903   4.705   1.454
  355XTA    H1039677  30.141   4.743   1.388
  355XTA    H1139678  30.208   4.893   1.795
  355XTA    H1239679  29.958   4.813   1.855
  355XTA    OA139680  29.500   5.195   1.866
  355XTA    CO139681  29.441   5.201   1.995
  355XTA    OA239682  29.603   4.264   1.836
  355XTA    CO239683  29.660   4.186   1.942
  355XTA    CL139684  29.583   4.058   1.961
  355XTA    CL239685  29.652   3.976   2.064
  355XTA    CL339686  29.588   3.844   2.080
  355XTA    CL439687  29.672   3.777   2.186
  355XTA    CO339688  29.615   3.654   2.262
  355XTA    OA339689  29.710   3.615   2.368
  355XTA    CO439690  29.684   3.690   2.483
  355XTA    CT139691  29.798   3.703   2.581
  355XTA    CL539692  29.934   3.675   2.514
  355XTA    CL639693  29.978   3.763   2.400
  355XTA    OA439694  30.313   4.875   1.562
  355XTA    CO539695  30.367   4.828   1.436
  355XTA    CL739696  30.489   4.927   1.410
  355XTA    CL839697  30.590   4.929   1.523
  355XTA    CL939698  30.722   4.992   1.489
  355XTA   CL1039699  30.796   4.999   1.623
  355XTA    CO639700  30.939   5.044   1.611
  355XTA    OA539701  30.948   5.140   1.505
  355XTA    CO739702  31.073   5.200   1.497
  355XTA    CT239703  31.077   5.285   1.359
  355XTA   CL1139704  31.222   5.333   1.337
  355XTA   CL1239705  31.239   5.400   1.198
  355XTA    HL139706  29.365   5.282   2.001
  355XTA    HL239707  29.392   5.111   2.024
  355XTA    HL339708  29.517   5.215   2.073
  355XTA    HL439709  29.766   4.161   1.918
  355XTA    HL539710  29.664   4.236   2.035
  355XTA    HL639711  29.591   4.001   1.863
  355XTA    HL739712  29.477   4.070   1.979
  355XTA    HL839713  29.635   4.029   2.159
  355XTA    HL939714  29.754   3.967   2.043
  355XTA   HL1039715  29.484   3.865   2.118
  355XTA   HL1139716  29.588   3.790   1.989
  355XTA   HL1239717  29.678   3.855   2.267
  355XTA   HL1339718  29.774   3.760   2.172
  355XTA   HL1439719  29.510   3.672   2.296
  355XTA   HL1539720  29.608   3.564   2.201
  355XTA   HL1639721  29.674   3.785   2.442
  355XTA   HL1739722  29.587   3.677   2.532
  355XTA   HL1839723  29.956   3.576   2.479
  355XTA   HL1939724  30.005   3.691   2.597
  355XTA   HL2039725  29.963   3.874   2.405
  355XTA   HL2139726  29.920   3.739   2.311
  355XTA   HL2239727  30.078   3.753   2.362
  355XTA   HL2339728  30.304   4.846   1.348
  355XTA   HL2439729  30.407   4.723   1.437
  355XTA   HL2539730  30.544   4.902   1.315
  355XTA   HL2639731  30.456   5.031   1.398
  355XTA   HL2739732  30.543   4.992   1.600
  355XTA   HL2839733  30.604   4.830   1.558
  355XTA   HL2939734  30.783   4.924   1.424
  355XTA   HL3039735  30.708   5.082   1.433
  355XTA   HL3139736  30.757   5.062   1.698
  355XTA   HL3239737  30.796   4.896   1.661
  355XTA   HL3339738  30.967   5.079   1.712
  355XTA   HL3439739  31.007   4.962   1.591
  355XTA   HL3539740  31.145   5.125   1.500
  355XTA   HL3639741  31.111   5.262   1.585
  355XTA   HL3739742  31.282   5.248   1.341
  355XTA   HL3839743  31.259   5.393   1.428
  355XTA   HL3939744  31.315   5.473   1.216
  355XTA   HL4039745  31.159   5.456   1.160
  355XTA   HL4139746  31.283   5.336   1.122
  355XTA    CO839747  29.773   3.599   2.695
  355XTA    CO939748  29.802   3.853   2.634
  355XTA    OA639749  29.728   3.885   2.713
  355XTA   HL4239750  29.666   3.611   2.717
  355XTA   HL4339751  29.780   3.469   2.630
  355XTA   HL4439752  31.048   5.495   1.403
  355XTA   HL4539753  30.964   5.431   1.281
  355XTA   CO1039754  30.990   5.404   1.387
  355XTA   CO1139755  31.023   5.204   1.238
  355XTA    OA739756  31.095   5.085   1.218
  355XTA   HL4639757  30.921   5.182   1.250
  355XTA   HL4739758  31.028   5.253   1.140
  355XTA   HL4839759  29.803   3.922   2.546
  355XTA   HL4939760  29.897   3.875   2.675
  356XTA     NT39761  30.854   2.166   5.766
  356XTA    CN139762  30.833   2.090   5.660
  356XTA     C139763  30.901   1.968   5.629
  356XTA     C239764  30.873   1.897   5.512
  356XTA     C339765  30.770   1.947   5.430
  356XTA     C439766  30.697   2.059   5.461
  356XTA     C539767  30.732   2.133   5.574
  356XTA    CN239768  30.818   2.110   5.888
  356XTA     C639769  30.703   2.147   5.960
  356XTA     C739770  30.664   2.085   6.081
  356XTA     C839771  30.745   1.977   6.130
  356XTA     C939772  30.862   1.941   6.064
  356XTA    C1039773  30.895   2.002   5.942
  356XTA    CN339774  30.909   2.280   5.749
  356XTA    C1139775  30.838   2.401   5.760
  356XTA    C1239776  30.899   2.521   5.789
  356XTA    C1339777  31.040   2.523   5.790
  356XTA    C1439778  31.114   2.410   5.763
  356XTA    C1539779  31.052   2.284   5.742
  356XTA     H139780  30.984   1.931   5.697
  356XTA     H239781  30.935   1.812   5.489
  356XTA     H339782  30.627   2.105   5.397
  356XTA     H439783  30.675   2.224   5.587
  356XTA     H539784  30.645   2.231   5.928
  356XTA     H639785  30.580   2.109   6.134
  356XTA     H739786  30.927   1.871   6.107
  356XTA     H839787  30.980   1.974   5.884
  356XTA     H939788  30.730   2.400   5.761
  356XTA    H1039789  30.836   2.607   5.813
  356XTA    H1139790  31.219   2.423   5.759
  356XTA    H1239791  31.107   2.192   5.722
  356XTA    OA139792  30.751   1.879   5.312
  356XTA    CO139793  30.627   1.823   5.301
  356XTA    OA239794  30.694   1.928   6.252
  356XTA    CO239795  30.790   1.863   6.339
  356XTA    CL139796  30.728   1.824   6.480
  356XTA    CL239797  30.829   1.795   6.592
  356XTA    CL339798  30.944   1.698   6.553
  356XTA    CL439799  31.076   1.773   6.497
  356XTA    CO339800  31.170   1.683   6.409
  356XTA    OA339801  31.091   1.629   6.305
  356XTA    CO439802  31.152   1.525   6.235
  356XTA    CT139803  31.076   1.507   6.103
  356XTA    CL539804  31.042   1.638   6.034
  356XTA    CL639805  30.964   1.636   5.903
  356XTA    OA439806  31.116   2.640   5.805
  356XTA    CO539807  31.054   2.742   5.883
  356XTA    CL739808  31.159   2.850   5.919
  356XTA    CL839809  31.107   2.957   6.014
  356XTA    CL939810  31.187   3.084   6.023
  356XTA   CL1039811  31.187   3.165   5.892
  356XTA    CO639812  31.230   3.305   5.919
  356XTA    OA539813  31.255   3.374   5.800
  356XTA    CO739814  31.302   3.506   5.834
  356XTA    CT239815  31.311   3.590   5.706
  356XTA   CL1139816  31.320   3.736   5.750
  356XTA   CL1239817  31.346   3.835   5.636
  356XTA    HL139818  30.635   1.739   5.234
  356XTA    HL239819  30.597   1.768   5.392
  356XTA    HL339820  30.560   1.905   5.282
  356XTA    HL439821  30.832   1.772   6.301
  356XTA    HL539822  30.860   1.939   6.354
  356XTA    HL639823  30.666   1.735   6.462
  356XTA    HL739824  30.659   1.902   6.515
  356XTA    HL839825  30.785   1.759   6.682
  356XTA    HL939826  30.861   1.895   6.633
  356XTA   HL1039827  30.979   1.644   6.639
  356XTA   HL1139828  30.912   1.614   6.484
  356XTA   HL1239829  31.141   1.811   6.583
  356XTA   HL1339830  31.046   1.866   6.440
  356XTA   HL1439831  31.258   1.740   6.371
  356XTA   HL1539832  31.220   1.609   6.465
  356XTA   HL1639833  31.255   1.543   6.202
  356XTA   HL1739834  31.163   1.438   6.293
  356XTA   HL1839835  31.142   1.686   6.015
  356XTA   HL1939836  30.989   1.695   6.104
  356XTA   HL2039837  31.028   1.606   5.816
  356XTA   HL2139838  30.924   1.731   5.880
  356XTA   HL2239839  30.879   1.564   5.907
  356XTA   HL2339840  31.001   2.702   5.964
  356XTA   HL2439841  30.984   2.798   5.821
  356XTA   HL2539842  31.242   2.796   5.961
  356XTA   HL2639843  31.204   2.899   5.827
  356XTA   HL2739844  31.005   2.979   5.975
  356XTA   HL2839845  31.100   2.909   6.113
  356XTA   HL2939846  31.159   3.140   6.118
  356XTA   HL3039847  31.289   3.049   6.042
  356XTA   HL3139848  31.250   3.130   5.817
  356XTA   HL3239849  31.086   3.147   5.856
  356XTA   HL3339850  31.142   3.349   5.968
  356XTA   HL3439851  31.316   3.296   5.987
  356XTA   HL3539852  31.394   3.488   5.877
  356XTA   HL3639853  31.234   3.548   5.914
  356XTA   HL3739854  31.396   3.751   5.829
  356XTA   HL3839855  31.232   3.766   5.811
  356XTA   HL3939856  31.365   3.937   5.678
  356XTA   HL4039857  31.266   3.841   5.567
  356XTA   HL4139858  31.439   3.808   5.594
  356XTA    CO839859  30.947   1.421   6.132
  356XTA    CO939860  31.170   1.429   6.009
  356XTA    OA639861  31.173   1.323   6.041
  356XTA   HL4239862  30.913   1.371   6.039
  356XTA   HL4339863  30.982   1.305   6.199
  356XTA   HL4439864  31.179   3.431   5.574
  356XTA   HL4539865  31.213   3.614   5.532
  356XTA   CO1039866  31.184   3.561   5.620
  356XTA   CO1139867  31.434   3.545   5.627
  356XTA    OA739868  31.447   3.440   5.591
  356XTA   HL4639869  31.449   3.597   5.532
  356XTA   HL4739870  31.513   3.578   5.697
  356XTA   HL4839871  31.262   1.483   6.001
  356XTA   HL4939872  31.122   1.431   5.906
  357XTA     NT39873  30.009   3.292   4.937
  357XTA    CN139874  29.894   3.234   4.893
  357XTA     C139875  29.802   3.167   4.981
  357XTA     C239876  29.682   3.119   4.934
  357XTA     C339877  29.646   3.108   4.802
  357XTA     C439878  29.739   3.161   4.706
  357XTA     C539879  29.856   3.228   4.750
  357XTA    CN239880  30.110   3.215   4.993
  357XTA     C639881  30.220   3.192   4.908
  357XTA     C739882  30.335   3.128   4.957
  357XTA     C839883  30.339   3.070   5.083
  357XTA     C939884  30.225   3.092   5.167
  357XTA    C1039885  30.114   3.164   5.122
  357XTA    CN339886  30.012   3.423   4.969
  357XTA    C1139887  30.066   3.520   4.884
  357XTA    C1239888  30.065   3.653   4.931
  357XTA    C1339889  30.009   3.700   5.051
  357XTA    C1439890  29.954   3.597   5.131
  357XTA    C1539891  29.965   3.462   5.092
  357XTA     H139892  29.828   3.155   5.082
  357XTA     H239893  29.616   3.075   5.008
  357XTA     H339894  29.705   3.154   4.599
  357XTA     H439895  29.921   3.280   4.678
  357XTA     H539896  30.217   3.237   4.812
  357XTA     H639897  30.419   3.124   4.888
  357XTA     H739898  30.223   3.054   5.268
  357XTA     H839899  30.029   3.181   5.189
  357XTA     H939900  30.106   3.509   4.783
  357XTA    H1039901  30.121   3.723   4.876
  357XTA    H1139902  29.918   3.619   5.231
  357XTA    H1239903  29.938   3.383   5.164
  357XTA    OA139904  29.533   3.044   4.759
  357XTA    CO139905  29.431   3.020   4.865
  357XTA    OA239906  30.452   3.008   5.123
  357XTA    CO239907  30.434   2.881   5.193
  357XTA    CL139908  30.373   2.771   5.100
  357XTA    CL239909  30.380   2.641   5.175
  357XTA    CL339910  30.337   2.518   5.098
  357XTA    CL439911  30.196   2.528   5.040
  357XTA    CO339912  30.155   2.409   4.955
  357XTA    OA339913  30.256   2.390   4.855
  357XTA    CO439914  30.214   2.292   4.758
  357XTA    CT139915  30.316   2.290   4.643
  357XTA    CL539916  30.307   2.161   4.559
  357XTA    CL639917  30.164   2.122   4.523
  357XTA    OA439918  30.010   3.836   5.088
  357XTA    CO539919  30.019   3.870   5.221
  357XTA    CL739920  30.010   4.022   5.252
  357XTA    CL839921  29.992   4.052   5.403
  357XTA    CL939922  29.905   4.177   5.447
  357XTA   CL1039923  29.760   4.174   5.398
  357XTA    CO639924  29.675   4.065   5.469
  357XTA    OA539925  29.534   4.083   5.457
  357XTA    CO739926  29.488   4.176   5.558
  357XTA    CT239927  29.345   4.206   5.542
  357XTA   CL1139928  29.260   4.078   5.548
  357XTA   CL1239929  29.105   4.091   5.556
  357XTA    HL139930  29.418   3.104   4.937
  357XTA    HL239931  29.342   3.001   4.815
  357XTA    HL339932  29.440   2.935   4.934
  357XTA    HL439933  30.527   2.831   5.229
  357XTA    HL539934  30.367   2.893   5.280
  357XTA    HL639935  30.441   2.761   5.016
  357XTA    HL739936  30.272   2.789   5.068
  357XTA    HL839937  30.320   2.649   5.271
  357XTA    HL939938  30.483   2.624   5.211
  357XTA   HL1039939  30.413   2.510   5.014
  357XTA   HL1139940  30.357   2.432   5.161
  357XTA   HL1239941  30.181   2.618   4.977
  357XTA   HL1339942  30.125   2.556   5.123
  357XTA   HL1439943  30.154   2.310   5.010
  357XTA   HL1539944  30.058   2.424   4.912
  357XTA   HL1639945  30.209   2.189   4.801
  357XTA   HL1739946  30.117   2.320   4.717
  357XTA   HL1839947  30.357   2.085   4.614
  357XTA   HL1939948  30.364   2.184   4.466
  357XTA   HL2039949  30.111   2.132   4.612
  357XTA   HL2139950  30.153   2.017   4.503
  357XTA   HL2239951  30.116   2.177   4.449
  357XTA   HL2339952  30.104   3.826   5.261
  357XTA   HL2439953  29.935   3.827   5.265
  357XTA   HL2539954  30.090   4.075   5.211
  357XTA   HL2639955  29.937   4.078   5.198
  357XTA   HL2739956  29.940   3.967   5.454
  357XTA   HL2839957  30.098   4.047   5.440
  357XTA   HL2939958  29.892   4.189   5.553
  357XTA   HL3039959  29.938   4.274   5.408
  357XTA   HL3139960  29.710   4.266   5.422
  357XTA   HL3239961  29.746   4.163   5.288
  357XTA   HL3339962  29.703   3.973   5.425
  357XTA   HL3439963  29.702   4.055   5.578
  357XTA   HL3539964  29.547   4.268   5.562
  357XTA   HL3639965  29.491   4.128   5.650
  357XTA   HL3739966  29.292   4.022   5.642
  357XTA   HL3839967  29.281   4.013   5.462
  357XTA   HL3939968  29.053   3.997   5.527
  357XTA   HL4039969  29.061   4.156   5.475
  357XTA   HL4139970  29.082   4.131   5.655
  357XTA    CO839971  30.454   2.303   4.706
  357XTA    CO939972  30.303   2.412   4.551
  357XTA    OA639973  30.216   2.414   4.487
  357XTA   HL4239974  30.453   2.404   4.749
  357XTA   HL4339975  30.465   2.213   4.805
  357XTA   HL4439976  29.178   4.307   5.392
  357XTA   HL4539977  29.311   4.191   5.330
  357XTA   CO1039978  29.314   4.270   5.407
  357XTA   CO1139979  29.304   4.307   5.656
  357XTA    OA739980  29.380   4.388   5.663
  357XTA   HL4639981  29.208   4.354   5.630
  357XTA   HL4739982  29.289   4.263   5.759
  357XTA   HL4839983  30.395   2.439   4.491
  357XTA   HL4939984  30.298   2.494   4.626
  358XTA     NT39985  33.269   6.613   6.372
  358XTA    CN139986  33.355   6.605   6.270
  358XTA     C139987  33.389   6.722   6.199
  358XTA     C239988  33.461   6.719   6.081
  358XTA     C339989  33.505   6.599   6.027
  358XTA     C439990  33.477   6.478   6.093
  358XTA     C539991  33.403   6.485   6.217
  358XTA    CN239992  33.143   6.632   6.342
  358XTA     C639993  33.076   6.544   6.251
  358XTA     C739994  32.946   6.575   6.215
  358XTA     C839995  32.876   6.685   6.271
  358XTA     C939996  32.946   6.774   6.354
  358XTA    C1039997  33.086   6.753   6.374
  358XTA    CN339998  33.323   6.628   6.501
  358XTA    C1139999  33.264   6.564   6.607
  358XTA    C1240000  33.323   6.594   6.729
  358XTA    C1340001  33.425   6.684   6.750
  358XTA    C1440002  33.474   6.760   6.643
  358XTA    C1540003  33.419   6.731   6.517
  358XTA     H140004  33.343   6.822   6.215
  358XTA     H240005  33.469   6.812   6.027
  358XTA     H340006  33.522   6.386   6.053
  358XTA     H440007  33.379   6.398   6.273
  358XTA     H540008  33.133   6.453   6.224
  358XTA     H640009  32.900   6.502   6.151
  358XTA     H740010  32.898   6.861   6.399
  358XTA     H840011  33.148   6.820   6.434
  358XTA     H940012  33.174   6.512   6.600
  358XTA    H1040013  33.276   6.545   6.810
  358XTA    H1140014  33.539   6.851   6.639
  358XTA    H1240015  33.444   6.798   6.441
  358XTA    OA140016  33.586   6.591   5.918
  358XTA    CO140017  33.551   6.674   5.806
  358XTA    OA240018  32.750   6.728   6.240
  358XTA    CO240019  32.749   6.811   6.130
  358XTA    CL140020  32.632   6.774   6.032
  358XTA    CL240021  32.644   6.820   5.892
  358XTA    CL340022  32.669   6.971   5.862
  358XTA    CL440023  32.739   6.994   5.733
  358XTA    CO340024  32.877   6.943   5.711
  358XTA    OA340025  32.924   6.993   5.588
  358XTA    CO440026  32.890   6.920   5.470
  358XTA    CT140027  33.004   6.925   5.367
  358XTA    CL540028  33.132   6.858   5.412
  358XTA    CL640029  33.121   6.720   5.482
  358XTA    OA440030  33.475   6.703   6.877
  358XTA    CO540031  33.612   6.702   6.885
  358XTA    CL740032  33.656   6.731   7.028
  358XTA    CL840033  33.803   6.757   7.037
  358XTA    CL940034  33.850   6.900   7.058
  358XTA   CL1040035  33.846   6.989   6.936
  358XTA    CO640036  33.708   7.054   6.912
  358XTA    OA540037  33.661   7.086   7.040
  358XTA    CO740038  33.525   7.124   7.040
  358XTA    CT240039  33.469   7.138   7.185
  358XTA   CL1140040  33.546   7.248   7.259
  358XTA   CL1240041  33.688   7.208   7.290
  358XTA    HL140042  33.615   6.639   5.726
  358XTA    HL240043  33.448   6.649   5.776
  358XTA    HL340044  33.557   6.781   5.812
  358XTA    HL440045  32.739   6.914   6.167
  358XTA    HL540046  32.836   6.808   6.071
  358XTA    HL640047  32.537   6.801   6.065
  358XTA    HL740048  32.623   6.660   6.029
  358XTA    HL840049  32.561   6.793   5.822
  358XTA    HL940050  32.725   6.762   5.847
  358XTA   HL1040051  32.585   7.030   5.856
  358XTA   HL1140052  32.723   7.023   5.941
  358XTA   HL1240053  32.752   7.099   5.715
  358XTA   HL1340054  32.669   6.953   5.653
  358XTA   HL1440055  32.932   6.982   5.791
  358XTA   HL1540056  32.874   6.838   5.719
  358XTA   HL1640057  32.884   6.812   5.487
  358XTA   HL1740058  32.794   6.955   5.431
  358XTA   HL1840059  33.183   6.925   5.489
  358XTA   HL1940060  33.198   6.837   5.337
  358XTA   HL2040061  33.075   6.641   5.426
  358XTA   HL2140062  33.061   6.746   5.571
  358XTA   HL2240063  33.221   6.677   5.509
  358XTA   HL2340064  33.659   6.773   6.816
  358XTA   HL2440065  33.633   6.598   6.863
  358XTA   HL2540066  33.605   6.815   7.059
  358XTA   HL2640067  33.627   6.653   7.103
  358XTA   HL2740068  33.853   6.702   7.117
  358XTA   HL2840069  33.845   6.709   6.952
  358XTA   HL2940070  33.798   6.938   7.147
  358XTA   HL3040071  33.957   6.888   7.094
  358XTA   HL3140072  33.917   7.063   6.952
  358XTA   HL3240073  33.880   6.930   6.850
  358XTA   HL3340074  33.709   7.131   6.831
  358XTA   HL3440075  33.649   6.970   6.872
  358XTA   HL3540076  33.465   7.049   6.988
  358XTA   HL3640077  33.517   7.228   7.001
  358XTA   HL3740078  33.492   7.264   7.346
  358XTA   HL3840079  33.550   7.340   7.197
  358XTA   HL3940080  33.710   7.120   7.353
  358XTA   HL4040081  33.742   7.287   7.339
  358XTA   HL4140082  33.751   7.212   7.201
  358XTA    CO840083  33.051   7.069   5.348
  358XTA    CO940084  32.961   6.867   5.230
  358XTA    OA640085  32.890   6.744   5.244
  358XTA   HL4240086  33.126   7.057   5.272
  358XTA   HL4340087  33.091   7.107   5.445
  358XTA   HL4440088  33.432   6.919   7.189
  358XTA   HL4540089  33.575   6.956   7.270
  358XTA   CO1040090  33.474   6.996   7.256
  358XTA   CO1140091  33.318   7.176   7.167
  358XTA    OA740092  33.430   7.007   7.357
  358XTA   HL4640093  33.304   7.293   7.092
  358XTA   HL4740094  33.264   7.198   7.260
  358XTA   HL4840095  33.043   6.866   5.151
  358XTA   HL4940096  32.891   6.944   5.196
  359XTA     NT40097  33.491   4.913   4.774
  359XTA    CN140098  33.383   4.914   4.855
  359XTA     C140099  33.346   4.807   4.936
  359XTA     C240100  33.233   4.818   5.017
  359XTA     C340101  33.154   4.933   5.027
  359XTA     C440102  33.198   5.043   4.952
  359XTA     C540103  33.308   5.036   4.865
  359XTA    CN240104  33.509   4.810   4.692
  359XTA     C640105  33.598   4.708   4.724
  359XTA     C740106  33.614   4.595   4.645
  359XTA     C840107  33.531   4.586   4.526
  359XTA     C940108  33.448   4.692   4.489
  359XTA    C1040109  33.442   4.807   4.566
  359XTA    CN340110  33.562   5.028   4.763
  359XTA    C1140111  33.666   5.067   4.848
  359XTA    C1240112  33.753   5.174   4.823
  359XTA    C1340113  33.747   5.240   4.698
  359XTA    C1440114  33.632   5.218   4.617
  359XTA    C1540115  33.541   5.110   4.653
  359XTA     H140116  33.400   4.711   4.943
  359XTA     H240117  33.206   4.729   5.075
  359XTA     H340118  33.148   5.141   4.959
  359XTA     H440119  33.332   5.114   4.797
  359XTA     H540120  33.646   4.723   4.818
  359XTA     H640121  33.675   4.512   4.678
  359XTA     H740122  33.405   4.688   4.391
  359XTA     H840123  33.382   4.887   4.528
  359XTA     H940124  33.681   5.004   4.935
  359XTA    H1040125  33.829   5.195   4.902
  359XTA    H1140126  33.606   5.276   4.522
  359XTA    H1240127  33.463   5.087   4.588
  359XTA    OA140128  33.043   4.926   5.107
  359XTA    CO140129  32.976   5.046   5.121
  359XTA    OA240130  33.540   4.481   4.441
  359XTA    CO240131  33.537   4.351   4.489
  359XTA    CL140132  33.408   4.310   4.555
  359XTA    CL240133  33.392   4.162   4.581
  359XTA    CL340134  33.488   4.099   4.679
  359XTA    CL440135  33.462   3.946   4.681
  359XTA    CO340136  33.567   3.860   4.756
  359XTA    OA340137  33.581   3.875   4.895
  359XTA    CO440138  33.694   3.945   4.947
  359XTA    CT140139  33.705   3.932   5.103
  359XTA    CL540140  33.827   3.999   5.160
  359XTA    CL640141  33.847   3.971   5.310
  359XTA    OA440142  33.838   5.334   4.660
  359XTA    CO540143  33.951   5.269   4.606
  359XTA    CL740144  33.931   5.219   4.455
  359XTA    CL840145  34.014   5.097   4.408
  359XTA    CL940146  34.167   5.139   4.410
  359XTA   CL1040147  34.249   5.025   4.346
  359XTA    CO640148  34.400   5.041   4.353
  359XTA    OA540149  34.433   5.173   4.317
  359XTA    CO740150  34.566   5.174   4.261
  359XTA    CT240151  34.565   5.176   4.104
  359XTA   CL1140152  34.491   5.304   4.064
  359XTA   CL1240153  34.565   5.441   4.094
  359XTA    HL140154  32.886   5.015   5.176
  359XTA    HL240155  33.033   5.115   5.170
  359XTA    HL340156  32.945   5.084   5.018
  359XTA    HL440157  33.554   4.281   4.407
  359XTA    HL540158  33.620   4.333   4.550
  359XTA    HL640159  33.321   4.352   4.497
  359XTA    HL740160  33.412   4.352   4.654
  359XTA    HL840161  33.395   4.098   4.494
  359XTA    HL940162  33.284   4.155   4.613
  359XTA   HL1040163  33.594   4.123   4.655
  359XTA   HL1140164  33.469   4.137   4.776
  359XTA   HL1240165  33.473   3.912   4.577
  359XTA   HL1340166  33.359   3.925   4.712
  359XTA   HL1440167  33.536   3.760   4.726
  359XTA   HL1540168  33.665   3.864   4.706
  359XTA   HL1640169  33.776   3.916   4.889
  359XTA   HL1740170  33.693   4.054   4.917
  359XTA   HL1840171  33.809   4.104   5.150
  359XTA   HL1940172  33.911   3.979   5.095
  359XTA   HL2040173  33.868   3.868   5.348
  359XTA   HL2140174  33.755   3.991   5.367
  359XTA   HL2240175  33.913   4.049   5.355
  359XTA   HL2340176  33.964   5.175   4.654
  359XTA   HL2440177  34.040   5.334   4.627
  359XTA   HL2540178  33.824   5.187   4.438
  359XTA   HL2640179  33.950   5.304   4.389
  359XTA   HL2740180  34.008   5.001   4.464
  359XTA   HL2840181  33.991   5.065   4.311
  359XTA   HL2940182  34.190   5.226   4.347
  359XTA   HL3040183  34.200   5.165   4.504
  359XTA   HL3140184  34.218   4.929   4.385
  359XTA   HL3240185  34.231   5.019   4.238
  359XTA   HL3340186  34.441   5.017   4.450
  359XTA   HL3440187  34.438   4.968   4.278
  359XTA   HL3540188  34.620   5.093   4.304
  359XTA   HL3640189  34.610   5.263   4.298
  359XTA   HL3740190  34.382   5.313   4.088
  359XTA   HL3840191  34.481   5.293   3.956
  359XTA   HL3940192  34.567   5.454   4.205
  359XTA   HL4040193  34.510   5.525   4.050
  359XTA   HL4140194  34.663   5.444   4.044
  359XTA    CO840195  33.713   3.785   5.135
  359XTA    CO940196  33.573   3.976   5.170
  359XTA    OA640197  33.551   4.116   5.160
  359XTA   HL4240198  33.630   3.728   5.085
  359XTA   HL4340199  33.705   3.772   5.245
  359XTA   HL4440200  34.558   5.032   3.952
  359XTA   HL4540201  34.535   4.957   4.104
  359XTA   CO1040202  34.502   5.048   4.046
  359XTA   CO1140203  34.712   5.171   4.064
  359XTA    OA740204  34.724   5.181   3.923
  359XTA   HL4640205  34.763   5.259   4.094
  359XTA   HL4740206  34.757   5.085   4.112
  359XTA   HL4840207  33.567   3.954   5.276
  359XTA   HL4940208  33.492   3.929   5.121
  360XTA     NT40209  33.143   5.242   4.329
  360XTA    CN140210  33.262   5.312   4.322
  360XTA     C140211  33.264   5.444   4.362
  360XTA     C240212  33.385   5.519   4.354
  360XTA     C340213  33.507   5.453   4.327
  360XTA     C440214  33.502   5.319   4.271
  360XTA     C540215  33.373   5.250   4.267
  360XTA    CN240216  33.136   5.126   4.395
  360XTA     C640217  33.146   5.114   4.536
  360XTA     C740218  33.140   4.985   4.598
  360XTA     C840219  33.116   4.874   4.519
  360XTA     C940220  33.107   4.891   4.381
  360XTA    C1040221  33.118   5.017   4.319
  360XTA    CN340222  33.027   5.290   4.278
  360XTA    C1140223  32.987   5.255   4.152
  360XTA    C1240224  32.856   5.284   4.102
  360XTA    C1340225  32.760   5.341   4.189
  360XTA    C1440226  32.797   5.375   4.320
  360XTA    C1540227  32.933   5.355   4.360
  360XTA     H140228  33.174   5.496   4.387
  360XTA     H240229  33.392   5.622   4.382
  360XTA     H340230  33.589   5.267   4.227
  360XTA     H440231  33.370   5.142   4.246
  360XTA     H540232  33.155   5.205   4.582
  360XTA     H640233  33.127   4.986   4.702
  360XTA     H740234  33.090   4.797   4.320
  360XTA     H840235  33.108   5.028   4.211
  360XTA     H940236  33.052   5.194   4.099
  360XTA    H1040237  32.827   5.245   4.001
  360XTA    H1140238  32.726   5.433   4.385
  360XTA    H1240239  32.960   5.383   4.456
  360XTA    OA140240  33.622   5.528   4.325
  360XTA    CO140241  33.741   5.459   4.346
  360XTA    OA240242  33.082   4.757   4.572
  360XTA    CO240243  33.134   4.732   4.699
  360XTA    CL140244  33.110   4.576   4.720
  360XTA    CL240245  32.964   4.539   4.739
  360XTA    CL340246  32.939   4.394   4.788
  360XTA    CL440247  32.792   4.356   4.769
  360XTA    CO340248  32.779   4.203   4.799
  360XTA    OA340249  32.809   4.190   4.931
  360XTA    CO440250  32.862   4.056   4.963
  360XTA    CT140251  32.920   4.081   5.111
  360XTA    CL540252  32.963   3.937   5.149
  360XTA    CL640253  33.019   3.919   5.288
  360XTA    OA440254  32.630   5.336   4.144
  360XTA    CO540255  32.524   5.399   4.217
  360XTA    CL740256  32.383   5.346   4.164
  360XTA    CL840257  32.259   5.433   4.184
  360XTA    CL940258  32.220   5.450   4.338
  360XTA   CL1040259  32.077   5.499   4.347
  360XTA    CO640260  32.027   5.491   4.500
  360XTA    OA540261  32.102   5.590   4.573
  360XTA    CO740262  32.069   5.588   4.713
  360XTA    CT240263  32.201   5.590   4.793
  360XTA   CL1140264  32.300   5.486   4.741
  360XTA   CL1240265  32.440   5.485   4.818
  360XTA    HL140266  33.769   5.379   4.281
  360XTA    HL240267  33.818   5.535   4.339
  360XTA    HL340268  33.749   5.424   4.448
  360XTA    HL440269  33.239   4.754   4.699
  360XTA    HL540270  33.083   4.776   4.785
  360XTA    HL640271  33.150   4.556   4.817
  360XTA    HL740272  33.174   4.515   4.649
  360XTA    HL840273  32.907   4.546   4.651
  360XTA    HL940274  32.914   4.611   4.804
  360XTA   HL1040275  33.004   4.327   4.735
  360XTA   HL1140276  32.969   4.387   4.890
  360XTA   HL1240277  32.754   4.375   4.668
  360XTA   HL1340278  32.733   4.421   4.823
  360XTA   HL1440279  32.676   4.166   4.780
  360XTA   HL1540280  32.848   4.147   4.732
  360XTA   HL1640281  32.783   3.989   4.950
  360XTA   HL1740282  32.941   4.039   4.891
  360XTA   HL1840283  33.033   3.898   5.080
  360XTA   HL1940284  32.879   3.867   5.132
  360XTA   HL2040285  33.115   3.966   5.305
  360XTA   HL2140286  33.034   3.813   5.295
  360XTA   HL2240287  32.960   3.944   5.375
  360XTA   HL2340288  32.527   5.505   4.197
  360XTA   HL2440289  32.539   5.394   4.328
  360XTA   HL2540290  32.390   5.322   4.058
  360XTA   HL2640291  32.355   5.256   4.213
  360XTA   HL2740292  32.270   5.534   4.143
  360XTA   HL2840293  32.177   5.388   4.135
  360XTA   HL2940294  32.222   5.346   4.371
  360XTA   HL3040295  32.287   5.517   4.390
  360XTA   HL3140296  32.071   5.595   4.308
  360XTA   HL3240297  32.005   5.439   4.283
  360XTA   HL3340298  31.923   5.515   4.502
  360XTA   HL3440299  32.020   5.383   4.536
  360XTA   HL3540300  32.023   5.489   4.721
  360XTA   HL3640301  32.004   5.671   4.748
  360XTA   HL3740302  32.314   5.490   4.628
  360XTA   HL3840303  32.259   5.388   4.755
  360XTA   HL3940304  32.506   5.410   4.789
  360XTA   HL4040305  32.424   5.463   4.920
  360XTA   HL4140306  32.491   5.576   4.796
  360XTA    CO840307  32.810   4.119   5.216
  360XTA    CO940308  33.037   4.182   5.098
  360XTA    OA640309  32.777   4.220   5.189
  360XTA   HL4240310  32.862   4.138   5.313
  360XTA   HL4340311  32.731   4.047   5.223
  360XTA   HL4440312  32.103   5.633   4.979
  360XTA   HL4540313  32.255   5.546   4.992
  360XTA   CO1040314  32.159   5.548   4.937
  360XTA   CO1140315  32.278   5.725   4.790
  360XTA    OA740316  32.372   5.756   4.898
  360XTA   HL4640317  32.324   5.752   4.698
  360XTA   HL4740318  32.201   5.798   4.792
  360XTA   HL4840319  33.093   4.157   4.970
  360XTA   HL4940320  32.991   4.279   5.072
  361XTA     NT40321  30.188   5.495  -1.736
  361XTA    CN140322  30.237   5.520  -1.858
  361XTA     C140323  30.150   5.556  -1.966
  361XTA     C240324  30.208   5.599  -2.089
  361XTA     C340325  30.346   5.604  -2.105
  361XTA     C440326  30.429   5.565  -1.996
  361XTA     C540327  30.371   5.528  -1.874
  361XTA    CN240328  30.192   5.602  -1.656
  361XTA     C640329  30.304   5.637  -1.580
  361XTA     C740330  30.309   5.744  -1.506
  361XTA     C840331  30.202   5.834  -1.495
  361XTA     C940332  30.089   5.808  -1.572
  361XTA    C1040333  30.082   5.689  -1.653
  361XTA    CN340334  30.163   5.367  -1.697
  361XTA    C1140335  30.260   5.281  -1.650
  361XTA    C1240336  30.230   5.149  -1.622
  361XTA    C1340337  30.098   5.095  -1.654
  361XTA    C1440338  30.001   5.183  -1.707
  361XTA    C1540339  30.033   5.316  -1.722
  361XTA     H140340  30.039   5.552  -1.958
  361XTA     H240341  30.140   5.617  -2.172
  361XTA     H340342  30.534   5.557  -2.004
  361XTA     H440343  30.434   5.496  -1.794
  361XTA     H540344  30.389   5.574  -1.599
  361XTA     H640345  30.396   5.759  -1.445
  361XTA     H740346  30.008   5.878  -1.565
  361XTA     H840347  30.001   5.653  -1.715
  361XTA     H940348  30.355   5.308  -1.612
  361XTA    H1040349  30.307   5.094  -1.575
  361XTA    H1140350  29.906   5.134  -1.736
  361XTA    H1240351  29.960   5.382  -1.773
  361XTA    OA140352  30.409   5.616  -2.225
  361XTA    CO140353  30.326   5.656  -2.337
  361XTA    OA240354  30.206   5.946  -1.411
  361XTA    CO240355  30.292   5.956  -1.294
  361XTA    CL140356  30.295   6.089  -1.225
  361XTA    CL240357  30.376   6.088  -1.092
  361XTA    CL340358  30.372   6.218  -1.003
  361XTA    CL440359  30.232   6.242  -0.941
  361XTA    CO340360  30.240   6.366  -0.853
  361XTA    OA340361  30.319   6.325  -0.746
  361XTA    CO440362  30.237   6.284  -0.629
  361XTA    CT140363  30.338   6.221  -0.526
  361XTA    CL540364  30.258   6.153  -0.411
  361XTA    CL640365  30.189   6.029  -0.451
  361XTA    OA440366  30.080   4.949  -1.646
  361XTA    CO540367  30.201   4.870  -1.645
  361XTA    CL740368  30.157   4.721  -1.647
  361XTA    CL840369  30.277   4.638  -1.610
  361XTA    CL940370  30.246   4.491  -1.578
  361XTA   CL1040371  30.213   4.412  -1.706
  361XTA    CO640372  30.186   4.263  -1.678
  361XTA    OA540373  30.301   4.214  -1.613
  361XTA    CO740374  30.276   4.090  -1.544
  361XTA    CT240375  30.410   4.045  -1.476
  361XTA   CL1140376  30.400   3.912  -1.408
  361XTA   CL1240377  30.329   3.796  -1.480
  361XTA    HL140378  30.284   5.560  -2.378
  361XTA    HL240379  30.250   5.732  -2.317
  361XTA    HL340380  30.393   5.689  -2.415
  361XTA    HL440381  30.268   5.876  -1.227
  361XTA    HL540382  30.398   5.942  -1.322
  361XTA    HL640383  30.191   6.118  -1.202
  361XTA    HL740384  30.335   6.159  -1.292
  361XTA    HL840385  30.467   6.037  -1.108
  361XTA    HL940386  30.324   6.012  -1.030
  361XTA   HL1040387  30.438   6.199  -0.920
  361XTA   HL1140388  30.418   6.308  -1.049
  361XTA   HL1240389  30.211   6.156  -0.879
  361XTA   HL1340390  30.152   6.259  -1.015
  361XTA   HL1440391  30.283   6.455  -0.904
  361XTA   HL1540392  30.145   6.393  -0.820
  361XTA   HL1640393  30.189   6.381  -0.592
  361XTA   HL1740394  30.152   6.221  -0.660
  361XTA   HL1840395  30.183   6.227  -0.385
  361XTA   HL1940396  30.318   6.136  -0.325
  361XTA   HL2040397  30.112   6.008  -0.384
  361XTA   HL2140398  30.253   5.941  -0.443
  361XTA   HL2240399  30.149   6.026  -0.553
  361XTA   HL2340400  30.257   4.884  -1.549
  361XTA   HL2440401  30.277   4.874  -1.728
  361XTA   HL2540402  30.076   4.701  -1.577
  361XTA   HL2640403  30.113   4.684  -1.739
  361XTA   HL2740404  30.352   4.640  -1.692
  361XTA   HL2840405  30.326   4.683  -1.524
  361XTA   HL2940406  30.339   4.449  -1.531
  361XTA   HL3040407  30.165   4.485  -1.515
  361XTA   HL3140408  30.130   4.451  -1.756
  361XTA   HL3240409  30.297   4.421  -1.782
  361XTA   HL3340410  30.111   4.237  -1.602
  361XTA   HL3440411  30.159   4.213  -1.772
  361XTA   HL3540412  30.250   4.012  -1.616
  361XTA   HL3640413  30.179   4.107  -1.484
  361XTA   HL3740414  30.353   3.934  -1.314
  361XTA   HL3840415  30.504   3.880  -1.378
  361XTA   HL3940416  30.215   3.795  -1.469
  361XTA   HL4040417  30.372   3.703  -1.443
  361XTA   HL4140418  30.349   3.803  -1.586
  361XTA    CO840419  30.440   6.323  -0.463
  361XTA    CO940420  30.421   6.106  -0.596
  361XTA    OA640421  30.502   6.370  -0.543
  361XTA   HL4240422  30.508   6.259  -0.400
  361XTA   HL4340423  30.381   6.389  -0.394
  361XTA   HL4440424  30.467   4.247  -1.427
  361XTA   HL4540425  30.373   4.159  -1.301
  361XTA   CO1040426  30.454   4.152  -1.376
  361XTA   CO1140427  30.522   4.044  -1.577
  361XTA    OA740428  30.557   4.083  -1.300
  361XTA   HL4640429  30.549   4.145  -1.603
  361XTA   HL4740430  30.609   3.989  -1.532
  361XTA   HL4840431  30.368   6.067  -0.718
  361XTA   HL4940432  30.517   6.160  -0.621
  362XTA     NT40433  30.025   4.393   1.145
  362XTA    CN140434  29.919   4.357   1.227
  362XTA     C140435  29.850   4.455   1.295
  362XTA     C240436  29.741   4.414   1.370
  362XTA     C340437  29.705   4.279   1.384
  362XTA     C440438  29.768   4.183   1.307
  362XTA     C540439  29.873   4.224   1.222
  362XTA    CN240440  30.020   4.379   1.014
  362XTA     C640441  30.078   4.269   0.951
  362XTA     C740442  30.057   4.255   0.813
  362XTA     C840443  29.982   4.348   0.739
  362XTA     C940444  29.925   4.458   0.806
  362XTA    C1040445  29.948   4.474   0.947
  362XTA    CN340446  30.151   4.412   1.195
  362XTA    C1140447  30.220   4.526   1.165
  362XTA    C1240448  30.350   4.551   1.211
  362XTA    C1340449  30.400   4.459   1.311
  362XTA    C1440450  30.323   4.340   1.345
  362XTA    C1540451  30.203   4.314   1.284
  362XTA     H140452  29.877   4.555   1.280
  362XTA     H240453  29.698   4.497   1.429
  362XTA     H340454  29.737   4.075   1.301
  362XTA     H440455  29.903   4.152   1.146
  362XTA     H540456  30.137   4.196   1.004
  362XTA     H640457  30.099   4.167   0.774
  362XTA     H740458  29.863   4.531   0.753
  362XTA     H840459  29.906   4.558   0.998
  362XTA     H940460  30.175   4.598   1.097
  362XTA    H1040461  30.402   4.640   1.172
  362XTA    H1140462  30.360   4.258   1.410
  362XTA    H1240463  30.147   4.219   1.302
  362XTA    OA140464  29.611   4.259   1.480
  362XTA    CO140465  29.625   4.131   1.540
  362XTA    OA240466  29.948   4.332   0.605
  362XTA    CO240467  29.935   4.193   0.564
  362XTA    CL140468  29.892   4.183   0.417
  362XTA    CL240469  29.989   4.250   0.320
  362XTA    CL340470  29.916   4.258   0.184
  362XTA    CL440471  30.005   4.317   0.076
  362XTA    CO340472  30.079   4.448   0.112
  362XTA    OA340473  29.999   4.538   0.187
  362XTA    CO440474  29.894   4.582   0.100
  362XTA    CT140475  29.813   4.688   0.170
  362XTA    CL540476  29.692   4.710   0.075
  362XTA    CL640477  29.736   4.781  -0.056
  362XTA    OA440478  30.523   4.472   1.364
  362XTA    CO540479  30.572   4.375   1.448
  362XTA    CL740480  30.723   4.407   1.460
  362XTA    CL840481  30.738   4.545   1.531
  362XTA    CL940482  30.859   4.634   1.495
  362XTA   CL1040483  30.857   4.662   1.342
  362XTA    CO640484  30.994   4.706   1.283
  362XTA    OA540485  30.991   4.753   1.148
  362XTA    CO740486  30.905   4.859   1.126
  362XTA    CT240487  30.969   4.955   1.031
  362XTA   CL1140488  31.005   4.876   0.906
  362XTA   CL1240489  31.051   4.956   0.782
  362XTA    HL140490  29.551   4.111   1.610
  362XTA    HL240491  29.608   4.057   1.466
  362XTA    HL340492  29.720   4.100   1.586
  362XTA    HL440493  30.019   4.133   0.589
  362XTA    HL540494  29.856   4.150   0.620
  362XTA    HL640495  29.798   4.240   0.414
  362XTA    HL740496  29.876   4.074   0.391
  362XTA    HL840497  30.076   4.181   0.318
  362XTA    HL940498  30.017   4.353   0.348
  362XTA   HL1040499  29.876   4.160   0.160
  362XTA   HL1140500  29.830   4.320   0.200
  362XTA   HL1240501  29.944   4.342  -0.013
  362XTA   HL1340502  30.084   4.251   0.054
  362XTA   HL1440503  30.164   4.424   0.177
  362XTA   HL1540504  30.121   4.494   0.021
  362XTA   HL1640505  29.929   4.616   0.002
  362XTA   HL1740506  29.830   4.499   0.086
  362XTA   HL1840507  29.618   4.776   0.126
  362XTA   HL1940508  29.634   4.623   0.040
  362XTA   HL2040509  29.641   4.796  -0.110
  362XTA   HL2140510  29.801   4.721  -0.123
  362XTA   HL2240511  29.769   4.878  -0.042
  362XTA   HL2340512  30.565   4.274   1.408
  362XTA   HL2440513  30.533   4.391   1.547
  362XTA   HL2540514  30.781   4.335   1.516
  362XTA   HL2640515  30.770   4.418   1.363
  362XTA   HL2740516  30.656   4.605   1.504
  362XTA   HL2840517  30.728   4.535   1.637
  362XTA   HL2940518  30.852   4.739   1.534
  362XTA   HL3040519  30.952   4.596   1.527
  362XTA   HL3140520  30.812   4.589   1.277
  362XTA   HL3240521  30.793   4.746   1.327
  362XTA   HL3340522  31.036   4.789   1.347
  362XTA   HL3440523  31.059   4.625   1.296
  362XTA   HL3540524  30.892   4.926   1.205
  362XTA   HL3640525  30.809   4.827   1.078
  362XTA   HL3740526  30.910   4.814   0.879
  362XTA   HL3840527  31.080   4.803   0.934
  362XTA   HL3940528  30.975   4.993   0.719
  362XTA   HL4040529  31.113   4.892   0.725
  362XTA   HL4140530  31.102   5.041   0.818
  362XTA    CO840531  29.890   4.816   0.205
  362XTA    CO940532  29.751   4.630   0.296
  362XTA    OA640533  29.647   4.709   0.365
  362XTA   HL4240534  29.942   4.848   0.116
  362XTA   HL4340535  29.960   4.788   0.288
  362XTA   HL4440536  31.156   5.111   0.999
  362XTA   HL4540537  31.172   4.947   1.106
  362XTA   CO1040538  31.097   5.026   1.092
  362XTA   CO1140539  30.872   5.065   0.992
  362XTA    OA740540  30.789   5.033   0.931
  362XTA   HL4640541  30.833   5.104   1.086
  362XTA   HL4740542  30.930   5.145   0.938
  362XTA   HL4840543  29.828   4.605   0.373
  362XTA   HL4940544  29.702   4.534   0.266
  363XTA     NT40545  27.405   4.136   3.690
  363XTA    CN140546  27.508   4.203   3.738
  363XTA     C140547  27.491   4.326   3.794
  363XTA     C240548  27.601   4.399   3.838
  363XTA     C340549  27.735   4.348   3.836
  363XTA     C440550  27.744   4.216   3.797
  363XTA     C540551  27.638   4.145   3.740
  363XTA    CN240552  27.353   4.166   3.568
  363XTA     C640553  27.261   4.272   3.547
  363XTA     C740554  27.222   4.303   3.418
  363XTA     C840555  27.269   4.233   3.308
  363XTA     C940556  27.357   4.125   3.323
  363XTA    C1040557  27.402   4.096   3.454
  363XTA    CN340558  27.328   4.063   3.782
  363XTA    C1140559  27.385   3.949   3.834
  363XTA    C1240560  27.318   3.865   3.926
  363XTA    C1340561  27.185   3.897   3.962
  363XTA    C1440562  27.127   4.009   3.912
  363XTA    C1540563  27.198   4.095   3.826
  363XTA     H140564  27.392   4.362   3.805
  363XTA     H240565  27.580   4.491   3.893
  363XTA     H340566  27.841   4.169   3.806
  363XTA     H440567  27.663   4.043   3.708
  363XTA     H540568  27.226   4.343   3.619
  363XTA     H640569  27.156   4.395   3.407
  363XTA     H740570  27.399   4.065   3.243
  363XTA     H840571  27.468   4.018   3.473
  363XTA     H940572  27.480   3.916   3.810
  363XTA    H1040573  27.364   3.774   3.968
  363XTA    H1140574  27.029   4.031   3.939
  363XTA    H1240575  27.151   4.176   3.777
  363XTA    OA140576  27.850   4.408   3.883
  363XTA    CO140577  27.836   4.536   3.944
  363XTA    OA240578  27.235   4.273   3.182
  363XTA    CO240579  27.089   4.259   3.163
  363XTA    CL140580  27.062   4.357   3.044
  363XTA    CL240581  26.913   4.388   3.027
  363XTA    CL340582  26.857   4.478   3.142
  363XTA    CL440583  26.716   4.517   3.108
  363XTA    CO340584  26.699   4.598   2.980
  363XTA    OA340585  26.804   4.696   2.979
  363XTA    CO440586  26.815   4.766   2.860
  363XTA    CT140587  26.958   4.811   2.824
  363XTA    CL540588  27.051   4.689   2.829
  363XTA    CL640589  27.023   4.571   2.742
  363XTA    OA440590  27.105   3.821   4.042
  363XTA    CO540591  27.151   3.704   4.096
  363XTA    CL740592  27.058   3.674   4.214
  363XTA    CL840593  27.032   3.781   4.322
  363XTA    CL940594  26.893   3.840   4.305
  363XTA   CL1040595  26.873   3.918   4.171
  363XTA    CO640596  26.740   4.000   4.180
  363XTA    OA540597  26.724   4.087   4.295
  363XTA    CO740598  26.825   4.193   4.308
  363XTA    CT240599  26.836   4.234   4.460
  363XTA   CL1140600  26.704   4.312   4.477
  363XTA   CL1240601  26.686   4.379   4.610
  363XTA    HL140602  27.743   4.542   3.998
  363XTA    HL240603  27.907   4.553   4.029
  363XTA    HL340604  27.835   4.617   3.868
  363XTA    HL440605  27.045   4.162   3.143
  363XTA    HL540606  27.039   4.290   3.255
  363XTA    HL640607  27.103   4.313   2.952
  363XTA    HL740608  27.123   4.446   3.052
  363XTA    HL840609  26.864   4.295   3.023
  363XTA    HL940610  26.904   4.453   2.939
  363XTA   HL1040611  26.858   4.428   3.246
  363XTA   HL1140612  26.933   4.556   3.160
  363XTA   HL1240613  26.687   4.570   3.198
  363XTA   HL1340614  26.638   4.438   3.111
  363XTA   HL1440615  26.687   4.535   2.895
  363XTA   HL1540616  26.602   4.646   2.987
  363XTA   HL1640617  26.792   4.701   2.779
  363XTA   HL1740618  26.748   4.857   2.853
  363XTA   HL1840619  27.058   4.655   2.931
  363XTA   HL1940620  27.146   4.729   2.814
  363XTA   HL2040621  27.052   4.595   2.639
  363XTA   HL2140622  26.920   4.535   2.757
  363XTA   HL2240623  27.088   4.488   2.767
  363XTA   HL2340624  27.249   3.713   4.154
  363XTA   HL2440625  27.158   3.626   4.025
  363XTA   HL2540626  26.970   3.629   4.172
  363XTA   HL2640627  27.111   3.595   4.268
  363XTA   HL2740628  27.051   3.726   4.410
  363XTA   HL2840629  27.113   3.860   4.309
  363XTA   HL2940630  26.819   3.755   4.307
  363XTA   HL3040631  26.874   3.907   4.386
  363XTA   HL3140632  26.950   3.991   4.166
  363XTA   HL3240633  26.891   3.853   4.085
  363XTA   HL3340634  26.729   4.052   4.083
  363XTA   HL3440635  26.657   3.932   4.175
  363XTA   HL3540636  26.786   4.270   4.243
  363XTA   HL3640637  26.921   4.162   4.265
  363XTA   HL3740638  26.624   4.235   4.450
  363XTA   HL3840639  26.691   4.392   4.405
  363XTA   HL3940640  26.750   4.456   4.655
  363XTA   HL4040641  26.667   4.309   4.685
  363XTA   HL4140642  26.590   4.429   4.592
  363XTA    CO840643  26.998   4.907   2.930
  363XTA    CO940644  26.963   4.896   2.689
  363XTA    OA640645  27.134   4.930   2.932
  363XTA   HL4240646  26.976   4.867   3.029
  363XTA   HL4340647  26.935   4.995   2.929
  363XTA   HL4440648  26.940   4.420   4.417
  363XTA   HL4540649  26.971   4.362   4.608
  363XTA   CO1040650  26.959   4.325   4.472
  363XTA   CO1140651  26.850   4.111   4.551
  363XTA    OA740652  26.851   4.134   4.662
  363XTA   HL4640653  26.767   4.047   4.550
  363XTA   HL4740654  26.935   4.045   4.521
  363XTA   HL4840655  26.918   4.993   2.695
  363XTA   HL4940656  27.065   4.916   2.671
  364XTA     NT40657  32.450   2.162   4.745
  364XTA    CN140658  32.536   2.199   4.647
  364XTA     C140659  32.634   2.301   4.651
  364XTA     C240660  32.717   2.339   4.542
  364XTA     C340661  32.690   2.281   4.415
  364XTA     C440662  32.584   2.190   4.401
  364XTA     C540663  32.511   2.154   4.517
  364XTA    CN240664  32.334   2.218   4.766
  364XTA     C640665  32.316   2.334   4.846
  364XTA     C740666  32.188   2.389   4.869
  364XTA     C840667  32.070   2.332   4.811
  364XTA     C940668  32.082   2.212   4.744
  364XTA    C1040669  32.214   2.161   4.719
  364XTA    CN340670  32.511   2.088   4.843
  364XTA    C1140671  32.539   1.956   4.815
  364XTA    C1240672  32.611   1.876   4.908
  364XTA    C1340673  32.649   1.936   5.035
  364XTA    C1440674  32.621   2.069   5.061
  364XTA    C1540675  32.551   2.143   4.966
  364XTA     H140676  32.640   2.354   4.747
  364XTA     H240677  32.785   2.424   4.555
  364XTA     H340678  32.563   2.149   4.305
  364XTA     H440679  32.443   2.078   4.500
  364XTA     H540680  32.399   2.384   4.896
  364XTA     H640681  32.183   2.475   4.930
  364XTA     H740682  31.996   2.164   4.700
  364XTA     H840683  32.232   2.074   4.657
  364XTA     H940684  32.498   1.915   4.723
  364XTA    H1040685  32.632   1.771   4.891
  364XTA    H1140686  32.637   2.122   5.156
  364XTA    H1240687  32.536   2.244   4.991
  364XTA    OA140688  32.762   2.312   4.296
  364XTA    CO140689  32.877   2.395   4.315
  364XTA    OA240690  31.948   2.387   4.831
  364XTA    CO240691  31.923   2.498   4.746
  364XTA    CL140692  31.789   2.569   4.764
  364XTA    CL240693  31.810   2.720   4.782
  364XTA    CL340694  31.824   2.762   4.928
  364XTA    CL440695  31.949   2.712   4.999
  364XTA    CO340696  32.071   2.797   4.951
  364XTA    OA340697  32.046   2.935   4.968
  364XTA    CO440698  32.104   2.976   5.090
  364XTA    CT140699  32.089   3.133   5.083
  364XTA    CL540700  32.117   3.186   4.942
  364XTA    CL640701  32.168   3.334   4.941
  364XTA    OA440702  32.700   1.860   5.140
  364XTA    CO540703  32.637   1.732   5.159
  364XTA    CL740704  32.736   1.624   5.119
  364XTA    CL840705  32.664   1.501   5.072
  364XTA    CL940706  32.774   1.388   5.040
  364XTA   CL1040707  32.758   1.329   4.903
  364XTA    CO640708  32.841   1.196   4.891
  364XTA    OA540709  32.978   1.220   4.902
  364XTA    CO740710  33.053   1.105   4.922
  364XTA    CT240711  33.200   1.136   4.977
  364XTA   CL1140712  33.275   1.218   4.876
  364XTA   CL1240713  33.240   1.192   4.733
  364XTA    HL140714  32.849   2.495   4.347
  364XTA    HL240715  32.935   2.344   4.388
  364XTA    HL340716  32.925   2.408   4.217
  364XTA    HL440717  32.001   2.565   4.785
  364XTA    HL540718  31.953   2.480   4.643
  364XTA    HL640719  31.742   2.531   4.850
  364XTA    HL740720  31.735   2.548   4.676
  364XTA    HL840721  31.723   2.771   4.757
  364XTA    HL940722  31.898   2.757   4.729
  364XTA   HL1040723  31.817   2.867   4.952
  364XTA   HL1140724  31.730   2.723   4.978
  364XTA   HL1240725  31.965   2.603   4.986
  364XTA   HL1340726  31.939   2.711   5.111
  364XTA   HL1440727  32.168   2.759   4.997
  364XTA   HL1540728  32.085   2.783   4.845
  364XTA   HL1640729  32.056   2.926   5.175
  364XTA   HL1740730  32.208   2.950   5.086
  364XTA   HL1840731  32.023   3.173   4.882
  364XTA   HL1940732  32.200   3.134   4.894
  364XTA   HL2040733  32.253   3.338   5.000
  364XTA   HL2140734  32.095   3.401   4.975
  364XTA   HL2240735  32.201   3.370   4.844
  364XTA   HL2340736  32.540   1.739   5.106
  364XTA   HL2440737  32.617   1.727   5.268
  364XTA   HL2540738  32.791   1.660   5.029
  364XTA   HL2640739  32.801   1.600   5.203
  364XTA   HL2740740  32.592   1.469   5.145
  364XTA   HL2840741  32.614   1.530   4.978
  364XTA   HL2940742  32.876   1.423   5.061
  364XTA   HL3040743  32.754   1.317   5.124
  364XTA   HL3140744  32.653   1.295   4.895
  364XTA   HL3240745  32.798   1.401   4.837
  364XTA   HL3340746  32.805   1.123   4.961
  364XTA   HL3440747  32.821   1.151   4.787
  364XTA   HL3540748  33.052   1.043   4.836
  364XTA   HL3640749  32.988   1.050   4.992
  364XTA   HL3740750  33.381   1.217   4.896
  364XTA   HL3840751  33.255   1.318   4.895
  364XTA   HL3940752  33.137   1.207   4.712
  364XTA   HL4040753  33.269   1.089   4.687
  364XTA   HL4140754  33.283   1.258   4.663
  364XTA    CO840755  32.193   3.189   5.186
  364XTA    CO940756  31.943   3.158   5.119
  364XTA    OA640757  31.912   3.299   5.100
  364XTA   HL4240758  32.185   3.300   5.192
  364XTA   HL4340759  32.290   3.160   5.155
  364XTA   HL4440760  33.361   1.021   5.066
  364XTA   HL4540761  33.230   0.948   5.084
  364XTA   CO1040762  33.273   1.006   5.008
  364XTA   CO1140763  33.190   1.204   5.109
  364XTA    OA740764  33.286   0.915   4.894
  364XTA   HL4640765  33.139   1.142   5.183
  364XTA   HL4740766  33.128   1.295   5.100
  364XTA   HL4840767  31.927   3.135   5.227
  364XTA   HL4940768  31.878   3.103   5.056
  365XTA     NT40769  31.540   5.618   4.813
  365XTA    CN140770  31.589   5.560   4.701
  365XTA     C140771  31.629   5.421   4.704
  365XTA     C240772  31.664   5.363   4.581
  365XTA     C340773  31.660   5.433   4.461
  365XTA     C440774  31.629   5.568   4.458
  365XTA     C540775  31.599   5.630   4.579
  365XTA    CN240776  31.605   5.594   4.932
  365XTA     C640777  31.558   5.504   5.031
  365XTA     C740778  31.628   5.481   5.149
  365XTA     C840779  31.744   5.555   5.170
  365XTA     C940780  31.795   5.643   5.072
  365XTA    C1040781  31.723   5.663   4.957
  365XTA    CN340782  31.446   5.714   4.808
  365XTA    C1140783  31.478   5.850   4.838
  365XTA    C1240784  31.392   5.959   4.802
  365XTA    C1340785  31.262   5.931   4.756
  365XTA    C1440786  31.230   5.793   4.732
  365XTA    C1540787  31.322   5.689   4.760
  365XTA     H140788  31.623   5.362   4.798
  365XTA     H240789  31.671   5.260   4.586
  365XTA     H340790  31.618   5.621   4.363
  365XTA     H440791  31.571   5.734   4.584
  365XTA     H540792  31.460   5.462   5.021
  365XTA     H640793  31.592   5.400   5.213
  365XTA     H740794  31.888   5.694   5.087
  365XTA     H840795  31.757   5.731   4.874
  365XTA     H940796  31.577   5.876   4.877
  365XTA    H1040797  31.410   6.073   4.808
  365XTA    H1140798  31.133   5.756   4.705
  365XTA    H1240799  31.288   5.585   4.735
  365XTA    OA140800  31.670   5.361   4.347
  365XTA    CO140801  31.622   5.417   4.228
  365XTA    OA240802  31.826   5.542   5.277
  365XTA    CO240803  31.772   5.488   5.399
  365XTA    CL140804  31.878   5.515   5.509
  365XTA    CL240805  31.912   5.664   5.521
  365XTA    CL340806  31.792   5.761   5.492
  365XTA    CL440807  31.807   5.893   5.573
  365XTA    CO340808  31.693   5.986   5.520
  365XTA    OA340809  31.719   6.108   5.591
  365XTA    CO440810  31.628   6.203   5.558
  365XTA    CT140811  31.622   6.318   5.658
  365XTA    CL540812  31.745   6.410   5.653
  365XTA    CL640813  31.793   6.480   5.524
  365XTA    OA440814  31.180   6.037   4.750
  365XTA    CO540815  31.041   6.012   4.732
  365XTA    CL740816  30.953   6.136   4.721
  365XTA    CL840817  30.819   6.115   4.647
  365XTA    CL940818  30.728   6.240   4.668
  365XTA   CL1040819  30.591   6.231   4.603
  365XTA    CO640820  30.491   6.336   4.639
  365XTA    OA540821  30.444   6.294   4.767
  365XTA    CO740822  30.324   6.348   4.804
  365XTA    CT240823  30.259   6.282   4.929
  365XTA   CL1140824  30.244   6.129   4.911
  365XTA   CL1240825  30.378   6.050   4.931
  365XTA    HL140826  31.625   5.349   4.138
  365XTA    HL240827  31.520   5.453   4.230
  365XTA    HL340828  31.695   5.489   4.205
  365XTA    HL440829  31.672   5.538   5.414
  365XTA    HL540830  31.756   5.384   5.379
  365XTA    HL640831  31.975   5.468   5.491
  365XTA    HL740832  31.834   5.480   5.603
  365XTA    HL840833  31.998   5.678   5.465
  365XTA    HL940834  31.932   5.693   5.622
  365XTA   HL1040835  31.785   5.774   5.379
  365XTA   HL1140836  31.703   5.715   5.535
  365XTA   HL1240837  31.904   5.932   5.542
  365XTA   HL1340838  31.810   5.864   5.682
  365XTA   HL1440839  31.690   5.995   5.418
  365XTA   HL1540840  31.593   5.956   5.562
  365XTA   HL1640841  31.652   6.231   5.457
  365XTA   HL1740842  31.529   6.160   5.555
  365XTA   HL1840843  31.824   6.354   5.697
  365XTA   HL1940844  31.718   6.490   5.728
  365XTA   HL2040845  31.891   6.523   5.542
  365XTA   HL2140846  31.716   6.544   5.487
  365XTA   HL2240847  31.800   6.406   5.455
  365XTA   HL2340848  31.015   5.958   4.820
  365XTA   HL2440849  31.018   5.945   4.654
  365XTA   HL2540850  30.927   6.152   4.824
  365XTA   HL2640851  31.009   6.217   4.673
  365XTA   HL2740852  30.821   6.082   4.549
  365XTA   HL2840853  30.777   6.031   4.700
  365XTA   HL2940854  30.724   6.268   4.770
  365XTA   HL3040855  30.782   6.326   4.628
  365XTA   HL3140856  30.613   6.231   4.495
  365XTA   HL3240857  30.551   6.128   4.617
  365XTA   HL3340858  30.539   6.431   4.662
  365XTA   HL3440859  30.414   6.354   4.563
  365XTA   HL3540860  30.250   6.330   4.726
  365XTA   HL3640861  30.328   6.458   4.820
  365XTA   HL3740862  30.204   6.114   4.811
  365XTA   HL3840863  30.160   6.088   4.963
  365XTA   HL3940864  30.457   6.100   4.879
  365XTA   HL4040865  30.377   5.954   4.881
  365XTA   HL4140866  30.392   6.035   5.039
  365XTA    CO840867  31.628   6.262   5.801
  365XTA    CO940868  31.497   6.405   5.628
  365XTA    OA640869  31.541   6.200   5.822
  365XTA   HL4240870  31.640   6.345   5.864
  365XTA   HL4340871  31.710   6.193   5.815
  365XTA   HL4440872  30.061   6.323   5.032
  365XTA   HL4540873  30.118   6.460   4.945
  365XTA   CO1040874  30.113   6.352   4.941
  365XTA   CO1140875  30.348   6.316   5.057
  365XTA    OA740876  30.048   6.303   4.823
  365XTA   HL4640877  30.349   6.432   5.082
  365XTA   HL4740878  30.452   6.295   5.033
  365XTA   HL4840879  31.501   6.534   5.679
  365XTA   HL4940880  31.407   6.358   5.674
  366XTA     NT40881  32.209   4.454   5.309
  366XTA    CN140882  32.196   4.585   5.318
  366XTA     C140883  32.086   4.635   5.386
  366XTA     C240884  32.077   4.773   5.419
  366XTA     C340885  32.172   4.860   5.367
  366XTA     C440886  32.281   4.817   5.287
  366XTA     C540887  32.298   4.676   5.273
  366XTA    CN240888  32.242   4.379   5.419
  366XTA     C640889  32.149   4.277   5.465
  366XTA     C740890  32.190   4.188   5.565
  366XTA     C840891  32.313   4.203   5.629
  366XTA     C940892  32.399   4.307   5.581
  366XTA    C1040893  32.369   4.393   5.480
  366XTA    CN340894  32.186   4.393   5.189
  366XTA    C1140895  32.063   4.348   5.153
  366XTA    C1240896  32.031   4.303   5.023
  366XTA    C1340897  32.137   4.306   4.930
  366XTA    C1440898  32.263   4.361   4.956
  366XTA    C1540899  32.290   4.406   5.088
  366XTA     H140900  32.013   4.560   5.413
  366XTA     H240901  32.007   4.809   5.489
  366XTA     H340902  32.354   4.877   5.238
  366XTA     H440903  32.386   4.641   5.230
  366XTA     H540904  32.049   4.281   5.435
  366XTA     H640905  32.127   4.110   5.602
  366XTA     H740906  32.490   4.308   5.640
  366XTA     H840907  32.454   4.459   5.460
  366XTA     H940908  31.986   4.336   5.221
  366XTA    H1040909  31.929   4.260   5.002
  366XTA    H1140910  32.342   4.361   4.881
  366XTA    H1240911  32.391   4.456   5.102
  366XTA    OA140912  32.164   4.994   5.399
  366XTA    CO140913  32.282   5.064   5.401
  366XTA    OA240914  32.340   4.117   5.734
  366XTA    CO240915  32.479   4.086   5.749
  366XTA    CL140916  32.494   3.944   5.798
  366XTA    CL240917  32.400   3.854   5.724
  366XTA    CL340918  32.451   3.715   5.725
  366XTA    CL440919  32.349   3.604   5.693
  366XTA    CO340920  32.416   3.467   5.690
  366XTA    OA340921  32.320   3.379   5.633
  366XTA    CO440922  32.382   3.251   5.629
  366XTA    CT140923  32.292   3.150   5.548
  366XTA    CL540924  32.358   3.015   5.547
  366XTA    CL640925  32.308   2.904   5.446
  366XTA    OA440926  32.124   4.269   4.798
  366XTA    CO540927  31.994   4.260   4.743
  366XTA    CL740928  31.940   4.402   4.730
  366XTA    CL840929  31.804   4.387   4.655
  366XTA    CL940930  31.726   4.511   4.628
  366XTA   CL1040931  31.598   4.484   4.548
  366XTA    CO640932  31.492   4.599   4.547
  366XTA    OA540933  31.434   4.609   4.671
  366XTA    CO740934  31.315   4.684   4.672
  366XTA    CT240935  31.273   4.720   4.814
  366XTA   CL1140936  31.260   4.592   4.904
  366XTA   CL1240937  31.216   4.635   5.042
  366XTA    HL140938  32.270   5.163   5.429
  366XTA    HL240939  32.356   5.015   5.467
  366XTA    HL340940  32.341   5.066   5.307
  366XTA    HL440941  32.546   4.107   5.668
  366XTA    HL540942  32.510   4.141   5.839
  366XTA    HL640943  32.468   3.941   5.907
  366XTA    HL740944  32.604   3.934   5.784
  366XTA    HL840945  32.391   3.890   5.615
  366XTA    HL940946  32.298   3.868   5.774
  366XTA   HL1040947  32.539   3.712   5.668
  366XTA   HL1140948  32.487   3.703   5.830
  366XTA   HL1240949  32.324   3.618   5.589
  366XTA   HL1340950  32.247   3.622   5.748
  366XTA   HL1440951  32.502   3.484   5.621
  366XTA   HL1540952  32.446   3.430   5.787
  366XTA   HL1640953  32.491   3.250   5.613
  366XTA   HL1740954  32.373   3.224   5.727
  366XTA   HL1840955  32.351   2.982   5.650
  366XTA   HL1940956  32.467   3.026   5.536
  366XTA   HL2040957  32.201   2.885   5.457
  366XTA   HL2140958  32.361   2.811   5.472
  366XTA   HL2240959  32.337   2.934   5.344
  366XTA   HL2340960  31.928   4.201   4.806
  366XTA   HL2440961  31.987   4.222   4.643
  366XTA   HL2540962  31.919   4.433   4.832
  366XTA   HL2640963  32.009   4.466   4.681
  366XTA   HL2740964  31.830   4.327   4.561
  366XTA   HL2840965  31.739   4.320   4.711
  366XTA   HL2940966  31.710   4.555   4.722
  366XTA   HL3040967  31.795   4.579   4.576
  366XTA   HL3140968  31.621   4.473   4.436
  366XTA   HL3240969  31.551   4.385   4.566
  366XTA   HL3340970  31.553   4.693   4.522
  366XTA   HL3440971  31.420   4.593   4.467
  366XTA   HL3540972  31.233   4.625   4.625
  366XTA   HL3640973  31.324   4.771   4.611
  366XTA   HL3740974  31.343   4.538   4.915
  366XTA   HL3840975  31.184   4.524   4.855
  366XTA   HL3940976  31.198   4.743   5.049
  366XTA   HL4040977  31.301   4.606   5.107
  366XTA   HL4140978  31.132   4.581   5.063
  366XTA    CO840979  32.282   3.209   5.407
  366XTA    CO940980  32.152   3.140   5.598
  366XTA    OA640981  32.183   3.153   5.323
  366XTA   HL4240982  32.369   3.186   5.355
  366XTA   HL4340983  32.284   3.321   5.403
  366XTA   HL4440984  31.182   4.890   4.759
  366XTA   HL4540985  31.113   4.871   4.931
  366XTA   CO1040986  31.151   4.803   4.811
  366XTA   CO1140987  31.386   4.818   4.877
  366XTA    OA740988  31.419   4.894   4.805
  366XTA   HL4640989  31.353   4.874   4.967
  366XTA   HL4740990  31.462   4.739   4.887
  366XTA   HL4840991  32.097   3.228   5.567
  366XTA   HL4940992  32.096   3.071   5.536
  367XTA     NT40993  29.984   3.521   7.771
  367XTA    CN140994  29.929   3.413   7.835
  367XTA     C140995  29.984   3.285   7.840
  367XTA     C240996  29.907   3.182   7.892
  367XTA     C340997  29.777   3.195   7.938
  367XTA     C440998  29.722   3.324   7.937
  367XTA     C540999  29.794   3.423   7.875
  367XTA    CN241000  30.033   3.626   7.840
  367XTA     C641001  29.952   3.740   7.874
  367XTA     C741002  30.006   3.847   7.939
  367XTA     C841003  30.143   3.841   7.976
  367XTA     C941004  30.224   3.729   7.935
  367XTA    C1041005  30.171   3.627   7.861
  367XTA    CN341006  30.021   3.510   7.638
  367XTA    C1141007  30.131   3.421   7.604
  367XTA    C1241008  30.164   3.404   7.465
  367XTA    C1341009  30.120   3.498   7.364
  367XTA    C1441010  30.020   3.590   7.405
  367XTA    C1541011  29.963   3.590   7.535
  367XTA     H141012  30.077   3.260   7.805
  367XTA     H241013  29.947   3.079   7.904
  367XTA     H341014  29.625   3.344   7.980
  367XTA     H441015  29.757   3.521   7.853
  367XTA     H541016  29.844   3.740   7.847
  367XTA     H641017  29.947   3.933   7.961
  367XTA     H741018  30.325   3.730   7.956
  367XTA     H841019  30.232   3.545   7.826
  367XTA     H941020  30.180   3.362   7.677
  367XTA    H1041021  30.227   3.321   7.441
  367XTA    H1141022  29.987   3.663   7.335
  367XTA    H1241023  29.891   3.670   7.558
  367XTA    OA141024  29.720   3.086   7.992
  367XTA    CO141025  29.592   3.103   8.045
  367XTA    OA241026  30.184   3.945   8.050
  367XTA    CO241027  30.277   3.900   8.156
  367XTA    CL141028  30.287   4.013   8.261
  367XTA    CL241029  30.373   4.135   8.230
  367XTA    CL341030  30.514   4.117   8.172
  367XTA    CL441031  30.613   4.247   8.175
  367XTA    CO341032  30.761   4.207   8.187
  367XTA    OA341033  30.795   4.102   8.104
  367XTA    CO441034  30.844   4.143   7.978
  367XTA    CT141035  30.858   4.024   7.883
  367XTA    CL541036  30.863   4.066   7.729
  367XTA    CL641037  30.732   4.136   7.678
  367XTA    OA441038  30.167   3.500   7.237
  367XTA    CO541039  30.306   3.457   7.220
  367XTA    CL741040  30.385   3.519   7.103
  367XTA    CL841041  30.526   3.484   7.104
  367XTA    CL941042  30.615   3.567   7.201
  367XTA   CL1041043  30.653   3.704   7.145
  367XTA    CO641044  30.744   3.790   7.241
  367XTA    OA541045  30.744   3.918   7.192
  367XTA    CO741046  30.731   4.020   7.289
  367XTA    CT241047  30.742   4.148   7.202
  367XTA   CL1141048  30.760   4.273   7.293
  367XTA   CL1241049  30.747   4.418   7.231
  367XTA    HL141050  29.597   3.165   8.143
  367XTA    HL241051  29.520   3.148   7.978
  367XTA    HL341052  29.549   3.007   8.066
  367XTA    HL441053  30.229   3.818   8.207
  367XTA    HL541054  30.373   3.862   8.109
  367XTA    HL641055  30.332   3.962   8.346
  367XTA    HL741056  30.192   4.046   8.298
  367XTA    HL841057  30.390   4.189   8.321
  367XTA    HL941058  30.311   4.201   8.163
  367XTA   HL1041059  30.567   4.031   8.227
  367XTA   HL1141060  30.508   4.081   8.065
  367XTA   HL1241061  30.587   4.315   8.260
  367XTA   HL1341062  30.593   4.300   8.087
  367XTA   HL1441063  30.825   4.296   8.167
  367XTA   HL1541064  30.779   4.172   8.287
  367XTA   HL1641065  30.762   4.202   7.939
  367XTA   HL1741066  30.929   4.207   7.988
  367XTA   HL1841067  30.878   3.982   7.670
  367XTA   HL1941068  30.954   4.131   7.724
  367XTA   HL2041069  30.647   4.073   7.661
  367XTA   HL2141070  30.756   4.152   7.578
  367XTA   HL2241071  30.714   4.236   7.713
  367XTA   HL2341072  30.312   3.350   7.221
  367XTA   HL2441073  30.358   3.483   7.313
  367XTA   HL2541074  30.338   3.473   7.012
  367XTA   HL2641075  30.371   3.621   7.088
  367XTA   HL2741076  30.525   3.377   7.136
  367XTA   HL2841077  30.571   3.490   7.002
  367XTA   HL2941078  30.581   3.579   7.300
  367XTA   HL3041079  30.706   3.505   7.220
  367XTA   HL3141080  30.713   3.685   7.060
  367XTA   HL3241081  30.563   3.759   7.112
  367XTA   HL3341082  30.714   3.775   7.341
  367XTA   HL3441083  30.838   3.746   7.246
  367XTA   HL3541084  30.819   4.013   7.351
  367XTA   HL3641085  30.637   3.995   7.337
  367XTA   HL3741086  30.855   4.276   7.346
  367XTA   HL3841087  30.679   4.267   7.360
  367XTA   HL3941088  30.825   4.432   7.159
  367XTA   HL4041089  30.773   4.490   7.298
  367XTA   HL4141090  30.645   4.428   7.192
  367XTA    CO841091  30.744   3.915   7.902
  367XTA    CO941092  30.990   3.955   7.927
  367XTA    OA641093  31.094   4.036   7.890
  367XTA   HL4241094  30.655   3.967   7.934
  367XTA   HL4341095  30.765   3.869   8.000
  367XTA   HL4441096  30.617   4.257   7.077
  367XTA   HL4541097  30.506   4.159   7.216
  367XTA   CO1041098  30.610   4.163   7.126
  367XTA   CO1141099  30.848   4.144   7.090
  367XTA    OA741100  30.953   4.175   7.112
  367XTA   HL4641101  30.855   4.051   7.031
  367XTA   HL4741102  30.807   4.212   7.018
  367XTA   HL4841103  31.002   3.851   7.904
  367XTA   HL4941104  30.984   3.945   8.035
  368XTA     NT41105  30.223   4.810   7.256
  368XTA    CN141106  30.276   4.914   7.191
  368XTA     C141107  30.181   4.990   7.116
  368XTA     C241108  30.220   5.108   7.045
  368XTA     C341109  30.357   5.134   7.031
  368XTA     C441110  30.454   5.058   7.104
  368XTA     C541111  30.416   4.948   7.182
  368XTA    CN241112  30.194   4.690   7.204
  368XTA     C641113  30.292   4.623   7.125
  368XTA     C741114  30.266   4.499   7.060
  368XTA     C841115  30.140   4.431   7.077
  368XTA     C941116  30.043   4.502   7.156
  368XTA    C1041117  30.064   4.626   7.209
  368XTA    CN341118  30.231   4.814   7.392
  368XTA    C1141119  30.337   4.755   7.461
  368XTA    C1241120  30.361   4.797   7.592
  368XTA    C1341121  30.277   4.892   7.653
  368XTA    C1441122  30.163   4.941   7.588
  368XTA    C1541123  30.139   4.895   7.455
  368XTA     H141124  30.076   4.967   7.134
  368XTA     H241125  30.151   5.168   6.993
  368XTA     H341126  30.552   5.085   7.099
  368XTA     H441127  30.482   4.902   7.254
  368XTA     H541128  30.385   4.674   7.110
  368XTA     H641129  30.342   4.456   6.996
  368XTA     H741130  29.940   4.467   7.158
  368XTA     H841131  29.991   4.677   7.272
  368XTA     H941132  30.404   4.675   7.420
  368XTA    H1041133  30.436   4.762   7.656
  368XTA    H1141134  30.086   5.007   7.626
  368XTA    H1241135  30.054   4.939   7.404
  368XTA    OA141136  30.386   5.241   6.955
  368XTA    CO141137  30.521   5.286   6.961
  368XTA    OA241138  30.117   4.316   7.003
  368XTA    CO241139  30.028   4.222   7.063
  368XTA    CL141140  29.903   4.199   6.968
  368XTA    CL241141  29.801   4.102   7.026
  368XTA    CL341142  29.694   4.085   6.915
  368XTA    CL441143  29.578   4.186   6.918
  368XTA    CO341144  29.469   4.148   6.821
  368XTA    OA341145  29.378   4.247   6.837
  368XTA    CO441146  29.253   4.201   6.788
  368XTA    CT141147  29.140   4.309   6.769
  368XTA    CL541148  29.051   4.298   6.903
  368XTA    CL641149  28.980   4.433   6.943
  368XTA    OA441150  30.306   4.924   7.785
  368XTA    CO541151  30.212   5.005   7.863
  368XTA    CL741152  30.292   5.042   7.988
  368XTA    CL841153  30.225   5.165   8.049
  368XTA    CL941154  30.117   5.131   8.139
  368XTA   CL1041155  30.051   5.244   8.220
  368XTA    CO641156  29.926   5.204   8.299
  368XTA    OA541157  29.862   5.315   8.349
  368XTA    CO741158  29.728   5.294   8.389
  368XTA    CT241159  29.621   5.335   8.291
  368XTA   CL1141160  29.670   5.473   8.229
  368XTA   CL1241161  29.568   5.544   8.143
  368XTA    HL141162  30.566   5.308   7.060
  368XTA    HL241163  30.592   5.219   6.905
  368XTA    HL341164  30.534   5.373   6.899
  368XTA    HL441165  30.084   4.135   7.063
  368XTA    HL541166  29.995   4.244   7.160
  368XTA    HL641167  29.938   4.158   6.876
  368XTA    HL741168  29.854   4.291   6.933
  368XTA    HL841169  29.765   4.139   7.121
  368XTA    HL941170  29.852   4.012   7.058
  368XTA   HL1041171  29.734   4.067   6.819
  368XTA   HL1141172  29.642   3.995   6.935
  368XTA   HL1241173  29.615   4.286   6.893
  368XTA   HL1341174  29.552   4.194   7.019
  368XTA   HL1441175  29.511   4.134   6.717
  368XTA   HL1541176  29.423   4.053   6.854
  368XTA   HL1641177  29.268   4.162   6.688
  368XTA   HL1741178  29.190   4.126   6.851
  368XTA   HL1841179  29.117   4.273   6.986
  368XTA   HL1941180  28.992   4.213   6.893
  368XTA   HL2041181  28.922   4.416   7.035
  368XTA   HL2141182  28.911   4.467   6.865
  368XTA   HL2241183  29.047   4.519   6.970
  368XTA   HL2341184  30.112   4.962   7.880
  368XTA   HL2441185  30.189   5.100   7.815
  368XTA   HL2541186  30.310   4.961   8.052
  368XTA   HL2641187  30.389   5.075   7.952
  368XTA   HL2741188  30.299   5.231   8.091
  368XTA   HL2841189  30.178   5.225   7.970
  368XTA   HL2941190  30.032   5.096   8.084
  368XTA   HL3041191  30.149   5.033   8.195
  368XTA   HL3141192  30.124   5.256   8.291
  368XTA   HL3241193  30.035   5.335   8.162
  368XTA   HL3341194  29.857   5.160   8.230
  368XTA   HL3441195  29.950   5.136   8.374
  368XTA   HL3541196  29.704   5.341   8.483
  368XTA   HL3641197  29.719   5.186   8.402
  368XTA   HL3741198  29.763   5.452   8.170
  368XTA   HL3841199  29.699   5.536   8.307
  368XTA   HL3941200  29.484   5.577   8.208
  368XTA   HL4041201  29.520   5.487   8.064
  368XTA   HL4141202  29.603   5.631   8.096
  368XTA    CO841203  29.057   4.287   6.639
  368XTA    CO941204  29.203   4.450   6.769
  368XTA    OA641205  28.994   4.191   6.654
  368XTA   HL4241206  29.110   4.281   6.540
  368XTA   HL4341207  28.986   4.367   6.620
  368XTA   HL4441208  29.467   5.259   8.426
  368XTA   HL4541209  29.368   5.351   8.272
  368XTA   CO1041210  29.479   5.351   8.360
  368XTA   CO1141211  29.593   5.233   8.186
  368XTA    OA741212  29.654   5.234   8.091
  368XTA   HL4641213  29.617   5.136   8.228
  368XTA   HL4741214  29.486   5.232   8.154
  368XTA   HL4841215  29.109   4.550   6.756
  368XTA   HL4941216  29.250   4.466   6.866
  369XTA     NT41217  32.888   5.402   4.823
  369XTA    CN141218  32.814   5.311   4.748
  369XTA     C141219  32.862   5.181   4.760
  369XTA     C241220  32.808   5.083   4.676
  369XTA     C341221  32.701   5.105   4.588
  369XTA     C441222  32.653   5.237   4.579
  369XTA     C541223  32.709   5.340   4.661
  369XTA    CN241224  32.938   5.504   4.757
  369XTA     C641225  33.069   5.487   4.714
  369XTA     C741226  33.127   5.594   4.642
  369XTA     C841227  33.061   5.718   4.629
  369XTA     C941228  32.934   5.726   4.676
  369XTA    C1041229  32.866   5.621   4.735
  369XTA    CN341230  32.888   5.399   4.958
  369XTA    C1141231  32.768   5.397   5.035
  369XTA    C1241232  32.773   5.382   5.178
  369XTA    C1341233  32.898   5.384   5.240
  369XTA    C1441234  33.014   5.388   5.162
  369XTA    C1541235  33.013   5.393   5.023
  369XTA     H141236  32.956   5.165   4.818
  369XTA     H241237  32.854   4.986   4.682
  369XTA     H341238  32.580   5.274   4.502
  369XTA     H441239  32.675   5.440   4.640
  369XTA     H541240  33.123   5.399   4.737
  369XTA     H641241  33.230   5.574   4.605
  369XTA     H741242  32.876   5.814   4.664
  369XTA     H841243  32.761   5.639   4.769
  369XTA     H941244  32.671   5.380   4.985
  369XTA    H1041245  32.685   5.365   5.231
  369XTA    H1141246  33.109   5.394   5.207
  369XTA    H1241247  33.110   5.389   4.981
  369XTA    OA141248  32.647   5.012   4.500
  369XTA    CO141249  32.749   4.950   4.418
  369XTA    OA241250  33.132   5.824   4.576
  369XTA    CO241251  33.074   5.948   4.567
  369XTA    CL141252  33.074   6.030   4.695
  369XTA    CL241253  33.004   6.167   4.675
  369XTA    CL341254  33.082   6.263   4.589
  369XTA    CL441255  32.992   6.371   4.539
  369XTA    CO341256  33.055   6.471   4.435
  369XTA    OA341257  33.113   6.392   4.331
  369XTA    CO441258  33.251   6.397   4.317
  369XTA    CT141259  33.299   6.297   4.216
  369XTA    CL541260  33.268   6.152   4.267
  369XTA    CL641261  33.351   6.100   4.384
  369XTA    OA441262  32.919   5.382   5.380
  369XTA    CO541263  32.815   5.327   5.464
  369XTA    CL741264  32.773   5.185   5.428
  369XTA    CL841265  32.697   5.113   5.541
  369XTA    CL941266  32.630   4.982   5.498
  369XTA   CL1041267  32.733   4.876   5.462
  369XTA    CO641268  32.663   4.749   5.457
  369XTA    OA541269  32.760   4.652   5.432
  369XTA    CO741270  32.699   4.533   5.388
  369XTA    CT241271  32.794   4.429   5.327
  369XTA   CL1141272  32.859   4.497   5.206
  369XTA   CL1241273  32.769   4.523   5.083
  369XTA    HL141274  32.818   5.017   4.365
  369XTA    HL241275  32.810   4.892   4.480
  369XTA    HL341276  32.694   4.882   4.352
  369XTA    HL441277  33.134   5.999   4.498
  369XTA    HL541278  32.980   5.951   4.525
  369XTA    HL641279  33.175   6.057   4.731
  369XTA    HL741280  33.005   5.994   4.774
  369XTA    HL841281  32.988   6.210   4.774
  369XTA    HL941282  32.904   6.151   4.633
  369XTA   HL1041283  33.183   6.289   4.630
  369XTA   HL1141284  33.109   6.215   4.497
  369XTA   HL1241285  32.961   6.420   4.625
  369XTA   HL1341286  32.903   6.327   4.484
  369XTA   HL1441287  32.984   6.543   4.398
  369XTA   HL1541288  33.135   6.517   4.490
  369XTA   HL1641289  33.274   6.500   4.284
  369XTA   HL1741290  33.302   6.386   4.415
  369XTA   HL1841291  33.259   6.083   4.184
  369XTA   HL1941292  33.170   6.155   4.301
  369XTA   HL2041293  33.454   6.106   4.370
  369XTA   HL2141294  33.322   6.002   4.411
  369XTA   HL2241295  33.329   6.161   4.472
  369XTA   HL2341296  32.737   5.404   5.453
  369XTA   HL2441297  32.852   5.325   5.562
  369XTA   HL2541298  32.718   5.180   5.341
  369XTA   HL2641299  32.861   5.124   5.411
  369XTA   HL2741300  32.758   5.104   5.630
  369XTA   HL2841301  32.613   5.178   5.562
  369XTA   HL2941302  32.575   4.949   5.589
  369XTA   HL3041303  32.559   5.004   5.422
  369XTA   HL3141304  32.769   4.900   5.363
  369XTA   HL3241305  32.820   4.871   5.529
  369XTA   HL3341306  32.626   4.722   5.549
  369XTA   HL3441307  32.574   4.758   5.388
  369XTA   HL3541308  32.625   4.560   5.312
  369XTA   HL3641309  32.644   4.495   5.479
  369XTA   HL3741310  32.938   4.429   5.177
  369XTA   HL3841311  32.920   4.582   5.231
  369XTA   HL3941312  32.715   4.434   5.050
  369XTA   HL4041313  32.819   4.559   4.992
  369XTA   HL4141314  32.688   4.599   5.109
  369XTA    CO841315  33.448   6.324   4.208
  369XTA    CO941316  33.248   6.311   4.071
  369XTA    OA641317  33.115   6.286   4.067
  369XTA   HL4241318  33.494   6.235   4.163
  369XTA   HL4341319  33.468   6.402   4.136
  369XTA   HL4441320  32.681   4.258   5.389
  369XTA   HL4541321  32.614   4.335   5.242
  369XTA   CO1041322  32.709   4.302   5.288
  369XTA   CO1141323  32.908   4.397   5.428
  369XTA    OA741324  32.870   4.308   5.531
  369XTA   HL4641325  32.982   4.345   5.373
  369XTA   HL4741326  32.940   4.493   5.467
  369XTA   HL4841327  33.296   6.256   3.993
  369XTA   HL4941328  33.260   6.411   4.041
  370XTA     NT41329  33.033   2.121   0.901
  370XTA    CN141330  33.141   2.105   0.821
  370XTA     C141331  33.268   2.137   0.872
  370XTA     C241332  33.383   2.120   0.793
  370XTA     C341333  33.374   2.049   0.669
  370XTA     C441334  33.246   2.013   0.622
  370XTA     C541335  33.132   2.035   0.696
  370XTA    CN241336  33.000   2.237   0.956
  370XTA     C641337  33.048   2.282   1.079
  370XTA     C741338  33.025   2.414   1.128
  370XTA     C841339  32.945   2.508   1.053
  370XTA     C941340  32.896   2.464   0.928
  370XTA    C1041341  32.924   2.332   0.879
  370XTA    CN341342  32.992   2.008   0.955
  370XTA    C1141343  32.876   1.952   0.901
  370XTA    C1241344  32.824   1.835   0.955
  370XTA    C1341345  32.889   1.759   1.054
  370XTA    C1441346  33.005   1.819   1.108
  370XTA    C1541347  33.060   1.936   1.053
  370XTA     H141348  33.279   2.172   0.973
  370XTA     H241349  33.480   2.159   0.825
  370XTA     H341350  33.237   1.975   0.515
  370XTA     H441351  33.044   2.011   0.657
  370XTA     H541352  33.113   2.227   1.140
  370XTA     H641353  33.061   2.448   1.227
  370XTA     H741354  32.845   2.536   0.863
  370XTA     H841355  32.893   2.294   0.786
  370XTA     H941356  32.815   1.992   0.818
  370XTA    H1041357  32.735   1.797   0.913
  370XTA    H1141358  33.061   1.762   1.177
  370XTA    H1241359  33.152   1.970   1.086
  370XTA    OA141360  33.477   2.032   0.579
  370XTA    CO141361  33.611   2.039   0.636
  370XTA    OA241362  32.928   2.642   1.083
  370XTA    CO241363  32.966   2.684   1.212
  370XTA    CL141364  32.915   2.827   1.249
  370XTA    CL241365  32.975   2.887   1.376
  370XTA    CL341366  32.888   3.005   1.432
  370XTA    CL441367  32.927   3.031   1.577
  370XTA    CO341368  32.868   3.161   1.625
  370XTA    OA341369  32.924   3.266   1.547
  370XTA    CO441370  32.941   3.385   1.621
  370XTA    CT141371  32.991   3.494   1.527
  370XTA    CL541372  33.023   3.624   1.610
  370XTA    CL641373  33.106   3.606   1.738
  370XTA    OA441374  32.851   1.638   1.085
  370XTA    CO541375  32.727   1.595   1.039
  370XTA    CL741376  32.701   1.455   1.096
  370XTA    CL841377  32.648   1.442   1.239
  370XTA    CL941378  32.760   1.424   1.341
  370XTA   CL1041379  32.720   1.464   1.486
  370XTA    CO641380  32.769   1.601   1.511
  370XTA    OA541381  32.696   1.690   1.432
  370XTA    CO741382  32.733   1.827   1.436
  370XTA    CT241383  32.627   1.922   1.386
  370XTA   CL1141384  32.675   2.063   1.381
  370XTA   CL1241385  32.785   2.090   1.271
  370XTA    HL141386  33.642   1.947   0.677
  370XTA    HL241387  33.675   2.047   0.548
  370XTA    HL341388  33.638   2.130   0.702
  370XTA    HL441389  32.943   2.606   1.286
  370XTA    HL541390  33.078   2.685   1.217
  370XTA    HL641391  32.808   2.816   1.274
  370XTA    HL741392  32.932   2.893   1.165
  370XTA    HL841393  33.077   2.911   1.359
  370XTA    HL941394  32.975   2.805   1.446
  370XTA   HL1041395  32.901   3.101   1.375
  370XTA   HL1141396  32.783   2.988   1.427
  370XTA   HL1241397  33.032   3.040   1.587
  370XTA   HL1341398  32.896   2.948   1.641
  370XTA   HL1441399  32.764   3.164   1.594
  370XTA   HL1541400  32.872   3.163   1.732
  370XTA   HL1641401  32.847   3.417   1.670
  370XTA   HL1741402  33.001   3.353   1.709
  370XTA   HL1841403  32.936   3.685   1.635
  370XTA   HL1941404  33.079   3.688   1.546
  370XTA   HL2041405  33.213   3.584   1.730
  370XTA   HL2141406  33.063   3.542   1.804
  370XTA   HL2241407  33.095   3.703   1.791
  370XTA   HL2341408  32.724   1.579   0.926
  370XTA   HL2441409  32.641   1.657   1.067
  370XTA   HL2541410  32.629   1.414   1.033
  370XTA   HL2641411  32.786   1.390   1.073
  370XTA   HL2741412  32.579   1.527   1.267
  370XTA   HL2841413  32.588   1.352   1.239
  370XTA   HL2941414  32.776   1.315   1.348
  370XTA   HL3041415  32.860   1.468   1.317
  370XTA   HL3141416  32.614   1.451   1.502
  370XTA   HL3241417  32.758   1.399   1.564
  370XTA   HL3341418  32.757   1.643   1.615
  370XTA   HL3441419  32.871   1.614   1.486
  370XTA   HL3541420  32.827   1.830   1.381
  370XTA   HL3641421  32.752   1.859   1.538
  370XTA   HL3741422  32.720   2.073   1.477
  370XTA   HL3841423  32.591   2.135   1.366
  370XTA   HL3941424  32.857   2.165   1.312
  370XTA   HL4041425  32.737   2.125   1.181
  370XTA   HL4141426  32.844   2.003   1.249
  370XTA    CO841427  32.889   3.522   1.412
  370XTA    CO941428  33.118   3.444   1.463
  370XTA    OA641429  33.163   3.509   1.380
  370XTA   HL4241430  32.914   3.466   1.323
  370XTA   HL4341431  32.768   3.467   1.457
  370XTA   HL4441432  32.518   1.946   1.575
  370XTA   HL4541433  32.452   2.022   1.440
  370XTA   CO1041434  32.502   1.928   1.472
  370XTA   CO1141435  32.581   1.885   1.243
  370XTA    OA741436  32.424   1.808   1.461
  370XTA   HL4641437  32.526   1.797   1.253
  370XTA   HL4741438  32.676   1.861   1.190
  370XTA   HL4841439  33.109   3.343   1.421
  370XTA   HL4941440  33.185   3.436   1.543
  371XTA     NT41441  30.399   6.480   0.886
  371XTA    CN141442  30.461   6.360   0.897
  371XTA     C141443  30.510   6.301   1.016
  371XTA     C241444  30.592   6.189   1.005
  371XTA     C341445  30.615   6.125   0.881
  371XTA     C441446  30.557   6.179   0.767
  371XTA     C541447  30.480   6.296   0.772
  371XTA    CN241448  30.264   6.493   0.907
  371XTA     C641449  30.183   6.545   0.806
  371XTA     C741450  30.045   6.581   0.824
  371XTA     C841451  29.986   6.556   0.955
  371XTA     C941452  30.057   6.487   1.053
  371XTA    C1041453  30.199   6.458   1.031
  371XTA    CN341454  30.471   6.590   0.896
  371XTA    C1141455  30.534   6.622   1.015
  371XTA    C1241456  30.606   6.743   1.036
  371XTA    C1341457  30.619   6.830   0.928
  371XTA    C1441458  30.557   6.803   0.806
  371XTA    C1541459  30.487   6.680   0.791
  371XTA     H141460  30.484   6.338   1.115
  371XTA     H241461  30.632   6.138   1.089
  371XTA     H341462  30.583   6.156   0.664
  371XTA     H441463  30.454   6.346   0.676
  371XTA     H541464  30.231   6.579   0.715
  371XTA     H641465  29.994   6.630   0.741
  371XTA     H741466  30.011   6.458   1.151
  371XTA     H841467  30.264   6.408   1.099
  371XTA     H941468  30.519   6.560   1.102
  371XTA    H1041469  30.667   6.768   1.130
  371XTA    H1141470  30.561   6.878   0.730
  371XTA    H1241471  30.438   6.655   0.698
  371XTA    OA141472  30.706   6.019   0.868
  371XTA    CO141473  30.724   5.938   0.983
  371XTA    OA241474  29.855   6.605   0.996
  371XTA    CO241475  29.800   6.702   0.911
  371XTA    CL141476  29.662   6.753   0.966
  371XTA    CL241477  29.595   6.853   0.871
  371XTA    CL341478  29.495   6.941   0.949
  371XTA    CL441479  29.385   6.852   1.010
  371XTA    CO341480  29.292   6.936   1.101
  371XTA    OA341481  29.359   6.978   1.224
  371XTA    CO441482  29.295   7.092   1.286
  371XTA    CT141483  29.362   7.111   1.430
  371XTA    CL541484  29.344   6.990   1.522
  371XTA    CL641485  29.202   6.940   1.550
  371XTA    OA441486  30.680   6.948   0.960
  371XTA    CO541487  30.658   7.063   0.882
  371XTA    CL741488  30.743   7.179   0.932
  371XTA    CL841489  30.732   7.293   0.832
  371XTA    CL941490  30.785   7.421   0.887
  371XTA   CL1041491  30.919   7.405   0.956
  371XTA    CO641492  31.030   7.368   0.855
  371XTA    OA541493  31.159   7.410   0.894
  371XTA    CO741494  31.220   7.340   1.004
  371XTA    CT241495  31.313   7.432   1.089
  371XTA   CL1141496  31.368   7.351   1.205
  371XTA   CL1241497  31.260   7.283   1.295
  371XTA    HL141498  30.769   5.843   0.947
  371XTA    HL241499  30.792   5.985   1.053
  371XTA    HL341500  30.624   5.919   1.033
  371XTA    HL441501  29.870   6.781   0.917
  371XTA    HL541502  29.792   6.666   0.810
  371XTA    HL641503  29.678   6.806   1.061
  371XTA    HL741504  29.595   6.673   0.986
  371XTA    HL841505  29.543   6.802   0.790
  371XTA    HL941506  29.670   6.914   0.826
  371XTA   HL1041507  29.534   7.001   1.031
  371XTA   HL1141508  29.455   7.009   0.878
  371XTA   HL1241509  29.431   6.772   1.070
  371XTA   HL1341510  29.333   6.803   0.926
  371XTA   HL1441511  29.253   7.021   1.042
  371XTA   HL1541512  29.196   6.888   1.130
  371XTA   HL1641513  29.318   7.181   1.222
  371XTA   HL1741514  29.188   7.065   1.296
  371XTA   HL1841515  29.402   7.016   1.615
  371XTA   HL1941516  29.404   6.917   1.477
  371XTA   HL2041517  29.159   6.910   1.451
  371XTA   HL2141518  29.128   7.016   1.580
  371XTA   HL2241519  29.218   6.859   1.625
  371XTA   HL2341520  30.552   7.086   0.895
  371XTA   HL2441521  30.685   7.036   0.782
  371XTA   HL2541522  30.710   7.217   1.032
  371XTA   HL2641523  30.842   7.140   0.939
  371XTA   HL2741524  30.785   7.264   0.749
  371XTA   HL2841525  30.627   7.305   0.809
  371XTA   HL2941526  30.804   7.492   0.809
  371XTA   HL3041527  30.702   7.467   0.941
  371XTA   HL3141528  30.942   7.504   0.994
  371XTA   HL3241529  30.918   7.343   1.047
  371XTA   HL3341530  31.043   7.263   0.827
  371XTA   HL3441531  30.999   7.410   0.758
  371XTA   HL3541532  31.267   7.253   0.959
  371XTA   HL3641533  31.140   7.297   1.063
  371XTA   HL3741534  31.435   7.427   1.263
  371XTA   HL3841535  31.424   7.271   1.168
  371XTA   HL3941536  31.197   7.209   1.251
  371XTA   HL4041537  31.194   7.351   1.338
  371XTA   HL4141538  31.315   7.228   1.369
  371XTA    CO841539  29.287   7.232   1.488
  371XTA    CO941540  29.515   7.151   1.404
  371XTA    OA641541  29.150   7.249   1.448
  371XTA   HL4241542  29.349   7.324   1.469
  371XTA   HL4341543  29.273   7.232   1.602
  371XTA   HL4441544  31.141   7.518   1.202
  371XTA   HL4541545  31.282   7.603   1.223
  371XTA   CO1041546  31.231   7.547   1.143
  371XTA   CO1141547  31.429   7.485   0.999
  371XTA    OA741548  31.199   7.623   1.065
  371XTA   HL4641549  31.514   7.592   1.053
  371XTA   HL4741550  31.377   7.538   0.918
  371XTA   HL4841551  29.528   7.180   1.296
  371XTA   HL4941552  29.580   7.063   1.421
  372XTA     NT41553  24.843   7.122   6.089
  372XTA    CN141554  24.899   7.124   6.211
  372XTA     C141555  24.821   7.095   6.323
  372XTA     C241556  24.885   7.104   6.451
  372XTA     C341557  25.021   7.140   6.462
  372XTA     C441558  25.099   7.160   6.348
  372XTA     C541559  25.040   7.144   6.224
  372XTA    CN241560  24.855   7.012   6.014
  372XTA     C641561  24.782   6.902   6.050
  372XTA     C741562  24.773   6.785   5.969
  372XTA     C841563  24.860   6.779   5.852
  372XTA     C941564  24.932   6.892   5.815
  372XTA    C1041565  24.934   7.012   5.894
  372XTA    CN341566  24.770   7.226   6.053
  372XTA    C1141567  24.631   7.215   6.037
  372XTA    C1241568  24.560   7.332   6.008
  372XTA    C1341569  24.626   7.452   5.992
  372XTA    C1441570  24.768   7.457   5.976
  372XTA    C1541571  24.838   7.340   6.008
  372XTA     H141572  24.722   7.066   6.322
  372XTA     H241573  24.836   7.068   6.541
  372XTA     H341574  25.199   7.185   6.368
  372XTA     H441575  25.081   7.176   6.128
  372XTA     H541576  24.718   6.912   6.139
  372XTA     H641577  24.707   6.706   5.990
  372XTA     H741578  24.982   6.894   5.717
  372XTA     H841579  24.977   7.103   5.868
  372XTA     H941580  24.577   7.121   6.056
  372XTA    H1041581  24.453   7.326   5.991
  372XTA    H1141582  24.825   7.549   5.961
  372XTA    H1241583  24.946   7.348   6.011
  372XTA    OA141584  25.077   7.152   6.591
  372XTA    CO141585  25.211   7.163   6.610
  372XTA    OA241586  24.868   6.668   5.773
  372XTA    CO241587  24.796   6.548   5.805
  372XTA    CL141588  24.871   6.458   5.902
  372XTA    CL241589  24.792   6.333   5.948
  372XTA    CL341590  24.802   6.221   5.836
  372XTA    CL441591  24.952   6.193   5.785
  372XTA    CO341592  24.956   6.082   5.681
  372XTA    OA341593  24.865   5.975   5.695
  372XTA    CO441594  24.827   5.914   5.576
  372XTA    CT141595  24.756   5.784   5.611
  372XTA    CL541596  24.638   5.819   5.704
  372XTA    CL641597  24.523   5.712   5.706
  372XTA    OA441598  24.546   7.564   5.985
  372XTA    CO541599  24.607   7.688   5.970
  372XTA    CL741600  24.642   7.703   5.816
  372XTA    CL841601  24.658   7.845   5.775
  372XTA    CL941602  24.738   7.880   5.644
  372XTA   CL1041603  24.879   7.927   5.659
  372XTA    CO641604  24.962   7.918   5.529
  372XTA    OA541605  25.099   7.953   5.549
  372XTA    CO741606  25.172   7.968   5.428
  372XTA    CT241607  25.324   8.004   5.460
  372XTA   CL1141608  25.358   8.141   5.392
  372XTA   CL1241609  25.274   8.261   5.456
  372XTA    HL141610  25.256   7.066   6.583
  372XTA    HL241611  25.253   7.232   6.539
  372XTA    HL341612  25.229   7.202   6.713
  372XTA    HL441613  24.688   6.553   5.831
  372XTA    HL541614  24.796   6.498   5.708
  372XTA    HL641615  24.888   6.512   5.994
  372XTA    HL741616  24.962   6.426   5.857
  372XTA    HL841617  24.685   6.352   5.962
  372XTA    HL941618  24.849   6.290   6.034
  372XTA   HL1041619  24.760   6.131   5.884
  372XTA   HL1141620  24.737   6.243   5.751
  372XTA   HL1241621  25.017   6.170   5.880
  372XTA   HL1341622  25.001   6.274   5.729
  372XTA   HL1441623  24.926   6.121   5.584
  372XTA   HL1541624  25.050   6.032   5.686
  372XTA   HL1641625  24.761   5.980   5.511
  372XTA   HL1741626  24.913   5.898   5.512
  372XTA   HL1841627  24.582   5.901   5.658
  372XTA   HL1941628  24.683   5.851   5.796
  372XTA   HL2041629  24.552   5.625   5.765
  372XTA   HL2141630  24.497   5.681   5.606
  372XTA   HL2241631  24.432   5.757   5.749
  372XTA   HL2341632  24.697   7.714   6.024
  372XTA   HL2441633  24.532   7.765   5.991
  372XTA   HL2541634  24.736   7.645   5.793
  372XTA   HL2641635  24.571   7.648   5.759
  372XTA   HL2741636  24.563   7.885   5.766
  372XTA   HL2841637  24.714   7.904   5.850
  372XTA   HL2941638  24.742   7.787   5.580
  372XTA   HL3041639  24.686   7.954   5.584
  372XTA   HL3141640  24.901   8.029   5.711
  372XTA   HL3241641  24.926   7.858   5.722
  372XTA   HL3341642  24.959   7.811   5.502
  372XTA   HL3441643  24.925   7.974   5.444
  372XTA   HL3541644  25.127   8.033   5.356
  372XTA   HL3641645  25.168   7.868   5.372
  372XTA   HL3741646  25.346   8.137   5.280
  372XTA   HL3841647  25.467   8.163   5.400
  372XTA   HL3941648  25.282   8.272   5.562
  372XTA   HL4041649  25.170   8.247   5.437
  372XTA   HL4141650  25.299   8.354   5.413
  372XTA    CO841651  24.852   5.690   5.694
  372XTA    CO941652  24.711   5.716   5.476
  372XTA    OA641653  24.936   5.654   5.635
  372XTA   HL4241654  24.799   5.601   5.734
  372XTA   HL4341655  24.880   5.746   5.777
  372XTA   HL4441656  25.515   7.881   5.432
  372XTA   HL4541657  25.369   7.793   5.445
  372XTA   CO1041658  25.406   7.881   5.400
  372XTA   CO1141659  25.372   8.010   5.605
  372XTA    OA741660  25.499   8.053   5.626
  372XTA   HL4641661  25.294   8.055   5.663
  372XTA   HL4741662  25.374   7.910   5.647
  372XTA   HL4841663  24.817   5.667   5.393
  372XTA   HL4941664  24.666   5.618   5.499
  373XTA     NT41665  31.124   3.086   1.943
  373XTA    CN141666  30.999   3.052   1.979
  373XTA     C141667  30.892   3.027   1.892
  373XTA     C241668  30.769   2.984   1.949
  373XTA     C341669  30.758   2.967   2.090
  373XTA     C441670  30.866   2.991   2.171
  373XTA     C541671  30.987   3.034   2.126
  373XTA    CN241672  31.157   3.214   1.926
  373XTA     C641673  31.106   3.284   1.810
  373XTA     C741674  31.140   3.415   1.780
  373XTA     C841675  31.224   3.481   1.877
  373XTA     C941676  31.276   3.405   1.987
  373XTA    C1041677  31.243   3.269   2.015
  373XTA    CN341678  31.216   2.992   1.930
  373XTA    C1141679  31.293   2.942   2.040
  373XTA    C1241680  31.399   2.854   2.014
  373XTA    C1341681  31.432   2.815   1.880
  373XTA    C1441682  31.354   2.852   1.778
  373XTA    C1541683  31.251   2.942   1.801
  373XTA     H141684  30.911   3.042   1.789
  373XTA     H241685  30.690   2.972   1.883
  373XTA     H341686  30.855   2.960   2.274
  373XTA     H441687  31.070   3.056   2.197
  373XTA     H541688  31.039   3.236   1.736
  373XTA     H641689  31.101   3.462   1.694
  373XTA     H741690  31.358   3.451   2.041
  373XTA     H841691  31.271   3.209   2.103
  373XTA     H941692  31.284   2.972   2.138
  373XTA    H1041693  31.461   2.818   2.091
  373XTA    H1141694  31.381   2.809   1.684
  373XTA    H1241695  31.198   2.980   1.719
  373XTA    OA141696  30.641   2.939   2.161
  373XTA    CO141697  30.528   2.928   2.083
  373XTA    OA241698  31.261   3.612   1.877
  373XTA    CO241699  31.199   3.683   1.778
  373XTA    CL141700  31.251   3.820   1.769
  373XTA    CL241701  31.402   3.835   1.723
  373XTA    CL341702  31.497   3.845   1.839
  373XTA    CL441703  31.642   3.850   1.801
  373XTA    CO341704  31.689   3.984   1.750
  373XTA    OA341705  31.700   4.094   1.850
  373XTA    CO441706  31.734   4.222   1.793
  373XTA    CT141707  31.697   4.343   1.887
  373XTA    CL541708  31.563   4.407   1.841
  373XTA    CL641709  31.450   4.318   1.869
  373XTA    OA441710  31.532   2.732   1.841
  373XTA    CO541711  31.617   2.685   1.940
  373XTA    CL741712  31.729   2.597   1.892
  373XTA    CL841713  31.854   2.671   1.864
  373XTA    CL941714  31.965   2.584   1.820
  373XTA   CL1041715  32.094   2.650   1.805
  373XTA    CO641716  32.210   2.569   1.739
  373XTA    OA541717  32.174   2.561   1.600
  373XTA    CO741718  32.232   2.456   1.533
  373XTA    CT241719  32.151   2.430   1.410
  373XTA   CL1141720  32.215   2.322   1.325
  373XTA   CL1241721  32.265   2.193   1.396
  373XTA    HL141722  30.519   3.024   2.040
  373XTA    HL241723  30.546   2.845   2.011
  373XTA    HL341724  30.450   2.882   2.137
  373XTA    HL441725  31.220   3.641   1.672
  373XTA    HL541726  31.095   3.678   1.800
  373XTA    HL641727  31.236   3.868   1.868
  373XTA    HL741728  31.190   3.871   1.691
  373XTA    HL841729  31.410   3.913   1.649
  373XTA    HL941730  31.432   3.744   1.666
  373XTA   HL1041731  31.465   3.932   1.889
  373XTA   HL1141732  31.470   3.762   1.905
  373XTA   HL1241733  31.670   3.777   1.728
  373XTA   HL1341734  31.695   3.824   1.889
  373XTA   HL1441735  31.788   3.954   1.713
  373XTA   HL1541736  31.639   4.013   1.659
  373XTA   HL1641737  31.839   4.227   1.761
  373XTA   HL1741738  31.674   4.231   1.699
  373XTA   HL1841739  31.585   4.426   1.734
  373XTA   HL1941740  31.544   4.506   1.888
  373XTA   HL2041741  31.370   4.317   1.791
  373XTA   HL2141742  31.404   4.344   1.969
  373XTA   HL2241743  31.483   4.214   1.879
  373XTA   HL2341744  31.556   2.641   2.018
  373XTA   HL2441745  31.663   2.776   1.967
  373XTA   HL2541746  31.749   2.511   1.957
  373XTA   HL2641747  31.696   2.555   1.799
  373XTA   HL2741748  31.847   2.749   1.790
  373XTA   HL2841749  31.880   2.725   1.955
  373XTA   HL2941750  31.966   2.483   1.861
  373XTA   HL3041751  31.930   2.565   1.715
  373XTA   HL3141752  32.084   2.753   1.757
  373XTA   HL3241753  32.134   2.670   1.906
  373XTA   HL3341754  32.311   2.615   1.744
  373XTA   HL3441755  32.221   2.471   1.787
  373XTA   HL3541756  32.243   2.365   1.587
  373XTA   HL3641757  32.339   2.471   1.503
  373XTA   HL3741758  32.301   2.349   1.266
  373XTA   HL3841759  32.127   2.288   1.257
  373XTA   HL3941760  32.180   2.128   1.424
  373XTA   HL4041761  32.333   2.217   1.474
  373XTA   HL4141762  32.336   2.136   1.329
  373XTA    CO841763  31.803   4.448   1.867
  373XTA    CO941764  31.700   4.306   2.037
  373XTA    OA641765  31.814   4.503   1.745
  373XTA   HL4241766  31.901   4.409   1.901
  373XTA   HL4341767  31.789   4.536   1.935
  373XTA   HL4441768  32.077   2.625   1.381
  373XTA   HL4541769  32.226   2.606   1.304
  373XTA   CO1041770  32.135   2.558   1.325
  373XTA   CO1141771  32.012   2.390   1.461
  373XTA    OA741772  32.080   2.534   1.233
  373XTA   HL4641773  31.927   2.372   1.348
  373XTA   HL4741774  31.964   2.468   1.512
  373XTA   HL4841775  31.790   4.248   2.067
  373XTA   HL4941776  31.617   4.236   2.036
  374XTA     NT41777  33.471   5.588   2.749
  374XTA    CN141778  33.409   5.477   2.702
  374XTA     C141779  33.322   5.472   2.593
  374XTA     C241780  33.255   5.361   2.537
  374XTA     C341781  33.285   5.241   2.602
  374XTA     C441782  33.379   5.239   2.708
  374XTA     C541783  33.438   5.351   2.759
  374XTA    CN241784  33.581   5.632   2.681
  374XTA     C641785  33.686   5.545   2.646
  374XTA     C741786  33.812   5.590   2.592
  374XTA     C841787  33.827   5.728   2.572
  374XTA     C941788  33.719   5.814   2.592
  374XTA    C1041789  33.603   5.769   2.651
  374XTA    CN341790  33.440   5.641   2.869
  374XTA    C1141791  33.530   5.627   2.977
  374XTA    C1241792  33.495   5.678   3.103
  374XTA    C1341793  33.367   5.734   3.123
  374XTA    C1441794  33.271   5.743   3.015
  374XTA    C1541795  33.315   5.701   2.888
  374XTA     H141796  33.312   5.569   2.543
  374XTA     H241797  33.202   5.371   2.442
  374XTA     H341798  33.399   5.143   2.758
  374XTA     H441799  33.523   5.350   2.826
  374XTA     H541800  33.673   5.444   2.678
  374XTA     H641801  33.892   5.511   2.593
  374XTA     H741802  33.727   5.918   2.574
  374XTA     H841803  33.528   5.844   2.677
  374XTA     H941804  33.621   5.570   2.961
  374XTA    H1041805  33.560   5.662   3.186
  374XTA    H1141806  33.169   5.776   3.028
  374XTA    H1241807  33.248   5.712   2.807
  374XTA    OA141808  33.219   5.119   2.578
  374XTA    CO141809  33.146   5.099   2.457
  374XTA    OA241810  33.934   5.784   2.517
  374XTA    CO241811  34.057   5.711   2.512
  374XTA    CL141812  34.104   5.648   2.647
  374XTA    CL241813  34.156   5.747   2.753
  374XTA    CL341814  34.041   5.809   2.835
  374XTA    CL441815  33.950   5.713   2.905
  374XTA    CO341816  33.884   5.767   3.030
  374XTA    OA341817  33.826   5.896   3.006
  374XTA    CO441818  33.773   5.961   3.123
  374XTA    CT141819  33.764   6.111   3.099
  374XTA    CL541820  33.906   6.165   3.090
  374XTA    CL641821  33.912   6.302   3.013
  374XTA    OA441822  33.327   5.777   3.248
  374XTA    CO541823  33.331   5.676   3.348
  374XTA    CL741824  33.266   5.710   3.476
  374XTA    CL841825  33.331   5.825   3.553
  374XTA    CL941826  33.251   5.889   3.664
  374XTA   CL1041827  33.125   5.975   3.623
  374XTA    CO641828  33.165   6.095   3.527
  374XTA    OA541829  33.046   6.162   3.490
  374XTA    CO741830  32.972   6.082   3.389
  374XTA    CT241831  32.843   6.159   3.363
  374XTA   CL1141832  32.767   6.173   3.495
  374XTA   CL1241833  32.711   6.039   3.559
  374XTA    HL141834  33.065   5.169   2.450
  374XTA    HL241835  33.213   5.103   2.377
  374XTA    HL341836  33.098   4.999   2.457
  374XTA    HL441837  34.043   5.619   2.450
  374XTA    HL541838  34.137   5.768   2.463
  374XTA    HL641839  34.195   5.593   2.619
  374XTA    HL741840  34.034   5.579   2.689
  374XTA    HL841841  34.214   5.821   2.696
  374XTA    HL941842  34.213   5.696   2.824
  374XTA   HL1041843  34.085   5.875   2.913
  374XTA   HL1141844  33.969   5.873   2.779
  374XTA   HL1241845  33.976   5.618   2.949
  374XTA   HL1341846  33.874   5.695   2.831
  374XTA   HL1441847  33.812   5.697   3.065
  374XTA   HL1541848  33.951   5.778   3.114
  374XTA   HL1641849  33.676   5.913   3.139
  374XTA   HL1741850  33.833   5.930   3.207
  374XTA   HL1841851  33.954   6.096   3.030
  374XTA   HL1941852  33.963   6.161   3.185
  374XTA   HL2041853  33.852   6.379   3.061
  374XTA   HL2141854  33.879   6.296   2.909
  374XTA   HL2241855  34.006   6.346   3.006
  374XTA   HL2341856  33.438   5.661   3.371
  374XTA   HL2441857  33.286   5.572   3.318
  374XTA   HL2541858  33.160   5.731   3.460
  374XTA   HL2641859  33.269   5.624   3.531
  374XTA   HL2741860  33.418   5.787   3.611
  374XTA   HL2841861  33.355   5.904   3.484
  374XTA   HL2941862  33.211   5.811   3.728
  374XTA   HL3041863  33.308   5.957   3.731
  374XTA   HL3141864  33.039   5.917   3.587
  374XTA   HL3241865  33.083   6.028   3.711
  374XTA   HL3341866  33.224   6.175   3.584
  374XTA   HL3441867  33.233   6.075   3.440
  374XTA   HL3541868  32.952   5.983   3.427
  374XTA   HL3641869  33.033   6.079   3.296
  374XTA   HL3741870  32.678   6.240   3.481
  374XTA   HL3841871  32.830   6.223   3.562
  374XTA   HL3941872  32.687   6.067   3.655
  374XTA   HL4041873  32.793   5.968   3.566
  374XTA   HL4141874  32.627   5.991   3.509
  374XTA    CO841875  33.679   6.176   3.205
  374XTA    CO941876  33.687   6.134   2.968
  374XTA    OA641877  33.589   6.086   2.969
  374XTA   HL4241878  33.737   6.154   3.300
  374XTA   HL4341879  33.555   6.101   3.203
  374XTA   HL4441880  32.667   6.128   3.234
  374XTA   HL4541881  32.826   6.100   3.169
  374XTA   CO1041882  32.764   6.080   3.258
  374XTA   CO1141883  32.874   6.303   3.303
  374XTA    OA741884  32.760   5.972   3.282
  374XTA   HL4641885  32.924   6.288   3.170
  374XTA   HL4741886  32.934   6.363   3.369
  374XTA   HL4841887  33.742   6.090   2.884
  374XTA   HL4941888  33.669   6.238   2.949
  375XTA     NT41889  31.032   4.759  -0.057
  375XTA    CN141890  31.083   4.683  -0.158
  375XTA     C141891  31.215   4.710  -0.215
  375XTA     C241892  31.259   4.613  -0.311
  375XTA     C341893  31.182   4.511  -0.363
  375XTA     C441894  31.060   4.490  -0.302
  375XTA     C541895  31.006   4.573  -0.202
  375XTA    CN241896  31.100   4.861  -0.009
  375XTA     C641897  31.077   4.992  -0.060
  375XTA     C741898  31.162   5.097  -0.013
  375XTA     C841899  31.264   5.077   0.082
  375XTA     C941900  31.269   4.949   0.142
  375XTA    C1041901  31.189   4.844   0.098
  375XTA    CN341902  30.904   4.742  -0.011
  375XTA    C1141903  30.888   4.647   0.099
  375XTA    C1241904  30.758   4.624   0.153
  375XTA    C1341905  30.646   4.683   0.094
  375XTA    C1441906  30.662   4.778  -0.013
  375XTA    C1541907  30.785   4.802  -0.064
  375XTA     H141908  31.286   4.770  -0.168
  375XTA     H241909  31.361   4.627  -0.358
  375XTA     H341910  30.994   4.412  -0.347
  375XTA     H441911  30.912   4.541  -0.159
  375XTA     H541912  31.012   5.019  -0.139
  375XTA     H641913  31.145   5.197  -0.044
  375XTA     H741914  31.344   4.929   0.222
  375XTA     H841915  31.195   4.742   0.142
  375XTA     H941916  30.974   4.600   0.142
  375XTA    H1041917  30.740   4.550   0.227
  375XTA    H1141918  30.578   4.838  -0.052
  375XTA    H1241919  30.791   4.886  -0.135
  375XTA    OA141920  31.220   4.417  -0.453
  375XTA    CO141921  31.358   4.393  -0.461
  375XTA    OA241922  31.346   5.180   0.124
  375XTA    CO241923  31.275   5.294   0.164
  375XTA    CL141924  31.336   5.334   0.300
  375XTA    CL241925  31.263   5.260   0.416
  375XTA    CL341926  31.325   5.295   0.551
  375XTA    CL441927  31.256   5.226   0.667
  375XTA    CO341928  31.327   5.253   0.800
  375XTA    OA341929  31.442   5.170   0.811
  375XTA    CO441930  31.499   5.173   0.943
  375XTA    CT141931  31.598   5.057   0.952
  375XTA    CL541932  31.523   4.919   0.951
  375XTA    CL641933  31.495   4.868   0.804
  375XTA    OA441934  30.524   4.656   0.142
  375XTA    CO541935  30.498   4.655   0.286
  375XTA    CL741936  30.348   4.634   0.308
  375XTA    CL841937  30.317   4.692   0.451
  375XTA    CL941938  30.167   4.705   0.470
  375XTA   CL1041939  30.144   4.754   0.620
  375XTA    CO641940  30.001   4.798   0.646
  375XTA    OA541941  29.978   4.915   0.569
  375XTA    CO741942  29.844   4.957   0.553
  375XTA    CT241943  29.847   5.076   0.456
  375XTA   CL1141944  29.717   5.166   0.457
  375XTA   CL1241945  29.599   5.085   0.424
  375XTA    HL141946  31.392   4.354  -0.361
  375XTA    HL241947  31.376   4.323  -0.545
  375XTA    HL341948  31.408   4.487  -0.483
  375XTA    HL441949  31.286   5.381   0.099
  375XTA    HL541950  31.172   5.273   0.168
  375XTA    HL641951  31.318   5.437   0.315
  375XTA    HL741952  31.444   5.311   0.306
  375XTA    HL841953  31.269   5.152   0.407
  375XTA    HL941954  31.155   5.291   0.400
  375XTA   HL1041955  31.425   5.271   0.562
  375XTA   HL1141956  31.335   5.408   0.555
  375XTA   HL1241957  31.249   5.118   0.648
  375XTA   HL1341958  31.164   5.269   0.689
  375XTA   HL1441959  31.362   5.353   0.803
  375XTA   HL1541960  31.260   5.246   0.884
  375XTA   HL1641961  31.544   5.271   0.940
  375XTA   HL1741962  31.421   5.170   1.017
  375XTA   HL1841963  31.421   4.939   1.003
  375XTA   HL1941964  31.577   4.842   1.000
  375XTA   HL2041965  31.423   4.787   0.815
  375XTA   HL2141966  31.578   4.825   0.748
  375XTA   HL2241967  31.456   4.931   0.737
  375XTA   HL2341968  30.519   4.751   0.331
  375XTA   HL2441969  30.558   4.573   0.335
  375XTA   HL2541970  30.287   4.688   0.228
  375XTA   HL2641971  30.337   4.524   0.307
  375XTA   HL2741972  30.360   4.629   0.527
  375XTA   HL2841973  30.362   4.790   0.463
  375XTA   HL2941974  30.136   4.775   0.396
  375XTA   HL3041975  30.116   4.606   0.457
  375XTA   HL3141976  30.169   4.664   0.672
  375XTA   HL3241977  30.221   4.830   0.659
  375XTA   HL3341978  29.933   4.728   0.599
  375XTA   HL3441979  29.984   4.803   0.754
  375XTA   HL3541980  29.815   4.986   0.651
  375XTA   HL3641981  29.772   4.879   0.514
  375XTA   HL3741982  29.720   5.243   0.385
  375XTA   HL3841983  29.705   5.209   0.561
  375XTA   HL3941984  29.574   5.000   0.497
  375XTA   HL4041985  29.612   5.033   0.328
  375XTA   HL4141986  29.505   5.141   0.418
  375XTA    CO841987  31.661   5.071   1.099
  375XTA    CO941988  31.714   5.047   0.847
  375XTA    OA641989  31.789   5.165   0.850
  375XTA   HL4241990  31.762   5.037   1.095
  375XTA   HL4341991  31.677   5.176   1.131
  375XTA   HL4441992  29.879   5.116   0.255
  375XTA   HL4541993  29.988   4.998   0.311
  375XTA   CO1041994  29.886   5.024   0.315
  375XTA   CO1141995  29.971   5.160   0.497
  375XTA    OA741996  29.808   4.925   0.250
  375XTA   HL4641997  30.059   5.100   0.475
  375XTA   HL4741998  29.976   5.178   0.598
  375XTA   HL4841999  31.673   5.033   0.743
  375XTA   HL4942000  31.777   4.967   0.879
  376XTA     NT42001  30.883   5.292   7.877
  376XTA    CN142002  30.897   5.366   7.989
  376XTA     C142003  30.939   5.502   7.979
  376XTA     C242004  30.986   5.569   8.090
  376XTA     C342005  30.990   5.513   8.217
  376XTA     C442006  30.950   5.384   8.231
  376XTA     C542007  30.905   5.307   8.117
  376XTA    CN242008  30.962   5.188   7.860
  376XTA     C642009  31.069   5.192   7.775
  376XTA     C742010  31.154   5.077   7.745
  376XTA     C842011  31.121   4.954   7.805
  376XTA     C942012  31.010   4.945   7.890
  376XTA    C1042013  30.929   5.060   7.910
  376XTA    CN342014  30.780   5.317   7.792
  376XTA    C1142015  30.655   5.254   7.802
  376XTA    C1242016  30.560   5.286   7.701
  376XTA    C1342017  30.586   5.380   7.602
  376XTA    C1442018  30.716   5.427   7.586
  376XTA    C1542019  30.811   5.398   7.681
  376XTA     H142020  30.930   5.561   7.884
  376XTA     H242021  31.015   5.671   8.072
  376XTA     H342022  30.958   5.321   8.319
  376XTA     H442023  30.876   5.201   8.134
  376XTA     H542024  31.091   5.292   7.729
  376XTA     H642025  31.246   5.086   7.689
  376XTA     H742026  30.987   4.851   7.938
  376XTA     H842027  30.843   5.061   7.975
  376XTA     H942028  30.633   5.179   7.877
  376XTA    H1042029  30.459   5.246   7.704
  376XTA    H1142030  30.737   5.493   7.500
  376XTA    H1242031  30.910   5.436   7.672
  376XTA    OA142032  31.058   5.565   8.322
  376XTA    CO142033  31.133   5.682   8.291
  376XTA    OA242034  31.201   4.843   7.793
  376XTA    CO242035  31.296   4.838   7.692
  376XTA    CL142036  31.223   4.819   7.554
  376XTA    CL242037  31.314   4.839   7.428
  376XTA    CL342038  31.332   4.987   7.381
  376XTA    CL442039  31.448   5.069   7.445
  376XTA    CO342040  31.456   5.210   7.386
  376XTA    OA342041  31.569   5.272   7.453
  376XTA    CO442042  31.576   5.407   7.419
  376XTA    CT142043  31.718   5.468   7.421
  376XTA    CL542044  31.775   5.449   7.567
  376XTA    CL642045  31.912   5.517   7.595
  376XTA    OA442046  30.487   5.395   7.515
  376XTA    CO542047  30.507   5.466   7.396
  376XTA    CL742048  30.372   5.451   7.331
  376XTA    CL842049  30.349   5.545   7.221
  376XTA    CL942050  30.211   5.549   7.162
  376XTA   CL1042051  30.181   5.417   7.084
  376XTA    CO642052  30.034   5.416   7.019
  376XTA    OA542053  29.935   5.449   7.112
  376XTA    CO742054  29.908   5.350   7.212
  376XTA    CT242055  29.785   5.382   7.292
  376XTA   CL1142056  29.796   5.295   7.420
  376XTA   CL1242057  29.798   5.142   7.393
  376XTA    HL142058  31.067   5.769   8.280
  376XTA    HL242059  31.184   5.695   8.380
  376XTA    HL342060  31.197   5.664   8.205
  376XTA    HL442061  31.370   4.921   7.691
  376XTA    HL542062  31.353   4.750   7.711
  376XTA    HL642063  31.148   4.898   7.542
  376XTA    HL742064  31.175   4.721   7.564
  376XTA    HL842065  31.260   4.788   7.351
  376XTA    HL942066  31.410   4.792   7.437
  376XTA   HL1042067  31.335   4.977   7.273
  376XTA   HL1142068  31.245   5.046   7.389
  376XTA   HL1242069  31.544   5.031   7.431
  376XTA   HL1342070  31.431   5.064   7.552
  376XTA   HL1442071  31.464   5.198   7.277
  376XTA   HL1542072  31.363   5.266   7.389
  376XTA   HL1642073  31.548   5.411   7.318
  376XTA   HL1742074  31.509   5.463   7.485
  376XTA   HL1842075  31.796   5.344   7.583
  376XTA   HL1942076  31.713   5.476   7.659
  376XTA   HL2042077  31.941   5.482   7.688
  376XTA   HL2142078  31.903   5.627   7.590
  376XTA   HL2242079  31.988   5.477   7.531
  376XTA   HL2342080  30.586   5.419   7.339
  376XTA   HL2442081  30.532   5.568   7.403
  376XTA   HL2542082  30.356   5.351   7.304
  376XTA   HL2642083  30.294   5.462   7.413
  376XTA   HL2742084  30.357   5.644   7.260
  376XTA   HL2842085  30.435   5.529   7.150
  376XTA   HL2942086  30.133   5.564   7.239
  376XTA   HL3042087  30.206   5.627   7.091
  376XTA   HL3142088  30.242   5.415   6.995
  376XTA   HL3242089  30.196   5.334   7.149
  376XTA   HL3342090  30.024   5.491   6.943
  376XTA   HL3442091  30.022   5.319   6.974
  376XTA   HL3542092  29.990   5.352   7.274
  376XTA   HL3642093  29.908   5.251   7.163
  376XTA   HL3742094  29.707   5.311   7.480
  376XTA   HL3842095  29.877   5.332   7.490
  376XTA   HL3942096  29.845   5.097   7.483
  376XTA   HL4042097  29.859   5.111   7.317
  376XTA   HL4142098  29.697   5.115   7.375
  376XTA    CO842099  31.705   5.615   7.393
  376XTA    CO942100  31.807   5.396   7.316
  376XTA    OA642101  31.908   5.432   7.316
  376XTA   HL4242102  31.636   5.668   7.461
  376XTA   HL4342103  31.831   5.675   7.389
  376XTA   HL4442104  29.574   5.354   7.284
  376XTA   HL4542105  29.629   5.450   7.161
  376XTA   CO1042106  29.651   5.355   7.211
  376XTA   CO1142107  29.785   5.531   7.330
  376XTA    OA742108  29.658   5.274   7.144
  376XTA   HL4642109  29.913   5.575   7.355
  376XTA   HL4742110  29.750   5.590   7.252
  376XTA   HL4842111  31.756   5.419   7.222
  376XTA   HL4942112  31.791   5.287   7.339
  377XTA     NT42113  31.995   6.370   6.110
  377XTA    CN142114  32.008   6.258   6.039
  377XTA     C142115  31.973   6.256   5.901
  377XTA     C242116  31.997   6.140   5.826
  377XTA     C342117  32.050   6.026   5.893
  377XTA     C442118  32.070   6.026   6.027
  377XTA     C542119  32.042   6.137   6.103
  377XTA    CN242120  31.944   6.374   6.235
  377XTA     C642121  32.024   6.423   6.335
  377XTA     C742122  31.966   6.470   6.456
  377XTA     C842123  31.828   6.458   6.480
  377XTA     C942124  31.747   6.388   6.385
  377XTA    C1042125  31.807   6.348   6.264
  377XTA    CN342126  32.046   6.485   6.061
  377XTA    C1142127  32.186   6.514   6.062
  377XTA    C1242128  32.236   6.642   6.020
  377XTA    C1342129  32.143   6.741   5.979
  377XTA    C1442130  32.011   6.711   5.974
  377XTA    C1542131  31.959   6.585   6.014
  377XTA     H142132  31.932   6.342   5.850
  377XTA     H242133  31.950   6.145   5.725
  377XTA     H342134  32.107   5.941   6.081
  377XTA     H442135  32.066   6.134   6.207
  377XTA     H542136  32.124   6.435   6.309
  377XTA     H642137  32.022   6.510   6.537
  377XTA     H742138  31.648   6.357   6.414
  377XTA     H842139  31.746   6.317   6.179
  377XTA     H942140  32.264   6.449   6.092
  377XTA    H1042141  32.346   6.656   6.022
  377XTA    H1142142  31.938   6.781   5.940
  377XTA    H1242143  31.852   6.570   6.001
  377XTA    OA142144  32.062   5.904   5.827
  377XTA    CO142145  32.135   5.914   5.708
  377XTA    OA242146  31.767   6.490   6.600
  377XTA    CO242147  31.839   6.537   6.716
  377XTA    CL142148  31.809   6.686   6.727
  377XTA    CL242149  31.855   6.763   6.611
  377XTA    CL342150  31.858   6.914   6.622
  377XTA    CL442151  31.883   6.985   6.486
  377XTA    CO342152  31.896   7.135   6.506
  377XTA    OA342153  31.858   7.199   6.379
  377XTA    CO442154  31.721   7.187   6.357
  377XTA    CT142155  31.684   7.265   6.227
  377XTA    CL542156  31.767   7.394   6.208
  377XTA    CL642157  31.751   7.504   6.315
  377XTA    OA442158  32.179   6.864   5.917
  377XTA    CO542159  32.291   6.936   5.976
  377XTA    CL742160  32.240   7.010   6.100
  377XTA    CL842161  32.200   6.921   6.223
  377XTA    CL942162  32.327   6.840   6.269
  377XTA   CL1042163  32.287   6.742   6.381
  377XTA    CO642164  32.408   6.654   6.415
  377XTA    OA542165  32.457   6.554   6.319
  377XTA    CO742166  32.561   6.469   6.374
  377XTA    CT242167  32.599   6.346   6.292
  377XTA   CL1142168  32.496   6.237   6.317
  377XTA   CL1242169  32.359   6.233   6.253
  377XTA    HL142170  32.235   5.949   5.721
  377XTA    HL242171  32.127   5.807   5.668
  377XTA    HL342172  32.084   5.978   5.636
  377XTA    HL442173  31.802   6.479   6.799
  377XTA    HL542174  31.949   6.517   6.721
  377XTA    HL642175  31.859   6.723   6.817
  377XTA    HL742176  31.704   6.703   6.751
  377XTA    HL842177  31.791   6.734   6.528
  377XTA    HL942178  31.951   6.728   6.568
  377XTA   HL1042179  31.764   6.951   6.659
  377XTA   HL1142180  31.935   6.946   6.690
  377XTA   HL1242181  31.814   6.959   6.411
  377XTA   HL1342182  31.975   6.945   6.436
  377XTA   HL1442183  31.848   7.166   6.594
  377XTA   HL1542184  31.999   7.151   6.533
  377XTA   HL1642185  31.691   7.086   6.342
  377XTA   HL1742186  31.673   7.242   6.440
  377XTA   HL1842187  31.735   7.443   6.114
  377XTA   HL1942188  31.875   7.370   6.183
  377XTA   HL2042189  31.791   7.594   6.285
  377XTA   HL2142190  31.782   7.467   6.410
  377XTA   HL2242191  31.645   7.530   6.329
  377XTA   HL2342192  32.310   7.002   5.901
  377XTA   HL2442193  32.377   6.871   5.995
  377XTA   HL2542194  32.316   7.073   6.128
  377XTA   HL2642195  32.154   7.069   6.063
  377XTA   HL2742196  32.157   6.974   6.302
  377XTA   HL2842197  32.118   6.851   6.199
  377XTA   HL2942198  32.369   6.775   6.192
  377XTA   HL3042199  32.407   6.906   6.301
  377XTA   HL3142200  32.244   6.797   6.466
  377XTA   HL3242201  32.201   6.684   6.350
  377XTA   HL3342202  32.492   6.719   6.437
  377XTA   HL3442203  32.365   6.600   6.497
  377XTA   HL3542204  32.545   6.431   6.475
  377XTA   HL3642205  32.652   6.527   6.392
  377XTA   HL3742206  32.482   6.224   6.425
  377XTA   HL3842207  32.549   6.144   6.287
  377XTA   HL3942208  32.300   6.144   6.275
  377XTA   HL4042209  32.366   6.223   6.144
  377XTA   HL4142210  32.307   6.329   6.265
  377XTA    CO842211  31.534   7.283   6.229
  377XTA    CO942212  31.729   7.170   6.102
  377XTA    OA642213  31.493   7.348   6.107
  377XTA   HL4242214  31.507   7.352   6.309
  377XTA   HL4342215  31.474   7.187   6.238
  377XTA   HL4442216  32.793   6.224   6.285
  377XTA   HL4542217  32.804   6.384   6.340
  377XTA   CO1042218  32.738   6.301   6.344
  377XTA   CO1142219  32.629   6.395   6.144
  377XTA    OA742220  32.720   6.270   6.444
  377XTA   HL4642221  32.507   6.408   6.075
  377XTA   HL4742222  32.674   6.498   6.146
  377XTA   HL4842223  31.649   7.103   6.067
  377XTA   HL4942224  31.796   7.098   6.141
  378XTA     NT42225  31.850   4.377   0.303
  378XTA    CN142226  31.856   4.304   0.191
  378XTA     C142227  31.847   4.166   0.196
  378XTA     C242228  31.858   4.097   0.076
  378XTA     C342229  31.865   4.159  -0.048
  378XTA     C442230  31.871   4.295  -0.057
  378XTA     C542231  31.864   4.369   0.064
  378XTA    CN242232  31.903   4.501   0.310
  378XTA     C642233  31.833   4.622   0.330
  378XTA     C742234  31.906   4.741   0.326
  378XTA     C842235  32.042   4.753   0.296
  378XTA     C942236  32.110   4.631   0.268
  378XTA    C1042237  32.042   4.503   0.286
  378XTA    CN342238  31.751   4.339   0.386
  378XTA    C1142239  31.781   4.253   0.492
  378XTA    C1242240  31.685   4.197   0.577
  378XTA    C1342241  31.548   4.231   0.563
  378XTA    C1442242  31.516   4.321   0.462
  378XTA    C1542243  31.615   4.374   0.379
  378XTA     H142244  31.834   4.112   0.292
  378XTA     H242245  31.866   3.987   0.085
  378XTA     H342246  31.880   4.339  -0.156
  378XTA     H442247  31.871   4.479   0.061
  378XTA     H542248  31.723   4.621   0.340
  378XTA     H642249  31.853   4.824   0.354
  378XTA     H742250  32.208   4.633   0.217
  378XTA     H842251  32.087   4.409   0.252
  378XTA     H942252  31.886   4.223   0.509
  378XTA    H1042253  31.717   4.136   0.656
  378XTA    H1142254  31.417   4.347   0.454
  378XTA    H1242255  31.587   4.443   0.297
  378XTA    OA142256  31.897   4.076  -0.149
  378XTA    CO142257  32.004   4.113  -0.233
  378XTA    OA242258  32.097   4.874   0.295
  378XTA    CO242259  32.237   4.878   0.291
  378XTA    CL142260  32.272   5.026   0.313
  378XTA    CL242261  32.422   5.064   0.295
  378XTA    CL342262  32.467   5.050   0.148
  378XTA    CL442263  32.614   5.043   0.125
  378XTA    CO342264  32.679   4.913   0.160
  378XTA    OA342265  32.811   4.917   0.211
  378XTA    CO442266  32.923   4.966   0.131
  378XTA    CT142267  33.061   4.910   0.200
  378XTA    CL542268  33.193   4.970   0.132
  378XTA    CL642269  33.320   4.955   0.201
  378XTA    OA442270  31.452   4.179   0.642
  378XTA    CO542271  31.327   4.152   0.586
  378XTA    CL742272  31.249   4.067   0.691
  378XTA    CL842273  31.313   3.931   0.723
  378XTA    CL942274  31.359   3.851   0.595
  378XTA   CL1042275  31.231   3.787   0.552
  378XTA    CO642276  31.235   3.713   0.418
  378XTA    OA542277  31.257   3.804   0.319
  378XTA    CO742278  31.260   3.740   0.190
  378XTA    CT242279  31.250   3.854   0.092
  378XTA   CL1142280  31.380   3.940   0.108
  378XTA   CL1242281  31.515   3.875   0.133
  378XTA    HL142282  31.971   4.204  -0.284
  378XTA    HL242283  32.095   4.148  -0.179
  378XTA    HL342284  32.027   4.042  -0.306
  378XTA    HL442285  32.301   4.824   0.363
  378XTA    HL542286  32.254   4.849   0.189
  378XTA    HL642287  32.236   5.057   0.411
  378XTA    HL742288  32.211   5.084   0.251
  378XTA    HL842289  32.490   4.996   0.353
  378XTA    HL942290  32.443   5.166   0.313
  378XTA   HL1042291  32.420   4.961   0.092
  378XTA   HL1142292  32.422   5.135   0.107
  378XTA   HL1242293  32.669   5.126   0.180
  378XTA   HL1342294  32.626   5.053   0.017
  378XTA   HL1442295  32.609   4.883   0.237
  378XTA   HL1542296  32.667   4.833   0.083
  378XTA   HL1642297  32.911   4.938   0.028
  378XTA   HL1742298  32.912   5.074   0.138
  378XTA   HL1842299  33.182   5.080   0.112
  378XTA   HL1942300  33.214   4.927   0.035
  378XTA   HL2042301  33.396   4.974   0.128
  378XTA   HL2142302  33.335   4.856   0.248
  378XTA   HL2242303  33.329   5.024   0.286
  378XTA   HL2342304  31.344   4.103   0.488
  378XTA   HL2442305  31.284   4.251   0.568
  378XTA   HL2542306  31.251   4.128   0.784
  378XTA   HL2642307  31.145   4.050   0.668
  378XTA   HL2742308  31.401   3.955   0.781
  378XTA   HL2842309  31.243   3.877   0.791
  378XTA   HL2942310  31.396   3.921   0.525
  378XTA   HL3042311  31.438   3.789   0.621
  378XTA   HL3142312  31.212   3.707   0.626
  378XTA   HL3242313  31.149   3.859   0.551
  378XTA   HL3342314  31.314   3.638   0.412
  378XTA   HL3442315  31.140   3.662   0.402
  378XTA   HL3542316  31.182   3.666   0.172
  378XTA   HL3642317  31.362   3.690   0.181
  378XTA   HL3742318  31.374   4.016   0.193
  378XTA   HL3842319  31.389   4.001   0.019
  378XTA   HL3942320  31.511   3.829   0.225
  378XTA   HL4042321  31.584   3.954   0.139
  378XTA   HL4142322  31.541   3.804   0.052
  378XTA    CO842323  33.063   4.760   0.196
  378XTA    CO942324  33.067   4.955   0.350
  378XTA    OA642325  33.060   4.725   0.092
  378XTA   HL4242326  32.977   4.723   0.248
  378XTA   HL4342327  33.153   4.724   0.248
  378XTA   HL4442328  31.120   4.019   0.036
  378XTA   HL4542329  31.024   3.875   0.066
  378XTA   CO1042330  31.115   3.935   0.092
  378XTA   CO1142331  31.255   3.792  -0.048
  378XTA    OA742332  31.099   3.984   0.188
  378XTA   HL4642333  31.154   3.704  -0.088
  378XTA   HL4742334  31.338   3.717  -0.051
  378XTA   HL4842335  32.964   4.893   0.428
  378XTA   HL4942336  33.163   4.935   0.393
  379XTA     NT42337  31.669   4.491   1.063
  379XTA    CN142338  31.749   4.558   0.982
  379XTA     C142339  31.809   4.686   1.019
  379XTA     C242340  31.908   4.743   0.931
  379XTA     C342341  31.942   4.687   0.810
  379XTA     C442342  31.885   4.564   0.778
  379XTA     C542343  31.784   4.505   0.856
  379XTA    CN242344  31.540   4.491   1.037
  379XTA     C642345  31.481   4.378   0.968
  379XTA     C742346  31.341   4.378   0.935
  379XTA     C842347  31.262   4.488   0.957
  379XTA     C942348  31.318   4.596   1.022
  379XTA    C1042349  31.448   4.599   1.066
  379XTA    CN342350  31.722   4.429   1.167
  379XTA    C1142351  31.821   4.328   1.158
  379XTA    C1242352  31.883   4.272   1.273
  379XTA    C1342353  31.849   4.318   1.401
  379XTA    C1442354  31.742   4.414   1.411
  379XTA    C1542355  31.684   4.470   1.298
  379XTA     H142356  31.795   4.718   1.125
  379XTA     H242357  31.954   4.835   0.958
  379XTA     H342358  31.922   4.505   0.689
  379XTA     H442359  31.743   4.418   0.817
  379XTA     H542360  31.540   4.294   0.951
  379XTA     H642361  31.292   4.288   0.894
  379XTA     H742362  31.249   4.686   1.053
  379XTA     H842363  31.488   4.680   1.117
  379XTA     H942364  31.865   4.288   1.061
  379XTA    H1042365  31.952   4.194   1.254
  379XTA    H1142366  31.726   4.449   1.510
  379XTA    H1242367  31.608   4.551   1.300
  379XTA    OA142368  32.025   4.761   0.734
  379XTA    CO142369  32.089   4.698   0.628
  379XTA    OA242370  31.138   4.497   0.908
  379XTA    CO242371  31.127   4.507   0.772
  379XTA    CL142372  30.980   4.538   0.735
  379XTA    CL242373  30.965   4.615   0.601
  379XTA    CL342374  30.815   4.647   0.564
  379XTA    CL442375  30.758   4.756   0.652
  379XTA    CO342376  30.614   4.805   0.619
  379XTA    OA342377  30.611   4.930   0.681
  379XTA    CO442378  30.548   4.934   0.816
  379XTA    CT142379  30.553   5.083   0.879
  379XTA    CL542380  30.502   5.084   1.021
  379XTA    CL642381  30.361   5.010   1.035
  379XTA    OA442382  31.908   4.277   1.520
  379XTA    CO542383  32.013   4.177   1.504
  379XTA    CL742384  32.094   4.181   1.632
  379XTA    CL842385  32.150   4.317   1.664
  379XTA    CL942386  32.231   4.322   1.793
  379XTA   CL1042387  32.170   4.251   1.916
  379XTA    CO642388  32.242   4.293   2.049
  379XTA    OA542389  32.225   4.434   2.084
  379XTA    CO742390  32.096   4.450   2.158
  379XTA    CT242391  32.067   4.579   2.233
  379XTA   CL1142392  32.022   4.690   2.137
  379XTA   CL1242393  31.986   4.834   2.192
  379XTA    HL142394  32.138   4.606   0.665
  379XTA    HL242395  32.026   4.667   0.547
  379XTA    HL342396  32.170   4.764   0.591
  379XTA    HL442397  31.194   4.588   0.744
  379XTA    HL542398  31.168   4.416   0.737
  379XTA    HL642399  30.957   4.596   0.821
  379XTA    HL742400  30.924   4.446   0.731
  379XTA    HL842401  31.006   4.542   0.529
  379XTA    HL942402  31.026   4.707   0.607
  379XTA   HL1042403  30.805   4.677   0.464
  379XTA   HL1142404  30.763   4.549   0.582
  379XTA   HL1242405  30.823   4.834   0.645
  379XTA   HL1342406  30.748   4.733   0.753
  379XTA   HL1442407  30.608   4.809   0.508
  379XTA   HL1542408  30.539   4.748   0.655
  379XTA   HL1642409  30.453   4.902   0.808
  379XTA   HL1742410  30.592   4.862   0.876
  379XTA   HL1842411  30.492   5.192   1.048
  379XTA   HL1942412  30.572   5.039   1.094
  379XTA   HL2042413  30.286   5.056   0.964
  379XTA   HL2142414  30.316   5.022   1.134
  379XTA   HL2242415  30.364   4.907   1.003
  379XTA   HL2342416  32.063   4.215   1.421
  379XTA   HL2442417  31.982   4.077   1.488
  379XTA   HL2542418  32.030   4.140   1.711
  379XTA   HL2642419  32.169   4.106   1.619
  379XTA   HL2742420  32.221   4.342   1.583
  379XTA   HL2842421  32.076   4.394   1.666
  379XTA   HL2942422  32.327   4.285   1.770
  379XTA   HL3042423  32.255   4.430   1.816
  379XTA   HL3142424  32.067   4.284   1.920
  379XTA   HL3242425  32.170   4.147   1.890
  379XTA   HL3342426  32.219   4.222   2.126
  379XTA   HL3442427  32.351   4.294   2.036
  379XTA   HL3542428  32.073   4.365   2.228
  379XTA   HL3642429  32.022   4.437   2.084
  379XTA   HL3742430  31.937   4.650   2.078
  379XTA   HL3842431  32.105   4.696   2.053
  379XTA   HL3942432  31.967   4.894   2.099
  379XTA   HL4042433  32.073   4.875   2.231
  379XTA   HL4142434  31.912   4.833   2.273
  379XTA    CO842435  30.470   5.175   0.791
  379XTA    CO942436  30.705   5.134   0.874
  379XTA    OA642437  30.451   5.304   0.851
  379XTA   HL4242438  30.370   5.129   0.780
  379XTA   HL4342439  30.502   5.190   0.686
  379XTA   HL4442440  32.259   4.640   2.222
  379XTA   HL4542441  32.246   4.517   2.388
  379XTA   CO1042442  32.194   4.620   2.308
  379XTA   CO1142443  31.970   4.549   2.343
  379XTA    OA742444  31.869   4.544   2.303
  379XTA   HL4642445  31.999   4.465   2.404
  379XTA   HL4742446  31.960   4.638   2.405
  379XTA   HL4842447  30.735   5.146   0.769
  379XTA   HL4942448  30.731   5.227   0.938
  380XTA     NT42449  30.084   1.290   0.442
  380XTA    CN142450  30.003   1.357   0.526
  380XTA     C142451  29.877   1.412   0.483
  380XTA     C242452  29.796   1.479   0.577
  380XTA     C342453  29.833   1.499   0.713
  380XTA     C442454  29.958   1.451   0.753
  380XTA     C542455  30.039   1.372   0.662
  380XTA    CN242456  30.050   1.173   0.380
  380XTA     C642457  30.028   1.055   0.453
  380XTA     C742458  29.970   0.939   0.389
  380XTA     C842459  29.956   0.938   0.246
  380XTA     C942460  29.983   1.054   0.174
  380XTA    C1042461  30.027   1.161   0.245
  380XTA    CN342462  30.186   1.358   0.377
  380XTA    C1142463  30.180   1.491   0.342
  380XTA    C1242464  30.291   1.554   0.284
  380XTA    C1342465  30.405   1.475   0.243
  380XTA    C1442466  30.408   1.338   0.282
  380XTA    C1542467  30.301   1.284   0.350
  380XTA     H142468  29.843   1.397   0.385
  380XTA     H242469  29.697   1.510   0.539
  380XTA     H342470  29.999   1.472   0.853
  380XTA     H442471  30.140   1.365   0.702
  380XTA     H542472  30.049   1.062   0.561
  380XTA     H642473  29.958   0.853   0.449
  380XTA     H742474  29.972   1.055   0.063
  380XTA     H842475  30.020   1.258   0.197
  380XTA     H942476  30.087   1.542   0.355
  380XTA    H1042477  30.288   1.658   0.252
  380XTA    H1142478  30.492   1.277   0.261
  380XTA    H1242479  30.298   1.180   0.379
  380XTA    OA142480  29.758   1.567   0.808
  380XTA    CO142481  29.654   1.653   0.751
  380XTA    OA242482  29.939   0.815   0.177
  380XTA    CO242483  30.025   0.721   0.231
  380XTA    CL142484  30.159   0.732   0.153
  380XTA    CL242485  30.252   0.622   0.190
  380XTA    CL342486  30.396   0.657   0.161
  380XTA    CL442487  30.502   0.558   0.199
  380XTA    CO342488  30.597   0.507   0.084
  380XTA    OA342489  30.536   0.413  -0.010
  380XTA    CO442490  30.444   0.462  -0.106
  380XTA    CT142491  30.477   0.394  -0.243
  380XTA    CL542492  30.380   0.447  -0.354
  380XTA    CL642493  30.232   0.424  -0.340
  380XTA    OA442494  30.508   1.543   0.176
  380XTA    CO542495  30.554   1.482   0.061
  380XTA    CL742496  30.461   1.504  -0.056
  380XTA    CL842497  30.431   1.646  -0.101
  380XTA    CL942498  30.311   1.670  -0.191
  380XTA   CL1042499  30.314   1.604  -0.336
  380XTA    CO642500  30.415   1.670  -0.424
  380XTA    OA542501  30.394   1.637  -0.557
  380XTA    CO742502  30.472   1.714  -0.649
  380XTA    CT242503  30.427   1.689  -0.794
  380XTA   CL1142504  30.354   1.820  -0.842
  380XTA   CL1242505  30.218   1.849  -0.777
  380XTA    HL142506  29.592   1.574   0.714
  380XTA    HL242507  29.585   1.693   0.821
  380XTA    HL342508  29.661   1.716   0.664
  380XTA    HL442509  30.049   0.725   0.336
  380XTA    HL542510  29.985   0.625   0.217
  380XTA    HL642511  30.212   0.822   0.167
  380XTA    HL742512  30.135   0.722   0.050
  380XTA    HL842513  30.226   0.528   0.141
  380XTA    HL942514  30.250   0.616   0.296
  380XTA   HL1042515  30.404   0.686   0.052
  380XTA   HL1142516  30.411   0.738   0.219
  380XTA   HL1242517  30.459   0.462   0.232
  380XTA   HL1342518  30.558   0.581   0.289
  380XTA   HL1442519  30.640   0.596   0.028
  380XTA   HL1542520  30.673   0.449   0.137
  380XTA   HL1642521  30.342   0.444  -0.071
  380XTA   HL1742522  30.453   0.569  -0.113
  380XTA   HL1842523  30.412   0.408  -0.453
  380XTA   HL1942524  30.396   0.552  -0.368
  380XTA   HL2042525  30.205   0.469  -0.245
  380XTA   HL2142526  30.183   0.327  -0.342
  380XTA   HL2242527  30.178   0.491  -0.405
  380XTA   HL2342528  30.569   1.372   0.086
  380XTA   HL2442529  30.651   1.541   0.047
  380XTA   HL2542530  30.503   1.448  -0.143
  380XTA   HL2642531  30.366   1.450  -0.042
  380XTA   HL2742532  30.423   1.703  -0.010
  380XTA   HL2842533  30.522   1.687  -0.136
  380XTA   HL2942534  30.226   1.611  -0.156
  380XTA   HL3042535  30.276   1.768  -0.200
  380XTA   HL3142536  30.338   1.501  -0.344
  380XTA   HL3242537  30.214   1.610  -0.389
  380XTA   HL3342538  30.396   1.771  -0.419
  380XTA   HL3442539  30.513   1.652  -0.384
  380XTA   HL3542540  30.568   1.672  -0.654
  380XTA   HL3642541  30.471   1.820  -0.618
  380XTA   HL3742542  30.338   1.815  -0.949
  380XTA   HL3842543  30.435   1.889  -0.830
  380XTA   HL3942544  30.252   1.908  -0.691
  380XTA   HL4042545  30.149   1.765  -0.740
  380XTA   HL4142546  30.157   1.908  -0.847
  380XTA    CO842547  30.462   0.241  -0.224
  380XTA    CO942548  30.620   0.424  -0.289
  380XTA    OA642549  30.469   0.168  -0.345
  380XTA   HL4242550  30.374   0.216  -0.165
  380XTA   HL4342551  30.548   0.209  -0.159
  380XTA   HL4442552  30.235   1.575  -0.763
  380XTA   HL4542553  30.315   1.549  -0.904
  380XTA   CO1042554  30.335   1.570  -0.801
  380XTA   CO1142555  30.544   1.664  -0.887
  380XTA    OA742556  30.411   1.449  -0.766
  380XTA   HL4642557  30.582   1.559  -0.880
  380XTA   HL4742558  30.514   1.682  -0.992
  380XTA   HL4842559  30.673   0.381  -0.209
  380XTA   HL4942560  30.659   0.387  -0.381
  381XTA     NT42561  25.563   3.522   1.513
  381XTA    CN142562  25.592   3.623   1.425
  381XTA     C142563  25.538   3.622   1.290
  381XTA     C242564  25.560   3.733   1.210
  381XTA     C342565  25.634   3.840   1.252
  381XTA     C442566  25.692   3.842   1.379
  381XTA     C542567  25.663   3.737   1.469
  381XTA    CN242568  25.521   3.548   1.635
  381XTA     C642569  25.610   3.530   1.742
  381XTA     C742570  25.570   3.548   1.874
  381XTA     C842571  25.440   3.589   1.899
  381XTA     C942572  25.342   3.601   1.797
  381XTA    C1042573  25.384   3.576   1.668
  381XTA    CN342574  25.588   3.391   1.484
  381XTA    C1142575  25.487   3.300   1.504
  381XTA    C1242576  25.510   3.165   1.475
  381XTA    C1342577  25.634   3.116   1.437
  381XTA    C1442578  25.741   3.209   1.419
  381XTA    C1542579  25.718   3.344   1.452
  381XTA     H142580  25.477   3.541   1.256
  381XTA     H242581  25.513   3.728   1.112
  381XTA     H342582  25.749   3.923   1.419
  381XTA     H442583  25.695   3.741   1.575
  381XTA     H542584  25.704   3.482   1.726
  381XTA     H642585  25.636   3.527   1.960
  381XTA     H742586  25.239   3.627   1.821
  381XTA     H842587  25.315   3.576   1.588
  381XTA     H942588  25.393   3.334   1.539
  381XTA    H1042589  25.425   3.104   1.500
  381XTA    H1142590  25.832   3.181   1.375
  381XTA    H1242591  25.796   3.417   1.439
  381XTA    OA142592  25.660   3.942   1.170
  381XTA    CO142593  25.667   3.913   1.037
  381XTA    OA242594  25.389   3.606   2.029
  381XTA    CO242595  25.486   3.599   2.132
  381XTA    CL142596  25.415   3.612   2.267
  381XTA    CL242597  25.504   3.637   2.392
  381XTA    CL342598  25.421   3.693   2.513
  381XTA    CL442599  25.499   3.707   2.644
  381XTA    CO342600  25.419   3.729   2.772
  381XTA    OA342601  25.507   3.727   2.881
  381XTA    CO442602  25.445   3.739   3.009
  381XTA    CT142603  25.544   3.699   3.112
  381XTA    CL542604  25.476   3.683   3.253
  381XTA    CL642605  25.425   3.810   3.320
  381XTA    OA442606  25.647   2.977   1.409
  381XTA    CO542607  25.755   2.929   1.333
  381XTA    CL742608  25.884   2.906   1.409
  381XTA    CL842609  25.996   2.861   1.320
  381XTA    CL942610  26.112   2.815   1.415
  381XTA   CL1042611  26.254   2.779   1.356
  381XTA    CO642612  26.237   2.657   1.266
  381XTA    OA542613  26.156   2.679   1.151
  381XTA    CO742614  26.238   2.747   1.054
  381XTA    CT242615  26.154   2.787   0.927
  381XTA   CL1142616  26.213   2.917   0.858
  381XTA   CL1242617  26.240   3.040   0.946
  381XTA    HL142618  25.697   3.999   0.971
  381XTA    HL242619  25.736   3.828   1.013
  381XTA    HL342620  25.571   3.882   1.017
  381XTA    HL442621  25.556   3.513   2.141
  381XTA    HL542622  25.559   3.687   2.112
  381XTA    HL642623  25.347   3.539   2.299
  381XTA    HL742624  25.352   3.699   2.253
  381XTA    HL842625  25.586   3.708   2.363
  381XTA    HL942626  25.557   3.547   2.431
  381XTA   HL1042627  25.382   3.786   2.484
  381XTA   HL1142628  25.334   3.628   2.534
  381XTA   HL1242629  25.590   3.763   2.633
  381XTA   HL1342630  25.527   3.601   2.652
  381XTA   HL1442631  25.362   3.824   2.759
  381XTA   HL1542632  25.351   3.648   2.766
  381XTA   HL1642633  25.401   3.839   3.028
  381XTA   HL1742634  25.364   3.676   3.018
  381XTA   HL1842635  25.558   3.652   3.320
  381XTA   HL1942636  25.405   3.604   3.266
  381XTA   HL2042637  25.499   3.881   3.344
  381XTA   HL2142638  25.368   3.787   3.409
  381XTA   HL2242639  25.370   3.865   3.253
  381XTA   HL2342640  25.767   2.996   1.245
  381XTA   HL2442641  25.727   2.837   1.291
  381XTA   HL2542642  25.900   3.000   1.463
  381XTA   HL2642643  25.865   2.822   1.481
  381XTA   HL2742644  25.951   2.782   1.255
  381XTA   HL2842645  26.026   2.943   1.253
  381XTA   HL2942646  26.126   2.879   1.494
  381XTA   HL3042647  26.078   2.728   1.477
  381XTA   HL3142648  26.301   2.868   1.314
  381XTA   HL3242649  26.314   2.751   1.441
  381XTA   HL3342650  26.331   2.615   1.230
  381XTA   HL3442651  26.180   2.581   1.322
  381XTA   HL3542652  26.322   2.683   1.027
  381XTA   HL3642653  26.300   2.825   1.090
  381XTA   HL3742654  26.156   2.938   0.773
  381XTA   HL3842655  26.305   2.896   0.807
  381XTA   HL3942656  26.161   3.078   1.000
  381XTA   HL4042657  26.281   3.121   0.884
  381XTA   HL4142658  26.312   3.018   1.023
  381XTA    CO842659  25.655   3.812   3.125
  381XTA    CO942660  25.626   3.574   3.091
  381XTA    OA642661  25.597   3.944   3.138
  381XTA   HL4242662  25.715   3.803   3.039
  381XTA   HL4342663  25.716   3.781   3.210
  381XTA   HL4442664  25.988   2.892   1.044
  381XTA   HL4542665  25.960   2.726   1.024
  381XTA   CO1042666  26.003   2.809   0.967
  381XTA   CO1142667  26.165   2.674   0.824
  381XTA    OA742668  26.296   2.659   0.770
  381XTA   HL4642669  26.139   2.579   0.860
  381XTA   HL4742670  26.097   2.698   0.744
  381XTA   HL4842671  25.584   3.492   3.155
  381XTA   HL4942672  25.599   3.538   2.987
  382XTA     NT42673  32.814   0.757   3.223
  382XTA    CN142674  32.905   0.849   3.245
  382XTA     C142675  33.000   0.842   3.349
  382XTA     C242676  33.089   0.949   3.385
  382XTA     C342677  33.090   1.056   3.291
  382XTA     C442678  32.995   1.067   3.193
  382XTA     C542679  32.902   0.967   3.162
  382XTA    CN242680  32.706   0.732   3.304
  382XTA     C642681  32.580   0.786   3.271
  382XTA     C742682  32.464   0.753   3.343
  382XTA     C842683  32.471   0.661   3.455
  382XTA     C942684  32.594   0.612   3.486
  382XTA    C1042685  32.711   0.639   3.408
  382XTA    CN342686  32.824   0.675   3.117
  382XTA    C1142687  32.774   0.704   2.985
  382XTA    C1242688  32.786   0.628   2.869
  382XTA    C1342689  32.846   0.496   2.894
  382XTA    C1442690  32.895   0.461   3.024
  382XTA    C1542691  32.884   0.550   3.128
  382XTA     H142692  32.994   0.756   3.414
  382XTA     H242693  33.148   0.946   3.478
  382XTA     H342694  32.995   1.150   3.125
  382XTA     H442695  32.826   0.977   3.086
  382XTA     H542696  32.575   0.844   3.175
  382XTA     H642697  32.372   0.810   3.319
  382XTA     H742698  32.605   0.543   3.571
  382XTA     H842699  32.805   0.592   3.434
  382XTA     H942700  32.715   0.790   2.971
  382XTA    H1042701  32.746   0.655   2.765
  382XTA    H1142702  32.954   0.370   3.042
  382XTA    H1242703  32.930   0.522   3.224
  382XTA    OA142704  33.188   1.155   3.312
  382XTA    CO142705  33.141   1.292   3.332
  382XTA    OA242706  32.355   0.643   3.530
  382XTA    CO242707  32.338   0.525   3.600
  382XTA    CL142708  32.284   0.537   3.740
  382XTA    CL242709  32.387   0.598   3.832
  382XTA    CL342710  32.320   0.654   3.961
  382XTA    CL442711  32.217   0.764   3.926
  382XTA    CO342712  32.260   0.856   3.815
  382XTA    OA342713  32.384   0.927   3.818
  382XTA    CO442714  32.421   0.990   3.696
  382XTA    CT142715  32.559   1.066   3.705
  382XTA    CL542716  32.623   1.084   3.570
  382XTA    CL642717  32.711   0.972   3.522
  382XTA    OA442718  32.855   0.409   2.786
  382XTA    CO542719  32.839   0.274   2.816
  382XTA    CL742720  32.890   0.184   2.696
  382XTA    CL842721  33.038   0.206   2.645
  382XTA    CL942722  33.128   0.090   2.683
  382XTA   CL1042723  33.138   0.075   2.837
  382XTA    CO642724  33.226  -0.037   2.887
  382XTA    OA542725  33.267  -0.011   3.016
  382XTA    CO742726  33.361  -0.101   3.077
  382XTA    CT242727  33.401  -0.047   3.213
  382XTA   CL1142728  33.518  -0.135   3.279
  382XTA   CL1242729  33.569  -0.251   3.190
  382XTA    HL142730  33.054   1.287   3.392
  382XTA    HL242731  33.205   1.367   3.384
  382XTA    HL342732  33.105   1.347   3.241
  382XTA    HL442733  32.265   0.455   3.542
  382XTA    HL542734  32.429   0.468   3.605
  382XTA    HL642735  32.259   0.438   3.780
  382XTA    HL742736  32.191   0.587   3.745
  382XTA    HL842737  32.434   0.688   3.792
  382XTA    HL942738  32.451   0.524   3.867
  382XTA   HL1042739  32.273   0.582   4.023
  382XTA   HL1142740  32.391   0.687   4.033
  382XTA   HL1242741  32.218   0.837   4.011
  382XTA   HL1342742  32.121   0.717   3.904
  382XTA   HL1442743  32.275   0.805   3.717
  382XTA   HL1542744  32.184   0.928   3.789
  382XTA   HL1642745  32.454   0.912   3.632
  382XTA   HL1742746  32.346   1.045   3.636
  382XTA   HL1842747  32.675   1.183   3.560
  382XTA   HL1942748  32.538   1.104   3.506
  382XTA   HL2042749  32.762   1.004   3.429
  382XTA   HL2142750  32.662   0.873   3.522
  382XTA   HL2242751  32.806   0.948   3.585
  382XTA   HL2342752  32.735   0.254   2.831
  382XTA   HL2442753  32.899   0.250   2.901
  382XTA   HL2542754  32.883   0.079   2.725
  382XTA   HL2642755  32.814   0.193   2.615
  382XTA   HL2742756  33.052   0.216   2.536
  382XTA   HL2842757  33.078   0.297   2.679
  382XTA   HL2942758  33.106   0.004   2.626
  382XTA   HL3042759  33.229   0.123   2.642
  382XTA   HL3142760  33.175   0.170   2.872
  382XTA   HL3242761  33.042   0.055   2.883
  382XTA   HL3342762  33.165  -0.128   2.894
  382XTA   HL3442763  33.308  -0.072   2.819
  382XTA   HL3542764  33.449  -0.104   3.013
  382XTA   HL3642765  33.308  -0.197   3.081
  382XTA   HL3742766  33.487  -0.169   3.378
  382XTA   HL3842767  33.599  -0.065   3.297
  382XTA   HL3942768  33.483  -0.319   3.172
  382XTA   HL4042769  33.656  -0.305   3.231
  382XTA   HL4142770  33.606  -0.198   3.102
  382XTA    CO842771  32.664   0.998   3.796
  382XTA    CO942772  32.510   1.201   3.768
  382XTA    OA642773  32.621   1.288   3.789
  382XTA   HL4242774  32.755   1.043   3.763
  382XTA   HL4342775  32.664   0.899   3.762
  382XTA   HL4442776  33.214   0.031   3.305
  382XTA   HL4542777  33.326  -0.008   3.452
  382XTA   CO1042778  33.287  -0.050   3.325
  382XTA   CO1142779  33.444   0.099   3.190
  382XTA    OA742780  33.458   0.152   3.286
  382XTA   HL4642781  33.538   0.106   3.124
  382XTA   HL4742782  33.368   0.151   3.137
  382XTA   HL4842783  32.458   1.187   3.867
  382XTA   HL4942784  32.437   1.249   3.713
  383XTA     NT42785  33.252   0.478   6.676
  383XTA    CN142786  33.356   0.556   6.704
  383XTA     C142787  33.346   0.653   6.807
  383XTA     C242788  33.455   0.731   6.843
  383XTA     C342789  33.580   0.727   6.779
  383XTA     C442790  33.587   0.634   6.677
  383XTA     C542791  33.480   0.552   6.635
  383XTA    CN242792  33.236   0.357   6.734
  383XTA     C642793  33.318   0.247   6.697
  383XTA     C742794  33.283   0.118   6.733
  383XTA     C842795  33.172   0.094   6.823
  383XTA     C942796  33.097   0.201   6.863
  383XTA    C1042797  33.127   0.327   6.820
  383XTA    CN342798  33.181   0.502   6.563
  383XTA    C1142799  33.086   0.609   6.569
  383XTA    C1242800  33.006   0.647   6.455
  383XTA    C1342801  33.032   0.584   6.327
  383XTA    C1442802  33.124   0.488   6.323
  383XTA    C1542803  33.198   0.445   6.437
  383XTA     H142804  33.255   0.650   6.871
  383XTA     H242805  33.427   0.801   6.918
  383XTA     H342806  33.682   0.621   6.621
  383XTA     H442807  33.481   0.480   6.552
  383XTA     H542808  33.401   0.258   6.626
  383XTA     H642809  33.346   0.036   6.704
  383XTA     H742810  33.011   0.191   6.930
  383XTA     H842811  33.061   0.403   6.857
  383XTA     H942812  33.075   0.652   6.669
  383XTA    H1042813  32.934   0.720   6.463
  383XTA    H1142814  33.143   0.435   6.223
  383XTA    H1242815  33.278   0.377   6.442
  383XTA    OA142816  33.673   0.820   6.815
  383XTA    CO142817  33.757   0.860   6.710
  383XTA    OA242818  33.142  -0.032   6.863
  383XTA    CO242819  33.098  -0.030   7.000
  383XTA    CL142820  33.129  -0.163   7.075
  383XTA    CL242821  33.274  -0.210   7.053
  383XTA    CL342822  33.324  -0.332   7.140
  383XTA    CL442823  33.476  -0.357   7.121
  383XTA    CO342824  33.537  -0.493   7.175
  383XTA    OA342825  33.678  -0.481   7.163
  383XTA    CO442826  33.738  -0.599   7.131
  383XTA    CT142827  33.886  -0.611   7.160
  383XTA    CL542828  33.948  -0.738   7.106
  383XTA    CL642829  33.861  -0.862   7.137
  383XTA    OA442830  32.962   0.623   6.209
  383XTA    CO542831  32.888   0.745   6.208
  383XTA    CL742832  32.951   0.883   6.250
  383XTA    CL842833  33.086   0.891   6.170
  383XTA    CL942834  33.075   0.951   6.028
  383XTA   CL1042835  33.209   0.965   5.955
  383XTA    CO642836  33.176   1.058   5.836
  383XTA    OA542837  33.292   1.070   5.758
  383XTA    CO742838  33.364   1.192   5.791
  383XTA    CT242839  33.475   1.220   5.682
  383XTA   CL1142840  33.569   1.106   5.647
  383XTA   CL1242841  33.605   1.024   5.774
  383XTA    HL142842  33.701   0.921   6.639
  383XTA    HL242843  33.842   0.927   6.735
  383XTA    HL342844  33.797   0.773   6.665
  383XTA    HL442845  33.150   0.048   7.047
  383XTA    HL542846  32.996   0.002   7.003
  383XTA    HL642847  33.056  -0.234   7.037
  383XTA    HL742848  33.101  -0.145   7.176
  383XTA    HL842849  33.347  -0.126   7.076
  383XTA    HL942850  33.294  -0.248   6.957
  383XTA   HL1042851  33.300  -0.327   7.248
  383XTA   HL1142852  33.273  -0.422   7.102
  383XTA   HL1242853  33.532  -0.289   7.177
  383XTA   HL1342854  33.495  -0.349   7.013
  383XTA   HL1442855  33.503  -0.514   7.280
  383XTA   HL1542856  33.492  -0.573   7.112
  383XTA   HL1642857  33.688  -0.677   7.193
  383XTA   HL1742858  33.729  -0.623   7.031
  383XTA   HL1842859  34.054  -0.751   7.117
  383XTA   HL1942860  33.948  -0.732   6.997
  383XTA   HL2042861  33.896  -0.957   7.091
  383XTA   HL2142862  33.756  -0.858   7.110
  383XTA   HL2242863  33.870  -0.871   7.247
  383XTA   HL2342864  32.807   0.741   6.277
  383XTA   HL2442865  32.842   0.766   6.112
  383XTA   HL2542866  32.881   0.967   6.227
  383XTA   HL2642867  32.971   0.897   6.357
  383XTA   HL2742868  33.141   0.957   6.230
  383XTA   HL2842869  33.142   0.797   6.181
  383XTA   HL2942870  33.002   0.893   5.969
  383XTA   HL3042871  33.027   1.053   6.028
  383XTA   HL3142872  33.283   1.011   6.024
  383XTA   HL3242873  33.255   0.871   5.920
  383XTA   HL3342874  33.105   1.029   5.757
  383XTA   HL3442875  33.144   1.160   5.879
  383XTA   HL3542876  33.415   1.163   5.887
  383XTA   HL3642877  33.291   1.275   5.802
  383XTA   HL3742878  33.666   1.151   5.612
  383XTA   HL3842879  33.518   1.056   5.562
  383XTA   HL3942880  33.634   1.102   5.855
  383XTA   HL4042881  33.683   0.950   5.756
  383XTA   HL4142882  33.521   0.962   5.811
  383XTA    CO842883  33.900  -0.608   7.318
  383XTA    CO942884  33.963  -0.497   7.098
  383XTA    OA642885  34.000  -0.644   7.357
  383XTA   HL4242886  33.820  -0.667   7.361
  383XTA   HL4342887  33.870  -0.504   7.349
  383XTA   HL4442888  33.620   1.422   5.677
  383XTA   HL4542889  33.656   1.285   5.781
  383XTA   CO1042890  33.561   1.327   5.754
  383XTA   CO1142891  33.429   1.308   5.565
  383XTA    OA742892  33.515   1.333   5.494
  383XTA   HL4642893  33.372   1.242   5.507
  383XTA   HL4742894  33.360   1.389   5.589
  383XTA   HL4842895  33.921  -0.487   6.966
  383XTA   HL4942896  33.915  -0.411   7.147
  384XTA     NT42897  31.310  -1.110   6.561
  384XTA    CN142898  31.346  -0.977   6.556
  384XTA     C142899  31.269  -0.880   6.487
  384XTA     C242900  31.308  -0.746   6.473
  384XTA     C342901  31.427  -0.707   6.538
  384XTA     C442902  31.504  -0.799   6.607
  384XTA     C542903  31.465  -0.933   6.617
  384XTA    CN242904  31.215  -1.159   6.641
  384XTA     C642905  31.079  -1.124   6.618
  384XTA     C742906  30.981  -1.180   6.698
  384XTA     C842907  31.007  -1.276   6.794
  384XTA     C942908  31.141  -1.305   6.826
  384XTA    C1042909  31.249  -1.243   6.750
  384XTA    CN342910  31.341  -1.202   6.458
  384XTA    C1142911  31.453  -1.281   6.475
  384XTA    C1242912  31.486  -1.387   6.390
  384XTA    C1342913  31.400  -1.414   6.277
  384XTA    C1442914  31.285  -1.334   6.258
  384XTA    C1542915  31.253  -1.230   6.356
  384XTA     H142916  31.174  -0.911   6.444
  384XTA     H242917  31.247  -0.676   6.423
  384XTA     H342918  31.588  -0.760   6.657
  384XTA     H442919  31.524  -1.009   6.671
  384XTA     H542920  31.049  -1.067   6.531
  384XTA     H642921  30.883  -1.151   6.680
  384XTA     H742922  31.154  -1.365   6.911
  384XTA     H842923  31.352  -1.268   6.772
  384XTA     H942924  31.514  -1.273   6.560
  384XTA    H1042925  31.576  -1.449   6.407
  384XTA    H1142926  31.219  -1.367   6.173
  384XTA    H1242927  31.169  -1.162   6.345
  384XTA    OA142928  31.474  -0.579   6.526
  384XTA    CO142929  31.522  -0.535   6.395
  384XTA    OA242930  30.910  -1.329   6.872
  384XTA    CO242931  30.795  -1.362   6.796
  384XTA    CL142932  30.692  -1.416   6.888
  384XTA    CL242933  30.658  -1.308   6.993
  384XTA    CL342934  30.610  -1.178   6.928
  384XTA    CL442935  30.567  -1.084   7.042
  384XTA    CO342936  30.511  -0.950   6.982
  384XTA    OA342937  30.421  -0.893   7.079
  384XTA    CO442938  30.339  -0.794   7.020
  384XTA    CT142939  30.217  -0.762   7.117
  384XTA    CL542940  30.110  -0.711   7.028
  384XTA    CL642941  30.135  -0.566   6.971
  384XTA    OA442942  31.441  -1.519   6.199
  384XTA    CO542943  31.373  -1.545   6.078
  384XTA    CL742944  31.273  -1.670   6.093
  384XTA    CL842945  31.140  -1.629   6.154
  384XTA    CL942946  31.044  -1.750   6.157
  384XTA   CL1042947  30.906  -1.733   6.216
  384XTA    CO642948  30.908  -1.661   6.357
  384XTA    OA542949  30.909  -1.528   6.336
  384XTA    CO742950  30.776  -1.485   6.329
  384XTA    CT242951  30.780  -1.360   6.243
  384XTA   CL1142952  30.638  -1.283   6.260
  384XTA   CL1242953  30.595  -1.242   6.400
  384XTA    HL142954  31.593  -0.609   6.357
  384XTA    HL242955  31.432  -0.523   6.335
  384XTA    HL342956  31.573  -0.441   6.392
  384XTA    HL442957  30.750  -1.273   6.755
  384XTA    HL542958  30.839  -1.430   6.717
  384XTA    HL642959  30.711  -1.510   6.941
  384XTA    HL742960  30.606  -1.435   6.835
  384XTA    HL842961  30.742  -1.285   7.057
  384XTA    HL942962  30.583  -1.350   7.065
  384XTA   HL1042963  30.690  -1.124   6.877
  384XTA   HL1142964  30.534  -1.202   6.850
  384XTA   HL1242965  30.644  -1.061   7.117
  384XTA   HL1342966  30.480  -1.126   7.097
  384XTA   HL1442967  30.592  -0.879   6.961
  384XTA   HL1542968  30.475  -0.958   6.880
  384XTA   HL1642969  30.388  -0.704   6.994
  384XTA   HL1742970  30.306  -0.837   6.928
  384XTA   HL1842971  30.013  -0.706   7.077
  384XTA   HL1942972  30.099  -0.778   6.942
  384XTA   HL2042973  30.236  -0.542   6.938
  384XTA   HL2142974  30.121  -0.506   7.064
  384XTA   HL2242975  30.053  -0.539   6.904
  384XTA   HL2342976  31.457  -1.577   6.018
  384XTA   HL2442977  31.333  -1.460   6.029
  384XTA   HL2542978  31.253  -1.714   5.996
  384XTA   HL2642979  31.308  -1.745   6.165
  384XTA   HL2742980  31.148  -1.592   6.259
  384XTA   HL2842981  31.089  -1.553   6.104
  384XTA   HL2942982  31.026  -1.788   6.057
  384XTA   HL3042983  31.078  -1.833   6.211
  384XTA   HL3142984  30.850  -1.681   6.141
  384XTA   HL3242985  30.870  -1.844   6.223
  384XTA   HL3342986  30.823  -1.698   6.420
  384XTA   HL3442987  31.007  -1.690   6.403
  384XTA   HL3542988  30.748  -1.453   6.435
  384XTA   HL3642989  30.701  -1.553   6.293
  384XTA   HL3742990  30.559  -1.351   6.220
  384XTA   HL3842991  30.643  -1.191   6.197
  384XTA   HL3942992  30.488  -1.211   6.394
  384XTA   HL4042993  30.657  -1.165   6.434
  384XTA   HL4142994  30.585  -1.333   6.474
  384XTA    CO842995  30.262  -0.656   7.215
  384XTA    CO942996  30.161  -0.881   7.200
  384XTA    OA642997  30.365  -0.709   7.291
  384XTA   HL4242998  30.181  -0.628   7.273
  384XTA   HL4342999  30.305  -0.567   7.161
  384XTA   HL4443000  30.809  -1.297   6.055
  384XTA   HL4543001  30.901  -1.450   6.096
  384XTA   CO1043002  30.806  -1.394   6.099
  384XTA   CO1143003  30.888  -1.263   6.292
  384XTA    OA743004  30.732  -1.463   6.062
  384XTA   HL4643005  31.010  -1.300   6.234
  384XTA   HL4743006  30.902  -1.284   6.396
  384XTA   HL4843007  30.242  -0.940   7.230
  384XTA   HL4943008  30.144  -0.833   7.299
  385XTA     NT43009  34.064   5.344   5.220
  385XTA    CN143010  34.097   5.275   5.111
  385XTA     C143011  34.221   5.297   5.048
  385XTA     C243012  34.264   5.229   4.938
  385XTA     C343013  34.188   5.127   4.882
  385XTA     C443014  34.062   5.095   4.946
  385XTA     C543015  34.025   5.165   5.062
  385XTA    CN243016  34.002   5.286   5.325
  385XTA     C643017  34.078   5.209   5.419
  385XTA     C743018  34.008   5.140   5.521
  385XTA     C843019  33.870   5.148   5.526
  385XTA     C943020  33.792   5.228   5.448
  385XTA    C1043021  33.863   5.297   5.348
  385XTA    CN343022  34.081   5.476   5.213
  385XTA    C1143023  33.991   5.549   5.126
  385XTA    C1243024  34.000   5.690   5.118
  385XTA    C1343025  34.099   5.766   5.189
  385XTA    C1443026  34.188   5.688   5.267
  385XTA    C1543027  34.183   5.547   5.278
  385XTA     H143028  34.291   5.375   5.092
  385XTA     H243029  34.361   5.262   4.904
  385XTA     H343030  34.017   5.009   4.910
  385XTA     H443031  33.940   5.138   5.123
  385XTA     H543032  34.187   5.195   5.408
  385XTA     H643033  34.070   5.082   5.591
  385XTA     H743034  33.680   5.238   5.469
  385XTA     H843035  33.806   5.368   5.291
  385XTA     H943036  33.920   5.500   5.065
  385XTA    H1043037  33.934   5.745   5.056
  385XTA    H1143038  34.262   5.745   5.328
  385XTA    H1243039  34.258   5.497   5.340
  385XTA    OA143040  34.222   5.049   4.778
  385XTA    CO143041  34.333   5.096   4.712
  385XTA    OA243042  33.791   5.090   5.625
  385XTA    CO243043  33.863   5.033   5.732
  385XTA    CL143044  33.756   5.013   5.851
  385XTA    CL243045  33.836   5.009   5.983
  385XTA    CL343046  33.930   4.889   5.992
  385XTA    CL443047  33.951   4.848   6.135
  385XTA    CO343048  34.030   4.709   6.139
  385XTA    OA343049  34.134   4.716   6.047
  385XTA    CO443050  34.203   4.599   6.063
  385XTA    CT143051  34.349   4.601   6.017
  385XTA    CL543052  34.424   4.703   6.117
  385XTA    CL643053  34.572   4.711   6.124
  385XTA    OA443054  34.102   5.904   5.176
  385XTA    CO543055  34.136   5.974   5.297
  385XTA    CL743056  34.018   5.957   5.393
  385XTA    CL843057  33.886   6.003   5.333
  385XTA    CL943058  33.775   6.004   5.434
  385XTA   CL1043059  33.685   5.879   5.427
  385XTA    CO643060  33.751   5.760   5.492
  385XTA    OA543061  33.658   5.655   5.499
  385XTA    CO743062  33.562   5.669   5.602
  385XTA    CT243063  33.476   5.540   5.607
  385XTA   CL1143064  33.424   5.488   5.470
  385XTA   CL1243065  33.347   5.360   5.463
  385XTA    HL143066  34.341   5.025   4.628
  385XTA    HL243067  34.322   5.196   4.678
  385XTA    HL343068  34.431   5.097   4.770
  385XTA    HL443069  33.906   4.940   5.703
  385XTA    HL543070  33.942   5.104   5.760
  385XTA    HL643071  33.717   4.918   5.830
  385XTA    HL743072  33.682   5.093   5.853
  385XTA    HL843073  33.752   4.997   6.057
  385XTA    HL943074  33.900   5.094   5.995
  385XTA   HL1043075  33.880   4.807   5.940
  385XTA   HL1143076  34.022   4.899   5.935
  385XTA   HL1243077  33.856   4.845   6.190
  385XTA   HL1343078  34.003   4.931   6.181
  385XTA   HL1443079  34.066   4.689   6.232
  385XTA   HL1543080  33.963   4.629   6.125
  385XTA   HL1643081  34.192   4.563   6.170
  385XTA   HL1743082  34.141   4.531   6.008
  385XTA   HL1843083  34.398   4.689   6.221
  385XTA   HL1943084  34.378   4.800   6.110
  385XTA   HL2043085  34.617   4.707   6.025
  385XTA   HL2143086  34.607   4.624   6.177
  385XTA   HL2243087  34.611   4.806   6.169
  385XTA   HL2343088  34.149   6.085   5.282
  385XTA   HL2443089  34.233   5.939   5.337
  385XTA   HL2543090  34.013   5.854   5.428
  385XTA   HL2643091  34.028   6.012   5.481
  385XTA   HL2743092  33.894   6.106   5.306
  385XTA   HL2843093  33.854   5.948   5.245
  385XTA   HL2943094  33.806   6.007   5.532
  385XTA   HL3043095  33.713   6.092   5.428
  385XTA   HL3143096  33.592   5.907   5.480
  385XTA   HL3243097  33.657   5.855   5.321
  385XTA   HL3343098  33.838   5.738   5.437
  385XTA   HL3443099  33.787   5.788   5.593
  385XTA   HL3543100  33.503   5.756   5.573
  385XTA   HL3643101  33.606   5.692   5.701
  385XTA   HL3743102  33.507   5.478   5.396
  385XTA   HL3843103  33.367   5.569   5.435
  385XTA   HL3943104  33.259   5.364   5.520
  385XTA   HL4043105  33.399   5.272   5.499
  385XTA   HL4143106  33.309   5.340   5.358
  385XTA    CO843107  34.370   4.639   5.872
  385XTA    CO943108  34.399   4.456   6.024
  385XTA    OA643109  34.405   4.412   6.119
  385XTA   HL4243110  34.374   4.750   5.867
  385XTA   HL4343111  34.507   4.609   5.835
  385XTA   HL4443112  33.327   5.490   5.750
  385XTA   HL4543113  33.403   5.636   5.785
  385XTA   CO1043114  33.362   5.575   5.700
  385XTA   CO1143115  33.560   5.422   5.672
  385XTA    OA743116  33.610   5.472   5.797
  385XTA   HL4643117  33.507   5.334   5.694
  385XTA   HL4743118  33.648   5.401   5.610
  385XTA   HL4843119  34.502   4.455   5.984
  385XTA   HL4943120  34.343   4.389   5.950
  386XTA     NT43121  31.938   5.132  -0.332
  386XTA    CN143122  31.865   5.228  -0.269
  386XTA     C143123  31.919   5.351  -0.229
  386XTA     C243124  31.837   5.445  -0.164
  386XTA     C343125  31.708   5.417  -0.128
  386XTA     C443126  31.653   5.294  -0.167
  386XTA     C543127  31.727   5.197  -0.238
  386XTA    CN243128  32.007   5.037  -0.271
  386XTA     C643129  32.023   4.908  -0.324
  386XTA     C743130  32.099   4.812  -0.261
  386XTA     C843131  32.157   4.838  -0.132
  386XTA     C943132  32.148   4.970  -0.081
  386XTA    C1043133  32.074   5.064  -0.153
  386XTA    CN343134  31.922   5.122  -0.466
  386XTA    C1143135  31.817   5.043  -0.521
  386XTA    C1243136  31.812   5.040  -0.666
  386XTA    C1343137  31.912   5.095  -0.753
  386XTA    C1443138  32.018   5.156  -0.690
  386XTA    C1543139  32.024   5.178  -0.551
  386XTA     H143140  32.019   5.372  -0.260
  386XTA     H243141  31.868   5.540  -0.145
  386XTA     H343142  31.551   5.264  -0.133
  386XTA     H443143  31.698   5.097  -0.254
  386XTA     H543144  31.981   4.877  -0.415
  386XTA     H643145  32.096   4.714  -0.305
  386XTA     H743146  32.185   4.997   0.011
  386XTA     H843147  32.060   5.163  -0.104
  386XTA     H943148  31.740   5.003  -0.466
  386XTA    H1043149  31.725   4.995  -0.712
  386XTA    H1143150  32.101   5.185  -0.749
  386XTA    H1243151  32.114   5.228  -0.514
  386XTA    OA143152  31.639   5.518  -0.073
  386XTA    CO143153  31.507   5.483  -0.032
  386XTA    OA243154  32.234   4.748  -0.062
  386XTA    CO243155  32.247   4.612  -0.110
  386XTA    CL143156  32.338   4.607  -0.234
  386XTA    CL243157  32.468   4.688  -0.214
  386XTA    CL343158  32.577   4.642  -0.317
  386XTA    CL443159  32.711   4.723  -0.306
  386XTA    CO343160  32.829   4.637  -0.340
  386XTA    OA343161  32.859   4.552  -0.232
  386XTA    CO443162  32.975   4.597  -0.169
  386XTA    CT143163  32.995   4.513  -0.032
  386XTA    CL543164  33.040   4.368  -0.064
  386XTA    CL643165  33.177   4.344  -0.127
  386XTA    OA443166  31.917   5.084  -0.887
  386XTA    CO543167  31.837   4.990  -0.950
  386XTA    CL743168  31.868   4.993  -1.095
  386XTA    CL843169  31.769   4.905  -1.179
  386XTA    CL943170  31.623   4.952  -1.185
  386XTA   CL1043171  31.540   4.875  -1.278
  386XTA    CO643172  31.488   4.738  -1.218
  386XTA    OA543173  31.449   4.656  -1.323
  386XTA    CO743174  31.420   4.519  -1.285
  386XTA    CT243175  31.410   4.434  -1.416
  386XTA   CL1143176  31.269   4.476  -1.483
  386XTA   CL1243177  31.239   4.404  -1.615
  386XTA    HL143178  31.441   5.448  -0.118
  386XTA    HL243179  31.492   5.418   0.054
  386XTA    HL343180  31.450   5.577  -0.005
  386XTA    HL443181  32.296   4.558  -0.037
  386XTA    HL543182  32.146   4.577  -0.122
  386XTA    HL643183  32.289   4.647  -0.316
  386XTA    HL743184  32.363   4.501  -0.252
  386XTA    HL843185  32.511   4.678  -0.120
  386XTA    HL943186  32.437   4.788  -0.232
  386XTA   HL1043187  32.613   4.539  -0.300
  386XTA   HL1143188  32.552   4.647  -0.427
  386XTA   HL1243189  32.717   4.765  -0.208
  386XTA   HL1343190  32.710   4.809  -0.374
  386XTA   HL1443191  32.825   4.570  -0.434
  386XTA   HL1543192  32.918   4.701  -0.371
  386XTA   HL1643193  33.063   4.604  -0.226
  386XTA   HL1743194  32.941   4.698  -0.140
  386XTA   HL1843195  32.972   4.312  -0.125
  386XTA   HL1943196  33.037   4.318   0.028
  386XTA   HL2043197  33.182   4.398  -0.221
  386XTA   HL2143198  33.216   4.239  -0.136
  386XTA   HL2243199  33.260   4.386  -0.073
  386XTA   HL2343200  31.727   5.005  -0.943
  386XTA   HL2443201  31.860   4.887  -0.914
  386XTA   HL2543202  31.857   5.103  -1.121
  386XTA   HL2643203  31.975   4.964  -1.105
  386XTA   HL2743204  31.803   4.897  -1.278
  386XTA   HL2843205  31.765   4.803  -1.144
  386XTA   HL2943206  31.573   4.947  -1.090
  386XTA   HL3043207  31.627   5.058  -1.216
  386XTA   HL3143208  31.461   4.938  -1.307
  386XTA   HL3243209  31.602   4.855  -1.366
  386XTA   HL3343210  31.552   4.703  -1.148
  386XTA   HL3443211  31.411   4.773  -1.155
  386XTA   HL3543212  31.330   4.522  -1.228
  386XTA   HL3643213  31.497   4.475  -1.223
  386XTA   HL3743214  31.261   4.582  -1.495
  386XTA   HL3843215  31.191   4.447  -1.410
  386XTA   HL3943216  31.221   4.300  -1.590
  386XTA   HL4043217  31.304   4.416  -1.699
  386XTA   HL4143218  31.145   4.444  -1.651
  386XTA    CO843219  32.862   4.509   0.050
  386XTA    CO943220  33.095   4.590   0.061
  386XTA    OA643221  32.869   4.416   0.157
  386XTA   HL4243222  32.791   4.471  -0.020
  386XTA   HL4343223  32.838   4.600   0.092
  386XTA   HL4443224  31.520   4.249  -1.363
  386XTA   HL4543225  31.366   4.220  -1.451
  386XTA   CO1043226  31.420   4.280  -1.374
  386XTA   CO1143227  31.527   4.476  -1.508
  386XTA    OA743228  31.548   4.368  -1.602
  386XTA   HL4643229  31.510   4.570  -1.553
  386XTA   HL4743230  31.618   4.485  -1.444
  386XTA   HL4843231  33.096   4.533   0.158
  386XTA   HL4943232  33.192   4.593   0.008
  387XTA     NT43233  29.865  -1.080   5.602
  387XTA    CN143234  29.836  -1.136   5.721
  387XTA     C143235  29.923  -1.110   5.825
  387XTA     C243236  29.887  -1.150   5.959
  387XTA     C343237  29.777  -1.227   5.976
  387XTA     C443238  29.699  -1.263   5.866
  387XTA     C543239  29.727  -1.215   5.737
  387XTA    CN243240  29.771  -1.013   5.532
  387XTA     C643241  29.716  -0.896   5.594
  387XTA     C743242  29.612  -0.833   5.519
  387XTA     C843243  29.563  -0.878   5.394
  387XTA     C943244  29.630  -0.989   5.342
  387XTA    C1043245  29.731  -1.058   5.410
  387XTA    CN343246  29.990  -1.073   5.561
  387XTA    C1143247  30.054  -1.196   5.544
  387XTA    C1243248  30.182  -1.194   5.479
  387XTA    C1343249  30.251  -1.073   5.466
  387XTA    C1443250  30.192  -0.950   5.499
  387XTA    C1543251  30.062  -0.948   5.546
  387XTA     H143252  30.012  -1.048   5.813
  387XTA     H243253  29.946  -1.116   6.037
  387XTA     H343254  29.622  -1.330   5.881
  387XTA     H443255  29.661  -1.238   5.651
  387XTA     H543256  29.747  -0.865   5.693
  387XTA     H643257  29.563  -0.747   5.568
  387XTA     H743258  29.601  -1.024   5.246
  387XTA     H843259  29.790  -1.140   5.363
  387XTA     H943260  30.008  -1.285   5.568
  387XTA    H1043261  30.215  -1.297   5.453
  387XTA    H1143262  30.232  -0.860   5.481
  387XTA    H1243263  30.019  -0.851   5.543
  387XTA    OA143264  29.742  -1.251   6.104
  387XTA    CO143265  29.608  -1.295   6.127
  387XTA    OA243266  29.469  -0.819   5.318
  387XTA    CO243267  29.407  -0.703   5.368
  387XTA    CL143268  29.303  -0.665   5.266
  387XTA    CL243269  29.224  -0.776   5.197
  387XTA    CL343270  29.144  -0.854   5.302
  387XTA    CL443271  29.175  -1.004   5.292
  387XTA    CO343272  29.087  -1.082   5.386
  387XTA    OA343273  29.112  -1.034   5.519
  387XTA    CO443274  29.236  -1.076   5.580
  387XTA    CT143275  29.253  -1.021   5.723
  387XTA    CL543276  29.380  -1.086   5.774
  387XTA    CL643277  29.429  -1.047   5.914
  387XTA    OA443278  30.374  -1.074   5.395
  387XTA    CO543279  30.413  -1.197   5.325
  387XTA    CL743280  30.537  -1.188   5.232
  387XTA    CL843281  30.655  -1.113   5.308
  387XTA    CL943282  30.779  -1.077   5.231
  387XTA   CL1043283  30.839  -1.190   5.150
  387XTA    CO643284  30.883  -1.132   5.020
  387XTA    OA543285  31.006  -1.060   5.032
  387XTA    CO743286  31.097  -1.088   4.941
  387XTA    CT243287  31.214  -0.989   4.963
  387XTA   CL1143288  31.306  -1.044   5.083
  387XTA   CL1243289  31.254  -1.013   5.219
  387XTA    HL143290  29.585  -1.295   6.234
  387XTA    HL243291  29.539  -1.234   6.066
  387XTA    HL343292  29.594  -1.404   6.108
  387XTA    HL443293  29.351  -0.732   5.457
  387XTA    HL543294  29.484  -0.630   5.380
  387XTA    HL643295  29.352  -0.616   5.185
  387XTA    HL743296  29.230  -0.598   5.307
  387XTA    HL843297  29.288  -0.845   5.150
  387XTA    HL943298  29.157  -0.731   5.126
  387XTA   HL1043299  29.169  -0.826   5.403
  387XTA   HL1143300  29.035  -0.850   5.280
  387XTA   HL1243301  29.283  -1.019   5.312
  387XTA   HL1343302  29.145  -1.040   5.191
  387XTA   HL1443303  28.983  -1.074   5.357
  387XTA   HL1543304  29.099  -1.195   5.381
  387XTA   HL1643305  29.251  -1.185   5.587
  387XTA   HL1743306  29.315  -1.027   5.526
  387XTA   HL1843307  29.451  -1.077   5.695
  387XTA   HL1943308  29.362  -1.194   5.773
  387XTA   HL2043309  29.418  -0.936   5.938
  387XTA   HL2143310  29.538  -1.054   5.919
  387XTA   HL2243311  29.374  -1.109   5.987
  387XTA   HL2343312  30.319  -1.228   5.273
  387XTA   HL2443313  30.437  -1.270   5.407
  387XTA   HL2543314  30.569  -1.287   5.200
  387XTA   HL2643315  30.513  -1.140   5.136
  387XTA   HL2743316  30.610  -1.029   5.351
  387XTA   HL2843317  30.691  -1.181   5.384
  387XTA   HL2943318  30.751  -0.997   5.170
  387XTA   HL3043319  30.862  -1.046   5.290
  387XTA   HL3143320  30.923  -1.223   5.210
  387XTA   HL3243321  30.767  -1.277   5.132
  387XTA   HL3343322  30.907  -1.223   4.961
  387XTA   HL3443323  30.795  -1.091   4.968
  387XTA   HL3543324  31.060  -1.088   4.835
  387XTA   HL3643325  31.129  -1.189   4.955
  387XTA   HL3743326  31.415  -1.016   5.083
  387XTA   HL3843327  31.318  -1.154   5.069
  387XTA   HL3943328  31.161  -1.075   5.233
  387XTA   HL4043329  31.216  -0.908   5.208
  387XTA   HL4143330  31.316  -1.009   5.305
  387XTA    CO843331  29.122  -1.053   5.801
  387XTA    CO943332  29.265  -0.864   5.719
  387XTA    OA643333  29.076  -1.183   5.772
  387XTA   HL4243334  29.052  -0.973   5.768
  387XTA   HL4343335  29.139  -1.033   5.907
  387XTA   HL4443336  31.098  -0.819   5.046
  387XTA   HL4543337  31.271  -0.802   5.023
  387XTA   CO1043338  31.176  -0.844   4.975
  387XTA   CO1143339  31.298  -0.993   4.833
  387XTA    OA743340  31.142  -0.775   4.858
  387XTA   HL4643341  31.394  -0.938   4.849
  387XTA   HL4743342  31.251  -0.939   4.754
  387XTA   HL4843343  29.361  -0.846   5.672
  387XTA   HL4943344  29.188  -0.822   5.648
  388XTA     NT43345  34.657  -0.571   3.049
  388XTA    CN143346  34.759  -0.638   3.001
  388XTA     C143347  34.813  -0.756   3.063
  388XTA     C243348  34.917  -0.829   3.006
  388XTA     C343349  34.969  -0.791   2.881
  388XTA     C443350  34.910  -0.678   2.815
  388XTA     C543351  34.805  -0.607   2.873
  388XTA    CN243352  34.686  -0.463   3.122
  388XTA     C643353  34.761  -0.359   3.072
  388XTA     C743354  34.788  -0.245   3.151
  388XTA     C843355  34.738  -0.234   3.277
  388XTA     C943356  34.666  -0.346   3.332
  388XTA    C1043357  34.637  -0.459   3.250
  388XTA    CN343358  34.525  -0.603   3.017
  388XTA    C1143359  34.449  -0.683   3.097
  388XTA    C1243360  34.309  -0.701   3.077
  388XTA    C1343361  34.252  -0.646   2.962
  388XTA    C1443362  34.327  -0.564   2.877
  388XTA    C1543363  34.462  -0.545   2.903
  388XTA     H143364  34.791  -0.773   3.161
  388XTA     H243365  34.953  -0.915   3.055
  388XTA     H343366  34.932  -0.655   2.716
  388XTA     H443367  34.760  -0.525   2.816
  388XTA     H543368  34.801  -0.353   2.973
  388XTA     H643369  34.843  -0.168   3.096
  388XTA     H743370  34.641  -0.332   3.437
  388XTA     H843371  34.577  -0.543   3.290
  388XTA     H943372  34.503  -0.737   3.171
  388XTA    H1043373  34.266  -0.764   3.154
  388XTA    H1143374  34.269  -0.527   2.794
  388XTA    H1243375  34.531  -0.490   2.829
  388XTA    OA143376  35.079  -0.849   2.823
  388XTA    CO143377  35.144  -0.963   2.889
  388XTA    OA243378  34.771  -0.130   3.361
  388XTA    CO243379  34.657  -0.073   3.438
  388XTA    CL143380  34.590   0.055   3.388
  388XTA    CL243381  34.538   0.049   3.248
  388XTA    CL343382  34.446  -0.078   3.224
  388XTA    CL443383  34.399  -0.092   3.080
  388XTA    CO343384  34.317  -0.220   3.060
  388XTA    OA343385  34.241  -0.243   3.183
  388XTA    CO443386  34.194  -0.380   3.198
  388XTA    CT143387  34.100  -0.401   3.319
  388XTA    CL543388  34.166  -0.326   3.438
  388XTA    CL643389  34.312  -0.355   3.468
  388XTA    OA443390  34.126  -0.683   2.919
  388XTA    CO543391  34.067  -0.797   2.975
  388XTA    CL743392  34.132  -0.922   2.902
  388XTA    CL843393  34.082  -1.063   2.936
  388XTA    CL943394  34.104  -1.096   3.084
  388XTA   CL1043395  34.244  -1.104   3.134
  388XTA    CO643396  34.253  -1.139   3.281
  388XTA    OA543397  34.214  -1.023   3.353
  388XTA    CO743398  34.331  -0.950   3.386
  388XTA    CT243399  34.295  -0.842   3.489
  388XTA   CL1143400  34.412  -0.739   3.514
  388XTA   CL1243401  34.545  -0.816   3.548
  388XTA    HL143402  35.181  -0.930   2.988
  388XTA    HL243403  35.074  -1.048   2.895
  388XTA    HL343404  35.232  -0.976   2.829
  388XTA    HL443405  34.581  -0.150   3.457
  388XTA    HL543406  34.693  -0.052   3.537
  388XTA    HL643407  34.674   0.124   3.382
  388XTA    HL743408  34.509   0.097   3.448
  388XTA    HL843409  34.635   0.042   3.198
  388XTA    HL943410  34.480   0.140   3.222
  388XTA   HL1043411  34.490  -0.173   3.257
  388XTA   HL1143412  34.356  -0.068   3.291
  388XTA   HL1243413  34.493  -0.105   3.026
  388XTA   HL1343414  34.338  -0.004   3.050
  388XTA   HL1443415  34.248  -0.208   2.972
  388XTA   HL1543416  34.386  -0.296   3.023
  388XTA   HL1643417  34.146  -0.411   3.110
  388XTA   HL1743418  34.279  -0.440   3.219
  388XTA   HL1843419  34.111  -0.370   3.526
  388XTA   HL1943420  34.162  -0.219   3.425
  388XTA   HL2043421  34.329  -0.446   3.534
  388XTA   HL2143422  34.360  -0.266   3.510
  388XTA   HL2243423  34.361  -0.361   3.371
  388XTA   HL2343424  33.960  -0.801   2.947
  388XTA   HL2443425  34.089  -0.795   3.079
  388XTA   HL2543426  34.114  -0.907   2.797
  388XTA   HL2643427  34.236  -0.930   2.912
  388XTA   HL2743428  33.981  -1.074   2.907
  388XTA   HL2843429  34.137  -1.137   2.880
  388XTA   HL2943430  34.059  -1.025   3.154
  388XTA   HL3043431  34.069  -1.199   3.097
  388XTA   HL3143432  34.295  -1.180   3.077
  388XTA   HL3243433  34.309  -1.017   3.112
  388XTA   HL3343434  34.186  -1.226   3.303
  388XTA   HL3443435  34.352  -1.172   3.303
  388XTA   HL3543436  34.374  -0.929   3.289
  388XTA   HL3643437  34.404  -1.018   3.437
  388XTA   HL3743438  34.387  -0.682   3.606
  388XTA   HL3843439  34.436  -0.667   3.435
  388XTA   HL3943440  34.532  -0.865   3.641
  388XTA   HL4043441  34.634  -0.757   3.562
  388XTA   HL4143442  34.559  -0.892   3.469
  388XTA    CO843443  34.074  -0.551   3.343
  388XTA    CO943444  33.967  -0.330   3.298
  388XTA    OA643445  34.191  -0.628   3.360
  388XTA   HL4243446  34.021  -0.591   3.258
  388XTA   HL4343447  34.011  -0.571   3.427
  388XTA   HL4443448  34.324  -0.964   3.671
  388XTA   HL4543449  34.225  -0.817   3.691
  388XTA   CO1043450  34.249  -0.902   3.622
  388XTA   CO1143451  34.174  -0.758   3.433
  388XTA    OA743452  34.142  -0.992   3.613
  388XTA   HL4643453  34.113  -0.732   3.524
  388XTA   HL4743454  34.108  -0.815   3.373
  388XTA   HL4843455  33.920  -0.373   3.206
  388XTA   HL4943456  33.901  -0.356   3.387
  389XTA     NT43457  31.601   1.594   5.379
  389XTA    CN143458  31.642   1.667   5.280
  389XTA     C143459  31.643   1.803   5.299
  389XTA     C243460  31.681   1.886   5.193
  389XTA     C343461  31.717   1.834   5.067
  389XTA     C443462  31.735   1.695   5.054
  389XTA     C543463  31.694   1.612   5.161
  389XTA    CN243464  31.472   1.578   5.408
  389XTA     C643465  31.410   1.648   5.511
  389XTA     C743466  31.271   1.634   5.535
  389XTA     C843467  31.193   1.550   5.457
  389XTA     C943468  31.256   1.488   5.349
  389XTA    C1043469  31.389   1.506   5.321
  389XTA    CN343470  31.689   1.521   5.454
  389XTA    C1143471  31.690   1.383   5.433
  389XTA    C1243472  31.766   1.301   5.517
  389XTA    C1343473  31.844   1.358   5.612
  389XTA    C1443474  31.845   1.498   5.634
  389XTA    C1543475  31.765   1.580   5.557
  389XTA     H143476  31.613   1.833   5.400
  389XTA     H243477  31.677   1.991   5.200
  389XTA     H343478  31.770   1.658   4.964
  389XTA     H443479  31.702   1.505   5.162
  389XTA     H543480  31.466   1.717   5.570
  389XTA     H643481  31.230   1.689   5.618
  389XTA     H743482  31.201   1.420   5.291
  389XTA     H843483  31.429   1.457   5.235
  389XTA     H943484  31.630   1.351   5.352
  389XTA    H1043485  31.761   1.194   5.512
  389XTA    H1143486  31.902   1.535   5.713
  389XTA    H1243487  31.757   1.683   5.582
  389XTA    OA143488  31.752   1.903   4.954
  389XTA    CO143489  31.766   2.038   4.961
  389XTA    OA243490  31.061   1.535   5.496
  389XTA    CO243491  30.969   1.493   5.397
  389XTA    CL143492  30.827   1.504   5.453
  389XTA    CL243493  30.714   1.461   5.354
  389XTA    CL343494  30.577   1.461   5.404
  389XTA    CL443495  30.551   1.366   5.524
  389XTA    CO343496  30.404   1.393   5.574
  389XTA    OA343497  30.390   1.516   5.650
  389XTA    CO443498  30.465   1.508   5.778
  389XTA    CT143499  30.444   1.646   5.851
  389XTA    CL543500  30.459   1.761   5.760
  389XTA    CL643501  30.604   1.768   5.701
  389XTA    OA443502  31.931   1.290   5.692
  389XTA    CO543503  31.959   1.149   5.652
  389XTA    CL743504  32.023   1.069   5.767
  389XTA    CL843505  31.925   1.005   5.859
  389XTA    CL943506  31.814   1.089   5.925
  389XTA   CL1043507  31.705   1.016   6.005
  389XTA    CO643508  31.586   0.968   5.920
  389XTA    OA543509  31.473   1.039   5.967
  389XTA    CO743510  31.346   1.003   5.920
  389XTA    CT243511  31.232   1.085   5.988
  389XTA   CL1143512  31.104   1.061   5.905
  389XTA   CL1243513  30.974   1.062   5.992
  389XTA    HL143514  31.850   2.080   5.017
  389XTA    HL243515  31.767   2.077   4.854
  389XTA    HL343516  31.665   2.073   4.985
  389XTA    HL443517  30.974   1.554   5.305
  389XTA    HL543518  30.972   1.386   5.380
  389XTA    HL643519  30.807   1.609   5.481
  389XTA    HL743520  30.829   1.436   5.542
  389XTA    HL843521  30.738   1.360   5.313
  389XTA    HL943522  30.715   1.537   5.271
  389XTA   HL1043523  30.558   1.565   5.445
  389XTA   HL1143524  30.492   1.440   5.337
  389XTA   HL1243525  30.620   1.390   5.608
  389XTA   HL1343526  30.564   1.267   5.506
  389XTA   HL1443527  30.347   1.392   5.487
  389XTA   HL1543528  30.365   1.307   5.635
  389XTA   HL1643529  30.426   1.426   5.836
  389XTA   HL1743530  30.575   1.495   5.771
  389XTA   HL1843531  30.436   1.851   5.823
  389XTA   HL1943532  30.385   1.755   5.673
  389XTA   HL2043533  30.681   1.756   5.771
  389XTA   HL2143534  30.622   1.858   5.650
  389XTA   HL2243535  30.605   1.686   5.625
  389XTA   HL2343536  32.033   1.133   5.576
  389XTA   HL2443537  31.863   1.096   5.624
  389XTA   HL2543538  32.092   1.004   5.725
  389XTA   HL2643539  32.081   1.133   5.827
  389XTA   HL2743540  31.881   0.933   5.794
  389XTA   HL2843541  31.964   0.946   5.940
  389XTA   HL2943542  31.864   1.160   5.993
  389XTA   HL3043543  31.766   1.152   5.851
  389XTA   HL3143544  31.752   0.936   6.069
  389XTA   HL3243545  31.674   1.100   6.066
  389XTA   HL3343546  31.593   0.982   5.810
  389XTA   HL3443547  31.581   0.862   5.940
  389XTA   HL3543548  31.339   0.887   5.928
  389XTA   HL3643549  31.342   1.033   5.811
  389XTA   HL3743550  31.105   0.972   5.852
  389XTA   HL3843551  31.098   1.130   5.819
  389XTA   HL3943552  30.975   0.999   6.079
  389XTA   HL4043553  30.875   1.050   5.935
  389XTA   HL4143554  30.969   1.157   6.033
  389XTA    CO843555  30.538   1.666   5.977
  389XTA    CO943556  30.293   1.643   5.902
  389XTA    OA643557  30.527   1.553   6.057
  389XTA   HL4243558  30.506   1.760   6.028
  389XTA   HL4343559  30.642   1.663   5.953
  389XTA   HL4443560  31.276   1.255   5.875
  389XTA   HL4543561  31.365   1.265   6.031
  389XTA   CO1043562  31.270   1.237   5.982
  389XTA   CO1143563  31.217   1.042   6.135
  389XTA    OA743564  31.324   1.088   6.220
  389XTA   HL4643565  31.129   1.076   6.190
  389XTA   HL4743566  31.216   0.935   6.146
  389XTA   HL4843567  30.275   1.574   5.985
  389XTA   HL4943568  30.230   1.614   5.827
  390XTH     NT43569  32.666   0.465   7.046
  390XTH    CN143570  32.788   0.507   7.054
  390XTH     C143571  32.851   0.570   6.947
  390XTH     C243572  32.977   0.634   6.961
  390XTH     C343573  33.046   0.644   7.086
  390XTH     C443574  32.983   0.583   7.193
  390XTH     C543575  32.860   0.508   7.178
  390XTH    CN243576  32.638   0.337   7.086
  390XTH     C643577  32.722   0.232   7.040
  390XTH     C743578  32.709   0.102   7.099
  390XTH     C843579  32.609   0.075   7.197
  390XTH     C943580  32.526   0.183   7.247
  390XTH    C1043581  32.552   0.312   7.192
  390XTH    CN343582  32.559   0.548   7.013
  390XTH    C1143583  32.468   0.498   6.916
  390XTH    C1243584  32.348   0.571   6.889
  390XTH    C1343585  32.323   0.687   6.958
  390XTH    C1443586  32.410   0.734   7.055
  390XTH    C1543587  32.536   0.666   7.080
  390XTH     H143588  32.802   0.570   6.855
  390XTH     H243589  33.019   0.694   6.881
  390XTH     H343590  33.020   0.596   7.293
  390XTH     H443591  32.807   0.457   7.257
  390XTH     H543592  32.783   0.239   6.951
  390XTH     H643593  32.770   0.019   7.054
  390XTH     H743594  32.442   0.165   7.310
  390XTH     H843595  32.499   0.392   7.244
  390XTH     H943596  32.483   0.407   6.861
  390XTH    H1043597  32.267   0.535   6.827
  390XTH    H1143598  32.387   0.824   7.112
  390XTH    H1243599  32.613   0.707   7.150
  390XTH    OA143600  33.168   0.716   7.088
  390XTH    CO143601  33.217   0.736   7.218
  390XTH    OA243602  32.590  -0.054   7.239
  390XTH    CO243603  32.478  -0.078   7.328
  390XTH    CL143604  32.449  -0.232   7.337
  390XTH    CL243605  32.311  -0.263   7.416
  390XTH    CL343606  32.261  -0.411   7.412
  390XTH    CL443607  32.157  -0.441   7.311
  390XTH    CO343608  32.029  -0.500   7.371
  390XTH    OA343609  31.932  -0.514   7.270
  390XTH    CO443610  31.873  -0.390   7.226
  390XTH    CT143611  31.754  -0.400   7.121
  390XTH    CL543612  31.677  -0.270   7.122
  390XTH    CL643613  31.597  -0.229   7.243
  390XTH    OA443614  32.200   0.741   6.931
  390XTH    CO543615  32.142   0.844   7.007
  390XTH    CL743616  32.060   0.775   7.111
  390XTH    CL843617  31.979   0.871   7.196
  390XTH    CL943618  31.877   0.802   7.284
  390XTH   CL1043619  31.811   0.910   7.372
  390XTH    CO643620  31.732   0.843   7.483
  390XTH    OA543621  31.627   0.920   7.532
  390XTH    CO743622  31.675   1.015   7.619
  390XTH    CT243623  31.574   1.072   7.711
  390XTH   CL1143624  31.460   1.122   7.623
  390XTH   CL1243625  31.491   1.231   7.527
  390XTH    HL143626  33.149   0.795   7.273
  390XTH    HL243627  33.233   0.640   7.274
  390XTH    HL343628  33.314   0.791   7.224
  390XTH    HL443629  32.483  -0.044   7.426
  390XTH    HL543630  32.385  -0.033   7.299
  390XTH    HL643631  32.533  -0.290   7.388
  390XTH    HL743632  32.458  -0.285   7.243
  390XTH    HL843633  32.229  -0.195   7.377
  390XTH    HL943634  32.338  -0.238   7.518
  390XTH   HL1043635  32.344  -0.481   7.413
  390XTH   HL1143636  32.211  -0.444   7.505
  390XTH   HL1243637  32.207  -0.515   7.249
  390XTH   HL1343638  32.137  -0.354   7.251
  390XTH   HL1443639  32.042  -0.590   7.431
  390XTH   HL1543640  31.989  -0.433   7.446
  390XTH   HL1643641  31.826  -0.335   7.308
  390XTH   HL1743642  31.949  -0.324   7.192
  390XTH   HL1843643  31.601  -0.271   7.055
  390XTH   HL1943644  31.744  -0.195   7.089
  390XTH   HL2043645  31.656  -0.221   7.335
  390XTH   HL2143646  31.511  -0.302   7.261
  390XTH   HL2243647  31.557  -0.129   7.221
  390XTH   HL2343648  32.076   0.907   6.936
  390XTH   HL2443649  32.216   0.914   7.052
  390XTH   HL2543650  31.981   0.716   7.061
  390XTH   HL2643651  32.107   0.713   7.183
  390XTH   HL2743652  32.063   0.922   7.255
  390XTH   HL2843653  31.930   0.950   7.141
  390XTH   HL2943654  31.804   0.745   7.234
  390XTH   HL3043655  31.925   0.734   7.353
  390XTH   HL3143656  31.890   0.975   7.417
  390XTH   HL3243657  31.754   0.981   7.312
  390XTH   HL3343658  31.686   0.753   7.441
  390XTH   HL3443659  31.792   0.798   7.565
  390XTH   HL3543660  31.726   1.096   7.565
  390XTH   HL3643661  31.747   0.974   7.681
  390XTH   HL3743662  31.378   1.151   7.688
  390XTH   HL3843663  31.421   1.043   7.569
  390XTH   HL3943664  31.556   1.208   7.445
  390XTH   HL4043665  31.531   1.321   7.569
  390XTH   HL4143666  31.389   1.250   7.474
  390XTH    CO843667  31.656  -0.512   7.154
  390XTH    CO943668  31.817  -0.422   6.989
  390XTH    OA643669  31.756  -0.451   6.904
  390XTH   HL4243670  31.707  -0.602   7.130
  390XTH   HL4343671  31.635  -0.505   7.291
  390XTH   HL4443672  31.680   1.260   7.726
  390XTH   HL4543673  31.572   1.242   7.869
  390XTH   CO1043674  31.639   1.189   7.798
  390XTH   CO1143675  31.513   0.961   7.799
  390XTH    OA743676  31.749   1.143   7.871
  390XTH   HL4643677  31.448   1.007   7.876
  390XTH   HL4743678  31.454   0.890   7.739
  390XTH   HL4843679  31.876  -0.506   7.011
  390XTH   HL4943680  31.876  -0.340   6.968
  391XTA     NT43681  33.675  -2.303   4.779
  391XTA    CN143682  33.609  -2.416   4.804
  391XTA     C143683  33.675  -2.528   4.850
  391XTA     C243684  33.604  -2.652   4.869
  391XTA     C343685  33.463  -2.653   4.839
  391XTA     C443686  33.402  -2.540   4.791
  391XTA     C543687  33.477  -2.422   4.768
  391XTA    CN243688  33.663  -2.206   4.872
  391XTA     C643689  33.576  -2.096   4.843
  391XTA     C743690  33.560  -1.988   4.931
  391XTA     C843691  33.635  -1.990   5.055
  391XTA     C943692  33.708  -2.110   5.088
  391XTA    C1043693  33.720  -2.219   5.000
  391XTA    CN343694  33.782  -2.313   4.693
  391XTA    C1143695  33.759  -2.345   4.558
  391XTA    C1243696  33.862  -2.361   4.463
  391XTA    C1343697  33.994  -2.356   4.505
  391XTA    C1443698  34.017  -2.328   4.641
  391XTA    C1543699  33.912  -2.315   4.734
  391XTA     H143700  33.777  -2.517   4.885
  391XTA     H243701  33.658  -2.739   4.901
  391XTA     H343702  33.297  -2.541   4.766
  391XTA     H443703  33.419  -2.342   4.731
  391XTA     H543704  33.526  -2.105   4.748
  391XTA     H643705  33.501  -1.906   4.905
  391XTA     H743706  33.747  -2.124   5.188
  391XTA     H843707  33.768  -2.307   5.028
  391XTA     H943708  33.660  -2.340   4.522
  391XTA    H1043709  33.831  -2.381   4.364
  391XTA    H1143710  34.118  -2.310   4.676
  391XTA    H1243711  33.934  -2.310   4.839
  391XTA    OA143712  33.389  -2.765   4.867
  391XTA    CO143713  33.449  -2.881   4.928
  391XTA    OA243714  33.620  -1.892   5.158
  391XTA    CO243715  33.571  -1.760   5.120
  391XTA    CL143716  33.544  -1.670   5.249
  391XTA    CL243717  33.540  -1.516   5.225
  391XTA    CL343718  33.668  -1.446   5.173
  391XTA    CL443719  33.798  -1.435   5.265
  391XTA    CO343720  33.876  -1.561   5.281
  391XTA    OA343721  34.009  -1.548   5.335
  391XTA    CO443722  34.078  -1.676   5.326
  391XTA    CT143723  34.144  -1.706   5.465
  391XTA    CL543724  34.182  -1.857   5.484
  391XTA    CL643725  34.071  -1.966   5.457
  391XTA    OA443726  34.107  -2.383   4.425
  391XTA    CO543727  34.074  -2.455   4.311
  391XTA    CL743728  34.204  -2.526   4.277
  391XTA    CL843729  34.206  -2.620   4.151
  391XTA    CL943730  34.127  -2.751   4.154
  391XTA   CL1043731  34.129  -2.823   4.019
  391XTA    CO643732  34.091  -2.971   4.036
  391XTA    OA543733  34.136  -3.067   3.935
  391XTA    CO743734  34.083  -3.191   3.966
  391XTA    CT243735  34.166  -3.286   3.884
  391XTA   CL1143736  34.127  -3.426   3.937
  391XTA   CL1243737  34.169  -3.545   3.855
  391XTA    HL143738  33.548  -2.899   4.881
  391XTA    HL243739  33.467  -2.862   5.033
  391XTA    HL343740  33.390  -2.972   4.915
  391XTA    HL443741  33.638  -1.697   5.057
  391XTA    HL543742  33.470  -1.769   5.068
  391XTA    HL643743  33.623  -1.683   5.322
  391XTA    HL743744  33.454  -1.713   5.290
  391XTA    HL843745  33.511  -1.478   5.321
  391XTA    HL943746  33.464  -1.488   5.157
  391XTA   HL1043747  33.700  -1.499   5.078
  391XTA   HL1143748  33.639  -1.343   5.138
  391XTA   HL1243749  33.776  -1.423   5.374
  391XTA   HL1343750  33.843  -1.341   5.241
  391XTA   HL1443751  33.811  -1.628   5.336
  391XTA   HL1543752  33.895  -1.592   5.178
  391XTA   HL1643753  34.013  -1.760   5.293
  391XTA   HL1743754  34.158  -1.672   5.251
  391XTA   HL1843755  34.215  -1.864   5.589
  391XTA   HL1943756  34.255  -1.884   5.415
  391XTA   HL2043757  34.128  -2.062   5.452
  391XTA   HL2143758  34.041  -1.979   5.350
  391XTA   HL2243759  33.985  -1.972   5.518
  391XTA   HL2343760  34.055  -2.391   4.226
  391XTA   HL2443761  33.999  -2.531   4.323
  391XTA   HL2543762  34.279  -2.440   4.266
  391XTA   HL2643763  34.233  -2.588   4.361
  391XTA   HL2743764  34.176  -2.555   4.067
  391XTA   HL2843765  34.305  -2.663   4.120
  391XTA   HL2943766  34.178  -2.824   4.223
  391XTA   HL3043767  34.023  -2.737   4.193
  391XTA   HL3143768  34.061  -2.759   3.960
  391XTA   HL3243769  34.232  -2.823   3.967
  391XTA   HL3343770  34.118  -3.000   4.137
  391XTA   HL3443771  33.982  -2.975   4.038
  391XTA   HL3543772  33.981  -3.198   3.940
  391XTA   HL3643773  34.086  -3.199   4.071
  391XTA   HL3743774  34.017  -3.433   3.956
  391XTA   HL3843775  34.165  -3.438   4.044
  391XTA   HL3943776  34.280  -3.548   3.839
  391XTA   HL4043777  34.125  -3.538   3.757
  391XTA   HL4143778  34.134  -3.638   3.888
  391XTA    CO843779  34.042  -1.669   5.574
  391XTA    CO943780  34.267  -1.620   5.479
  391XTA    OA643781  34.337  -1.654   5.397
  391XTA   HL4243782  33.953  -1.728   5.547
  391XTA   HL4343783  34.008  -1.534   5.574
  391XTA   HL4443784  34.371  -3.339   3.829
  391XTA   HL4543785  34.353  -3.173   3.869
  391XTA   CO1043786  34.313  -3.274   3.897
  391XTA   CO1143787  34.124  -3.270   3.730
  391XTA    OA743788  34.363  -3.288   4.028
  391XTA   HL4643789  34.134  -3.165   3.712
  391XTA   HL4743790  34.211  -3.327   3.686
  391XTA   HL4843791  34.304  -1.624   5.577
  391XTA   HL4943792  34.242  -1.514   5.460
  392XTA     NT43793  32.933  -1.835   8.101
  392XTA    CN143794  32.945  -1.967   8.093
  392XTA     C143795  32.926  -2.048   8.208
  392XTA     C243796  32.933  -2.191   8.198
  392XTA     C343797  32.941  -2.249   8.068
  392XTA     C443798  32.955  -2.167   7.954
  392XTA     C543799  32.963  -2.030   7.966
  392XTA    CN243800  33.022  -1.765   8.178
  392XTA     C643801  33.150  -1.744   8.134
  392XTA     C743802  33.237  -1.663   8.214
  392XTA     C843803  33.196  -1.597   8.332
  392XTA     C943804  33.061  -1.606   8.365
  392XTA    C1043805  32.969  -1.681   8.284
  392XTA    CN343806  32.814  -1.771   8.063
  392XTA    C1143807  32.692  -1.814   8.118
  392XTA    C1243808  32.567  -1.750   8.087
  392XTA    C1343809  32.566  -1.640   8.002
  392XTA    C1443810  32.686  -1.599   7.950
  392XTA    C1543811  32.811  -1.663   7.973
  392XTA     H143812  32.927  -2.003   8.306
  392XTA     H243813  32.918  -2.255   8.282
  392XTA     H343814  32.960  -2.207   7.857
  392XTA     H443815  32.970  -1.959   7.877
  392XTA     H543816  33.185  -1.807   8.056
  392XTA     H643817  33.337  -1.661   8.183
  392XTA     H743818  33.026  -1.545   8.450
  392XTA     H843819  32.868  -1.699   8.324
  392XTA     H943820  32.683  -1.899   8.178
  392XTA    H1043821  32.476  -1.792   8.125
  392XTA    H1143822  32.694  -1.507   7.887
  392XTA    H1243823  32.911  -1.633   7.942
  392XTA    OA143824  32.929  -2.383   8.065
  392XTA    CO143825  32.994  -2.440   7.955
  392XTA    OA243826  33.280  -1.541   8.428
  392XTA    CO243827  33.418  -1.571   8.424
  392XTA    CL143828  33.485  -1.517   8.549
  392XTA    CL243829  33.475  -1.366   8.543
  392XTA    CL343830  33.513  -1.289   8.672
  392XTA    CL443831  33.666  -1.300   8.703
  392XTA    CO343832  33.698  -1.249   8.840
  392XTA    OA343833  33.628  -1.341   8.929
  392XTA    CO443834  33.705  -1.401   9.025
  392XTA    CT143835  33.617  -1.498   9.106
  392XTA    CL543836  33.493  -1.421   9.156
  392XTA    CL643837  33.515  -1.297   9.243
  392XTA    OA443838  32.455  -1.570   7.962
  392XTA    CO543839  32.334  -1.590   8.032
  392XTA    CL743840  32.227  -1.510   7.972
  392XTA    CL843841  32.119  -1.463   8.078
  392XTA    CL943842  31.988  -1.426   8.016
  392XTA   CL1043843  31.996  -1.308   7.922
  392XTA    CO643844  31.869  -1.266   7.869
  392XTA    OA543845  31.782  -1.218   7.975
  392XTA    CO743846  31.680  -1.136   7.923
  392XTA    CT243847  31.582  -1.091   8.033
  392XTA   CL1143848  31.469  -0.997   7.972
  392XTA   CL1243849  31.340  -1.014   8.045
  392XTA    HL143850  33.008  -2.537   7.986
  392XTA    HL243851  32.932  -2.448   7.866
  392XTA    HL343852  33.083  -2.385   7.922
  392XTA    HL443853  33.429  -1.679   8.411
  392XTA    HL543854  33.452  -1.525   8.332
  392XTA    HL643855  33.588  -1.538   8.536
  392XTA    HL743856  33.439  -1.564   8.633
  392XTA    HL843857  33.380  -1.322   8.508
  392XTA    HL943858  33.548  -1.341   8.465
  392XTA   HL1043859  33.487  -1.187   8.664
  392XTA   HL1143860  33.455  -1.330   8.752
  392XTA   HL1243861  33.707  -1.247   8.623
  392XTA   HL1343862  33.700  -1.405   8.691
  392XTA   HL1443863  33.810  -1.250   8.844
  392XTA   HL1543864  33.666  -1.146   8.857
  392XTA   HL1643865  33.781  -1.453   8.971
  392XTA   HL1743866  33.744  -1.313   9.075
  392XTA   HL1843867  33.430  -1.484   9.216
  392XTA   HL1943868  33.440  -1.387   9.065
  392XTA   HL2043869  33.574  -1.327   9.327
  392XTA   HL2143870  33.416  -1.255   9.269
  392XTA   HL2243871  33.574  -1.231   9.189
  392XTA   HL2343872  32.343  -1.577   8.139
  392XTA   HL2443873  32.296  -1.692   8.040
  392XTA   HL2543874  32.275  -1.425   7.921
  392XTA   HL2643875  32.179  -1.578   7.897
  392XTA   HL2743876  32.104  -1.545   8.153
  392XTA   HL2843877  32.150  -1.370   8.123
  392XTA   HL2943878  31.954  -1.516   7.962
  392XTA   HL3043879  31.915  -1.408   8.098
  392XTA   HL3143880  32.034  -1.215   7.970
  392XTA   HL3243881  32.068  -1.303   7.843
  392XTA   HL3343882  31.893  -1.195   7.789
  392XTA   HL3443883  31.827  -1.354   7.837
  392XTA   HL3543884  31.632  -1.191   7.839
  392XTA   HL3643885  31.716  -1.042   7.881
  392XTA   HL3743886  31.462  -1.007   7.858
  392XTA   HL3843887  31.503  -0.897   7.991
  392XTA   HL3943888  31.337  -0.988   8.147
  392XTA   HL4043889  31.307  -1.113   8.026
  392XTA   HL4143890  31.259  -0.960   7.999
  392XTA    CO843891  33.708  -1.553   9.213
  392XTA    CO943892  33.562  -1.609   9.008
  392XTA    OA643893  33.636  -1.655   9.280
  392XTA   HL4243894  33.728  -1.471   9.279
  392XTA   HL4343895  33.803  -1.590   9.182
  392XTA   HL4443896  31.744  -1.076   8.161
  392XTA   HL4543897  31.721  -0.927   8.088
  392XTA   CO1043898  31.663  -1.009   8.134
  392XTA   CO1143899  31.542  -1.228   8.101
  392XTA    OA743900  31.600  -0.978   8.220
  392XTA   HL4643901  31.646  -1.318   8.130
  392XTA   HL4743902  31.491  -1.206   8.196
  392XTA   HL4843903  33.494  -1.558   8.930
  392XTA   HL4943904  33.490  -1.673   9.059
  393XTA     NT43905  30.341   2.618   2.389
  393XTA    CN143906  30.269   2.660   2.280
  393XTA     C143907  30.247   2.800   2.268
  393XTA     C243908  30.176   2.854   2.163
  393XTA     C343909  30.131   2.765   2.066
  393XTA     C443910  30.159   2.632   2.065
  393XTA     C543911  30.229   2.578   2.176
  393XTA    CN243912  30.475   2.636   2.395
  393XTA     C643913  30.528   2.736   2.487
  393XTA     C743914  30.669   2.756   2.491
  393XTA     C843915  30.758   2.690   2.408
  393XTA     C943916  30.702   2.608   2.305
  393XTA    C1043917  30.562   2.578   2.300
  393XTA    CN343918  30.278   2.581   2.504
  393XTA    C1143919  30.163   2.647   2.554
  393XTA    C1243920  30.101   2.618   2.679
  393XTA    C1343921  30.165   2.516   2.758
  393XTA    C1443922  30.273   2.443   2.712
  393XTA    C1543923  30.325   2.471   2.584
  393XTA     H143924  30.278   2.865   2.351
  393XTA     H243925  30.152   2.961   2.170
  393XTA     H343926  30.137   2.568   1.977
  393XTA     H443927  30.229   2.475   2.182
  393XTA     H543928  30.455   2.776   2.566
  393XTA     H643929  30.714   2.817   2.569
  393XTA     H743930  30.766   2.562   2.227
  393XTA     H843931  30.528   2.515   2.222
  393XTA     H943932  30.128   2.728   2.496
  393XTA    H1043933  30.022   2.681   2.718
  393XTA    H1143934  30.307   2.361   2.773
  393XTA    H1243935  30.404   2.411   2.544
  393XTA    OA143936  30.056   2.811   1.960
  393XTA    CO143937  30.014   2.940   1.951
  393XTA    OA243938  30.894   2.705   2.425
  393XTA    CO243939  30.983   2.627   2.345
  393XTA    CL143940  30.996   2.676   2.200
  393XTA    CL243941  31.096   2.590   2.128
  393XTA    CL343942  31.109   2.613   1.972
  393XTA    CL443943  31.216   2.532   1.904
  393XTA    CO343944  31.204   2.530   1.756
  393XTA    OA343945  31.279   2.414   1.710
  393XTA    CO443946  31.235   2.354   1.582
  393XTA    CT143947  31.098   2.280   1.577
  393XTA    CL543948  31.064   2.214   1.718
  393XTA    CL643949  30.919   2.164   1.737
  393XTA    OA443950  30.122   2.481   2.884
  393XTA    CO543951  29.983   2.484   2.906
  393XTA    CL743952  29.963   2.615   2.987
  393XTA    CL843953  29.814   2.652   3.000
  393XTA    CL943954  29.763   2.698   2.863
  393XTA   CL1043955  29.624   2.749   2.864
  393XTA    CO643956  29.592   2.878   2.930
  393XTA    OA543957  29.589   2.989   2.841
  393XTA    CO743958  29.562   3.110   2.906
  393XTA    CT243959  29.481   3.201   2.805
  393XTA   CL1143960  29.425   3.324   2.868
  393XTA   CL1243961  29.521   3.425   2.939
  393XTA    HL143962  30.097   3.003   1.938
  393XTA    HL243963  29.945   2.953   1.864
  393XTA    HL343964  29.955   2.963   2.035
  393XTA    HL443965  31.079   2.654   2.386
  393XTA    HL543966  30.969   2.518   2.344
  393XTA    HL643967  31.018   2.782   2.177
  393XTA    HL743968  30.899   2.659   2.145
  393XTA    HL843969  31.080   2.483   2.152
  393XTA    HL943970  31.193   2.611   2.177
  393XTA   HL1043971  31.009   2.588   1.942
  393XTA   HL1143972  31.135   2.716   1.954
  393XTA   HL1243973  31.197   2.428   1.934
  393XTA   HL1343974  31.319   2.561   1.921
  393XTA   HL1443975  31.097   2.511   1.738
  393XTA   HL1543976  31.243   2.620   1.702
  393XTA   HL1643977  31.227   2.433   1.509
  393XTA   HL1743978  31.313   2.288   1.542
  393XTA   HL1843979  31.087   2.284   1.792
  393XTA   HL1943980  31.132   2.132   1.740
  393XTA   HL2043981  30.895   2.094   1.657
  393XTA   HL2143982  30.841   2.240   1.734
  393XTA   HL2243983  30.908   2.119   1.830
  393XTA   HL2343984  29.953   2.399   2.969
  393XTA   HL2443985  29.926   2.483   2.817
  393XTA   HL2543986  30.010   2.596   3.084
  393XTA   HL2643987  30.021   2.688   2.936
  393XTA   HL2743988  29.761   2.566   3.036
  393XTA   HL2843989  29.789   2.728   3.072
  393XTA   HL2943990  29.830   2.774   2.821
  393XTA   HL3043991  29.765   2.617   2.797
  393XTA   HL3143992  29.596   2.763   2.757
  393XTA   HL3243993  29.553   2.685   2.908
  393XTA   HL3343994  29.491   2.881   2.970
  393XTA   HL3443995  29.661   2.902   3.016
  393XTA   HL3543996  29.656   3.157   2.937
  393XTA   HL3643997  29.508   3.096   2.997
  393XTA   HL3743998  29.359   3.298   2.949
  393XTA   HL3843999  29.355   3.380   2.798
  393XTA   HL3944000  29.615   3.434   2.887
  393XTA   HL4044001  29.548   3.385   3.036
  393XTA   HL4144002  29.496   3.532   2.952
  393XTA    CO844003  31.097   2.166   1.478
  393XTA    CO944004  30.982   2.374   1.536
  393XTA    OA644005  31.004   2.419   1.439
  393XTA   HL4244006  30.997   2.126   1.475
  393XTA   HL4344007  31.139   2.194   1.352
  393XTA   HL4444008  29.302   3.184   2.672
  393XTA   HL4544009  29.399   3.045   2.679
  393XTA   CO1044010  29.361   3.126   2.745
  393XTA   CO1144011  29.559   3.240   2.682
  393XTA    OA744012  29.629   3.129   2.620
  393XTA   HL4644013  29.496   3.287   2.605
  393XTA   HL4744014  29.635   3.313   2.699
  393XTA   HL4844015  30.969   2.456   1.598
  393XTA   HL4944016  30.890   2.313   1.529
  394XTA     NT44017  28.958  -0.286   1.527
  394XTA    CN144018  29.014  -0.173   1.476
  394XTA     C144019  28.931  -0.066   1.436
  394XTA     C244020  28.984   0.049   1.379
  394XTA     C344021  29.125   0.069   1.378
  394XTA     C444022  29.208  -0.042   1.408
  394XTA     C544023  29.154  -0.157   1.461
  394XTA    CN244024  28.873  -0.349   1.446
  394XTA     C644025  28.748  -0.377   1.491
  394XTA     C744026  28.655  -0.446   1.409
  394XTA     C844027  28.690  -0.493   1.281
  394XTA     C944028  28.813  -0.451   1.227
  394XTA    C1044029  28.901  -0.381   1.310
  394XTA    CN344030  29.014  -0.347   1.635
  394XTA    C1144031  29.044  -0.483   1.634
  394XTA    C1244032  29.107  -0.541   1.749
  394XTA    C1344033  29.153  -0.454   1.851
  394XTA    C1444034  29.124  -0.321   1.845
  394XTA    C1544035  29.044  -0.266   1.741
  394XTA     H144036  28.824  -0.074   1.455
  394XTA     H244037  28.916   0.131   1.352
  394XTA     H344038  29.319  -0.034   1.398
  394XTA     H444039  29.217  -0.236   1.499
  394XTA     H544040  28.736  -0.346   1.595
  394XTA     H644041  28.557  -0.458   1.448
  394XTA     H744042  28.833  -0.480   1.129
  394XTA     H844043  28.997  -0.341   1.271
  394XTA     H944044  29.016  -0.552   1.549
  394XTA    H1044045  29.127  -0.649   1.752
  394XTA    H1144046  29.150  -0.255   1.929
  394XTA    H1244047  29.018  -0.161   1.747
  394XTA    OA144048  29.169   0.192   1.347
  394XTA    CO144049  29.209   0.261   1.464
  394XTA    OA244050  28.603  -0.550   1.192
  394XTA    CO244051  28.489  -0.616   1.253
  394XTA    CL144052  28.385  -0.617   1.141
  394XTA    CL244053  28.265  -0.705   1.174
  394XTA    CL344054  28.127  -0.664   1.125
  394XTA    CL444055  28.011  -0.749   1.193
  394XTA    CO344056  27.874  -0.694   1.149
  394XTA    OA344057  27.856  -0.576   1.217
  394XTA    CO444058  27.804  -0.476   1.123
  394XTA    CT144059  27.796  -0.335   1.184
  394XTA    CL544060  27.695  -0.324   1.303
  394XTA    CL644061  27.546  -0.343   1.271
  394XTA    OA444062  29.240  -0.496   1.952
  394XTA    CO544063  29.265  -0.635   1.977
  394XTA    CL744064  29.175  -0.686   2.089
  394XTA    CL844065  29.031  -0.734   2.060
  394XTA    CL944066  29.023  -0.871   1.990
  394XTA   CL1044067  28.880  -0.923   1.953
  394XTA    CO644068  28.823  -0.847   1.827
  394XTA    OA544069  28.898  -0.888   1.714
  394XTA    CO744070  28.868  -0.843   1.581
  394XTA    CT244071  28.935  -0.952   1.483
  394XTA   CL1144072  28.905  -0.912   1.342
  394XTA   CL1244073  28.942  -1.015   1.232
  394XTA    HL144074  29.146   0.250   1.553
  394XTA    HL244075  29.303   0.216   1.485
  394XTA    HL344076  29.238   0.359   1.439
  394XTA    HL444077  28.518  -0.716   1.285
  394XTA    HL544078  28.430  -0.561   1.331
  394XTA    HL644079  28.426  -0.641   1.039
  394XTA    HL744080  28.350  -0.518   1.135
  394XTA    HL844081  28.254  -0.718   1.288
  394XTA    HL944082  28.287  -0.812   1.163
  394XTA   HL1044083  28.092  -0.558   1.138
  394XTA   HL1144084  28.129  -0.662   1.016
  394XTA   HL1244085  28.025  -0.726   1.298
  394XTA   HL1344086  28.015  -0.853   1.166
  394XTA   HL1444087  27.871  -0.677   1.039
  394XTA   HL1544088  27.787  -0.755   1.174
  394XTA   HL1644089  27.871  -0.468   1.045
  394XTA   HL1744090  27.706  -0.507   1.081
  394XTA   HL1844091  27.709  -0.232   1.354
  394XTA   HL1944092  27.722  -0.403   1.375
  394XTA   HL2044093  27.494  -0.369   1.363
  394XTA   HL2144094  27.537  -0.423   1.201
  394XTA   HL2244095  27.503  -0.253   1.232
  394XTA   HL2344096  29.366  -0.654   2.007
  394XTA   HL2444097  29.254  -0.702   1.890
  394XTA   HL2544098  29.224  -0.775   2.125
  394XTA   HL2644099  29.168  -0.605   2.165
  394XTA   HL2744100  28.973  -0.738   2.152
  394XTA   HL2844101  28.983  -0.653   1.995
  394XTA   HL2944102  29.089  -0.875   1.903
  394XTA   HL3044103  29.066  -0.941   2.049
  394XTA   HL3144104  28.893  -1.021   1.922
  394XTA   HL3244105  28.816  -0.914   2.050
  394XTA   HL3344106  28.720  -0.875   1.824
  394XTA   HL3444107  28.837  -0.744   1.844
  394XTA   HL3544108  28.906  -0.739   1.564
  394XTA   HL3644109  28.758  -0.844   1.571
  394XTA   HL3744110  28.944  -0.821   1.315
  394XTA   HL3844111  28.795  -0.910   1.347
  394XTA   HL3944112  29.040  -1.052   1.252
  394XTA   HL4044113  28.931  -0.981   1.130
  394XTA   HL4144114  28.872  -1.092   1.253
  394XTA    CO844115  27.760  -0.239   1.071
  394XTA    CO944116  27.942  -0.298   1.231
  394XTA    OA644117  27.942  -0.199   1.282
  394XTA   HL4244118  27.692  -0.283   1.004
  394XTA   HL4344119  27.698  -0.119   1.127
  394XTA   HL4444120  28.910  -1.167   1.446
  394XTA   HL4544121  28.906  -1.123   1.619
  394XTA   CO1044122  28.877  -1.096   1.520
  394XTA   CO1144123  29.086  -0.955   1.505
  394XTA    OA744124  28.739  -1.084   1.501
  394XTA   HL4644125  29.118  -0.937   1.605
  394XTA   HL4744126  29.124  -0.862   1.457
  394XTA   HL4844127  28.013  -0.282   1.151
  394XTA   HL4944128  27.970  -0.378   1.303
  395XTA     NT44129  30.266  -0.320   0.689
  395XTA    CN144130  30.136  -0.315   0.660
  395XTA     C144131  30.076  -0.380   0.549
  395XTA     C244132  29.948  -0.353   0.504
  395XTA     C344133  29.864  -0.257   0.571
  395XTA     C444134  29.922  -0.188   0.681
  395XTA     C544135  30.056  -0.214   0.720
  395XTA    CN244136  30.301  -0.373   0.810
  395XTA     C644137  30.292  -0.304   0.930
  395XTA     C744138  30.322  -0.371   1.050
  395XTA     C844139  30.354  -0.503   1.046
  395XTA     C944140  30.365  -0.575   0.929
  395XTA    C1044141  30.329  -0.515   0.809
  395XTA    CN344142  30.350  -0.244   0.621
  395XTA    C1144143  30.431  -0.310   0.529
  395XTA    C1244144  30.522  -0.238   0.453
  395XTA    C1344145  30.523  -0.098   0.445
  395XTA    C1444146  30.444  -0.028   0.535
  395XTA    C1544147  30.355  -0.100   0.620
  395XTA     H144148  30.130  -0.459   0.504
  395XTA     H244149  29.906  -0.395   0.417
  395XTA     H344150  29.867  -0.109   0.732
  395XTA     H444151  30.095  -0.146   0.788
  395XTA     H544152  30.267  -0.200   0.936
  395XTA     H644153  30.329  -0.317   1.142
  395XTA     H744154  30.392  -0.682   0.934
  395XTA     H844155  30.328  -0.566   0.717
  395XTA     H944156  30.416  -0.420   0.520
  395XTA    H1044157  30.585  -0.310   0.397
  395XTA    H1144158  30.442   0.085   0.546
  395XTA    H1244159  30.299  -0.047   0.692
  395XTA    OA144160  29.745  -0.211   0.512
  395XTA    CO144161  29.637  -0.175   0.595
  395XTA    OA244162  30.381  -0.577   1.159
  395XTA    CO244163  30.293  -0.553   1.265
  395XTA    CL144164  30.312  -0.676   1.353
  395XTA    CL244165  30.463  -0.713   1.391
  395XTA    CL344166  30.528  -0.633   1.501
  395XTA    CL444167  30.612  -0.526   1.434
  395XTA    CO344168  30.654  -0.412   1.523
  395XTA    OA344169  30.708  -0.294   1.463
  395XTA    CO444170  30.833  -0.307   1.406
  395XTA    CT144171  30.863  -0.194   1.307
  395XTA    CL544172  30.748  -0.168   1.194
  395XTA    CL644173  30.701  -0.281   1.101
  395XTA    OA444174  30.613  -0.025   0.378
  395XTA    CO544175  30.725  -0.098   0.322
  395XTA    CL744176  30.814   0.006   0.253
  395XTA    CL844177  30.878   0.094   0.361
  395XTA    CL944178  30.970   0.209   0.306
  395XTA   CL1044179  31.037   0.291   0.413
  395XTA    CO644180  30.930   0.361   0.493
  395XTA    OA544181  30.984   0.469   0.573
  395XTA    CO744182  30.886   0.532   0.657
  395XTA    CT244183  30.953   0.616   0.765
  395XTA   CL1144184  30.839   0.680   0.851
  395XTA   CL1244185  30.890   0.755   0.971
  395XTA    HL144186  29.609  -0.254   0.667
  395XTA    HL244187  29.647  -0.073   0.637
  395XTA    HL344188  29.545  -0.171   0.539
  395XTA    HL444189  30.313  -0.471   1.330
  395XTA    HL544190  30.189  -0.541   1.237
  395XTA    HL644191  30.264  -0.767   1.319
  395XTA    HL744192  30.266  -0.667   1.448
  395XTA    HL844193  30.525  -0.706   1.300
  395XTA    HL944194  30.470  -0.818   1.414
  395XTA   HL1044195  30.458  -0.593   1.567
  395XTA   HL1144196  30.580  -0.700   1.564
  395XTA   HL1244197  30.548  -0.475   1.359
  395XTA   HL1344198  30.692  -0.570   1.366
  395XTA   HL1444199  30.561  -0.387   1.576
  395XTA   HL1544200  30.736  -0.448   1.589
  395XTA   HL1644201  30.901  -0.297   1.495
  395XTA   HL1744202  30.854  -0.407   1.373
  395XTA   HL1844203  30.742  -0.069   1.144
  395XTA   HL1944204  30.652  -0.161   1.248
  395XTA   HL2044205  30.695  -0.376   1.158
  395XTA   HL2144206  30.773  -0.294   1.018
  395XTA   HL2244207  30.605  -0.261   1.054
  395XTA   HL2344208  30.689  -0.163   0.247
  395XTA   HL2444209  30.787  -0.161   0.380
  395XTA   HL2544210  30.888  -0.037   0.180
  395XTA   HL2644211  30.760   0.078   0.197
  395XTA   HL2744212  30.803   0.140   0.420
  395XTA   HL2844213  30.938   0.026   0.430
  395XTA   HL2944214  31.041   0.150   0.239
  395XTA   HL3044215  30.905   0.265   0.249
  395XTA   HL3144216  31.088   0.221   0.471
  395XTA   HL3244217  31.115   0.355   0.376
  395XTA   HL3344218  30.851   0.396   0.430
  395XTA   HL3444219  30.892   0.287   0.565
  395XTA   HL3544220  30.817   0.457   0.701
  395XTA   HL3644221  30.830   0.589   0.590
  395XTA   HL3744222  30.761   0.614   0.891
  395XTA   HL3844223  30.801   0.753   0.782
  395XTA   HL3944224  30.947   0.677   1.025
  395XTA   HL4044225  30.817   0.804   1.022
  395XTA   HL4144226  30.961   0.827   0.929
  395XTA    CO844227  30.999  -0.229   1.241
  395XTA    CO944228  30.879  -0.065   1.385
  395XTA    OA644229  30.946   0.047   1.327
  395XTA   HL4244230  31.073  -0.240   1.322
  395XTA   HL4344231  31.026  -0.135   1.188
  395XTA   HL4444232  31.127   0.759   0.772
  395XTA   HL4544233  31.116   0.680   0.614
  395XTA   CO1044234  31.052   0.724   0.697
  395XTA   CO1144235  31.044   0.517   0.851
  395XTA    OA744236  30.994   0.814   0.674
  395XTA   HL4644237  31.131   0.435   0.770
  395XTA   HL4744238  30.969   0.447   0.890
  395XTA   HL4844239  30.945  -0.081   1.471
  395XTA   HL4944240  30.783  -0.050   1.430
  396XTA     NT44241  28.215   2.235   5.884
  396XTA    CN144242  28.280   2.127   5.930
  396XTA     C144243  28.394   2.080   5.864
  396XTA     C244244  28.459   1.960   5.894
  396XTA     C344245  28.413   1.887   6.007
  396XTA     C444246  28.297   1.935   6.073
  396XTA     C544247  28.228   2.050   6.036
  396XTA    CN244248  28.101   2.219   5.830
  396XTA     C644249  28.087   2.183   5.690
  396XTA     C744250  27.966   2.159   5.633
  396XTA     C844251  27.850   2.178   5.711
  396XTA     C944252  27.859   2.211   5.855
  396XTA    C1044253  27.987   2.233   5.909
  396XTA    CN344254  28.284   2.351   5.858
  396XTA    C1144255  28.333   2.425   5.966
  396XTA    C1244256  28.432   2.521   5.938
  396XTA    C1344257  28.487   2.544   5.809
  396XTA    C1444258  28.437   2.462   5.707
  396XTA    C1544259  28.333   2.371   5.724
  396XTA     H144260  28.420   2.138   5.775
  396XTA     H244261  28.540   1.926   5.829
  396XTA     H344262  28.249   1.869   6.140
  396XTA     H444263  28.130   2.064   6.082
  396XTA     H544264  28.179   2.175   5.638
  396XTA     H644265  27.963   2.148   5.527
  396XTA     H744266  27.773   2.228   5.920
  396XTA     H844267  27.991   2.253   6.016
  396XTA     H944268  28.297   2.414   6.068
  396XTA    H1044269  28.464   2.577   6.019
  396XTA    H1144270  28.464   2.479   5.603
  396XTA    H1244271  28.290   2.331   5.639
  396XTA    OA144272  28.462   1.759   6.047
  396XTA    CO144273  28.543   1.684   5.955
  396XTA    OA244274  27.729   2.173   5.650
  396XTA    CO244275  27.693   2.041   5.608
  396XTA    CL144276  27.570   2.062   5.512
  396XTA    CL244277  27.598   2.146   5.385
  396XTA    CL344278  27.472   2.197   5.322
  396XTA    CL444279  27.368   2.085   5.286
  396XTA    CO344280  27.238   2.149   5.236
  396XTA    OA344281  27.191   2.249   5.325
  396XTA    CO444282  27.095   2.198   5.424
  396XTA    CT144283  27.104   2.286   5.556
  396XTA    CL544284  27.245   2.277   5.629
  396XTA    CL644285  27.279   2.138   5.677
  396XTA    OA444286  28.585   2.637   5.789
  396XTA    CO544287  28.690   2.622   5.877
  396XTA    CL744288  28.804   2.705   5.831
  396XTA    CL844289  28.818   2.700   5.673
  396XTA    CL944290  28.935   2.785   5.617
  396XTA   CL1044291  28.943   2.745   5.469
  396XTA    CO644292  29.020   2.847   5.382
  396XTA    OA544293  29.032   2.808   5.241
  396XTA    CO744294  28.926   2.853   5.158
  396XTA    CT244295  28.927   2.768   5.033
  396XTA   CL1144296  28.806   2.796   4.944
  396XTA   CL1244297  28.798   2.935   4.864
  396XTA    HL144298  28.471   1.646   5.874
  396XTA    HL244299  28.620   1.735   5.899
  396XTA    HL344300  28.599   1.599   6.005
  396XTA    HL444301  27.781   1.995   5.560
  396XTA    HL544302  27.666   1.974   5.688
  396XTA    HL644303  27.503   2.126   5.558
  396XTA    HL744304  27.516   1.972   5.495
  396XTA    HL844305  27.653   2.095   5.304
  396XTA    HL944306  27.670   2.216   5.422
  396XTA   HL1044307  27.412   2.265   5.391
  396XTA   HL1144308  27.509   2.252   5.240
  396XTA   HL1244309  27.348   2.024   5.377
  396XTA   HL1344310  27.423   2.033   5.201
  396XTA   HL1444311  27.262   2.212   5.145
  396XTA   HL1544312  27.163   2.077   5.191
  396XTA   HL1644313  26.997   2.200   5.377
  396XTA   HL1744314  27.133   2.095   5.453
  396XTA   HL1844315  27.237   2.346   5.712
  396XTA   HL1944316  27.321   2.306   5.554
  396XTA   HL2044317  27.365   2.126   5.744
  396XTA   HL2144318  27.300   2.067   5.597
  396XTA   HL2244319  27.206   2.098   5.740
  396XTA   HL2344320  28.720   2.521   5.874
  396XTA   HL2444321  28.671   2.655   5.984
  396XTA   HL2544322  28.799   2.807   5.842
  396XTA   HL2644323  28.890   2.676   5.885
  396XTA   HL2744324  28.831   2.600   5.645
  396XTA   HL2844325  28.723   2.729   5.622
  396XTA   HL2944326  28.909   2.893   5.635
  396XTA   HL3044327  29.031   2.750   5.667
  396XTA   HL3144328  28.993   2.649   5.455
  396XTA   HL3244329  28.843   2.737   5.419
  396XTA   HL3344330  28.991   2.951   5.401
  396XTA   HL3444331  29.118   2.851   5.426
  396XTA   HL3544332  28.932   2.961   5.146
  396XTA   HL3644333  28.826   2.831   5.195
  396XTA   HL3744334  28.713   2.770   4.989
  396XTA   HL3844335  28.811   2.713   4.875
  396XTA   HL3944336  28.878   2.941   4.789
  396XTA   HL4044337  28.804   3.025   4.930
  396XTA   HL4144338  28.700   2.946   4.817
  396XTA    CO844339  26.982   2.250   5.637
  396XTA    CO944340  27.084   2.435   5.526
  396XTA    OA644341  26.980   2.308   5.733
  396XTA   HL4244342  27.001   2.147   5.659
  396XTA   HL4344343  26.888   2.262   5.584
  396XTA   HL4444344  29.018   2.584   5.119
  396XTA   HL4544345  28.856   2.611   5.165
  396XTA   CO1044346  28.922   2.624   5.081
  396XTA   CO1144347  29.056   2.772   4.957
  396XTA    OA744348  28.879   2.532   4.981
  396XTA   HL4644349  29.126   2.697   4.989
  396XTA   HL4744350  29.113   2.854   4.989
  396XTA   HL4844351  27.081   2.520   5.641
  396XTA   HL4944352  27.177   2.473   5.475
  397XTA     NT44353  32.431   2.328   5.635
  397XTA    CN144354  32.544   2.271   5.587
  397XTA     C144355  32.537   2.161   5.493
  397XTA     C244356  32.652   2.101   5.436
  397XTA     C344357  32.779   2.147   5.472
  397XTA     C444358  32.792   2.262   5.554
  397XTA     C544359  32.678   2.324   5.608
  397XTA    CN244360  32.411   2.342   5.770
  397XTA     C644361  32.359   2.233   5.842
  397XTA     C744362  32.342   2.237   5.980
  397XTA     C844363  32.376   2.359   6.047
  397XTA     C944364  32.445   2.462   5.973
  397XTA    C1044365  32.458   2.455   5.836
  397XTA    CN344366  32.332   2.372   5.558
  397XTA    C1144367  32.330   2.500   5.500
  397XTA    C1244368  32.228   2.530   5.413
  397XTA    C1344369  32.130   2.432   5.380
  397XTA    C1444370  32.119   2.314   5.456
  397XTA    C1544371  32.225   2.279   5.541
  397XTA     H144372  32.442   2.134   5.462
  397XTA     H244373  32.652   2.010   5.372
  397XTA     H344374  32.895   2.289   5.577
  397XTA     H444375  32.698   2.406   5.670
  397XTA     H544376  32.319   2.142   5.800
  397XTA     H644377  32.304   2.162   6.040
  397XTA     H744378  32.488   2.548   6.024
  397XTA     H844379  32.499   2.544   5.791
  397XTA     H944380  32.407   2.580   5.517
  397XTA    H1044381  32.231   2.625   5.364
  397XTA    H1144382  32.041   2.245   5.434
  397XTA    H1244383  32.222   2.187   5.585
  397XTA    OA144384  32.897   2.083   5.429
  397XTA    CO144385  32.901   1.947   5.374
  397XTA    OA244386  32.347   2.366   6.180
  397XTA    CO244387  32.315   2.498   6.229
  397XTA    CL144388  32.180   2.540   6.173
  397XTA    CL244389  32.105   2.625   6.275
  397XTA    CL344390  31.959   2.653   6.242
  397XTA    CL444391  31.938   2.749   6.116
  397XTA    CO344392  31.982   2.892   6.142
  397XTA    OA344393  31.977   2.954   6.014
  397XTA    CO444394  32.027   3.085   6.014
  397XTA    CT144395  31.963   3.159   5.890
  397XTA    CL544396  32.009   3.304   5.877
  397XTA    CL644397  31.985   3.401   5.994
  397XTA    OA444398  32.045   2.468   5.283
  397XTA    CO544399  32.007   2.366   5.192
  397XTA    CL744400  31.863   2.393   5.136
  397XTA    CL844401  31.767   2.377   5.254
  397XTA    CL944402  31.620   2.424   5.235
  397XTA   CL1044403  31.612   2.560   5.169
  397XTA    CO644404  31.474   2.624   5.157
  397XTA    OA544405  31.440   2.652   5.293
  397XTA    CO744406  31.313   2.713   5.296
  397XTA    CT244407  31.234   2.682   5.430
  397XTA   CL1144408  31.204   2.538   5.465
  397XTA   CL1244409  31.325   2.435   5.461
  397XTA    HL144410  32.831   1.964   5.293
  397XTA    HL244411  32.993   1.930   5.331
  397XTA    HL344412  32.869   1.876   5.448
  397XTA    HL444413  32.307   2.483   6.332
  397XTA    HL544414  32.391   2.578   6.227
  397XTA    HL644415  32.106   2.468   6.139
  397XTA    HL744416  32.202   2.605   6.088
  397XTA    HL844417  32.148   2.720   6.289
  397XTA    HL944418  32.114   2.563   6.367
  397XTA   HL1044419  31.917   2.559   6.217
  397XTA   HL1144420  31.903   2.689   6.327
  397XTA   HL1244421  31.829   2.764   6.089
  397XTA   HL1344422  31.991   2.704   6.034
  397XTA   HL1444423  31.908   2.950   6.203
  397XTA   HL1544424  32.083   2.901   6.178
  397XTA   HL1644425  32.025   3.146   6.104
  397XTA   HL1744426  32.134   3.093   5.996
  397XTA   HL1844427  31.963   3.345   5.784
  397XTA   HL1944428  32.115   3.313   5.861
  397XTA   HL2044429  32.002   3.497   5.955
  397XTA   HL2144430  32.055   3.368   6.075
  397XTA   HL2244431  31.884   3.393   6.031
  397XTA   HL2344432  32.012   2.271   5.230
  397XTA   HL2444433  32.084   2.373   5.116
  397XTA   HL2544434  31.866   2.498   5.117
  397XTA   HL2644435  31.840   2.336   5.049
  397XTA   HL2744436  31.755   2.269   5.279
  397XTA   HL2844437  31.816   2.432   5.338
  397XTA   HL2944438  31.554   2.349   5.188
  397XTA   HL3044439  31.580   2.428   5.332
  397XTA   HL3144440  31.669   2.626   5.233
  397XTA   HL3244441  31.661   2.548   5.075
  397XTA   HL3344442  31.489   2.722   5.109
  397XTA   HL3444443  31.408   2.561   5.106
  397XTA   HL3544444  31.250   2.684   5.216
  397XTA   HL3644445  31.322   2.821   5.291
  397XTA   HL3744446  31.137   2.508   5.384
  397XTA   HL3844447  31.158   2.530   5.559
  397XTA   HL3944448  31.322   2.388   5.367
  397XTA   HL4044449  31.313   2.354   5.535
  397XTA   HL4144450  31.415   2.484   5.493
  397XTA    CO844451  31.809   3.150   5.882
  397XTA    CO944452  32.005   3.085   5.762
  397XTA    OA644453  32.136   3.105   5.732
  397XTA   HL4244454  31.786   3.045   5.863
  397XTA   HL4344455  31.765   3.180   5.977
  397XTA   HL4444456  31.017   2.707   5.542
  397XTA   HL4544457  31.039   2.703   5.341
  397XTA   CO1044458  31.095   2.742   5.427
  397XTA   CO1144459  31.295   2.756   5.547
  397XTA    OA744460  31.388   2.705   5.577
  397XTA   HL4644461  31.331   2.853   5.511
  397XTA   HL4744462  31.223   2.757   5.631
  397XTA   HL4844463  31.947   3.119   5.681
  397XTA   HL4944464  31.980   2.979   5.772
  398XTA     NT44465  32.641   0.864   1.292
  398XTA    CN144466  32.541   0.922   1.222
  398XTA     C144467  32.419   0.856   1.190
  398XTA     C244468  32.313   0.928   1.125
  398XTA     C344469  32.337   1.056   1.069
  398XTA     C444470  32.467   1.114   1.087
  398XTA     C544471  32.566   1.050   1.167
  398XTA    CN244472  32.678   0.739   1.262
  398XTA     C644473  32.629   0.622   1.325
  398XTA     C744474  32.685   0.497   1.281
  398XTA     C844475  32.794   0.490   1.195
  398XTA     C944476  32.839   0.604   1.134
  398XTA    C1044477  32.781   0.727   1.169
  398XTA    CN344478  32.693   0.923   1.402
  398XTA    C1144479  32.628   0.905   1.532
  398XTA    C1244480  32.681   0.964   1.645
  398XTA    C1344481  32.785   1.060   1.641
  398XTA    C1444482  32.837   1.084   1.508
  398XTA    C1544483  32.794   1.024   1.388
  398XTA     H144484  32.415   0.756   1.226
  398XTA     H244485  32.215   0.888   1.106
  398XTA     H344486  32.492   1.215   1.049
  398XTA     H444487  32.657   1.105   1.183
  398XTA     H544488  32.549   0.621   1.401
  398XTA     H644489  32.643   0.409   1.327
  398XTA     H744490  32.912   0.588   1.062
  398XTA     H844491  32.811   0.821   1.124
  398XTA     H944492  32.530   0.855   1.547
  398XTA    H1044493  32.622   0.960   1.742
  398XTA    H1144494  32.905   1.164   1.491
  398XTA    H1244495  32.839   1.053   1.291
  398XTA    OA144496  32.240   1.134   1.009
  398XTA    CO144497  32.119   1.067   0.968
  398XTA    OA244498  32.852   0.366   1.177
  398XTA    CO244499  32.975   0.345   1.110
  398XTA    CL144500  33.001   0.193   1.142
  398XTA    CL244501  33.130   0.143   1.081
  398XTA    CL344502  33.220   0.053   1.172
  398XTA    CL444503  33.280   0.141   1.280
  398XTA    CO344504  33.367   0.052   1.380
  398XTA    OA344505  33.412   0.131   1.490
  398XTA    CO444506  33.314   0.210   1.556
  398XTA    CT144507  33.368   0.272   1.692
  398XTA    CL544508  33.486   0.360   1.665
  398XTA    CL644509  33.616   0.292   1.673
  398XTA    OA444510  32.826   1.119   1.756
  398XTA    CO544511  32.958   1.166   1.766
  398XTA    CL744512  32.964   1.250   1.896
  398XTA    CL844513  33.090   1.337   1.921
  398XTA    CL944514  33.217   1.247   1.926
  398XTA   CL1044515  33.348   1.332   1.940
  398XTA    CO644516  33.473   1.249   1.934
  398XTA    OA544517  33.476   1.152   1.837
  398XTA    CO744518  33.495   1.217   1.711
  398XTA    CT244519  33.470   1.127   1.593
  398XTA   CL1144520  33.552   0.993   1.611
  398XTA   CL1244521  33.703   1.006   1.592
  398XTA    HL144522  32.136   0.979   0.909
  398XTA    HL244523  32.074   1.049   1.066
  398XTA    HL344524  32.058   1.125   0.905
  398XTA    HL444525  32.952   0.366   1.003
  398XTA    HL544526  33.054   0.410   1.148
  398XTA    HL644527  32.908   0.137   1.117
  398XTA    HL744528  33.016   0.185   1.252
  398XTA    HL844529  33.200   0.216   1.045
  398XTA    HL944530  33.104   0.095   0.982
  398XTA   HL1044531  33.170  -0.023   1.219
  398XTA   HL1144532  33.298   0.018   1.101
  398XTA   HL1244533  33.199   0.172   1.339
  398XTA   HL1344534  33.343   0.218   1.226
  398XTA   HL1444535  33.297  -0.018   1.424
  398XTA   HL1544536  33.450   0.009   1.330
  398XTA   HL1644537  33.270   0.288   1.494
  398XTA   HL1744538  33.231   0.141   1.580
  398XTA   HL1844539  33.499   0.439   1.746
  398XTA   HL1944540  33.480   0.422   1.580
  398XTA   HL2044541  33.697   0.365   1.693
  398XTA   HL2144542  33.649   0.230   1.586
  398XTA   HL2244543  33.635   0.227   1.763
  398XTA   HL2344544  32.988   1.228   1.687
  398XTA   HL2444545  33.031   1.086   1.758
  398XTA   HL2544546  32.876   1.311   1.919
  398XTA   HL2644547  32.968   1.172   1.979
  398XTA   HL2744548  33.103   1.417   1.846
  398XTA   HL2844549  33.076   1.401   2.013
  398XTA   HL2944550  33.208   1.171   2.007
  398XTA   HL3044551  33.233   1.189   1.835
  398XTA   HL3144552  33.341   1.412   1.859
  398XTA   HL3244553  33.344   1.387   2.033
  398XTA   HL3344554  33.558   1.315   1.917
  398XTA   HL3444555  33.490   1.203   2.032
  398XTA   HL3544556  33.597   1.260   1.710
  398XTA   HL3644557  33.432   1.305   1.702
  398XTA   HL3744558  33.522   0.919   1.542
  398XTA   HL3844559  33.545   0.951   1.711
  398XTA   HL3944560  33.734   1.094   1.643
  398XTA   HL4044561  33.721   1.027   1.485
  398XTA   HL4144562  33.757   0.924   1.636
  398XTA    CO844563  33.387   0.149   1.780
  398XTA    CO944564  33.255   0.354   1.756
  398XTA    OA644565  33.200   0.445   1.659
  398XTA   HL4244566  33.459   0.086   1.749
  398XTA   HL4344567  33.291   0.094   1.795
  398XTA   HL4444568  33.616   1.220   1.452
  398XTA   HL4544569  33.487   1.121   1.374
  398XTA   CO1044570  33.508   1.191   1.460
  398XTA   CO1144571  33.319   1.086   1.584
  398XTA    OA744572  33.439   1.316   1.438
  398XTA   HL4644573  33.311   1.012   1.672
  398XTA   HL4744574  33.263   1.179   1.600
  398XTA   HL4844575  33.288   0.417   1.844
  398XTA   HL4944576  33.171   0.289   1.789
  399XTA     NT44577  35.240  -1.364   3.026
  399XTA    CN144578  35.265  -1.495   3.025
  399XTA     C144579  35.170  -1.573   2.960
  399XTA     C244580  35.189  -1.712   2.951
  399XTA     C344581  35.305  -1.771   3.006
  399XTA     C444582  35.402  -1.687   3.059
  399XTA     C544583  35.384  -1.547   3.071
  399XTA    CN244584  35.144  -1.317   3.112
  399XTA     C644585  35.006  -1.303   3.080
  399XTA     C744586  34.922  -1.222   3.164
  399XTA     C844587  34.981  -1.163   3.275
  399XTA     C944588  35.116  -1.178   3.309
  399XTA    C1044589  35.196  -1.253   3.223
  399XTA    CN344590  35.305  -1.282   2.940
  399XTA    C1144591  35.269  -1.274   2.801
  399XTA    C1244592  35.344  -1.186   2.720
  399XTA    C1344593  35.448  -1.107   2.768
  399XTA    C1444594  35.477  -1.115   2.908
  399XTA    C1544595  35.403  -1.199   2.993
  399XTA     H144596  35.088  -1.533   2.909
  399XTA     H244597  35.124  -1.774   2.897
  399XTA     H344598  35.502  -1.724   3.093
  399XTA     H444599  35.464  -1.487   3.113
  399XTA     H544600  34.971  -1.357   2.999
  399XTA     H644601  34.816  -1.218   3.145
  399XTA     H744602  35.166  -1.141   3.399
  399XTA     H844603  35.298  -1.274   3.245
  399XTA     H944604  35.187  -1.326   2.758
  399XTA    H1044605  35.327  -1.162   2.617
  399XTA    H1144606  35.563  -1.074   2.950
  399XTA    H1244607  35.426  -1.216   3.102
  399XTA    OA144608  35.326  -1.901   2.987
  399XTA    CO144609  35.460  -1.948   3.012
  399XTA    OA244610  34.908  -1.081   3.359
  399XTA    CO244611  34.931  -1.094   3.495
  399XTA    CL144612  34.794  -1.149   3.554
  399XTA    CL244613  34.749  -1.281   3.502
  399XTA    CL344614  34.645  -1.347   3.588
  399XTA    CL444615  34.517  -1.275   3.607
  399XTA    CO344616  34.411  -1.353   3.692
  399XTA    OA344617  34.300  -1.268   3.714
  399XTA    CO444618  34.191  -1.293   3.617
  399XTA    CT144619  34.065  -1.221   3.660
  399XTA    CL544620  33.995  -1.294   3.775
  399XTA    CL644621  33.849  -1.250   3.790
  399XTA    OA444622  35.518  -1.036   2.670
  399XTA    CO544623  35.611  -0.955   2.729
  399XTA    CL744624  35.744  -1.021   2.746
  399XTA    CL844625  35.839  -0.941   2.827
  399XTA    CL944626  35.965  -1.020   2.857
  399XTA   CL1044627  36.101  -0.971   2.799
  399XTA    CO644628  36.219  -1.062   2.834
  399XTA    OA544629  36.281  -1.040   2.959
  399XTA    CO744630  36.341  -0.911   2.987
  399XTA    CT244631  36.391  -0.898   3.133
  399XTA   CL1144632  36.417  -0.746   3.163
  399XTA   CL1244633  36.455  -0.712   3.299
  399XTA    HL144634  35.459  -2.054   2.982
  399XTA    HL244635  35.545  -1.909   2.953
  399XTA    HL344636  35.504  -1.951   3.122
  399XTA    HL444637  35.004  -1.164   3.520
  399XTA    HL544638  34.963  -1.008   3.551
  399XTA    HL644639  34.722  -1.068   3.555
  399XTA    HL744640  34.818  -1.147   3.653
  399XTA    HL844641  34.838  -1.341   3.484
  399XTA    HL944642  34.701  -1.271   3.411
  399XTA   HL1044643  34.629  -1.443   3.536
  399XTA   HL1144644  34.681  -1.377   3.683
  399XTA   HL1244645  34.468  -1.279   3.506
  399XTA   HL1344646  34.529  -1.172   3.639
  399XTA   HL1444647  34.399  -1.452   3.643
  399XTA   HL1544648  34.450  -1.381   3.800
  399XTA   HL1644649  34.225  -1.273   3.515
  399XTA   HL1744650  34.165  -1.393   3.617
  399XTA   HL1844651  34.048  -1.289   3.866
  399XTA   HL1944652  34.001  -1.397   3.751
  399XTA   HL2044653  33.805  -1.207   3.705
  399XTA   HL2144654  33.856  -1.174   3.872
  399XTA   HL2244655  33.790  -1.334   3.831
  399XTA   HL2344656  35.574  -0.914   2.817
  399XTA   HL2444657  35.629  -0.868   2.658
  399XTA   HL2544658  35.731  -1.117   2.799
  399XTA   HL2644659  35.785  -1.045   2.646
  399XTA   HL2744660  35.849  -0.849   2.772
  399XTA   HL2844661  35.780  -0.929   2.914
  399XTA   HL2944662  35.988  -1.026   2.956
  399XTA   HL3044663  35.948  -1.124   2.830
  399XTA   HL3144664  36.075  -0.956   2.688
  399XTA   HL3244665  36.120  -0.870   2.834
  399XTA   HL3344666  36.182  -1.165   2.822
  399XTA   HL3444667  36.293  -1.053   2.757
  399XTA   HL3544668  36.258  -0.842   2.972
  399XTA   HL3644669  36.414  -0.880   2.905
  399XTA   HL3744670  36.327  -0.692   3.133
  399XTA   HL3844671  36.499  -0.703   3.102
  399XTA   HL3944672  36.381  -0.732   3.373
  399XTA   HL4044673  36.464  -0.604   3.303
  399XTA   HL4144674  36.558  -0.754   3.313
  399XTA    CO844675  33.983  -1.203   3.535
  399XTA    CO944676  34.098  -1.080   3.712
  399XTA    OA644677  33.949  -1.297   3.492
  399XTA   HL4244678  34.050  -1.145   3.465
  399XTA   HL4344679  33.900  -1.125   3.550
  399XTA   HL4444680  36.506  -1.096   3.131
  399XTA   HL4544681  36.600  -0.956   3.070
  399XTA   CO1044682  36.525  -0.989   3.146
  399XTA   CO1144683  36.284  -0.952   3.240
  399XTA    OA744684  36.570  -0.976   3.248
  399XTA   HL4644685  36.322  -0.963   3.379
  399XTA   HL4744686  36.239  -1.043   3.198
  399XTA   HL4844687  33.997  -1.031   3.793
  399XTA   HL4944688  34.184  -1.088   3.780
  400XTA     NT44689  26.690   0.088   7.548
  400XTA    CN144690  26.733   0.207   7.603
  400XTA     C144691  26.637   0.297   7.649
  400XTA     C244692  26.686   0.417   7.706
  400XTA     C344693  26.822   0.451   7.710
  400XTA     C444694  26.916   0.366   7.656
  400XTA     C544695  26.870   0.241   7.606
  400XTA    CN244696  26.714  -0.034   7.611
  400XTA     C644697  26.600  -0.124   7.635
  400XTA     C744698  26.617  -0.250   7.688
  400XTA     C844699  26.749  -0.302   7.708
  400XTA     C944700  26.858  -0.219   7.680
  400XTA    C1044701  26.846  -0.087   7.631
  400XTA    CN344702  26.672   0.091   7.414
  400XTA    C1144703  26.541   0.082   7.369
  400XTA    C1244704  26.511   0.074   7.228
  400XTA    C1344705  26.617   0.069   7.130
  400XTA    C1444706  26.748   0.075   7.184
  400XTA    C1544707  26.782   0.087   7.319
  400XTA     H144708  26.536   0.266   7.625
  400XTA     H244709  26.624   0.497   7.758
  400XTA     H344710  27.024   0.391   7.651
  400XTA     H444711  26.945   0.168   7.571
  400XTA     H544712  26.498  -0.089   7.607
  400XTA     H644713  26.536  -0.308   7.714
  400XTA     H744714  26.956  -0.261   7.703
  400XTA     H844715  26.934  -0.022   7.628
  400XTA     H944716  26.460   0.072   7.444
  400XTA    H1044717  26.407   0.053   7.203
  400XTA    H1144718  26.832   0.083   7.115
  400XTA    H1244719  26.884   0.089   7.360
  400XTA    OA144720  26.859   0.565   7.771
  400XTA    CO144721  26.996   0.591   7.799
  400XTA    OA244722  26.790  -0.424   7.759
  400XTA    CO244723  26.705  -0.471   7.862
  400XTA    CL144724  26.695  -0.381   7.985
  400XTA    CL244725  26.625  -0.457   8.102
  400XTA    CL344726  26.477  -0.509   8.069
  400XTA    CL444727  26.384  -0.406   7.992
  400XTA    CO344728  26.239  -0.439   7.980
  400XTA    OA344729  26.232  -0.580   7.943
  400XTA    CO444730  26.105  -0.625   7.899
  400XTA    CT144731  26.114  -0.781   7.846
  400XTA    CL544732  26.170  -0.872   7.958
  400XTA    CL644733  26.091  -0.879   8.088
  400XTA    OA444734  26.591   0.076   6.998
  400XTA    CO544735  26.647  -0.029   6.923
  400XTA    CL744736  26.571  -0.166   6.950
  400XTA    CL844737  26.652  -0.287   6.976
  400XTA    CL944738  26.699  -0.285   7.123
  400XTA   CL1044739  26.758  -0.418   7.161
  400XTA    CO644740  26.778  -0.428   7.313
  400XTA    OA544741  26.821  -0.562   7.342
  400XTA    CO744742  26.819  -0.587   7.486
  400XTA    CT244743  26.862  -0.729   7.511
  400XTA   CL1144744  26.849  -0.757   7.665
  400XTA   CL1244745  26.872  -0.905   7.714
  400XTA    HL144746  27.067   0.602   7.717
  400XTA    HL244747  26.996   0.684   7.845
  400XTA    HL344748  27.038   0.511   7.860
  400XTA    HL444749  26.612  -0.501   7.817
  400XTA    HL544750  26.757  -0.561   7.886
  400XTA    HL644751  26.640  -0.290   7.946
  400XTA    HL744752  26.794  -0.345   8.016
  400XTA    HL844753  26.596  -0.384   8.173
  400XTA    HL944754  26.698  -0.532   8.143
  400XTA   HL1044755  26.485  -0.592   7.997
  400XTA   HL1144756  26.429  -0.544   8.159
  400XTA   HL1244757  26.419  -0.412   7.894
  400XTA   HL1344758  26.398  -0.308   8.021
  400XTA   HL1444759  26.180  -0.415   8.065
  400XTA   HL1544760  26.212  -0.378   7.898
  400XTA   HL1644761  26.019  -0.612   7.968
  400XTA   HL1744762  26.078  -0.563   7.811
  400XTA   HL1844763  26.270  -0.832   7.979
  400XTA   HL1944764  26.192  -0.973   7.921
  400XTA   HL2044765  26.071  -0.784   8.125
  400XTA   HL2144766  26.143  -0.937   8.164
  400XTA   HL2244767  25.989  -0.927   8.063
  400XTA   HL2344768  26.751  -0.035   6.939
  400XTA   HL2444769  26.627  -0.011   6.815
  400XTA   HL2544770  26.489  -0.144   7.018
  400XTA   HL2644771  26.526  -0.194   6.851
  400XTA   HL2744772  26.581  -0.369   6.965
  400XTA   HL2844773  26.734  -0.295   6.903
  400XTA   HL2944774  26.759  -0.201   7.138
  400XTA   HL3044775  26.613  -0.260   7.186
  400XTA   HL3144776  26.693  -0.504   7.131
  400XTA   HL3244777  26.847  -0.436   7.104
  400XTA   HL3344778  26.850  -0.357   7.344
  400XTA   HL3444779  26.697  -0.408   7.381
  400XTA   HL3544780  26.713  -0.571   7.521
  400XTA   HL3644781  26.890  -0.514   7.532
  400XTA   HL3744782  26.754  -0.714   7.713
  400XTA   HL3844783  26.926  -0.696   7.713
  400XTA   HL3944784  26.957  -0.950   7.662
  400XTA   HL4044785  26.788  -0.964   7.694
  400XTA   HL4144786  26.870  -0.909   7.820
  400XTA    CO844787  26.191  -0.809   7.719
  400XTA    CO944788  25.971  -0.830   7.821
  400XTA    OA644789  26.298  -0.775   7.738
  400XTA   HL4244790  26.142  -0.751   7.643
  400XTA   HL4344791  26.191  -0.914   7.693
  400XTA   HL4444792  27.025  -0.863   7.470
  400XTA   HL4544793  27.006  -0.726   7.359
  400XTA   CO1044794  27.007  -0.759   7.465
  400XTA   CO1144795  26.775  -0.820   7.422
  400XTA    OA744796  27.083  -0.697   7.523
  400XTA   HL4644797  26.805  -0.957   7.451
  400XTA   HL4744798  26.791  -0.798   7.313
  400XTA   HL4844799  25.878  -0.779   7.912
  400XTA   HL4944800  25.960  -0.944   7.824
  401XTA     NT44801  31.652   1.754  -1.755
  401XTA    CN144802  31.668   1.695  -1.874
  401XTA     C144803  31.776   1.736  -1.959
  401XTA     C244804  31.781   1.688  -2.092
  401XTA     C344805  31.677   1.617  -2.153
  401XTA     C444806  31.567   1.582  -2.067
  401XTA     C544807  31.559   1.627  -1.937
  401XTA    CN244808  31.609   1.683  -1.646
  401XTA     C644809  31.477   1.684  -1.600
  401XTA     C744810  31.433   1.606  -1.484
  401XTA     C844811  31.532   1.541  -1.408
  401XTA     C944812  31.664   1.546  -1.455
  401XTA    C1044813  31.703   1.607  -1.576
  401XTA    CN344814  31.670   1.890  -1.751
  401XTA    C1144815  31.775   1.945  -1.668
  401XTA    C1244816  31.789   2.086  -1.660
  401XTA    C1344817  31.698   2.170  -1.730
  401XTA    C1444818  31.598   2.114  -1.811
  401XTA    C1544819  31.584   1.978  -1.820
  401XTA     H144820  31.852   1.806  -1.920
  401XTA     H244821  31.863   1.713  -2.160
  401XTA     H344822  31.489   1.522  -2.114
  401XTA     H444823  31.469   1.616  -1.871
  401XTA     H544824  31.409   1.742  -1.654
  401XTA     H644825  31.329   1.604  -1.463
  401XTA     H744826  31.739   1.495  -1.398
  401XTA     H844827  31.805   1.597  -1.609
  401XTA     H944828  31.824   1.877  -1.607
  401XTA    H1044829  31.866   2.124  -1.590
  401XTA    H1144830  31.533   2.186  -1.860
  401XTA    H1244831  31.516   1.935  -1.890
  401XTA    OA144832  31.684   1.583  -2.288
  401XTA    CO144833  31.592   1.488  -2.344
  401XTA    OA244834  31.520   1.496  -1.282
  401XTA    CO244835  31.414   1.406  -1.277
  401XTA    CL144836  31.373   1.376  -1.130
  401XTA    CL244837  31.267   1.266  -1.118
  401XTA    CL344838  31.309   1.128  -1.172
  401XTA    CL444839  31.420   1.054  -1.092
  401XTA    CO344840  31.448   0.926  -1.170
  401XTA    OA344841  31.491   0.939  -1.297
  401XTA    CO444842  31.613   0.996  -1.313
  401XTA    CT144843  31.643   1.014  -1.459
  401XTA    CL544844  31.672   0.879  -1.528
  401XTA    CL644845  31.559   0.788  -1.559
  401XTA    OA444846  31.704   2.309  -1.702
  401XTA    CO544847  31.730   2.406  -1.810
  401XTA    CL744848  31.630   2.517  -1.828
  401XTA    CL844849  31.495   2.467  -1.887
  401XTA    CL944850  31.405   2.409  -1.777
  401XTA   CL1044851  31.331   2.522  -1.700
  401XTA    CO644852  31.222   2.471  -1.604
  401XTA    OA544853  31.298   2.434  -1.497
  401XTA    CO744854  31.229   2.341  -1.409
  401XTA    CT244855  31.314   2.309  -1.286
  401XTA   CL1144856  31.447   2.254  -1.325
  401XTA   CL1244857  31.450   2.147  -1.435
  401XTA    HL144858  31.497   1.525  -2.368
  401XTA    HL244859  31.639   1.458  -2.438
  401XTA    HL344860  31.586   1.392  -2.287
  401XTA    HL444861  31.321   1.456  -1.316
  401XTA    HL544862  31.416   1.315  -1.334
  401XTA    HL644863  31.336   1.467  -1.077
  401XTA    HL744864  31.465   1.349  -1.076
  401XTA    HL844865  31.172   1.299  -1.163
  401XTA    HL944866  31.251   1.261  -1.013
  401XTA   HL1044867  31.234   1.055  -1.154
  401XTA   HL1144868  31.308   1.124  -1.285
  401XTA   HL1244869  31.387   1.042  -0.993
  401XTA   HL1344870  31.503   1.120  -1.079
  401XTA   HL1444871  31.525   0.874  -1.113
  401XTA   HL1544872  31.368   0.853  -1.161
  401XTA   HL1644873  31.619   1.097  -1.273
  401XTA   HL1744874  31.690   0.950  -1.254
  401XTA   HL1844875  31.744   0.834  -1.464
  401XTA   HL1944876  31.729   0.899  -1.617
  401XTA   HL2044877  31.471   0.823  -1.497
  401XTA   HL2144878  31.584   0.685  -1.526
  401XTA   HL2244879  31.528   0.770  -1.662
  401XTA   HL2344880  31.727   2.357  -1.911
  401XTA   HL2444881  31.825   2.447  -1.806
  401XTA   HL2544882  31.615   2.560  -1.729
  401XTA   HL2644883  31.659   2.595  -1.893
  401XTA   HL2744884  31.458   2.554  -1.942
  401XTA   HL2844885  31.513   2.393  -1.969
  401XTA   HL2944886  31.326   2.348  -1.813
  401XTA   HL3044887  31.457   2.346  -1.702
  401XTA   HL3144888  31.408   2.585  -1.653
  401XTA   HL3244889  31.277   2.583  -1.770
  401XTA   HL3344890  31.146   2.539  -1.565
  401XTA   HL3444891  31.170   2.390  -1.653
  401XTA   HL3544892  31.180   2.264  -1.460
  401XTA   HL3644893  31.148   2.403  -1.379
  401XTA   HL3744894  31.494   2.215  -1.237
  401XTA   HL3844895  31.519   2.336  -1.348
  401XTA   HL3944896  31.558   2.132  -1.456
  401XTA   HL4044897  31.414   2.188  -1.524
  401XTA   HL4144898  31.410   2.048  -1.402
  401XTA    CO844899  31.773   1.095  -1.461
  401XTA    CO944900  31.537   1.091  -1.532
  401XTA    OA644901  31.823   1.119  -1.587
  401XTA   HL4244902  31.847   1.043  -1.398
  401XTA   HL4344903  31.776   1.193  -1.412
  401XTA   HL4444904  31.320   2.218  -1.096
  401XTA   HL4544905  31.149   2.252  -1.147
  401XTA   CO1044906  31.253   2.216  -1.181
  401XTA   CO1144907  31.336   2.436  -1.201
  401XTA    OA744908  31.240   2.089  -1.236
  401XTA   HL4644909  31.244   2.499  -1.211
  401XTA   HL4744910  31.416   2.493  -1.253
  401XTA   HL4844911  31.443   1.033  -1.522
  401XTA   HL4944912  31.519   1.193  -1.472
  402XTA     NT44913  31.681   1.899  -0.224
  402XTA    CN144914  31.710   1.958  -0.107
  402XTA     C144915  31.837   1.937  -0.040
  402XTA     C244916  31.861   2.001   0.082
  402XTA     C344917  31.761   2.088   0.131
  402XTA     C444918  31.642   2.108   0.063
  402XTA     C544919  31.611   2.045  -0.059
  402XTA    CN244920  31.606   1.782  -0.222
  402XTA     C644921  31.672   1.663  -0.250
  402XTA     C744922  31.614   1.533  -0.249
  402XTA     C844923  31.476   1.525  -0.228
  402XTA     C944924  31.407   1.645  -0.189
  402XTA    C1044925  31.471   1.773  -0.190
  402XTA    CN344926  31.734   1.951  -0.336
  402XTA    C1144927  31.648   1.991  -0.441
  402XTA    C1244928  31.701   2.039  -0.564
  402XTA    C1344929  31.844   2.051  -0.580
  402XTA    C1444930  31.924   2.028  -0.467
  402XTA    C1544931  31.873   1.975  -0.350
  402XTA     H144932  31.915   1.871  -0.087
  402XTA     H244933  31.949   1.972   0.136
  402XTA     H344934  31.566   2.174   0.101
  402XTA     H444935  31.513   2.068  -0.109
  402XTA     H544936  31.776   1.671  -0.284
  402XTA     H644937  31.671   1.438  -0.257
  402XTA     H744938  31.300   1.649  -0.156
  402XTA     H844939  31.409   1.863  -0.169
  402XTA     H944940  31.542   1.991  -0.422
  402XTA    H1044941  31.620   2.058  -0.637
  402XTA    H1144942  32.028   2.046  -0.488
  402XTA    H1244943  31.935   1.948  -0.258
  402XTA    OA144944  31.789   2.163   0.247
  402XTA    CO144945  31.690   2.238   0.313
  402XTA    OA244946  31.416   1.404  -0.247
  402XTA    CO244947  31.283   1.413  -0.292
  402XTA    CL144948  31.231   1.270  -0.303
  402XTA    CL244949  31.221   1.191  -0.171
  402XTA    CL344950  31.135   1.063  -0.193
  402XTA    CL444951  31.212   0.953  -0.282
  402XTA    CO344952  31.134   0.820  -0.274
  402XTA    OA344953  31.178   0.719  -0.365
  402XTA    CO444954  31.111   0.595  -0.347
  402XTA    CT144955  31.167   0.490  -0.453
  402XTA    CL544956  31.177   0.559  -0.594
  402XTA    CL644957  31.041   0.589  -0.654
  402XTA    OA444958  31.903   2.087  -0.702
  402XTA    CO544959  31.805   2.097  -0.809
  402XTA    CL744960  31.875   2.090  -0.945
  402XTA    CL844961  31.775   2.096  -1.060
  402XTA    CL944962  31.647   2.015  -1.062
  402XTA   CL1044963  31.651   1.866  -1.037
  402XTA    CO644964  31.552   1.775  -1.110
  402XTA    OA544965  31.415   1.816  -1.091
  402XTA    CO744966  31.339   1.797  -1.202
  402XTA    CT244967  31.199   1.849  -1.165
  402XTA   CL1144968  31.101   1.810  -1.271
  402XTA   CL1244969  31.140   1.837  -1.409
  402XTA    HL144970  31.643   2.317   0.258
  402XTA    HL244971  31.616   2.163   0.335
  402XTA    HL344972  31.736   2.280   0.401
  402XTA    HL444973  31.214   1.475  -0.231
  402XTA    HL544974  31.279   1.465  -0.389
  402XTA    HL644975  31.301   1.221  -0.369
  402XTA    HL744976  31.139   1.258  -0.359
  402XTA    HL844977  31.160   1.256  -0.108
  402XTA    HL944978  31.323   1.178  -0.126
  402XTA   HL1044979  31.126   1.019  -0.095
  402XTA   HL1144980  31.040   1.084  -0.230
  402XTA   HL1244981  31.309   0.930  -0.249
  402XTA   HL1344982  31.218   0.990  -0.382
  402XTA   HL1444983  31.142   0.771  -0.178
  402XTA   HL1544984  31.029   0.837  -0.298
  402XTA   HL1644985  31.131   0.545  -0.250
  402XTA   HL1744986  31.002   0.586  -0.361
  402XTA   HL1844987  31.222   0.493  -0.659
  402XTA   HL1944988  31.248   0.642  -0.585
  402XTA   HL2044989  30.977   0.497  -0.661
  402XTA   HL2144990  31.073   0.631  -0.748
  402XTA   HL2244991  30.989   0.671  -0.599
  402XTA   HL2344992  31.731   2.178  -0.785
  402XTA   HL2444993  31.752   1.997  -0.810
  402XTA   HL2544994  31.954   2.169  -0.958
  402XTA   HL2644995  31.925   1.994  -0.953
  402XTA   HL2744996  31.746   2.200  -1.057
  402XTA   HL2844997  31.835   2.075  -1.151
  402XTA   HL2944998  31.566   2.070  -1.015
  402XTA   HL3044999  31.625   2.030  -1.165
  402XTA   HL3145000  31.751   1.832  -1.061
  402XTA   HL3245001  31.644   1.844  -0.930
  402XTA   HL3345002  31.587   1.777  -1.216
  402XTA   HL3445003  31.555   1.679  -1.079
  402XTA   HL3545004  31.335   1.686  -1.227
  402XTA   HL3645005  31.379   1.858  -1.283
  402XTA   HL3745006  31.001   1.843  -1.251
  402XTA   HL3845007  31.078   1.706  -1.267
  402XTA   HL3945008  31.233   1.899  -1.422
  402XTA   HL4045009  31.055   1.889  -1.446
  402XTA   HL4145010  31.156   1.747  -1.463
  402XTA    CO845011  31.077   0.370  -0.463
  402XTA    CO945012  31.307   0.439  -0.411
  402XTA    OA645013  31.386   0.520  -0.423
  402XTA   HL4245014  30.973   0.402  -0.461
  402XTA   HL4345015  31.108   0.296  -0.582
  402XTA   HL4445016  31.275   2.003  -1.017
  402XTA   HL4545017  31.100   2.032  -1.117
  402XTA   CO1045018  31.201   1.995  -1.137
  402XTA   CO1145019  31.155   1.776  -1.032
  402XTA    OA745020  31.054   1.807  -0.993
  402XTA   HL4645021  31.155   1.668  -1.055
  402XTA   HL4745022  31.239   1.806  -0.965
  402XTA   HL4845023  31.345   0.348  -0.463
  402XTA   HL4945024  31.302   0.410  -0.307
  403XTA     NT45025  26.770   0.249   4.812
  403XTA    CN145026  26.899   0.242   4.770
  403XTA     C145027  26.927   0.184   4.645
  403XTA     C245028  27.057   0.176   4.594
  403XTA     C345029  27.165   0.217   4.675
  403XTA     C445030  27.139   0.284   4.794
  403XTA     C545031  27.006   0.290   4.850
  403XTA    CN245032  26.731   0.174   4.921
  403XTA     C645033  26.698   0.035   4.903
  403XTA     C745034  26.634  -0.041   4.997
  403XTA     C845035  26.631   0.011   5.130
  403XTA     C945036  26.662   0.149   5.150
  403XTA    C1045037  26.714   0.228   5.046
  403XTA    CN345038  26.679   0.314   4.733
  403XTA    C1145039  26.604   0.239   4.645
  403XTA    C1245040  26.518   0.311   4.559
  403XTA    C1345041  26.510   0.450   4.563
  403XTA    C1445042  26.595   0.522   4.652
  403XTA    C1545043  26.676   0.452   4.737
  403XTA     H145044  26.842   0.140   4.590
  403XTA     H245045  27.067   0.111   4.513
  403XTA     H345046  27.223   0.314   4.848
  403XTA     H445047  27.004   0.338   4.945
  403XTA     H545048  26.716  -0.001   4.803
  403XTA     H645049  26.620  -0.145   4.967
  403XTA     H745050  26.646   0.185   5.251
  403XTA     H845051  26.732   0.336   5.069
  403XTA     H945052  26.603   0.128   4.631
  403XTA    H1045053  26.467   0.246   4.498
  403XTA    H1145054  26.585   0.634   4.657
  403XTA    H1245055  26.733   0.502   4.817
  403XTA    OA145056  27.298   0.208   4.642
  403XTA    CO145057  27.326   0.124   4.526
  403XTA    OA245058  26.591  -0.062   5.236
  403XTA    CO245059  26.521  -0.192   5.206
  403XTA    CL145060  26.391  -0.179   5.133
  403XTA    CL245061  26.279  -0.146   5.231
  403XTA    CL345062  26.150  -0.118   5.155
  403XTA    CL445063  26.110  -0.223   5.050
  403XTA    CO345064  26.019  -0.177   4.936
  403XTA    OA345065  25.896  -0.127   4.980
  403XTA    CO445066  25.816  -0.216   5.054
  403XTA    CT145067  25.681  -0.163   5.090
  403XTA    CL545068  25.693  -0.053   5.196
  403XTA    CL645069  25.746  -0.083   5.334
  403XTA    OA445070  26.421   0.504   4.474
  403XTA    CO545071  26.351   0.615   4.530
  403XTA    CL745072  26.247   0.577   4.637
  403XTA    CL845073  26.184   0.713   4.683
  403XTA    CL945074  26.275   0.819   4.760
  403XTA   CL1045075  26.188   0.947   4.800
  403XTA    CO645076  26.121   1.010   4.675
  403XTA    OA545077  26.226   1.035   4.577
  403XTA    CO745078  26.184   1.050   4.439
  403XTA    CT245079  26.249   1.173   4.372
  403XTA   CL1145080  26.212   1.178   4.221
  403XTA   CL1245081  26.074   1.229   4.191
  403XTA    HL145082  27.308   0.018   4.529
  403XTA    HL245083  27.272   0.170   4.441
  403XTA    HL345084  27.435   0.144   4.497
  403XTA    HL445085  26.597  -0.237   5.132
  403XTA    HL545086  26.504  -0.262   5.285
  403XTA    HL645087  26.385  -0.272   5.080
  403XTA    HL745088  26.407  -0.098   5.058
  403XTA    HL845089  26.305  -0.064   5.294
  403XTA    HL945090  26.268  -0.227   5.305
  403XTA   HL1045091  26.063  -0.085   5.213
  403XTA   HL1145092  26.156  -0.029   5.090
  403XTA   HL1245093  26.077  -0.314   5.102
  403XTA   HL1345094  26.206  -0.249   5.004
  403XTA   HL1445095  26.054  -0.105   4.865
  403XTA   HL1545096  25.986  -0.260   4.874
  403XTA   HL1645097  25.794  -0.295   4.981
  403XTA   HL1745098  25.857  -0.261   5.143
  403XTA   HL1845099  25.604   0.007   5.201
  403XTA   HL1945100  25.741   0.034   5.152
  403XTA   HL2045101  25.832  -0.143   5.334
  403XTA   HL2145102  25.671  -0.131   5.393
  403XTA   HL2245103  25.760   0.004   5.401
  403XTA   HL2345104  26.303   0.661   4.443
  403XTA   HL2445105  26.420   0.696   4.559
  403XTA   HL2545106  26.179   0.501   4.601
  403XTA   HL2645107  26.296   0.533   4.723
  403XTA   HL2745108  26.167   0.761   4.581
  403XTA   HL2845109  26.088   0.702   4.735
  403XTA   HL2945110  26.302   0.768   4.854
  403XTA   HL3045111  26.369   0.836   4.710
  403XTA   HL3145112  26.107   0.919   4.871
  403XTA   HL3245113  26.261   1.020   4.833
  403XTA   HL3345114  26.037   0.962   4.636
  403XTA   HL3445115  26.087   1.106   4.703
  403XTA   HL3545116  26.077   1.065   4.426
  403XTA   HL3645117  26.205   0.956   4.387
  403XTA   HL3745118  26.227   1.077   4.174
  403XTA   HL3845119  26.280   1.250   4.170
  403XTA   HL3945120  26.036   1.220   4.088
  403XTA   HL4045121  26.063   1.338   4.211
  403XTA   HL4145122  25.997   1.192   4.255
  403XTA    CO845123  25.593  -0.280   5.142
  403XTA    CO945124  25.633  -0.113   4.951
  403XTA    OA645125  25.596  -0.370   5.077
  403XTA   HL4245126  25.490  -0.247   5.163
  403XTA   HL4345127  25.633  -0.311   5.241
  403XTA   HL4445128  26.451   1.231   4.349
  403XTA   HL4545129  26.437   1.128   4.483
  403XTA   CO1045130  26.400   1.147   4.381
  403XTA   CO1145131  26.232   1.307   4.453
  403XTA    OA745132  26.429   1.054   4.322
  403XTA   HL4645133  26.307   1.413   4.394
  403XTA   HL4745134  26.282   1.292   4.554
  403XTA   HL4845135  25.707  -0.008   4.903
  403XTA   HL4945136  25.646  -0.201   4.885
  404XTA     NT45137  29.226  -0.204   4.883
  404XTA    CN145138  29.328  -0.286   4.857
  404XTA     C145139  29.297  -0.420   4.823
  404XTA     C245140  29.404  -0.516   4.802
  404XTA     C345141  29.538  -0.468   4.804
  404XTA     C445142  29.561  -0.337   4.845
  404XTA     C545143  29.460  -0.247   4.861
  404XTA    CN245144  29.188  -0.176   5.008
  404XTA     C645145  29.147  -0.275   5.099
  404XTA     C745146  29.106  -0.241   5.226
  404XTA     C845147  29.093  -0.108   5.271
  404XTA     C945148  29.127  -0.008   5.180
  404XTA    C1045149  29.170  -0.042   5.051
  404XTA    CN345150  29.157  -0.152   4.772
  404XTA    C1145151  29.218  -0.068   4.676
  404XTA    C1245152  29.137  -0.026   4.561
  404XTA    C1345153  29.003  -0.062   4.546
  404XTA    C1445154  28.942  -0.142   4.647
  404XTA    C1545155  29.021  -0.181   4.758
  404XTA     H145156  29.200  -0.457   4.802
  404XTA     H245157  29.386  -0.619   4.800
  404XTA     H345158  29.667  -0.304   4.847
  404XTA     H445159  29.475  -0.145   4.886
  404XTA     H545160  29.153  -0.381   5.071
  404XTA     H645161  29.079  -0.321   5.291
  404XTA     H745162  29.105   0.089   5.206
  404XTA     H845163  29.197   0.029   4.975
  404XTA     H945164  29.316  -0.025   4.678
  404XTA    H1045165  29.187   0.036   4.487
  404XTA    H1145166  28.833  -0.154   4.652
  404XTA    H1245167  28.972  -0.241   4.830
  404XTA    OA145168  29.642  -0.552   4.776
  404XTA    CO145169  29.615  -0.685   4.738
  404XTA    OA245170  29.045  -0.090   5.400
  404XTA    CO245171  29.019   0.035   5.449
  404XTA    CL145172  29.006   0.017   5.597
  404XTA    CL245173  28.959   0.140   5.677
  404XTA    CL345174  28.898   0.102   5.806
  404XTA    CL445175  28.985   0.041   5.910
  404XTA    CO345176  28.925   0.027   6.053
  404XTA    OA345177  29.039  -0.040   6.109
  404XTA    CO445178  29.006  -0.117   6.228
  404XTA    CT145179  29.114  -0.221   6.249
  404XTA    CL545180  29.253  -0.164   6.263
  404XTA    CL645181  29.276  -0.066   6.379
  404XTA    OA445182  28.928  -0.008   4.443
  404XTA    CO545183  28.991   0.048   4.328
  404XTA    CL745184  28.891   0.079   4.213
  404XTA    CL845185  28.769   0.146   4.264
  404XTA    CL945186  28.715   0.252   4.161
  404XTA   CL1045187  28.623   0.360   4.227
  404XTA    CO645188  28.527   0.411   4.119
  404XTA    OA545189  28.611   0.453   4.006
  404XTA    CO745190  28.551   0.457   3.877
  404XTA    CT245191  28.647   0.522   3.773
  404XTA   CL1145192  28.675   0.667   3.813
  404XTA   CL1245193  28.778   0.691   3.917
  404XTA    HL145194  29.576  -0.739   4.823
  404XTA    HL245195  29.556  -0.698   4.652
  404XTA    HL345196  29.711  -0.730   4.711
  404XTA    HL445197  29.102   0.091   5.421
  404XTA    HL545198  28.925   0.079   5.411
  404XTA    HL645199  29.099  -0.028   5.641
  404XTA    HL745200  28.925  -0.054   5.597
  404XTA    HL845201  28.876   0.177   5.617
  404XTA    HL945202  29.038   0.211   5.687
  404XTA   HL1045203  28.861   0.195   5.855
  404XTA   HL1145204  28.813   0.037   5.788
  404XTA   HL1245205  29.070   0.110   5.914
  404XTA   HL1345206  29.029  -0.054   5.881
  404XTA   HL1445207  28.922   0.117   6.106
  404XTA   HL1545208  28.825  -0.022   6.053
  404XTA   HL1645209  29.010  -0.044   6.301
  404XTA   HL1745210  28.904  -0.159   6.227
  404XTA   HL1845211  29.271  -0.110   6.170
  404XTA   HL1945212  29.322  -0.243   6.275
  404XTA   HL2045213  29.366  -0.007   6.369
  404XTA   HL2145214  29.277  -0.122   6.473
  404XTA   HL2245215  29.191  -0.004   6.379
  404XTA   HL2345216  29.064  -0.036   4.282
  404XTA   HL2445217  29.055   0.130   4.355
  404XTA   HL2545218  28.943   0.128   4.132
  404XTA   HL2645219  28.848  -0.020   4.186
  404XTA   HL2745220  28.692   0.077   4.298
  404XTA   HL2845221  28.786   0.203   4.360
  404XTA   HL2945222  28.786   0.304   4.098
  404XTA   HL3045223  28.656   0.184   4.092
  404XTA   HL3145224  28.569   0.321   4.309
  404XTA   HL3245225  28.692   0.429   4.275
  404XTA   HL3345226  28.453   0.346   4.073
  404XTA   HL3445227  28.470   0.496   4.157
  404XTA   HL3545228  28.455   0.512   3.890
  404XTA   HL3645229  28.524   0.357   3.848
  404XTA   HL3745230  28.583   0.709   3.852
  404XTA   HL3845231  28.723   0.720   3.729
  404XTA   HL3945232  28.737   0.656   4.016
  404XTA   HL4045233  28.808   0.795   3.920
  404XTA   HL4145234  28.869   0.625   3.904
  404XTA    CO845235  29.106  -0.314   6.129
  404XTA    CO945236  29.092  -0.319   6.367
  404XTA    OA645237  29.211  -0.413   6.117
  404XTA   HL4245238  29.114  -0.247   6.043
  404XTA   HL4345239  29.014  -0.364   6.126
  404XTA   HL4445240  28.644   0.567   3.559
  404XTA   HL4545241  28.559   0.417   3.611
  404XTA   CO1045242  28.577   0.524   3.634
  404XTA   CO1145243  28.774   0.440   3.770
  404XTA    OA745244  28.479   0.576   3.635
  404XTA   HL4645245  28.823   0.438   3.900
  404XTA   HL4745246  28.853   0.501   3.712
  404XTA   HL4845247  29.119  -0.278   6.461
  404XTA   HL4945248  29.165  -0.405   6.362
  405XTA     NT45249  29.420   3.004   2.220
  405XTA    CN145250  29.492   2.967   2.114
  405XTA     C145251  29.577   2.857   2.126
  405XTA     C245252  29.656   2.814   2.013
  405XTA     C345253  29.645   2.885   1.886
  405XTA     C445254  29.551   2.994   1.878
  405XTA     C545255  29.474   3.029   1.991
  405XTA    CN245256  29.380   3.135   2.238
  405XTA     C645257  29.262   3.183   2.184
  405XTA     C745258  29.220   3.315   2.196
  405XTA     C845259  29.290   3.397   2.291
  405XTA     C945260  29.407   3.351   2.355
  405XTA    C1045261  29.462   3.220   2.322
  405XTA    CN345262  29.345   2.917   2.291
  405XTA    C1145263  29.368   2.902   2.427
  405XTA    C1245264  29.277   2.830   2.508
  405XTA    C1345265  29.165   2.771   2.450
  405XTA    C1445266  29.147   2.784   2.314
  405XTA    C1545267  29.236   2.856   2.228
  405XTA     H145268  29.579   2.800   2.223
  405XTA     H245269  29.716   2.724   2.019
  405XTA     H345270  29.550   3.060   1.792
  405XTA     H445271  29.401   3.112   1.978
  405XTA     H545272  29.204   3.115   2.122
  405XTA     H645273  29.142   3.353   2.135
  405XTA     H745274  29.458   3.418   2.418
  405XTA     H845275  29.559   3.178   2.363
  405XTA     H945276  29.453   2.959   2.463
  405XTA    H1045277  29.301   2.800   2.608
  405XTA    H1145278  29.052   2.734   2.275
  405XTA    H1245279  29.216   2.861   2.119
  405XTA    OA145280  29.722   2.837   1.787
  405XTA    CO145281  29.728   2.908   1.662
  405XTA    OA245282  29.254   3.527   2.328
  405XTA    CO245283  29.130   3.572   2.281
  405XTA    CL145284  29.009   3.498   2.345
  405XTA    CL245285  29.033   3.492   2.490
  405XTA    CL345286  29.048   3.354   2.555
  405XTA    CL445287  28.916   3.270   2.545
  405XTA    CO345288  28.934   3.117   2.595
  405XTA    OA345289  28.966   3.122   2.731
  405XTA    CO445290  29.006   2.995   2.785
  405XTA    CT145291  29.078   3.006   2.924
  405XTA    CL545292  29.109   2.868   2.977
  405XTA    CL645293  29.154   2.775   2.867
  405XTA    OA445294  29.082   2.697   2.524
  405XTA    CO545295  28.941   2.728   2.513
  405XTA    CL745296  28.857   2.672   2.632
  405XTA    CL845297  28.861   2.514   2.621
  405XTA    CL945298  28.805   2.425   2.741
  405XTA   CL1045299  28.660   2.451   2.770
  405XTA    CO645300  28.576   2.380   2.665
  405XTA    OA545301  28.455   2.449   2.627
  405XTA    CO745302  28.463   2.580   2.582
  405XTA    CT245303  28.341   2.628   2.499
  405XTA   CL1145304  28.326   2.785   2.505
  405XTA   CL1245305  28.459   2.860   2.489
  405XTA    HL145306  29.624   2.907   1.643
  405XTA    HL245307  29.765   3.008   1.686
  405XTA    HL345308  29.779   2.856   1.579
  405XTA    HL445309  29.133   3.664   2.332
  405XTA    HL545310  29.121   3.601   2.179
  405XTA    HL645311  28.992   3.400   2.302
  405XTA    HL745312  28.918   3.549   2.319
  405XTA    HL845313  28.959   3.549   2.540
  405XTA    HL945314  29.129   3.539   2.508
  405XTA   HL1045315  29.138   3.303   2.508
  405XTA   HL1145316  29.069   3.360   2.665
  405XTA   HL1245317  28.866   3.279   2.448
  405XTA   HL1345318  28.840   3.310   2.611
  405XTA   HL1445319  28.842   3.058   2.586
  405XTA   HL1545320  29.012   3.065   2.539
  405XTA   HL1645321  28.920   2.929   2.794
  405XTA   HL1745322  29.058   2.942   2.708
  405XTA   HL1845323  29.011   2.837   3.015
  405XTA   HL1945324  29.169   2.881   3.057
  405XTA   HL2045325  29.073   2.725   2.807
  405XTA   HL2145326  29.215   2.695   2.900
  405XTA   HL2245327  29.216   2.831   2.795
  405XTA   HL2345328  28.892   2.697   2.424
  405XTA   HL2445329  28.926   2.834   2.504
  405XTA   HL2545330  28.896   2.697   2.730
  405XTA   HL2645331  28.752   2.707   2.627
  405XTA   HL2745332  28.815   2.482   2.528
  405XTA   HL2845333  28.961   2.483   2.603
  405XTA   HL2945334  28.833   2.318   2.714
  405XTA   HL3045335  28.864   2.461   2.824
  405XTA   HL3145336  28.644   2.419   2.870
  405XTA   HL3245337  28.642   2.561   2.771
  405XTA   HL3345338  28.630   2.377   2.573
  405XTA   HL3445339  28.548   2.281   2.698
  405XTA   HL3545340  28.547   2.602   2.524
  405XTA   HL3645341  28.463   2.639   2.665
  405XTA   HL3745342  28.282   2.814   2.593
  405XTA   HL3845343  28.254   2.818   2.432
  405XTA   HL3945344  28.440   2.966   2.465
  405XTA   HL4045345  28.513   2.816   2.406
  405XTA   HL4145346  28.526   2.855   2.578
  405XTA    CO845347  28.991   3.075   3.031
  405XTA    CO945348  29.202   3.092   2.908
  405XTA    OA645349  29.287   3.047   2.842
  405XTA   HL4245350  28.887   3.037   3.029
  405XTA   HL4345351  28.974   3.211   2.997
  405XTA   HL4445352  28.214   2.619   2.669
  405XTA   HL4545353  28.211   2.437   2.584
  405XTA   CO1045354  28.208   2.576   2.565
  405XTA   CO1145355  28.342   2.583   2.354
  405XTA    OA745356  28.451   2.588   2.316
  405XTA   HL4645357  28.296   2.480   2.347
  405XTA   HL4745358  28.275   2.653   2.299
  405XTA   HL4845359  29.241   3.126   3.010
  405XTA   HL4945360  29.165   3.185   2.868
  406XTA     NT45361  29.767  -0.111   2.998
  406XTA    CN145362  29.684  -0.006   3.011
  406XTA     C145363  29.543  -0.023   2.987
  406XTA     C245364  29.461   0.087   2.973
  406XTA     C345365  29.513   0.220   2.993
  406XTA     C445366  29.652   0.234   3.027
  406XTA     C545367  29.734   0.123   3.030
  406XTA    CN245368  29.825  -0.172   3.110
  406XTA     C645369  29.908  -0.102   3.202
  406XTA     C745370  29.951  -0.176   3.317
  406XTA     C845371  29.917  -0.314   3.348
  406XTA     C945372  29.826  -0.373   3.258
  406XTA    C1045373  29.789  -0.305   3.147
  406XTA    CN345374  29.813  -0.151   2.874
  406XTA    C1145375  29.738  -0.235   2.794
  406XTA    C1245376  29.784  -0.284   2.669
  406XTA    C1345377  29.897  -0.227   2.615
  406XTA    C1445378  29.974  -0.137   2.688
  406XTA    C1545379  29.934  -0.104   2.820
  406XTA     H145380  29.510  -0.127   2.964
  406XTA     H245381  29.355   0.061   2.942
  406XTA     H345382  29.697   0.333   3.048
  406XTA     H445383  29.842   0.134   3.058
  406XTA     H545384  29.944  -0.012   3.185
  406XTA     H645385  30.022  -0.132   3.387
  406XTA     H745386  29.790  -0.473   3.273
  406XTA     H845387  29.720  -0.355   3.085
  406XTA     H945388  29.653  -0.275   2.849
  406XTA    H1045389  29.718  -0.347   2.615
  406XTA    H1145390  30.069  -0.100   2.649
  406XTA    H1245391  29.987  -0.038   2.888
  406XTA    OA145392  29.433   0.330   2.992
  406XTA    CO145393  29.301   0.311   2.939
  406XTA    OA245394  29.969  -0.368   3.464
  406XTA    CO245395  29.949  -0.503   3.475
  406XTA    CL145396  29.991  -0.544   3.616
  406XTA    CL245397  30.140  -0.511   3.636
  406XTA    CL345398  30.192  -0.568   3.770
  406XTA    CL445399  30.341  -0.529   3.807
  406XTA    CO345400  30.349  -0.387   3.865
  406XTA    OA345401  30.324  -0.302   3.756
  406XTA    CO445402  30.350  -0.171   3.795
  406XTA    CT145403  30.320  -0.075   3.677
  406XTA    CL545404  30.319   0.075   3.707
  406XTA    CL645405  30.447   0.147   3.755
  406XTA    OA445406  29.937  -0.261   2.485
  406XTA    CO545407  29.837  -0.307   2.397
  406XTA    CL745408  29.877  -0.304   2.247
  406XTA    CL845409  29.889  -0.161   2.187
  406XTA    CL945410  30.011  -0.065   2.222
  406XTA   CL1045411  30.041   0.023   2.101
  406XTA    CO645412  30.160   0.116   2.125
  406XTA    OA545413  30.195   0.170   1.998
  406XTA    CO745414  30.295   0.270   2.011
  406XTA    CT245415  30.342   0.320   1.880
  406XTA   CL1145416  30.448   0.436   1.904
  406XTA   CL1245417  30.541   0.459   1.789
  406XTA    HL145418  29.251   0.408   2.927
  406XTA    HL245419  29.307   0.254   2.842
  406XTA    HL345420  29.248   0.242   3.009
  406XTA    HL445421  29.842  -0.528   3.469
  406XTA    HL545422  29.994  -0.550   3.377
  406XTA    HL645423  29.970  -0.646   3.621
  406XTA    HL745424  29.927  -0.497   3.692
  406XTA    HL845425  30.161  -0.408   3.637
  406XTA    HL945426  30.202  -0.555   3.561
  406XTA   HL1045427  30.122  -0.541   3.847
  406XTA   HL1145428  30.187  -0.680   3.776
  406XTA   HL1245429  30.424  -0.546   3.736
  406XTA   HL1345430  30.361  -0.601   3.889
  406XTA   HL1445431  30.262  -0.375   3.933
  406XTA   HL1545432  30.451  -0.382   3.907
  406XTA   HL1645433  30.278  -0.135   3.871
  406XTA   HL1745434  30.447  -0.154   3.833
  406XTA   HL1845435  30.247   0.082   3.793
  406XTA   HL1945436  30.277   0.125   3.622
  406XTA   HL2045437  30.527   0.150   3.679
  406XTA   HL2145438  30.495   0.107   3.843
  406XTA   HL2245439  30.426   0.251   3.788
  406XTA   HL2345440  29.740  -0.259   2.407
  406XTA   HL2445441  29.812  -0.412   2.421
  406XTA   HL2545442  29.967  -0.358   2.236
  406XTA   HL2645443  29.812  -0.362   2.186
  406XTA   HL2745444  29.891  -0.172   2.082
  406XTA   HL2845445  29.793  -0.112   2.212
  406XTA   HL2945446  29.986  -0.012   2.318
  406XTA   HL3045447  30.101  -0.130   2.237
  406XTA   HL3145448  30.070  -0.044   2.018
  406XTA   HL3245449  29.956   0.083   2.059
  406XTA   HL3345450  30.130   0.188   2.199
  406XTA   HL3445451  30.245   0.054   2.163
  406XTA   HL3545452  30.373   0.229   2.079
  406XTA   HL3645453  30.240   0.350   2.057
  406XTA   HL3745454  30.511   0.413   1.995
  406XTA   HL3845455  30.389   0.521   1.932
  406XTA   HL3945456  30.601   0.548   1.811
  406XTA   HL4045457  30.482   0.477   1.697
  406XTA   HL4145458  30.612   0.379   1.767
  406XTA    CO845459  30.181  -0.097   3.625
  406XTA    CO945460  30.425  -0.103   3.566
  406XTA    OA645461  30.414  -0.025   3.455
  406XTA   HL4245462  30.169  -0.202   3.600
  406XTA   HL4345463  30.175  -0.034   3.538
  406XTA   HL4445464  30.133   0.297   1.817
  406XTA   HL4545465  30.186   0.454   1.862
  406XTA   CO1045466  30.218   0.367   1.811
  406XTA   CO1145467  30.403   0.201   1.801
  406XTA    OA745468  30.252   0.391   1.707
  406XTA   HL4645469  30.454   0.245   1.679
  406XTA   HL4745470  30.321   0.132   1.769
  406XTA   HL4845471  30.414  -0.207   3.541
  406XTA   HL4945472  30.520  -0.096   3.608
  407XTA     NT45473  30.852   2.452   5.217
  407XTA    CN145474  30.908   2.327   5.232
  407XTA     C145475  30.900   2.234   5.128
  407XTA     C245476  30.968   2.115   5.138
  407XTA     C345477  31.052   2.089   5.249
  407XTA     C445478  31.049   2.174   5.359
  407XTA     C545479  30.985   2.298   5.348
  407XTA    CN245480  30.895   2.519   5.107
  407XTA     C645481  31.036   2.539   5.077
  407XTA     C745482  31.072   2.601   4.953
  407XTA     C845483  30.976   2.655   4.864
  407XTA     C945484  30.835   2.620   4.893
  407XTA    C1045485  30.803   2.559   5.013
  407XTA    CN345486  30.770   2.512   5.306
  407XTA    C1145487  30.779   2.651   5.330
  407XTA    C1245488  30.722   2.714   5.439
  407XTA    C1345489  30.636   2.636   5.514
  407XTA    C1445490  30.626   2.498   5.506
  407XTA    C1545491  30.696   2.436   5.401
  407XTA     H145492  30.858   2.258   5.029
  407XTA     H245493  30.955   2.036   5.061
  407XTA     H345494  31.091   2.144   5.454
  407XTA     H445495  30.976   2.366   5.433
  407XTA     H545496  31.116   2.509   5.149
  407XTA     H645497  31.177   2.603   4.930
  407XTA     H745498  30.764   2.655   4.822
  407XTA     H845499  30.694   2.533   5.026
  407XTA     H945500  30.842   2.710   5.261
  407XTA    H1045501  30.735   2.817   5.463
  407XTA    H1145502  30.575   2.435   5.575
  407XTA    H1245503  30.695   2.329   5.390
  407XTA    OA145504  31.127   1.977   5.242
  407XTA    CO145505  31.237   1.961   5.333
  407XTA    OA245506  31.002   2.720   4.749
  407XTA    CO245507  31.137   2.760   4.724
  407XTA    CL145508  31.153   2.877   4.629
  407XTA    CL245509  31.278   2.867   4.540
  407XTA    CL345510  31.286   2.748   4.448
  407XTA    CL445511  31.391   2.655   4.499
  407XTA    CO345512  31.377   2.523   4.423
  407XTA    OA345513  31.248   2.471   4.460
  407XTA    CO445514  31.220   2.362   4.369
  407XTA    CT145515  31.073   2.321   4.373
  407XTA    CL545516  30.980   2.441   4.339
  407XTA    CL645517  30.947   2.552   4.443
  407XTA    OA445518  30.591   2.694   5.634
  407XTA    CO545519  30.457   2.736   5.614
  407XTA    CL745520  30.418   2.819   5.740
  407XTA    CL845521  30.269   2.862   5.736
  407XTA    CL945522  30.222   2.956   5.855
  407XTA   CL1045523  30.284   3.099   5.833
  407XTA    CO645524  30.270   3.190   5.954
  407XTA    OA545525  30.132   3.218   5.966
  407XTA    CO745526  30.128   3.308   6.073
  407XTA    CT245527  29.994   3.291   6.143
  407XTA   CL1145528  29.956   3.157   6.201
  407XTA   CL1245529  30.053   3.096   6.307
  407XTA    HL145530  31.282   1.870   5.298
  407XTA    HL245531  31.317   2.042   5.326
  407XTA    HL345532  31.206   1.950   5.441
  407XTA    HL445533  31.188   2.788   4.808
  407XTA    HL545534  31.178   2.663   4.684
  407XTA    HL645535  31.165   2.967   4.690
  407XTA    HL745536  31.074   2.901   4.558
  407XTA    HL845537  31.364   2.876   4.613
  407XTA    HL945538  31.272   2.954   4.482
  407XTA   HL1045539  31.185   2.696   4.435
  407XTA   HL1145540  31.307   2.784   4.346
  407XTA   HL1245541  31.369   2.642   4.603
  407XTA   HL1345542  31.493   2.698   4.493
  407XTA   HL1445543  31.377   2.555   4.317
  407XTA   HL1545544  31.455   2.444   4.427
  407XTA   HL1645545  31.238   2.387   4.274
  407XTA   HL1745546  31.289   2.278   4.391
  407XTA   HL1845547  30.879   2.402   4.324
  407XTA   HL1945548  31.022   2.499   4.251
  407XTA   HL2045549  30.903   2.636   4.394
  407XTA   HL2145550  31.029   2.568   4.510
  407XTA   HL2245551  30.869   2.514   4.504
  407XTA   HL2345552  30.392   2.652   5.597
  407XTA   HL2445553  30.458   2.796   5.525
  407XTA   HL2545554  30.439   2.746   5.818
  407XTA   HL2645555  30.482   2.907   5.744
  407XTA   HL2745556  30.254   2.897   5.629
  407XTA   HL2845557  30.203   2.773   5.754
  407XTA   HL2945558  30.114   2.962   5.859
  407XTA   HL3045559  30.261   2.912   5.947
  407XTA   HL3145560  30.392   3.090   5.811
  407XTA   HL3245561  30.228   3.150   5.757
  407XTA   HL3345562  30.316   3.137   6.043
  407XTA   HL3445563  30.330   3.288   5.930
  407XTA   HL3545564  30.146   3.411   6.022
  407XTA   HL3645565  30.200   3.279   6.144
  407XTA   HL3745566  29.955   3.083   6.125
  407XTA   HL3845567  29.855   3.157   6.248
  407XTA   HL3945568  30.031   2.997   6.344
  407XTA   HL4045569  30.057   3.168   6.389
  407XTA   HL4145570  30.150   3.093   6.263
  407XTA    CO845571  31.031   2.264   4.517
  407XTA    CO945572  31.048   2.214   4.265
  407XTA    OA645573  30.929   2.229   4.511
  407XTA   HL4245574  31.035   2.354   4.594
  407XTA   HL4345575  31.111   2.202   4.560
  407XTA   HL4445576  29.932   3.421   5.976
  407XTA   HL4545577  29.907   3.249   5.960
  407XTA   CO1045578  29.895   3.329   6.029
  407XTA   CO1145579  29.987   3.403   6.250
  407XTA    OA745580  30.007   3.527   6.197
  407XTA   HL4645581  29.896   3.393   6.306
  407XTA   HL4745582  30.061   3.389   6.329
  407XTA   HL4845583  30.912   2.160   4.273
  407XTA   HL4945584  31.050   2.265   4.163
  408XTA     NT45585  27.696   2.329   7.742
  408XTA    CN145586  27.642   2.452   7.749
  408XTA     C145587  27.566   2.496   7.640
  408XTA     C245588  27.497   2.618   7.640
  408XTA     C345589  27.510   2.704   7.747
  408XTA     C445590  27.586   2.665   7.855
  408XTA     C545591  27.658   2.542   7.856
  408XTA    CN245592  27.796   2.310   7.658
  408XTA     C645593  27.928   2.358   7.683
  408XTA     C745594  28.033   2.313   7.607
  408XTA     C845595  28.016   2.226   7.501
  408XTA     C945596  27.885   2.180   7.472
  408XTA    C1045597  27.777   2.229   7.548
  408XTA    CN345598  27.662   2.231   7.824
  408XTA    C1145599  27.764   2.188   7.914
  408XTA    C1245600  27.728   2.080   7.999
  408XTA    C1345601  27.600   2.033   8.011
  408XTA    C1445602  27.499   2.091   7.935
  408XTA    C1545603  27.530   2.194   7.845
  408XTA     H145604  27.548   2.438   7.550
  408XTA     H245605  27.428   2.649   7.558
  408XTA     H345606  27.588   2.733   7.937
  408XTA     H445607  27.728   2.518   7.941
  408XTA     H545608  27.955   2.418   7.774
  408XTA     H645609  28.126   2.358   7.640
  408XTA     H745610  27.853   2.115   7.394
  408XTA     H845611  27.672   2.193   7.532
  408XTA     H945612  27.867   2.220   7.911
  408XTA    H1045613  27.800   2.056   8.076
  408XTA    H1145614  27.391   2.071   7.950
  408XTA    H1245615  27.454   2.240   7.785
  408XTA    OA145616  27.434   2.818   7.747
  408XTA    CO145617  27.469   2.917   7.658
  408XTA    OA245618  28.124   2.178   7.435
  408XTA    CO245619  28.117   2.061   7.355
  408XTA    CL145620  28.117   1.931   7.437
  408XTA    CL245621  28.148   1.802   7.364
  408XTA    CL345622  28.139   1.678   7.454
  408XTA    CL445623  27.997   1.618   7.460
  408XTA    CO345624  27.876   1.702   7.494
  408XTA    OA345625  27.761   1.619   7.483
  408XTA    CO445626  27.718   1.579   7.357
  408XTA    CT145627  27.675   1.433   7.365
  408XTA    CL545628  27.536   1.431   7.431
  408XTA    CL645629  27.469   1.296   7.429
  408XTA    OA445630  27.583   1.953   8.124
  408XTA    CO545631  27.457   1.907   8.159
  408XTA    CL745632  27.449   1.777   8.083
  408XTA    CL845633  27.347   1.677   8.138
  408XTA    CL945634  27.203   1.687   8.076
  408XTA   CL1045635  27.116   1.556   8.117
  408XTA    CO645636  26.970   1.576   8.087
  408XTA    OA545637  26.922   1.697   8.150
  408XTA    CO745638  26.784   1.696   8.142
  408XTA    CT245639  26.719   1.837   8.144
  408XTA   CL1145640  26.566   1.830   8.152
  408XTA   CL1245641  26.512   1.753   8.271
  408XTA    HL145642  27.458   2.901   7.550
  408XTA    HL245643  27.418   3.010   7.687
  408XTA    HL345644  27.574   2.939   7.678
  408XTA    HL445645  28.039   2.062   7.281
  408XTA    HL545646  28.211   2.069   7.294
  408XTA    HL645647  28.023   1.927   7.494
  408XTA    HL745648  28.196   1.952   7.515
  408XTA    HL845649  28.248   1.808   7.320
  408XTA    HL945650  28.073   1.802   7.286
  408XTA   HL1045651  28.208   1.593   7.428
  408XTA   HL1145652  28.153   1.717   7.553
  408XTA   HL1245653  27.998   1.532   7.530
  408XTA   HL1345654  27.985   1.570   7.364
  408XTA   HL1445655  27.890   1.730   7.594
  408XTA   HL1545656  27.862   1.792   7.430
  408XTA   HL1645657  27.636   1.641   7.331
  408XTA   HL1745658  27.805   1.596   7.286
  408XTA   HL1845659  27.467   1.498   7.377
  408XTA   HL1945660  27.527   1.468   7.531
  408XTA   HL2045661  27.514   1.211   7.475
  408XTA   HL2145662  27.455   1.270   7.324
  408XTA   HL2245663  27.365   1.305   7.463
  408XTA   HL2345664  27.376   1.979   8.145
  408XTA   HL2445665  27.457   1.895   8.266
  408XTA   HL2545666  27.441   1.797   7.974
  408XTA   HL2645667  27.549   1.724   8.088
  408XTA   HL2745668  27.394   1.587   8.122
  408XTA   HL2845669  27.342   1.694   8.245
  408XTA   HL2945670  27.139   1.766   8.113
  408XTA   HL3045671  27.200   1.694   7.966
  408XTA   HL3145672  27.149   1.462   8.075
  408XTA   HL3245673  27.140   1.538   8.224
  408XTA   HL3345674  26.965   1.573   7.974
  408XTA   HL3445675  26.927   1.487   8.132
  408XTA   HL3545676  26.749   1.638   8.227
  408XTA   HL3645677  26.750   1.635   8.058
  408XTA   HL3745678  26.536   1.772   8.065
  408XTA   HL3845679  26.518   1.926   8.153
  408XTA   HL3945680  26.533   1.791   8.366
  408XTA   HL4045681  26.542   1.651   8.268
  408XTA   HL4145682  26.410   1.760   8.262
  408XTA    CO845683  27.774   1.349   7.445
  408XTA    CO945684  27.678   1.371   7.223
  408XTA    OA645685  27.600   1.405   7.154
  408XTA   HL4245686  27.871   1.361   7.399
  408XTA   HL4345687  27.778   1.400   7.575
  408XTA   HL4445688  26.731   1.851   7.925
  408XTA   HL4545689  26.912   1.909   8.016
  408XTA   CO1045690  26.767   1.904   8.014
  408XTA   CO1145691  26.771   1.931   8.255
  408XTA    OA745692  26.791   1.862   8.339
  408XTA   HL4645693  26.863   1.978   8.226
  408XTA   HL4745694  26.704   2.008   8.283
  408XTA   HL4845695  27.668   1.265   7.238
  408XTA   HL4945696  27.778   1.391   7.178
  409XTA     NT45697  33.305   2.694  -0.433
  409XTA    CN145698  33.317   2.795  -0.349
  409XTA     C145699  33.445   2.855  -0.330
  409XTA     C245700  33.463   2.965  -0.250
  409XTA     C345701  33.356   3.026  -0.187
  409XTA     C445702  33.223   2.967  -0.197
  409XTA     C545703  33.206   2.852  -0.277
  409XTA    CN245704  33.303   2.569  -0.380
  409XTA     C645705  33.188   2.502  -0.346
  409XTA     C745706  33.186   2.366  -0.307
  409XTA     C845707  33.311   2.301  -0.293
  409XTA     C945708  33.431   2.371  -0.318
  409XTA    C1045709  33.426   2.504  -0.373
  409XTA    CN345710  33.294   2.722  -0.563
  409XTA    C1145711  33.163   2.738  -0.627
  409XTA    C1245712  33.160   2.789  -0.753
  409XTA    C1345713  33.273   2.833  -0.818
  409XTA    C1445714  33.400   2.820  -0.758
  409XTA    C1545715  33.410   2.765  -0.628
  409XTA     H145716  33.541   2.815  -0.379
  409XTA     H245717  33.553   3.027  -0.243
  409XTA     H345718  33.136   3.014  -0.151
  409XTA     H445719  33.104   2.816  -0.292
  409XTA     H545720  33.098   2.568  -0.340
  409XTA     H645721  33.097   2.310  -0.280
  409XTA     H745722  33.524   2.323  -0.305
  409XTA     H845723  33.523   2.561  -0.400
  409XTA     H945724  33.072   2.707  -0.568
  409XTA    H1045725  33.067   2.806  -0.797
  409XTA    H1145726  33.486   2.855  -0.802
  409XTA    H1245727  33.507   2.748  -0.579
  409XTA    OA145728  33.353   3.141  -0.114
  409XTA    CO145729  33.436   3.246  -0.165
  409XTA    OA245730  33.306   2.165  -0.270
  409XTA    CO245731  33.427   2.096  -0.264
  409XTA    CL145732  33.418   1.943  -0.279
  409XTA    CL245733  33.562   1.883  -0.287
  409XTA    CL345734  33.585   1.736  -0.243
  409XTA    CL445735  33.714   1.720  -0.168
  409XTA    CO345736  33.757   1.574  -0.152
  409XTA    OA345737  33.676   1.512  -0.049
  409XTA    CO445738  33.710   1.375  -0.025
  409XTA    CT145739  33.670   1.319   0.112
  409XTA    CL545740  33.711   1.412   0.233
  409XTA    CL645741  33.860   1.408   0.244
  409XTA    OA445742  33.280   2.889  -0.944
  409XTA    CO545743  33.173   2.968  -0.991
  409XTA    CL745744  33.224   3.079  -1.085
  409XTA    CL845745  33.108   3.134  -1.175
  409XTA    CL945746  33.156   3.236  -1.280
  409XTA   CL1045747  33.040   3.277  -1.373
  409XTA    CO645748  33.001   3.166  -1.474
  409XTA    OA545749  33.122   3.123  -1.531
  409XTA    CO745750  33.118   2.989  -1.568
  409XTA    CT245751  33.237   2.956  -1.662
  409XTA   CL1145752  33.235   3.024  -1.802
  409XTA   CL1245753  33.286   3.169  -1.801
  409XTA    HL145754  33.420   3.276  -0.268
  409XTA    HL245755  33.422   3.332  -0.098
  409XTA    HL345756  33.540   3.211  -0.154
  409XTA    HL445757  33.488   2.132  -0.351
  409XTA    HL545758  33.501   2.128  -0.189
  409XTA    HL645759  33.359   1.918  -0.366
  409XTA    HL745760  33.377   1.915  -0.182
  409XTA    HL845761  33.619   1.939  -0.218
  409XTA    HL945762  33.602   1.910  -0.387
  409XTA   HL1045763  33.491   1.707  -0.190
  409XTA   HL1145764  33.583   1.664  -0.334
  409XTA   HL1245765  33.729   1.765  -0.074
  409XTA   HL1345766  33.794   1.762  -0.226
  409XTA   HL1445767  33.745   1.534  -0.250
  409XTA   HL1545768  33.865   1.589  -0.116
  409XTA   HL1645769  33.664   1.315  -0.100
  409XTA   HL1745770  33.817   1.366  -0.020
  409XTA   HL1845771  33.678   1.381   0.329
  409XTA   HL1945772  33.680   1.516   0.206
  409XTA   HL2045773  33.894   1.303   0.251
  409XTA   HL2145774  33.891   1.455   0.340
  409XTA   HL2245775  33.911   1.456   0.165
  409XTA   HL2345776  33.110   3.014  -0.913
  409XTA   HL2445777  33.106   2.906  -1.054
  409XTA   HL2545778  33.281   3.158  -1.036
  409XTA   HL2645779  33.292   3.033  -1.148
  409XTA   HL2745780  33.056   3.053  -1.225
  409XTA   HL2845781  33.040   3.183  -1.102
  409XTA   HL2945782  33.198   3.328  -1.227
  409XTA   HL3045783  33.238   3.200  -1.335
  409XTA   HL3145784  32.948   3.306  -1.321
  409XTA   HL3245785  33.072   3.364  -1.432
  409XTA   HL3345786  32.940   3.080  -1.432
  409XTA   HL3445787  32.951   3.203  -1.568
  409XTA   HL3545788  33.028   2.972  -1.626
  409XTA   HL3645789  33.104   2.926  -1.477
  409XTA   HL3745790  33.142   3.017  -1.846
  409XTA   HL3845791  33.293   2.962  -1.867
  409XTA   HL3945792  33.296   3.217  -1.895
  409XTA   HL4045793  33.380   3.165  -1.752
  409XTA   HL4145794  33.231   3.241  -1.741
  409XTA    CO845795  33.700   1.165   0.108
  409XTA    CO945796  33.520   1.336   0.107
  409XTA    OA645797  33.685   1.094   0.233
  409XTA   HL4245798  33.795   1.146   0.065
  409XTA   HL4345799  33.650   1.107   0.024
  409XTA   HL4445800  33.352   2.769  -1.690
  409XTA   HL4545801  33.206   2.751  -1.583
  409XTA   CO1045802  33.250   2.800  -1.673
  409XTA   CO1145803  33.360   2.996  -1.584
  409XTA    OA745804  33.381   2.920  -1.462
  409XTA   HL4645805  33.456   2.998  -1.643
  409XTA   HL4745806  33.343   3.097  -1.556
  409XTA   HL4845807  33.482   1.311   0.204
  409XTA   HL4945808  33.512   1.444   0.103
  410XTA     NT45809  25.944   3.801   4.578
  410XTA    CN145810  25.830   3.736   4.572
  410XTA     C145811  25.726   3.754   4.666
  410XTA     C245812  25.617   3.671   4.666
  410XTA     C345813  25.608   3.565   4.572
  410XTA     C445814  25.703   3.553   4.472
  410XTA     C545815  25.807   3.639   4.467
  410XTA    CN245816  26.017   3.767   4.688
  410XTA     C645817  26.047   3.635   4.715
  410XTA     C745818  26.138   3.600   4.819
  410XTA     C845819  26.198   3.698   4.896
  410XTA     C945820  26.159   3.832   4.874
  410XTA    C1045821  26.072   3.872   4.770
  410XTA    CN345822  25.995   3.881   4.483
  410XTA    C1145823  25.933   4.007   4.463
  410XTA    C1245824  25.979   4.093   4.363
  410XTA    C1345825  26.090   4.065   4.281
  410XTA    C1445826  26.157   3.944   4.309
  410XTA    C1545827  26.109   3.850   4.402
  410XTA     H145828  25.741   3.842   4.734
  410XTA     H245829  25.537   3.694   4.737
  410XTA     H345830  25.693   3.473   4.397
  410XTA     H445831  25.878   3.629   4.392
  410XTA     H545832  26.000   3.557   4.657
  410XTA     H645833  26.153   3.498   4.833
  410XTA     H745834  26.194   3.912   4.932
  410XTA     H845835  26.051   3.979   4.748
  410XTA     H945836  25.847   4.040   4.514
  410XTA    H1045837  25.941   4.195   4.362
  410XTA    H1145838  26.244   3.919   4.246
  410XTA    H1245839  26.167   3.760   4.415
  410XTA    OA145840  25.505   3.480   4.589
  410XTA    CO145841  25.483   3.375   4.490
  410XTA    OA245842  26.305   3.674   4.983
  410XTA    CO245843  26.288   3.704   5.122
  410XTA    CL145844  26.237   3.582   5.195
  410XTA    CL245845  26.319   3.454   5.161
  410XTA    CL345846  26.252   3.321   5.210
  410XTA    CL445847  26.121   3.278   5.134
  410XTA    CO345848  26.136   3.204   5.008
  410XTA    OA345849  26.020   3.231   4.935
  410XTA    CO445850  25.887   3.197   4.996
  410XTA    CT145851  25.768   3.219   4.900
  410XTA    CL545852  25.636   3.149   4.954
  410XTA    CL645853  25.578   3.189   5.089
  410XTA    OA445854  26.136   4.167   4.194
  410XTA    CO545855  26.263   4.137   4.137
  410XTA    CL745856  26.299   4.243   4.041
  410XTA    CL845857  26.443   4.216   3.983
  410XTA    CL945858  26.453   4.102   3.879
  410XTA   CL1045859  26.430   4.154   3.739
  410XTA    CO645860  26.487   4.062   3.630
  410XTA    OA545861  26.427   4.104   3.511
  410XTA    CO745862  26.366   3.999   3.441
  410XTA    CT245863  26.326   4.054   3.304
  410XTA   CL1145864  26.242   3.957   3.222
  410XTA   CL1245865  26.094   3.937   3.274
  410XTA    HL145866  25.383   3.337   4.497
  410XTA    HL245867  25.494   3.407   4.389
  410XTA    HL345868  25.555   3.288   4.504
  410XTA    HL445869  26.386   3.728   5.155
  410XTA    HL545870  26.230   3.794   5.134
  410XTA    HL645871  26.138   3.567   5.158
  410XTA    HL745872  26.232   3.602   5.299
  410XTA    HL845873  26.421   3.461   5.197
  410XTA    HL945874  26.335   3.449   5.055
  410XTA   HL1045875  26.320   3.236   5.195
  410XTA   HL1145876  26.223   3.326   5.311
  410XTA   HL1245877  26.057   3.361   5.112
  410XTA   HL1345878  26.064   3.220   5.211
  410XTA   HL1445879  26.218   3.235   4.951
  410XTA   HL1545880  26.151   3.092   5.015
  410XTA   HL1645881  25.895   3.097   5.033
  410XTA   HL1745882  25.877   3.264   5.086
  410XTA   HL1845883  25.657   3.041   4.956
  410XTA   HL1945884  25.561   3.157   4.876
  410XTA   HL2045885  25.515   3.276   5.073
  410XTA   HL2145886  25.654   3.215   5.162
  410XTA   HL2245887  25.507   3.113   5.128
  410XTA   HL2345888  26.248   4.047   4.074
  410XTA   HL2445889  26.350   4.127   4.210
  410XTA   HL2545890  26.219   4.270   3.966
  410XTA   HL2645891  26.300   4.338   4.089
  410XTA   HL2745892  26.478   4.309   3.934
  410XTA   HL2845893  26.512   4.198   4.071
  410XTA   HL2945894  26.552   4.060   3.895
  410XTA   HL3045895  26.378   4.029   3.900
  410XTA   HL3145896  26.320   4.167   3.735
  410XTA   HL3245897  26.469   4.256   3.718
  410XTA   HL3345898  26.598   4.059   3.633
  410XTA   HL3445899  26.449   3.961   3.668
  410XTA   HL3545900  26.278   3.958   3.490
  410XTA   HL3645901  26.435   3.918   3.421
  410XTA   HL3745902  26.288   3.861   3.223
  410XTA   HL3845903  26.227   3.989   3.123
  410XTA   HL3945904  26.040   4.026   3.281
  410XTA   HL4045905  26.104   3.895   3.373
  410XTA   HL4145906  26.039   3.862   3.223
  410XTA    CO845907  25.812   3.156   4.762
  410XTA    CO945908  25.742   3.370   4.880
  410XTA    OA645909  25.734   3.425   4.972
  410XTA   HL4245910  25.916   3.182   4.729
  410XTA   HL4345911  25.730   3.207   4.660
  410XTA   HL4445912  26.437   4.115   3.142
  410XTA   HL4545913  26.541   4.125   3.279
  410XTA   CO1045914  26.463   4.066   3.236
  410XTA   CO1145915  26.260   4.191   3.311
  410XTA    OA745916  26.517   3.937   3.205
  410XTA   HL4645917  26.268   4.225   3.212
  410XTA   HL4745918  26.332   4.260   3.346
  410XTA   HL4845919  25.650   3.380   4.815
  410XTA   HL4945920  25.836   3.410   4.832
  411XTA     NT45921  31.000   1.175   2.716
  411XTA    CN145922  30.920   1.261   2.781
  411XTA     C145923  30.949   1.398   2.789
  411XTA     C245924  30.877   1.484   2.877
  411XTA     C345925  30.768   1.432   2.949
  411XTA     C445926  30.740   1.298   2.937
  411XTA     C545927  30.810   1.209   2.853
  411XTA    CN245928  31.024   1.186   2.577
  411XTA     C645929  31.152   1.228   2.519
  411XTA     C745930  31.164   1.254   2.377
  411XTA     C845931  31.061   1.215   2.290
  411XTA     C945932  30.939   1.165   2.347
  411XTA    C1045933  30.920   1.166   2.486
  411XTA    CN345934  31.080   1.098   2.794
  411XTA    C1145935  31.213   1.138   2.829
  411XTA    C1245936  31.286   1.066   2.924
  411XTA    C1345937  31.230   0.945   2.973
  411XTA    C1445938  31.109   0.896   2.924
  411XTA    C1545939  31.030   0.977   2.838
  411XTA     H145940  31.031   1.449   2.752
  411XTA     H245941  30.904   1.595   2.881
  411XTA     H345942  30.653   1.253   2.979
  411XTA     H445943  30.782   1.110   2.827
  411XTA     H545944  31.236   1.253   2.578
  411XTA     H645945  31.258   1.298   2.343
  411XTA     H745946  30.852   1.162   2.288
  411XTA     H845947  30.823   1.142   2.528
  411XTA     H945948  31.240   1.233   2.786
  411XTA    H1045949  31.388   1.102   2.956
  411XTA    H1145950  31.074   0.806   2.961
  411XTA    H1245951  30.933   0.943   2.812
  411XTA    OA145952  30.693   1.499   3.054
  411XTA    CO145953  30.720   1.639   3.071
  411XTA    OA245954  31.077   1.250   2.157
  411XTA    CO245955  30.962   1.242   2.070
  411XTA    CL145956  30.995   1.303   1.935
  411XTA    CL245957  30.877   1.302   1.839
  411XTA    CL345958  30.909   1.360   1.697
  411XTA    CL445959  30.798   1.327   1.605
  411XTA    CO345960  30.825   1.370   1.457
  411XTA    OA345961  30.843   1.515   1.472
  411XTA    CO445962  30.874   1.588   1.356
  411XTA    CT145963  30.936   1.721   1.385
  411XTA    CL545964  30.966   1.789   1.251
  411XTA    CL645965  31.068   1.722   1.150
  411XTA    OA445966  31.305   0.889   3.082
  411XTA    CO545967  31.254   0.762   3.125
  411XTA    CL745968  31.360   0.696   3.215
  411XTA    CL845969  31.306   0.582   3.303
  411XTA    CL945970  31.405   0.466   3.347
  411XTA   CL1045971  31.486   0.403   3.239
  411XTA    CO645972  31.422   0.276   3.175
  411XTA    OA545973  31.371   0.292   3.046
  411XTA    CO745974  31.261   0.381   3.026
  411XTA    CT245975  31.201   0.370   2.885
  411XTA   CL1145976  31.109   0.489   2.852
  411XTA   CL1245977  30.993   0.522   2.950
  411XTA    HL145978  30.702   1.688   2.975
  411XTA    HL245979  30.643   1.672   3.138
  411XTA    HL345980  30.820   1.644   3.108
  411XTA    HL445981  30.921   1.146   2.064
  411XTA    HL545982  30.888   1.289   2.120
  411XTA    HL645983  31.078   1.239   1.893
  411XTA    HL745984  31.031   1.405   1.953
  411XTA    HL845985  30.803   1.371   1.873
  411XTA    HL945986  30.825   1.208   1.830
  411XTA   HL1045987  30.925   1.471   1.700
  411XTA   HL1145988  31.007   1.324   1.671
  411XTA   HL1245989  30.704   1.372   1.638
  411XTA   HL1345990  30.777   1.217   1.610
  411XTA   HL1445991  30.915   1.328   1.416
  411XTA   HL1545992  30.735   1.328   1.400
  411XTA   HL1645993  30.951   1.533   1.298
  411XTA   HL1745994  30.792   1.604   1.283
  411XTA   HL1845995  31.005   1.885   1.277
  411XTA   HL1945996  30.867   1.818   1.208
  411XTA   HL2045997  31.020   1.628   1.117
  411XTA   HL2145998  31.165   1.690   1.200
  411XTA   HL2245999  31.091   1.780   1.057
  411XTA   HL2346000  31.232   0.689   3.045
  411XTA   HL2446001  31.160   0.786   3.179
  411XTA   HL2546002  31.439   0.658   3.161
  411XTA   HL2646003  31.403   0.775   3.280
  411XTA   HL2746004  31.280   0.615   3.399
  411XTA   HL2846005  31.222   0.540   3.257
  411XTA   HL2946006  31.480   0.503   3.421
  411XTA   HL3046007  31.348   0.389   3.405
  411XTA   HL3146008  31.531   0.469   3.165
  411XTA   HL3246009  31.573   0.367   3.296
  411XTA   HL3346010  31.500   0.210   3.167
  411XTA   HL3446011  31.357   0.228   3.243
  411XTA   HL3546012  31.291   0.480   3.055
  411XTA   HL3646013  31.185   0.355   3.100
  411XTA   HL3746014  31.084   0.494   2.744
  411XTA   HL3846015  31.165   0.588   2.872
  411XTA   HL3946016  30.918   0.443   2.949
  411XTA   HL4046017  30.949   0.613   2.922
  411XTA   HL4146018  31.018   0.540   3.053
  411XTA    CO846019  31.072   1.702   1.463
  411XTA    CO946020  30.844   1.818   1.460
  411XTA    OA646021  31.097   1.797   1.507
  411XTA   HL4246022  31.147   1.670   1.400
  411XTA   HL4346023  31.046   1.626   1.542
  411XTA   HL4446024  31.201   0.160   2.858
  411XTA   HL4546025  31.082   0.247   2.775
  411XTA   CO1046026  31.128   0.235   2.871
  411XTA   CO1146027  31.320   0.369   2.777
  411XTA    OA746028  31.389   0.489   2.798
  411XTA   HL4646029  31.374   0.279   2.773
  411XTA   HL4746030  31.287   0.365   2.670
  411XTA   HL4846031  30.802   1.761   1.586
  411XTA   HL4946032  30.896   1.908   1.477
  412XTA     NT46033  30.426   3.555   3.902
  412XTA    CN146034  30.335   3.451   3.898
  412XTA     C146035  30.374   3.321   3.855
  412XTA     C246036  30.280   3.216   3.854
  412XTA     C346037  30.141   3.249   3.877
  412XTA     C446038  30.101   3.380   3.911
  412XTA     C546039  30.202   3.484   3.923
  412XTA    CN246040  30.465   3.611   3.787
  412XTA     C646041  30.561   3.552   3.706
  412XTA     C746042  30.612   3.622   3.596
  412XTA     C846043  30.560   3.750   3.559
  412XTA     C946044  30.472   3.805   3.644
  412XTA    C1046045  30.423   3.739   3.757
  412XTA    CN346046  30.500   3.576   4.010
  412XTA    C1146047  30.473   3.682   4.099
  412XTA    C1246048  30.555   3.705   4.212
  412XTA    C1346049  30.665   3.618   4.232
  412XTA    C1446050  30.690   3.510   4.145
  412XTA    C1546051  30.602   3.483   4.040
  412XTA     H146052  30.470   3.299   3.832
  412XTA     H246053  30.305   3.111   3.837
  412XTA     H346054  29.993   3.394   3.937
  412XTA     H446055  30.174   3.587   3.941
  412XTA     H546056  30.602   3.457   3.730
  412XTA     H646057  30.687   3.571   3.527
  412XTA     H746058  30.435   3.902   3.609
  412XTA     H846059  30.349   3.788   3.816
  412XTA     H946060  30.375   3.735   4.092
  412XTA    H1046061  30.526   3.780   4.281
  412XTA    H1146062  30.777   3.445   4.162
  412XTA    H1246063  30.619   3.392   3.983
  412XTA    OA146064  30.042   3.156   3.856
  412XTA    CO146065  30.077   3.023   3.818
  412XTA    OA246066  30.602   3.816   3.442
  412XTA    CO246067  30.675   3.937   3.460
  412XTA    CL146068  30.821   3.897   3.477
  412XTA    CL246069  30.907   4.025   3.462
  412XTA    CL346070  31.050   4.013   3.517
  412XTA    CL446071  31.136   3.897   3.454
  412XTA    CO346072  31.277   3.904   3.486
  412XTA    OA346073  31.333   3.771   3.478
  412XTA    CO446074  31.476   3.771   3.507
  412XTA    CT146075  31.543   3.629   3.514
  412XTA    CL546076  31.508   3.547   3.385
  412XTA    CL646077  31.562   3.610   3.252
  412XTA    OA446078  30.743   3.633   4.350
  412XTA    CO546079  30.874   3.584   4.337
  412XTA    CL746080  30.943   3.598   4.476
  412XTA    CL846081  31.087   3.529   4.487
  412XTA    CL946082  31.147   3.574   4.620
  412XTA   CL1046083  31.292   3.531   4.655
  412XTA    CO646084  31.313   3.379   4.674
  412XTA    OA546085  31.273   3.349   4.801
  412XTA    CO746086  31.307   3.216   4.832
  412XTA    CT246087  31.295   3.201   4.985
  412XTA   CL1146088  31.377   3.075   5.019
  412XTA   CL1246089  31.336   2.947   4.943
  412XTA    HL146090  30.133   3.025   3.730
  412XTA    HL246091  30.133   2.976   3.902
  412XTA    HL346092  29.981   2.967   3.804
  412XTA    HL446093  30.658   4.002   3.367
  412XTA    HL546094  30.624   3.997   3.539
  412XTA    HL646095  30.859   3.823   3.407
  412XTA    HL746096  30.839   3.848   3.577
  412XTA    HL846097  30.860   4.094   3.520
  412XTA    HL946098  30.900   4.067   3.363
  412XTA   HL1046099  31.096   4.114   3.518
  412XTA   HL1146100  31.028   3.980   3.619
  412XTA   HL1246101  31.122   3.885   3.347
  412XTA   HL1346102  31.101   3.806   3.507
  412XTA   HL1446103  31.326   3.978   3.418
  412XTA   HL1546104  31.294   3.950   3.585
  412XTA   HL1646105  31.521   3.824   3.427
  412XTA   HL1746106  31.504   3.827   3.600
  412XTA   HL1846107  31.403   3.545   3.384
  412XTA   HL1946108  31.541   3.443   3.395
  412XTA   HL2046109  31.535   3.716   3.241
  412XTA   HL2146110  31.514   3.562   3.171
  412XTA   HL2246111  31.668   3.610   3.243
  412XTA   HL2346112  30.921   3.634   4.255
  412XTA   HL2446113  30.872   3.479   4.327
  412XTA   HL2546114  30.947   3.707   4.496
  412XTA   HL2646115  30.875   3.553   4.546
  412XTA   HL2746116  31.067   3.423   4.471
  412XTA   HL2846117  31.153   3.563   4.410
  412XTA   HL2946118  31.147   3.677   4.639
  412XTA   HL3046119  31.081   3.532   4.697
  412XTA   HL3146120  31.352   3.569   4.570
  412XTA   HL3246121  31.323   3.586   4.748
  412XTA   HL3346122  31.246   3.322   4.616
  412XTA   HL3446123  31.405   3.343   4.649
  412XTA   HL3546124  31.412   3.189   4.801
  412XTA   HL3646125  31.232   3.144   4.787
  412XTA   HL3746126  31.370   3.056   5.127
  412XTA   HL3846127  31.483   3.094   4.999
  412XTA   HL3946128  31.224   2.939   4.941
  412XTA   HL4046129  31.374   2.853   4.992
  412XTA   HL4146130  31.370   2.951   4.843
  412XTA    CO846131  31.492   3.557   3.648
  412XTA    CO946132  31.697   3.642   3.522
  412XTA    OA646133  31.749   3.516   3.488
  412XTA   HL4246134  31.530   3.620   3.732
  412XTA   HL4346135  31.383   3.574   3.645
  412XTA   HL4446136  31.095   3.288   4.968
  412XTA   HL4546137  31.098   3.105   4.968
  412XTA   CO1046138  31.141   3.196   5.019
  412XTA   CO1146139  31.360   3.330   5.053
  412XTA    OA746140  31.098   3.196   5.153
  412XTA   HL4646141  31.322   3.422   5.002
  412XTA   HL4746142  31.333   3.330   5.156
  412XTA   HL4846143  31.731   3.676   3.620
  412XTA   HL4946144  31.729   3.710   3.441
  413XTA     NT46145  26.301  -0.894   0.978
  413XTA    CN146146  26.435  -0.925   0.967
  413XTA     C146147  26.516  -0.841   0.891
  413XTA     C246148  26.651  -0.870   0.877
  413XTA     C346149  26.709  -0.973   0.954
  413XTA     C446150  26.632  -1.053   1.033
  413XTA     C546151  26.495  -1.032   1.036
  413XTA    CN246152  26.214  -0.881   0.876
  413XTA     C646153  26.149  -0.766   0.839
  413XTA     C746154  26.061  -0.754   0.734
  413XTA     C846155  26.036  -0.871   0.661
  413XTA     C946156  26.092  -0.991   0.702
  413XTA    C1046157  26.184  -0.998   0.806
  413XTA    CN346158  26.265  -0.835   1.094
  413XTA    C1146159  26.351  -0.738   1.154
  413XTA    C1246160  26.309  -0.696   1.287
  413XTA    C1346161  26.189  -0.749   1.352
  413XTA    C1446162  26.114  -0.845   1.280
  413XTA    C1546163  26.150  -0.887   1.153
  413XTA     H146164  26.476  -0.748   0.855
  413XTA     H246165  26.712  -0.811   0.821
  413XTA     H346166  26.672  -1.137   1.087
  413XTA     H446167  26.427  -1.099   1.093
  413XTA     H546168  26.172  -0.679   0.903
  413XTA     H646169  26.006  -0.666   0.717
  413XTA     H746170  26.063  -1.086   0.655
  413XTA     H846171  26.224  -1.094   0.841
  413XTA     H946172  26.446  -0.703   1.108
  413XTA    H1046173  26.370  -0.621   1.339
  413XTA    H1146174  26.026  -0.889   1.315
  413XTA    H1246175  26.093  -0.962   1.098
  413XTA    OA146176  26.840  -1.002   0.951
  413XTA    CO146177  26.915  -0.948   0.848
  413XTA    OA246178  25.932  -0.876   0.570
  413XTA    CO246179  25.907  -0.751   0.503
  413XTA    CL146180  25.826  -0.779   0.383
  413XTA    CL246181  25.696  -0.847   0.417
  413XTA    CL346182  25.596  -0.873   0.304
  413XTA    CL446183  25.526  -0.748   0.241
  413XTA    CO346184  25.502  -0.790   0.086
  413XTA    OA346185  25.400  -0.895   0.073
  413XTA    CO446186  25.370  -0.945  -0.050
  413XTA    CT146187  25.317  -1.085  -0.037
  413XTA    CL546188  25.425  -1.174   0.027
  413XTA    CL646189  25.565  -1.188  -0.042
  413XTA    OA446190  26.153  -0.705   1.472
  413XTA    CO546191  26.016  -0.692   1.500
  413XTA    CL746192  25.974  -0.553   1.465
  413XTA    CL846193  26.030  -0.442   1.557
  413XTA    CL946194  26.017  -0.304   1.494
  413XTA   CL1046195  25.944  -0.198   1.580
  413XTA    CO646196  25.907  -0.073   1.493
  413XTA    OA546197  26.024  -0.033   1.421
  413XTA    CO746198  26.009   0.089   1.351
  413XTA    CT246199  26.147   0.141   1.313
  413XTA   CL1146200  26.115   0.251   1.211
  413XTA   CL1246201  26.239   0.307   1.130
  413XTA    HL146202  27.020  -0.941   0.876
  413XTA    HL246203  26.904  -1.010   0.759
  413XTA    HL346204  26.891  -0.845   0.833
  413XTA    HL446205  25.867  -0.684   0.577
  413XTA    HL546206  25.992  -0.682   0.468
  413XTA    HL646207  25.890  -0.836   0.324
  413XTA    HL746208  25.807  -0.688   0.332
  413XTA    HL846209  25.645  -0.787   0.499
  413XTA    HL946210  25.721  -0.931   0.478
  413XTA   HL1046211  25.657  -0.921   0.230
  413XTA   HL1146212  25.523  -0.949   0.327
  413XTA   HL1246213  25.582  -0.653   0.240
  413XTA   HL1346214  25.431  -0.728   0.301
  413XTA   HL1446215  25.465  -0.694   0.040
  413XTA   HL1546216  25.602  -0.805   0.039
  413XTA   HL1646217  25.293  -0.883  -0.091
  413XTA   HL1746218  25.456  -0.942  -0.109
  413XTA   HL1846219  25.382  -1.276   0.030
  413XTA   HL1946220  25.449  -1.135   0.133
  413XTA   HL2046221  25.550  -1.234  -0.137
  413XTA   HL2146222  25.636  -1.249   0.010
  413XTA   HL2246223  25.618  -1.095  -0.065
  413XTA   HL2346224  26.002  -0.705   1.603
  413XTA   HL2446225  25.962  -0.770   1.452
  413XTA   HL2546226  26.003  -0.539   1.359
  413XTA   HL2646227  25.864  -0.550   1.464
  413XTA   HL2746228  25.987  -0.437   1.653
  413XTA   HL2846229  26.136  -0.480   1.572
  413XTA   HL2946230  26.118  -0.270   1.455
  413XTA   HL3046231  25.960  -0.313   1.399
  413XTA   HL3146232  25.854  -0.242   1.625
  413XTA   HL3246233  26.011  -0.165   1.661
  413XTA   HL3346234  25.821  -0.109   1.430
  413XTA   HL3446235  25.864   0.001   1.554
  413XTA   HL3546236  25.956   0.152   1.427
  413XTA   HL3646237  25.946   0.090   1.267
  413XTA   HL3746238  26.072   0.330   1.264
  413XTA   HL3846239  26.041   0.212   1.137
  413XTA   HL3946240  26.335   0.311   1.185
  413XTA   HL4046241  26.224   0.406   1.091
  413XTA   HL4146242  26.261   0.237   1.051
  413XTA    CO846243  25.266  -1.146  -0.172
  413XTA    CO946244  25.199  -1.085   0.063
  413XTA    OA646245  25.127  -1.014   0.020
  413XTA   HL4246246  25.162  -1.184  -0.159
  413XTA   HL4346247  25.262  -1.053  -0.273
  413XTA   HL4446248  26.168  -0.031   1.137
  413XTA   HL4546249  26.231  -0.062   1.331
  413XTA   CO1046250  26.228   0.022   1.254
  413XTA   CO1146251  26.206   0.199   1.446
  413XTA    OA746252  26.142   0.280   1.504
  413XTA   HL4646253  26.232   0.118   1.517
  413XTA   HL4746254  26.298   0.240   1.421
  413XTA   HL4846255  25.224  -1.064   0.163
  413XTA   HL4946256  25.152  -1.186   0.054
  414XTA     NT46257  33.241   0.921   3.842
  414XTA    CN146258  33.301   0.960   3.732
  414XTA     C146259  33.283   1.094   3.687
  414XTA     C246260  33.344   1.133   3.565
  414XTA     C346261  33.416   1.048   3.481
  414XTA     C446262  33.441   0.922   3.532
  414XTA     C546263  33.391   0.879   3.660
  414XTA    CN246264  33.287   0.980   3.959
  414XTA     C646265  33.412   0.949   4.009
  414XTA     C746266  33.457   1.020   4.116
  414XTA     C846267  33.383   1.120   4.184
  414XTA     C946268  33.255   1.151   4.133
  414XTA    C1046269  33.208   1.082   4.016
  414XTA    CN346270  33.131   0.841   3.836
  414XTA    C1146271  33.032   0.850   3.733
  414XTA    C1246272  32.931   0.753   3.729
  414XTA    C1346273  32.922   0.660   3.834
  414XTA    C1446274  33.014   0.664   3.941
  414XTA    C1546275  33.120   0.749   3.939
  414XTA     H146276  33.228   1.163   3.744
  414XTA     H246277  33.315   1.234   3.546
  414XTA     H346278  33.503   0.862   3.472
  414XTA     H446279  33.420   0.782   3.704
  414XTA     H546280  33.471   0.867   3.963
  414XTA     H646281  33.552   0.987   4.153
  414XTA     H746282  33.196   1.222   4.194
  414XTA     H846283  33.111   1.099   3.968
  414XTA     H946284  33.045   0.920   3.651
  414XTA    H1046285  32.866   0.757   3.646
  414XTA    H1146286  32.999   0.598   4.022
  414XTA    H1246287  33.190   0.757   4.016
  414XTA    OA146288  33.481   1.093   3.366
  414XTA    CO146289  33.560   1.208   3.372
  414XTA    OA246290  33.430   1.186   4.296
  414XTA    CO246291  33.562   1.163   4.321
  414XTA    CL146292  33.603   1.265   4.431
  414XTA    CL246293  33.757   1.266   4.430
  414XTA    CL346294  33.820   1.136   4.484
  414XTA    CL446295  33.804   1.110   4.642
  414XTA    CO346296  33.788   0.965   4.679
  414XTA    OA346297  33.645   0.939   4.680
  414XTA    CO446298  33.604   0.807   4.714
  414XTA    CT146299  33.448   0.809   4.725
  414XTA    CL546300  33.389   0.681   4.778
  414XTA    CL646301  33.412   0.566   4.676
  414XTA    OA446302  32.818   0.571   3.840
  414XTA    CO546303  32.831   0.464   3.751
  414XTA    CL746304  32.704   0.375   3.765
  414XTA    CL846305  32.707   0.259   3.664
  414XTA    CL946306  32.641   0.136   3.717
  414XTA   CL1046307  32.487   0.151   3.734
  414XTA    CO646308  32.418   0.022   3.773
  414XTA    OA546309  32.277   0.017   3.752
  414XTA    CO746310  32.204   0.109   3.836
  414XTA    CT246311  32.055   0.116   3.799
  414XTA   CL1146312  32.039   0.117   3.645
  414XTA   CL1246313  32.100   0.239   3.571
  414XTA    HL146314  33.602   1.216   3.473
  414XTA    HL246315  33.637   1.216   3.285
  414XTA    HL346316  33.497   1.287   3.370
  414XTA    HL446317  33.572   1.061   4.359
  414XTA    HL546318  33.614   1.174   4.228
  414XTA    HL646319  33.578   1.244   4.536
  414XTA    HL746320  33.569   1.368   4.400
  414XTA    HL846321  33.785   1.345   4.497
  414XTA    HL946322  33.785   1.289   4.330
  414XTA   HL1046323  33.771   1.052   4.437
  414XTA   HL1146324  33.920   1.130   4.458
  414XTA   HL1246325  33.727   1.172   4.675
  414XTA   HL1346326  33.896   1.143   4.683
  414XTA   HL1446327  33.837   0.906   4.598
  414XTA   HL1546328  33.817   0.933   4.779
  414XTA   HL1646329  33.635   0.735   4.637
  414XTA   HL1746330  33.648   0.791   4.808
  414XTA   HL1846331  33.285   0.687   4.803
  414XTA   HL1946332  33.451   0.642   4.859
  414XTA   HL2046333  33.383   0.462   4.709
  414XTA   HL2146334  33.520   0.550   4.655
  414XTA   HL2246335  33.352   0.585   4.582
  414XTA   HL2346336  32.917   0.402   3.771
  414XTA   HL2446337  32.833   0.508   3.653
  414XTA   HL2546338  32.692   0.339   3.865
  414XTA   HL2646339  32.611   0.441   3.748
  414XTA   HL2746340  32.675   0.279   3.561
  414XTA   HL2846341  32.806   0.229   3.654
  414XTA   HL2946342  32.654   0.052   3.645
  414XTA   HL3046343  32.677   0.096   3.810
  414XTA   HL3146344  32.458   0.236   3.798
  414XTA   HL3246345  32.438   0.174   3.639
  414XTA   HL3346346  32.459  -0.061   3.716
  414XTA   HL3446347  32.444  -0.004   3.876
  414XTA   HL3546348  32.248   0.208   3.826
  414XTA   HL3646349  32.214   0.091   3.941
  414XTA   HL3746350  31.936   0.116   3.609
  414XTA   HL3846351  32.084   0.023   3.609
  414XTA   HL3946352  32.073   0.331   3.619
  414XTA   HL4046353  32.055   0.251   3.473
  414XTA   HL4146354  32.206   0.227   3.574
  414XTA    CO846355  33.380   0.853   4.587
  414XTA    CO946356  33.411   0.923   4.826
  414XTA    OA646357  33.237   0.853   4.588
  414XTA   HL4246358  33.410   0.796   4.500
  414XTA   HL4346359  33.401   0.954   4.569
  414XTA   HL4446360  32.039   0.314   3.822
  414XTA   HL4546361  32.001   0.231   3.972
  414XTA   CO1046362  31.983   0.231   3.864
  414XTA   CO1146363  31.987  -0.010   3.847
  414XTA    OA746364  32.005  -0.020   3.985
  414XTA   HL4646365  31.885  -0.015   3.808
  414XTA   HL4746366  32.047  -0.098   3.815
  414XTA   HL4846367  33.485   0.939   4.899
  414XTA   HL4946368  33.430   1.027   4.781
  415XTA     NT46369  33.707   0.905   7.273
  415XTA    CN146370  33.831   0.902   7.231
  415XTA     C146371  33.935   0.953   7.316
  415XTA     C246372  34.070   0.951   7.265
  415XTA     C346373  34.099   0.905   7.136
  415XTA     C446374  33.996   0.860   7.054
  415XTA     C546375  33.867   0.855   7.101
  415XTA    CN246376  33.615   0.985   7.208
  415XTA     C646377  33.602   1.125   7.244
  415XTA     C746378  33.497   1.205   7.190
  415XTA     C846379  33.400   1.144   7.107
  415XTA     C946380  33.415   1.013   7.067
  415XTA    C1046381  33.511   0.938   7.125
  415XTA    CN346382  33.657   0.844   7.382
  415XTA    C1146383  33.658   0.898   7.513
  415XTA    C1246384  33.577   0.843   7.617
  415XTA    C1346385  33.522   0.715   7.600
  415XTA    C1446386  33.540   0.650   7.472
  415XTA    C1546387  33.598   0.718   7.363
  415XTA     H146388  33.920   0.982   7.420
  415XTA     H246389  34.139   0.994   7.336
  415XTA     H346390  34.021   0.813   6.961
  415XTA     H446391  33.797   0.801   7.033
  415XTA     H546392  33.667   1.165   7.312
  415XTA     H646393  33.497   1.310   7.211
  415XTA     H746394  33.339   0.968   7.007
  415XTA     H846395  33.516   0.831   7.098
  415XTA     H946396  33.700   0.995   7.532
  415XTA    H1046397  33.558   0.900   7.712
  415XTA    H1146398  33.493   0.553   7.448
  415XTA    H1246399  33.606   0.665   7.272
  415XTA    OA146400  34.222   0.912   7.078
  415XTA    CO146401  34.327   0.975   7.151
  415XTA    OA246402  33.290   1.224   7.058
  415XTA    CO246403  33.173   1.159   7.105
  415XTA    CL146404  33.065   1.263   7.102
  415XTA    CL246405  32.930   1.231   7.168
  415XTA    CL346406  32.852   1.357   7.218
  415XTA    CL446407  32.763   1.427   7.109
  415XTA    CO346408  32.844   1.506   7.011
  415XTA    OA346409  32.755   1.602   6.953
  415XTA    CO446410  32.804   1.663   6.830
  415XTA    CT146411  32.732   1.802   6.804
  415XTA    CL546412  32.757   1.856   6.663
  415XTA    CL646413  32.699   1.990   6.618
  415XTA    OA446414  33.451   0.657   7.707
  415XTA    CO546415  33.364   0.546   7.681
  415XTA    CL746416  33.244   0.606   7.607
  415XTA    CL846417  33.152   0.699   7.684
  415XTA    CL946418  33.207   0.837   7.699
  415XTA   CL1046419  33.094   0.942   7.717
  415XTA    CO646420  33.151   1.078   7.760
  415XTA    OA546421  33.064   1.172   7.824
  415XTA    CO746422  32.943   1.201   7.744
  415XTA    CT246423  32.880   1.338   7.779
  415XTA   CL1146424  32.773   1.379   7.679
  415XTA   CL1246425  32.815   1.418   7.538
  415XTA    HL146426  34.408   0.995   7.082
  415XTA    HL246427  34.311   1.069   7.200
  415XTA    HL346428  34.361   0.903   7.225
  415XTA    HL446429  33.139   1.075   7.047
  415XTA    HL546430  33.195   1.128   7.203
  415XTA    HL646431  33.054   1.304   7.005
  415XTA    HL746432  33.108   1.339   7.153
  415XTA    HL846433  32.940   1.172   7.259
  415XTA    HL946434  32.870   1.176   7.098
  415XTA   HL1046435  32.784   1.319   7.292
  415XTA   HL1146436  32.917   1.434   7.268
  415XTA   HL1246437  32.704   1.505   7.159
  415XTA   HL1346438  32.690   1.361   7.065
  415XTA   HL1446439  32.941   1.554   7.053
  415XTA   HL1546440  32.880   1.433   6.939
  415XTA   HL1646441  32.909   1.673   6.837
  415XTA   HL1746442  32.802   1.589   6.745
  415XTA   HL1846443  32.742   1.777   6.587
  415XTA   HL1946444  32.862   1.865   6.660
  415XTA   HL2046445  32.591   1.986   6.600
  415XTA   HL2146446  32.752   2.026   6.531
  415XTA   HL2246447  32.715   2.066   6.690
  415XTA   HL2346448  33.328   0.505   7.767
  415XTA   HL2446449  33.419   0.465   7.629
  415XTA   HL2546450  33.270   0.658   7.514
  415XTA   HL2646451  33.181   0.517   7.583
  415XTA   HL2746452  33.064   0.703   7.622
  415XTA   HL2846453  33.126   0.665   7.780
  415XTA   HL2946454  33.282   0.838   7.775
  415XTA   HL3046455  33.271   0.868   7.617
  415XTA   HL3146456  33.034   0.952   7.627
  415XTA   HL3246457  33.022   0.903   7.795
  415XTA   HL3346458  33.230   1.068   7.838
  415XTA   HL3446459  33.206   1.138   7.685
  415XTA   HL3546460  32.874   1.121   7.749
  415XTA   HL3646461  32.958   1.212   7.640
  415XTA   HL3746462  32.723   1.463   7.710
  415XTA   HL3846463  32.693   1.308   7.668
  415XTA   HL3946464  32.722   1.442   7.486
  415XTA   HL4046465  32.857   1.340   7.479
  415XTA   HL4146466  32.871   1.509   7.534
  415XTA    CO846467  32.787   1.905   6.912
  415XTA    CO946468  32.577   1.789   6.820
  415XTA    OA646469  32.814   1.853   7.037
  415XTA   HL4246470  32.712   1.982   6.924
  415XTA   HL4346471  32.890   1.945   6.876
  415XTA   HL4446472  33.022   1.439   7.912
  415XTA   HL4546473  32.896   1.520   7.825
  415XTA   CO1046474  32.973   1.451   7.811
  415XTA   CO1146475  32.814   1.319   7.915
  415XTA    OA746476  32.710   1.227   7.912
  415XTA   HL4646477  32.879   1.265   7.980
  415XTA   HL4746478  32.789   1.410   7.971
  415XTA   HL4846479  32.530   1.858   6.883
  415XTA   HL4946480  32.561   1.699   6.869
  416XTA     NT46481  31.982  -0.119   7.783
  416XTA    CN146482  32.044  -0.240   7.794
  416XTA     C146483  32.155  -0.249   7.878
  416XTA     C246484  32.227  -0.367   7.885
  416XTA     C346485  32.195  -0.475   7.796
  416XTA     C446486  32.081  -0.466   7.717
  416XTA     C546487  32.006  -0.344   7.709
  416XTA    CN246488  32.027  -0.028   7.695
  416XTA     C646489  32.151   0.036   7.719
  416XTA     C746490  32.202   0.131   7.622
  416XTA     C846491  32.130   0.164   7.504
  416XTA     C946492  32.013   0.093   7.483
  416XTA    C1046493  31.956   0.001   7.581
  416XTA    CN346494  31.910  -0.071   7.883
  416XTA    C1146495  31.794  -0.010   7.849
  416XTA    C1246496  31.712   0.060   7.938
  416XTA    C1346497  31.746   0.054   8.073
  416XTA    C1446498  31.873  -0.001   8.113
  416XTA    C1546499  31.957  -0.057   8.018
  416XTA     H146500  32.202  -0.170   7.937
  416XTA     H246501  32.320  -0.380   7.938
  416XTA     H346502  32.058  -0.549   7.648
  416XTA     H446503  31.921  -0.340   7.639
  416XTA     H546504  32.214   0.011   7.802
  416XTA     H646505  32.291   0.192   7.637
  416XTA     H746506  31.967   0.106   7.381
  416XTA     H846507  31.862  -0.051   7.555
  416XTA     H946508  31.774   0.000   7.747
  416XTA    H1046509  31.623   0.112   7.907
  416XTA    H1146510  31.903   0.017   8.219
  416XTA    H1246511  32.059  -0.082   8.043
  416XTA    OA146512  32.268  -0.590   7.797
  416XTA    CO146513  32.311  -0.630   7.924
  416XTA    OA246514  32.171   0.250   7.407
  416XTA    CO246515  32.226   0.377   7.454
  416XTA    CL146516  32.126   0.454   7.548
  416XTA    CL246517  32.175   0.592   7.600
  416XTA    CL346518  32.077   0.656   7.693
  416XTA    CL446519  32.107   0.806   7.723
  416XTA    CO346520  32.008   0.885   7.812
  416XTA    OA346521  32.032   1.023   7.801
  416XTA    CO446522  32.016   1.096   7.928
  416XTA    CT146523  31.974   1.241   7.924
  416XTA    CL546524  32.034   1.333   8.037
  416XTA    CL646525  31.997   1.482   8.038
  416XTA    OA446526  31.663   0.115   8.167
  416XTA    CO546527  31.582   0.224   8.132
  416XTA    CL746528  31.532   0.295   8.259
  416XTA    CL846529  31.514   0.200   8.382
  416XTA    CL946530  31.485   0.288   8.502
  416XTA   CL1046531  31.446   0.195   8.616
  416XTA    CO646532  31.314   0.116   8.599
  416XTA    OA546533  31.335  -0.009   8.542
  416XTA    CO746534  31.217  -0.080   8.530
  416XTA    CT246535  31.272  -0.227   8.544
  416XTA   CL1146536  31.309  -0.246   8.694
  416XTA   CL1246537  31.332  -0.392   8.737
  416XTA    HL146538  32.386  -0.567   7.968
  416XTA    HL246539  32.217  -0.622   7.995
  416XTA    HL346540  32.344  -0.732   7.932
  416XTA    HL446541  32.331   0.370   7.492
  416XTA    HL546542  32.243   0.435   7.368
  416XTA    HL646543  32.122   0.397   7.640
  416XTA    HL746544  32.032   0.462   7.506
  416XTA    HL846545  32.184   0.647   7.508
  416XTA    HL946546  32.273   0.584   7.650
  416XTA   HL1046547  31.976   0.640   7.647
  416XTA   HL1146548  32.073   0.594   7.784
  416XTA   HL1246549  32.144   0.863   7.641
  416XTA   HL1346550  32.209   0.800   7.776
  416XTA   HL1446551  31.906   0.861   7.779
  416XTA   HL1546552  32.014   0.842   7.910
  416XTA   HL1646553  31.937   1.051   7.982
  416XTA   HL1746554  32.108   1.097   7.991
  416XTA   HL1846555  32.139   1.316   8.057
  416XTA   HL1946556  31.995   1.292   8.130
  416XTA   HL2046557  31.891   1.484   8.011
  416XTA   HL2146558  32.045   1.546   7.965
  416XTA   HL2246559  32.019   1.521   8.139
  416XTA   HL2346560  31.502   0.187   8.066
  416XTA   HL2446561  31.650   0.291   8.077
  416XTA   HL2546562  31.610   0.363   8.304
  416XTA   HL2646563  31.447   0.357   8.238
  416XTA   HL2746564  31.445   0.126   8.364
  416XTA   HL2846565  31.605   0.145   8.413
  416XTA   HL2946566  31.564   0.353   8.525
  416XTA   HL3046567  31.404   0.357   8.470
  416XTA   HL3146568  31.522   0.120   8.626
  416XTA   HL3246569  31.445   0.247   8.715
  416XTA   HL3346570  31.271   0.099   8.701
  416XTA   HL3446571  31.253   0.173   8.539
  416XTA   HL3546572  31.168  -0.061   8.437
  416XTA   HL3646573  31.151  -0.056   8.612
  416XTA   HL3746574  31.234  -0.188   8.764
  416XTA   HL3846575  31.404  -0.197   8.711
  416XTA   HL3946576  31.350  -0.427   8.842
  416XTA   HL4046577  31.394  -0.456   8.670
  416XTA   HL4146578  31.236  -0.429   8.722
  416XTA    CO846579  31.821   1.249   7.934
  416XTA    CO946580  32.022   1.300   7.786
  416XTA    OA646581  31.964   1.426   7.753
  416XTA   HL4246582  31.790   1.262   8.037
  416XTA   HL4346583  31.794   1.341   7.887
  416XTA   HL4446584  31.476  -0.174   8.486
  416XTA   HL4546585  31.440  -0.340   8.491
  416XTA   CO1046586  31.398  -0.246   8.459
  416XTA   CO1146587  31.173  -0.330   8.489
  416XTA    OA746588  31.396  -0.266   8.346
  416XTA   HL4646589  31.126  -0.286   8.363
  416XTA   HL4746590  31.085  -0.330   8.555
  416XTA   HL4846591  31.992   1.233   7.713
  416XTA   HL4946592  32.129   1.316   7.794
  417XTA     NT46593  31.982   3.361   0.673
  417XTA    CN146594  32.055   3.243   0.651
  417XTA     C146595  32.139   3.203   0.754
  417XTA     C246596  32.221   3.092   0.739
  417XTA     C346597  32.202   3.011   0.624
  417XTA     C446598  32.107   3.046   0.525
  417XTA     C546599  32.034   3.163   0.539
  417XTA    CN246600  31.856   3.347   0.706
  417XTA     C646601  31.816   3.274   0.822
  417XTA     C746602  31.680   3.244   0.838
  417XTA     C846603  31.582   3.291   0.745
  417XTA     C946604  31.626   3.367   0.636
  417XTA    C1046605  31.759   3.390   0.612
  417XTA    CN346606  32.031   3.485   0.675
  417XTA    C1146607  32.065   3.556   0.795
  417XTA    C1246608  32.130   3.681   0.791
  417XTA    C1346609  32.163   3.740   0.664
  417XTA    C1446610  32.127   3.670   0.550
  417XTA    C1546611  32.060   3.545   0.550
  417XTA     H146612  32.149   3.264   0.842
  417XTA     H246613  32.298   3.077   0.813
  417XTA     H346614  32.096   2.992   0.437
  417XTA     H446615  31.965   3.197   0.470
  417XTA     H546616  31.890   3.256   0.896
  417XTA     H646617  31.655   3.183   0.922
  417XTA     H746618  31.549   3.414   0.576
  417XTA     H846619  31.781   3.448   0.530
  417XTA     H946620  32.047   3.519   0.900
  417XTA    H1046621  32.149   3.720   0.889
  417XTA    H1146622  32.164   3.709   0.462
  417XTA    H1246623  32.037   3.502   0.455
  417XTA    OA146624  32.291   2.906   0.609
  417XTA    CO146625  32.265   2.818   0.501
  417XTA    OA246626  31.447   3.262   0.750
  417XTA    CO246627  31.384   3.225   0.875
  417XTA    CL146628  31.234   3.263   0.867
  417XTA    CL246629  31.207   3.414   0.852
  417XTA    CL346630  31.061   3.462   0.856
  417XTA    CL446631  31.040   3.606   0.827
  417XTA    CO346632  30.903   3.656   0.873
  417XTA    OA346633  30.892   3.779   0.812
  417XTA    CO446634  30.763   3.842   0.798
  417XTA    CT146635  30.769   3.954   0.698
  417XTA    CL546636  30.643   3.965   0.622
  417XTA    CL646637  30.516   3.937   0.705
  417XTA    OA446638  32.224   3.862   0.656
  417XTA    CO546639  32.198   3.948   0.772
  417XTA    CL746640  32.226   4.100   0.734
  417XTA    CL846641  32.133   4.145   0.629
  417XTA    CL946642  32.137   4.294   0.602
  417XTA   CL1046643  32.273   4.348   0.563
  417XTA    CO646644  32.336   4.270   0.447
  417XTA    OA546645  32.442   4.351   0.408
  417XTA    CO746646  32.523   4.303   0.307
  417XTA    CT246647  32.649   4.402   0.292
  417XTA   CL1146648  32.610   4.554   0.276
  417XTA   CL1246649  32.537   4.586   0.150
  417XTA    HL146650  32.306   2.716   0.516
  417XTA    HL246651  32.162   2.796   0.486
  417XTA    HL346652  32.317   2.858   0.419
  417XTA    HL446653  31.403   3.120   0.887
  417XTA    HL546654  31.439   3.274   0.963
  417XTA    HL646655  31.194   3.234   0.965
  417XTA    HL746656  31.185   3.201   0.794
  417XTA    HL846657  31.261   3.444   0.762
  417XTA    HL946658  31.269   3.454   0.934
  417XTA   HL1046659  30.994   3.409   0.791
  417XTA   HL1146660  31.024   3.446   0.958
  417XTA   HL1246661  31.047   3.609   0.720
  417XTA   HL1346662  31.130   3.660   0.872
  417XTA   HL1446663  30.826   3.588   0.833
  417XTA   HL1546664  30.886   3.670   0.979
  417XTA   HL1646665  30.702   3.767   0.749
  417XTA   HL1746666  30.720   3.880   0.888
  417XTA   HL1846667  30.638   3.889   0.538
  417XTA   HL1946668  30.646   4.064   0.573
  417XTA   HL2046669  30.509   3.992   0.803
  417XTA   HL2146670  30.499   3.826   0.721
  417XTA   HL2246671  30.427   3.982   0.656
  417XTA   HL2346672  32.256   3.919   0.860
  417XTA   HL2446673  32.093   3.939   0.791
  417XTA   HL2546674  32.208   4.165   0.821
  417XTA   HL2646675  32.333   4.103   0.708
  417XTA   HL2746676  32.167   4.095   0.540
  417XTA   HL2846677  32.024   4.107   0.655
  417XTA   HL2946678  32.071   4.313   0.516
  417XTA   HL3046679  32.093   4.341   0.689
  417XTA   HL3146680  32.279   4.456   0.549
  417XTA   HL3246681  32.334   4.332   0.652
  417XTA   HL3346682  32.365   4.167   0.467
  417XTA   HL3446683  32.273   4.260   0.364
  417XTA   HL3546684  32.470   4.301   0.215
  417XTA   HL3646685  32.553   4.203   0.329
  417XTA   HL3746686  32.694   4.626   0.261
  417XTA   HL3846687  32.548   4.585   0.358
  417XTA   HL3946688  32.503   4.685   0.157
  417XTA   HL4046689  32.447   4.522   0.136
  417XTA   HL4146690  32.600   4.592   0.062
  417XTA    CO846691  30.880   3.925   0.594
  417XTA    CO946692  30.806   4.083   0.768
  417XTA    OA646693  30.938   4.072   0.824
  417XTA   HL4246694  30.856   3.819   0.561
  417XTA   HL4346695  30.980   3.933   0.641
  417XTA   HL4446696  32.771   4.255   0.229
  417XTA   HL4546697  32.699   4.320   0.095
  417XTA   CO1046698  32.743   4.354   0.186
  417XTA   CO1146699  32.717   4.395   0.430
  417XTA    OA746700  32.754   4.263   0.447
  417XTA   HL4646701  32.802   4.470   0.442
  417XTA   HL4746702  32.649   4.423   0.511
  417XTA   HL4846703  30.727   4.112   0.836
  417XTA   HL4946704  30.805   4.158   0.695
  418XTA     NT46705  34.550   1.860   0.267
  418XTA    CN146706  34.585   1.728   0.264
  418XTA     C146707  34.724   1.695   0.254
  418XTA     C246708  34.761   1.558   0.252
  418XTA     C346709  34.664   1.454   0.254
  418XTA     C446710  34.526   1.494   0.262
  418XTA     C546711  34.488   1.632   0.268
  418XTA    CN246712  34.545   1.935   0.154
  418XTA     C646713  34.455   1.906   0.047
  418XTA     C746714  34.469   1.965  -0.076
  418XTA     C846715  34.585   2.041  -0.104
  418XTA     C946716  34.672   2.077   0.004
  418XTA    C1046717  34.646   2.035   0.138
  418XTA    CN346718  34.487   1.902   0.375
  418XTA    C1146719  34.351   1.940   0.379
  418XTA    C1246720  34.291   2.000   0.486
  418XTA    C1346721  34.359   2.003   0.610
  418XTA    C1446722  34.496   1.960   0.609
  418XTA    C1546723  34.562   1.925   0.489
  418XTA     H146724  34.784   1.786   0.236
  418XTA     H246725  34.855   1.531   0.238
  418XTA     H346726  34.439   1.424   0.262
  418XTA     H446727  34.384   1.662   0.288
  418XTA     H546728  34.380   1.836   0.064
  418XTA     H646729  34.387   1.943  -0.150
  418XTA     H746730  34.764   2.131  -0.012
  418XTA     H846731  34.704   2.065   0.228
  418XTA     H946732  34.305   1.945   0.289
  418XTA    H1046733  34.189   2.031   0.469
  418XTA    H1146734  34.560   1.984   0.690
  418XTA    H1246735  34.668   1.906   0.495
  418XTA    OA146736  34.688   1.320   0.243
  418XTA    CO146737  34.822   1.282   0.218
  418XTA    OA246738  34.611   2.088  -0.231
  418XTA    CO246739  34.593   1.989  -0.333
  418XTA    CL146740  34.712   2.003  -0.432
  418XTA    CL246741  34.759   1.877  -0.513
  418XTA    CL346742  34.852   1.928  -0.625
  418XTA    CL446743  34.912   1.823  -0.706
  418XTA    CO346744  34.959   1.872  -0.842
  418XTA    OA346745  34.845   1.895  -0.927
  418XTA    CO446746  34.768   1.774  -0.967
  418XTA    CT146747  34.613   1.802  -0.975
  418XTA    CL546748  34.533   1.677  -0.985
  418XTA    CL646749  34.534   1.581  -0.862
  418XTA    OA446750  34.297   2.059   0.720
  418XTA    CO546751  34.346   2.019   0.846
  418XTA    CL746752  34.448   2.119   0.906
  418XTA    CL846753  34.489   2.086   1.051
  418XTA    CL946754  34.581   2.196   1.112
  418XTA   CL1046755  34.709   2.206   1.034
  418XTA    CO646756  34.827   2.255   1.113
  418XTA    OA546757  34.870   2.169   1.218
  418XTA    CO746758  34.946   2.055   1.187
  418XTA    CT246759  34.947   1.957   1.305
  418XTA   CL1146760  35.020   1.826   1.260
  418XTA   CL1246761  34.935   1.754   1.148
  418XTA    HL146762  34.826   1.173   0.210
  418XTA    HL246763  34.863   1.327   0.130
  418XTA    HL346764  34.883   1.322   0.296
  418XTA    HL446765  34.604   1.883  -0.304
  418XTA    HL546766  34.497   2.001  -0.376
  418XTA    HL646767  34.797   2.041  -0.376
  418XTA    HL746768  34.695   2.077  -0.510
  418XTA    HL846769  34.687   1.808  -0.560
  418XTA    HL946770  34.815   1.822  -0.443
  418XTA   HL1046771  34.794   1.998  -0.684
  418XTA   HL1146772  34.930   1.980  -0.582
  418XTA   HL1246773  34.830   1.751  -0.725
  418XTA   HL1346774  34.999   1.784  -0.654
  418XTA   HL1446775  35.020   1.958  -0.846
  418XTA   HL1546776  35.020   1.793  -0.879
  418XTA   HL1646777  34.800   1.739  -1.071
  418XTA   HL1746778  34.778   1.693  -0.896
  418XTA   HL1846779  34.575   1.620  -1.069
  418XTA   HL1946780  34.433   1.703  -1.020
  418XTA   HL2046781  34.633   1.544  -0.842
  418XTA   HL2146782  34.474   1.489  -0.888
  418XTA   HL2246783  34.491   1.620  -0.769
  418XTA   HL2346784  34.386   1.917   0.850
  418XTA   HL2446785  34.261   2.020   0.904
  418XTA   HL2546786  34.533   2.118   0.838
  418XTA   HL2646787  34.392   2.215   0.900
  418XTA   HL2746788  34.395   2.075   1.107
  418XTA   HL2846789  34.550   1.997   1.052
  418XTA   HL2946790  34.527   2.291   1.126
  418XTA   HL3046791  34.606   2.158   1.217
  418XTA   HL3146792  34.741   2.109   0.998
  418XTA   HL3246793  34.686   2.261   0.946
  418XTA   HL3346794  34.913   2.271   1.054
  418XTA   HL3446795  34.800   2.351   1.168
  418XTA   HL3546796  35.043   2.098   1.162
  418XTA   HL3646797  34.891   2.009   1.100
  418XTA   HL3746798  35.025   1.758   1.338
  418XTA   HL3846799  35.115   1.841   1.216
  418XTA   HL3946800  34.928   1.781   1.039
  418XTA   HL4046801  34.838   1.727   1.182
  418XTA   HL4146802  34.984   1.654   1.140
  418XTA    CO846803  34.569   1.909  -1.072
  418XTA    CO946804  34.552   1.885  -0.865
  418XTA    OA646805  34.521   1.986  -0.959
  418XTA   HL4246806  34.492   1.881  -1.145
  418XTA   HL4346807  34.660   1.937  -1.132
  418XTA   HL4446808  34.756   2.025   1.413
  418XTA   HL4546809  34.738   1.916   1.268
  418XTA   CO1046810  34.797   1.937   1.360
  418XTA   CO1146811  35.038   2.005   1.420
  418XTA    OA746812  34.970   2.095   1.513
  418XTA   HL4646813  35.078   1.917   1.477
  418XTA   HL4746814  35.124   2.055   1.381
  418XTA   HL4846815  34.628   1.907  -0.795
  418XTA   HL4946816  34.457   1.842  -0.826
  419XTA     NT46817  32.386   1.663   3.586
  419XTA    CN146818  32.311   1.688   3.480
  419XTA     C146819  32.260   1.818   3.457
  419XTA     C246820  32.200   1.854   3.337
  419XTA     C346821  32.194   1.762   3.228
  419XTA     C446822  32.244   1.634   3.250
  419XTA     C546823  32.300   1.599   3.370
  419XTA    CN246824  32.522   1.654   3.560
  419XTA     C646825  32.587   1.539   3.587
  419XTA     C746826  32.724   1.523   3.553
  419XTA     C846827  32.801   1.632   3.501
  419XTA     C946828  32.733   1.751   3.469
  419XTA    C1046829  32.595   1.756   3.495
  419XTA    CN346830  32.337   1.693   3.711
  419XTA    C1146831  32.402   1.793   3.787
  419XTA    C1246832  32.348   1.829   3.916
  419XTA    C1346833  32.225   1.774   3.960
  419XTA    C1446834  32.162   1.674   3.883
  419XTA    C1546835  32.215   1.631   3.757
  419XTA     H146836  32.258   1.903   3.532
  419XTA     H246837  32.155   1.948   3.336
  419XTA     H346838  32.231   1.553   3.178
  419XTA     H446839  32.336   1.492   3.385
  419XTA     H546840  32.537   1.454   3.639
  419XTA     H646841  32.768   1.428   3.571
  419XTA     H746842  32.770   1.840   3.421
  419XTA     H846843  32.542   1.850   3.466
  419XTA     H946844  32.482   1.847   3.740
  419XTA    H1046845  32.406   1.908   3.964
  419XTA    H1146846  32.066   1.631   3.916
  419XTA    H1246847  32.160   1.552   3.708
  419XTA    OA146848  32.125   1.800   3.111
  419XTA    CO146849  32.114   1.707   3.005
  419XTA    OA246850  32.941   1.614   3.473
  419XTA    CO246851  33.018   1.724   3.442
  419XTA    CL146852  33.169   1.679   3.436
  419XTA    CL246853  33.221   1.615   3.570
  419XTA    CL346854  33.373   1.592   3.572
  419XTA    CL446855  33.442   1.726   3.606
  419XTA    CO346856  33.582   1.715   3.649
  419XTA    OA346857  33.661   1.657   3.547
  419XTA    CO446858  33.789   1.643   3.606
  419XTA    CT146859  33.895   1.566   3.515
  419XTA    CL546860  33.831   1.421   3.496
  419XTA    CL646861  33.922   1.312   3.441
  419XTA    OA446862  32.164   1.815   4.076
  419XTA    CO546863  32.227   1.929   4.134
  419XTA    CL746864  32.153   1.965   4.264
  419XTA    CL846865  32.048   2.081   4.253
  419XTA    CL946866  32.117   2.219   4.212
  419XTA   CL1046867  32.218   2.268   4.316
  419XTA    CO646868  32.285   2.404   4.271
  419XTA    OA546869  32.305   2.412   4.127
  419XTA    CO746870  32.379   2.532   4.098
  419XTA    CT246871  32.418   2.550   3.948
  419XTA   CL1146872  32.554   2.466   3.926
  419XTA   CL1246873  32.551   2.318   3.969
  419XTA    HL146874  32.208   1.650   2.987
  419XTA    HL246875  32.031   1.632   3.017
  419XTA    HL346876  32.092   1.752   2.909
  419XTA    HL446877  32.981   1.763   3.345
  419XTA    HL546878  33.005   1.797   3.524
  419XTA    HL646879  33.229   1.763   3.407
  419XTA    HL746880  33.198   1.601   3.356
  419XTA    HL846881  33.155   1.522   3.584
  419XTA    HL946882  33.202   1.675   3.658
  419XTA   HL1046883  33.406   1.520   3.650
  419XTA   HL1146884  33.415   1.546   3.481
  419XTA   HL1246885  33.379   1.779   3.681
  419XTA   HL1346886  33.425   1.795   3.520
  419XTA   HL1446887  33.610   1.815   3.671
  419XTA   HL1546888  33.594   1.661   3.748
  419XTA   HL1646889  33.822   1.743   3.631
  419XTA   HL1746890  33.775   1.591   3.694
  419XTA   HL1846891  33.747   1.424   3.421
  419XTA   HL1946892  33.781   1.391   3.582
  419XTA   HL2046893  33.998   1.285   3.510
  419XTA   HL2146894  33.962   1.339   3.340
  419XTA   HL2246895  33.867   1.225   3.430
  419XTA   HL2346896  32.223   2.016   4.061
  419XTA   HL2446897  32.332   1.907   4.164
  419XTA   HL2546898  32.091   1.882   4.301
  419XTA   HL2646899  32.224   1.989   4.345
  419XTA   HL2746900  31.965   2.055   4.184
  419XTA   HL2846901  31.996   2.087   4.349
  419XTA   HL2946902  32.148   2.233   4.108
  419XTA   HL3046903  32.026   2.283   4.220
  419XTA   HL3146904  32.165   2.280   4.413
  419XTA   HL3246905  32.304   2.207   4.325
  419XTA   HL3346906  32.221   2.481   4.304
  419XTA   HL3446907  32.373   2.412   4.333
  419XTA   HL3546908  32.468   2.525   4.157
  419XTA   HL3646909  32.310   2.613   4.129
  419XTA   HL3746910  32.630   2.517   3.983
  419XTA   HL3846911  32.587   2.471   3.821
  419XTA   HL3946912  32.526   2.300   4.064
  419XTA   HL4046913  32.639   2.262   3.948
  419XTA   HL4146914  32.477   2.271   3.908
  419XTA    CO846915  34.023   1.559   3.593
  419XTA    CO946916  33.922   1.629   3.377
  419XTA    OA646917  34.082   1.692   3.608
  419XTA   HL4246918  34.095   1.496   3.534
  419XTA   HL4346919  34.015   1.508   3.688
  419XTA   HL4446920  32.531   2.716   3.984
  419XTA   HL4546921  32.467   2.716   3.815
  419XTA   CO1046922  32.441   2.702   3.924
  419XTA   CO1146923  32.316   2.495   3.845
  419XTA    OA746924  32.351   2.754   3.949
  419XTA   HL4646925  32.213   2.589   3.830
  419XTA   HL4746926  32.267   2.403   3.887
  419XTA   HL4846927  33.934   1.736   3.392
  419XTA   HL4946928  34.020   1.606   3.347
  420XTA     NT46929  30.478   5.371   3.481
  420XTA    CN146930  30.398   5.483   3.460
  420XTA     C146931  30.263   5.455   3.438
  420XTA     C246932  30.167   5.554   3.414
  420XTA     C346933  30.210   5.688   3.404
  420XTA     C446934  30.344   5.714   3.422
  420XTA     C546935  30.438   5.616   3.458
  420XTA    CN246936  30.598   5.359   3.422
  420XTA     C646937  30.605   5.357   3.279
  420XTA     C746938  30.731   5.351   3.218
  420XTA     C846939  30.848   5.334   3.297
  420XTA     C946940  30.841   5.345   3.438
  420XTA    C1046941  30.717   5.356   3.505
  420XTA    CN346942  30.445   5.277   3.566
  420XTA    C1146943  30.420   5.142   3.532
  420XTA    C1246944  30.395   5.045   3.632
  420XTA    C1346945  30.373   5.084   3.768
  420XTA    C1446946  30.397   5.216   3.796
  420XTA    C1546947  30.419   5.314   3.700
  420XTA     H146948  30.238   5.356   3.436
  420XTA     H246949  30.060   5.522   3.416
  420XTA     H346950  30.374   5.815   3.416
  420XTA     H446951  30.536   5.647   3.483
  420XTA     H546952  30.515   5.353   3.216
  420XTA     H646953  30.735   5.341   3.110
  420XTA     H746954  30.936   5.337   3.489
  420XTA     H846955  30.711   5.359   3.612
  420XTA     H946956  30.446   5.100   3.432
  420XTA    H1046957  30.378   4.945   3.601
  420XTA    H1146958  30.375   5.253   3.891
  420XTA    H1246959  30.437   5.413   3.734
  420XTA    OA146960  30.127   5.797   3.372
  420XTA    CO146961  29.986   5.763   3.352
  420XTA    OA246962  30.976   5.322   3.241
  420XTA    CO246963  30.991   5.248   3.117
  420XTA    CL146964  31.132   5.200   3.095
  420XTA    CL246965  31.195   5.198   2.956
  420XTA    CL346966  31.162   5.077   2.864
  420XTA    CL446967  31.022   5.087   2.803
  420XTA    CO346968  30.988   4.961   2.723
  420XTA    OA346969  30.995   4.840   2.807
  420XTA    CO446970  30.885   4.820   2.893
  420XTA    CT146971  30.878   4.679   2.951
  420XTA    CL546972  31.010   4.636   3.018
  420XTA    CL646973  31.024   4.518   3.117
  420XTA    OA446974  30.327   4.993   3.865
  420XTA    CO546975  30.221   5.033   3.952
  420XTA    CL746976  30.111   4.926   3.945
  420XTA    CL846977  30.064   4.888   3.803
  420XTA    CL946978  29.962   4.980   3.737
  420XTA   CL1046979  30.032   5.083   3.647
  420XTA    CO646980  29.931   5.157   3.563
  420XTA    OA546981  29.841   5.216   3.658
  420XTA    CO746982  29.742   5.275   3.579
  420XTA    CT246983  29.665   5.370   3.664
  420XTA   CL1146984  29.544   5.430   3.587
  420XTA   CL1246985  29.576   5.542   3.480
  420XTA    HL146986  29.939   5.852   3.310
  420XTA    HL246987  29.972   5.688   3.272
  420XTA    HL346988  29.941   5.735   3.449
  420XTA    HL446989  30.927   5.154   3.116
  420XTA    HL546990  30.952   5.307   3.035
  420XTA    HL646991  31.144   5.097   3.125
  420XTA    HL746992  31.207   5.266   3.150
  420XTA    HL846993  31.304   5.204   2.956
  420XTA    HL946994  31.170   5.289   2.896
  420XTA   HL1046995  31.237   5.083   2.785
  420XTA   HL1146996  31.175   4.988   2.923
  420XTA   HL1246997  31.037   5.168   2.737
  420XTA   HL1346998  30.941   5.106   2.877
  420XTA   HL1446999  30.882   4.972   2.692
  420XTA   HL1547000  31.050   4.940   2.632
  420XTA   HL1647001  30.897   4.897   2.974
  420XTA   HL1747002  30.789   4.844   2.844
  420XTA   HL1847003  31.056   4.720   3.067
  420XTA   HL1947004  31.077   4.599   2.934
  420XTA   HL2047005  31.024   4.421   3.071
  420XTA   HL2147006  30.941   4.517   3.193
  420XTA   HL2247007  31.116   4.542   3.173
  420XTA   HL2347008  30.188   5.127   3.902
  420XTA   HL2447009  30.264   5.060   4.048
  420XTA   HL2547010  30.158   4.839   3.983
  420XTA   HL2647011  30.030   4.955   4.012
  420XTA   HL2747012  30.145   4.875   3.734
  420XTA   HL2847013  30.042   4.787   3.813
  420XTA   HL2947014  29.894   4.913   3.679
  420XTA   HL3047015  29.882   5.020   3.802
  420XTA   HL3147016  30.090   5.155   3.710
  420XTA   HL3247017  30.109   5.029   3.585
  420XTA   HL3347018  29.978   5.240   3.514
  420XTA   HL3447019  29.866   5.093   3.499
  420XTA   HL3547020  29.672   5.200   3.541
  420XTA   HL3647021  29.779   5.333   3.493
  420XTA   HL3747022  29.468   5.479   3.648
  420XTA   HL3847023  29.478   5.354   3.543
  420XTA   HL3947024  29.660   5.502   3.419
  420XTA   HL4047025  29.589   5.640   3.529
  420XTA   HL4147026  29.485   5.561   3.411
  420XTA    CO847027  30.843   4.581   2.841
  420XTA    CO947028  30.763   4.692   3.063
  420XTA    OA647029  30.796   4.778   3.165
  420XTA   HL4247030  30.749   4.614   2.781
  420XTA   HL4347031  30.922   4.584   2.766
  420XTA   HL4447032  29.847   5.442   3.769
  420XTA   HL4547033  29.807   5.513   3.622
  420XTA   CO1047034  29.759   5.481   3.718
  420XTA   CO1147035  29.620   5.303   3.791
  420XTA    OA747036  29.552   5.396   3.878
  420XTA   HL4647037  29.552   5.220   3.781
  420XTA   HL4747038  29.703   5.267   3.854
  420XTA   HL4847039  30.726   4.594   3.094
  420XTA   HL4947040  30.682   4.727   3.009
  421XTA     NT47041  33.127   2.590   3.480
  421XTA    CN147042  33.040   2.489   3.497
  421XTA     C147043  33.096   2.361   3.530
  421XTA     C247044  33.008   2.257   3.547
  421XTA     C347045  32.871   2.272   3.532
  421XTA     C447046  32.816   2.403   3.509
  421XTA     C547047  32.902   2.506   3.482
  421XTA    CN247048  33.225   2.588   3.385
  421XTA     C647049  33.358   2.598   3.437
  421XTA     C747050  33.467   2.608   3.346
  421XTA     C847051  33.445   2.610   3.206
  421XTA     C947052  33.311   2.596   3.160
  421XTA    C1047053  33.198   2.596   3.247
  421XTA    CN347054  33.111   2.699   3.561
  421XTA    C1147055  33.050   2.815   3.512
  421XTA    C1247056  33.053   2.934   3.583
  421XTA    C1347057  33.115   2.943   3.711
  421XTA    C1447058  33.170   2.823   3.766
  421XTA    C1547059  33.173   2.708   3.685
  421XTA     H147060  33.209   2.363   3.536
  421XTA     H247061  33.050   2.164   3.570
  421XTA     H347062  32.708   2.411   3.509
  421XTA     H447063  32.860   2.599   3.446
  421XTA     H547064  33.372   2.608   3.543
  421XTA     H647065  33.563   2.617   3.394
  421XTA     H747066  33.290   2.594   3.059
  421XTA     H847067  33.103   2.588   3.208
  421XTA     H947068  33.011   2.815   3.407
  421XTA    H1047069  33.015   3.028   3.545
  421XTA    H1147070  33.201   2.830   3.872
  421XTA    H1247071  33.226   2.622   3.725
  421XTA    OA147072  32.786   2.172   3.573
  421XTA    CO147073  32.835   2.076   3.669
  421XTA    OA247074  33.544   2.637   3.114
  421XTA    CO247075  33.667   2.671   3.171
  421XTA    CL147076  33.747   2.736   3.067
  421XTA    CL247077  33.773   2.661   2.938
  421XTA    CL347078  33.856   2.733   2.842
  421XTA    CL447079  33.793   2.863   2.788
  421XTA    CO347080  33.883   2.939   2.693
  421XTA    OA347081  33.895   2.849   2.579
  421XTA    CO447082  34.000   2.881   2.494
  421XTA    CT147083  33.975   2.813   2.354
  421XTA    CL547084  33.958   2.660   2.357
  421XTA    CL647085  34.074   2.585   2.421
  421XTA    OA447086  33.129   3.066   3.772
  421XTA    CO547087  33.214   3.077   3.889
  421XTA    CL747088  33.192   3.217   3.942
  421XTA    CL847089  33.042   3.239   3.990
  421XTA    CL947090  33.011   3.386   3.989
  421XTA   CL1047091  32.860   3.404   4.017
  421XTA    CO647092  32.786   3.374   3.893
  421XTA    OA547093  32.644   3.394   3.918
  421XTA    CO747094  32.571   3.338   3.810
  421XTA    CT247095  32.419   3.372   3.804
  421XTA   CL1147096  32.373   3.383   3.956
  421XTA   CL1247097  32.223   3.422   3.967
  421XTA    HL147098  32.751   2.021   3.715
  421XTA    HL247099  32.895   2.000   3.613
  421XTA    HL347100  32.890   2.116   3.756
  421XTA    HL447101  33.650   2.749   3.246
  421XTA    HL547102  33.698   2.585   3.223
  421XTA    HL647103  33.836   2.769   3.103
  421XTA    HL747104  33.711   2.827   3.046
  421XTA    HL847105  33.682   2.639   2.890
  421XTA    HL947106  33.820   2.566   2.958
  421XTA   HL1047107  33.954   2.749   2.869
  421XTA   HL1147108  33.870   2.667   2.759
  421XTA   HL1247109  33.780   2.934   2.872
  421XTA   HL1347110  33.692   2.847   2.749
  421XTA   HL1447111  33.827   3.022   2.671
  421XTA   HL1547112  33.980   2.962   2.745
  421XTA   HL1647113  34.027   2.985   2.486
  421XTA   HL1747114  34.100   2.851   2.528
  421XTA   HL1847115  33.946   2.616   2.254
  421XTA   HL1947116  33.859   2.641   2.409
  421XTA   HL2047117  34.099   2.635   2.520
  421XTA   HL2147118  34.156   2.625   2.359
  421XTA   HL2247119  34.064   2.474   2.425
  421XTA   HL2347120  33.326   3.063   3.858
  421XTA   HL2447121  33.197   2.998   3.963
  421XTA   HL2547122  33.270   3.241   4.017
  421XTA   HL2647123  33.213   3.291   3.860
  421XTA   HL2747124  32.971   3.188   3.925
  421XTA   HL2847125  33.023   3.187   4.083
  421XTA   HL2947126  33.058   3.434   4.068
  421XTA   HL3047127  33.025   3.427   3.887
  421XTA   HL3147128  32.834   3.336   4.100
  421XTA   HL3247129  32.836   3.506   4.052
  421XTA   HL3347130  32.823   3.423   3.803
  421XTA   HL3447131  32.798   3.262   3.875
  421XTA   HL3547132  32.590   3.232   3.792
  421XTA   HL3647133  32.611   3.394   3.728
  421XTA   HL3747134  32.432   3.460   4.006
  421XTA   HL3847135  32.378   3.280   4.002
  421XTA   HL3947136  32.194   3.385   4.067
  421XTA   HL4047137  32.173   3.361   3.901
  421XTA   HL4147138  32.194   3.529   3.950
  421XTA    CO847139  34.088   2.844   2.264
  421XTA    CO947140  33.841   2.877   2.294
  421XTA    OA647141  33.819   2.842   2.192
  421XTA   HL4247142  34.069   2.938   2.224
  421XTA   HL4347143  34.076   2.762   2.153
  421XTA   HL4447144  32.417   3.270   3.630
  421XTA   HL4547145  32.261   3.297   3.691
  421XTA   CO1047146  32.360   3.265   3.726
  421XTA   CO1147147  32.389   3.509   3.733
  421XTA    OA747148  32.421   3.510   3.598
  421XTA   HL4647149  32.289   3.543   3.753
  421XTA   HL4747150  32.445   3.585   3.782
  421XTA   HL4847151  33.846   2.985   2.296
  421XTA   HL4947152  33.761   2.860   2.366
  422XTA     NT47153  28.517   5.825   1.278
  422XTA    CN147154  28.633   5.897   1.253
  422XTA     C147155  28.716   5.860   1.148
  422XTA     C247156  28.844   5.916   1.128
  422XTA     C347157  28.877   6.028   1.207
  422XTA     C447158  28.788   6.076   1.304
  422XTA     C547159  28.666   6.012   1.331
  422XTA    CN247160  28.400   5.879   1.294
  422XTA     C647161  28.307   5.895   1.186
  422XTA     C747162  28.176   5.946   1.202
  422XTA     C847163  28.135   5.990   1.326
  422XTA     C947164  28.227   5.982   1.434
  422XTA    C1047165  28.358   5.930   1.418
  422XTA    CN347166  28.525   5.687   1.299
  422XTA    C1147167  28.606   5.628   1.399
  422XTA    C1247168  28.624   5.486   1.396
  422XTA    C1347169  28.568   5.403   1.296
  422XTA    C1447170  28.494   5.465   1.196
  422XTA    C1547171  28.467   5.600   1.201
  422XTA     H147172  28.681   5.783   1.074
  422XTA     H247173  28.903   5.882   1.045
  422XTA     H347174  28.821   6.160   1.358
  422XTA     H447175  28.596   6.045   1.398
  422XTA     H547176  28.321   5.863   1.084
  422XTA     H647177  28.104   5.952   1.122
  422XTA     H747178  28.193   6.020   1.532
  422XTA     H847179  28.429   5.929   1.501
  422XTA     H947180  28.657   5.683   1.474
  422XTA    H1047181  28.668   5.436   1.475
  422XTA    H1147182  28.454   5.402   1.112
  422XTA    H1247183  28.407   5.643   1.119
  422XTA    OA147184  28.990   6.101   1.185
  422XTA    CO147185  29.097   6.015   1.142
  422XTA    OA247186  28.003   6.025   1.333
  422XTA    CO247187  27.991   6.159   1.373
  422XTA    CL147188  27.845   6.186   1.409
  422XTA    CL247189  27.794   6.086   1.517
  422XTA    CL347190  27.656   6.119   1.574
  422XTA    CL447191  27.596   6.009   1.661
  422XTA    CO347192  27.671   6.007   1.798
  422XTA    OA347193  27.728   5.881   1.813
  422XTA    CO447194  27.726   5.834   1.947
  422XTA    CT147195  27.776   5.684   1.952
  422XTA    CL547196  27.757   5.633   2.098
  422XTA    CL647197  27.610   5.623   2.151
  422XTA    OA447198  28.578   5.265   1.308
  422XTA    CO547199  28.624   5.198   1.188
  422XTA    CL747200  28.630   5.050   1.208
  422XTA    CL847201  28.497   4.985   1.265
  422XTA    CL947202  28.508   4.830   1.236
  422XTA   CL1047203  28.381   4.761   1.275
  422XTA    CO647204  28.249   4.802   1.203
  422XTA    OA547205  28.267   4.831   1.064
  422XTA    CO747206  28.305   4.713   0.994
  422XTA    CT247207  28.267   4.720   0.843
  422XTA   CL1147208  28.121   4.651   0.835
  422XTA   CL1247209  28.011   4.718   0.917
  422XTA    HL147210  29.082   5.976   1.037
  422XTA    HL247211  29.191   6.065   1.141
  422XTA    HL347212  29.102   5.926   1.202
  422XTA    HL447213  28.044   6.173   1.463
  422XTA    HL547214  28.029   6.224   1.290
  422XTA    HL647215  27.800   6.180   1.314
  422XTA    HL747216  27.852   6.289   1.443
  422XTA    HL847217  27.863   6.083   1.608
  422XTA    HL947218  27.789   5.988   1.467
  422XTA   HL1047219  27.659   6.212   1.625
  422XTA   HL1147220  27.597   6.128   1.483
  422XTA   HL1247221  27.605   5.902   1.621
  422XTA   HL1347222  27.492   6.031   1.692
  422XTA   HL1447223  27.742   6.088   1.802
  422XTA   HL1547224  27.587   6.027   1.879
  422XTA   HL1647225  27.779   5.901   2.021
  422XTA   HL1747226  27.620   5.838   1.974
  422XTA   HL1847227  27.811   5.712   2.152
  422XTA   HL1947228  27.796   5.537   2.124
  422XTA   HL2047229  27.553   5.560   2.085
  422XTA   HL2147230  27.559   5.717   2.168
  422XTA   HL2247231  27.600   5.568   2.247
  422XTA   HL2347232  28.722   5.235   1.149
  422XTA   HL2447233  28.551   5.220   1.107
  422XTA   HL2547234  28.663   5.004   1.110
  422XTA   HL2647235  28.713   5.029   1.277
  422XTA   HL2747236  28.473   4.993   1.369
  422XTA   HL2847237  28.410   5.012   1.204
  422XTA   HL2947238  28.528   4.826   1.128
  422XTA   HL3047239  28.590   4.774   1.297
  422XTA   HL3147240  28.385   4.652   1.277
  422XTA   HL3247241  28.360   4.778   1.380
  422XTA   HL3347242  28.170   4.731   1.226
  422XTA   HL3447243  28.230   4.901   1.244
  422XTA   HL3547244  28.245   4.638   1.036
  422XTA   HL3647245  28.419   4.695   1.010
  422XTA   HL3747246  28.130   4.549   0.868
  422XTA   HL3847247  28.092   4.655   0.726
  422XTA   HL3947248  27.922   4.654   0.898
  422XTA   HL4047249  27.993   4.817   0.877
  422XTA   HL4147250  28.044   4.717   1.019
  422XTA    CO847251  27.919   5.681   1.918
  422XTA    CO947252  27.696   5.593   1.852
  422XTA    OA647253  27.742   5.489   1.855
  422XTA   HL4247254  27.974   5.741   1.991
  422XTA   HL4347255  27.944   5.742   1.793
  422XTA   HL4447256  28.338   4.535   0.797
  422XTA   HL4547257  28.316   4.639   0.657
  422XTA   CO1047258  28.357   4.632   0.757
  422XTA   CO1147259  28.269   4.865   0.779
  422XTA    OA747260  28.456   4.660   0.782
  422XTA   HL4647261  28.172   4.954   0.827
  422XTA   HL4747262  28.239   4.847   0.681
  422XTA   HL4847263  27.704   5.636   1.756
  422XTA   HL4947264  27.590   5.611   1.880
  423XTA     NT47265  26.523   0.264   2.539
  423XTA    CN147266  26.635   0.197   2.539
  423XTA     C147267  26.732   0.212   2.636
  423XTA     C247268  26.860   0.154   2.618
  423XTA     C347269  26.889   0.076   2.508
  423XTA     C447270  26.791   0.054   2.415
  423XTA     C547271  26.665   0.117   2.426
  423XTA    CN247272  26.413   0.184   2.533
  423XTA     C647273  26.318   0.202   2.427
  423XTA     C747274  26.198   0.129   2.419
  423XTA     C847275  26.166   0.032   2.515
  423XTA     C947276  26.259   0.012   2.623
  423XTA    C1047277  26.380   0.087   2.631
  423XTA    CN347278  26.518   0.395   2.517
  423XTA    C1147279  26.495   0.488   2.621
  423XTA    C1247280  26.484   0.623   2.596
  423XTA    C1347281  26.488   0.677   2.466
  423XTA    C1447282  26.516   0.586   2.360
  423XTA    C1547283  26.526   0.446   2.383
  423XTA     H147284  26.704   0.277   2.714
  423XTA     H247285  26.942   0.174   2.683
  423XTA     H347286  26.812  -0.002   2.323
  423XTA     H447287  26.601   0.106   2.341
  423XTA     H547288  26.336   0.265   2.343
  423XTA     H647289  26.116   0.140   2.346
  423XTA     H747290  26.225  -0.044   2.709
  423XTA     H847291  26.439   0.075   2.721
  423XTA     H947292  26.490   0.460   2.722
  423XTA    H1047293  26.455   0.693   2.668
  423XTA    H1147294  26.527   0.624   2.263
  423XTA    H1247295  26.540   0.380   2.299
  423XTA    OA147296  27.010   0.015   2.489
  423XTA    CO147297  27.123   0.100   2.506
  423XTA    OA247298  26.045  -0.041   2.505
  423XTA    CO247299  26.029  -0.153   2.596
  423XTA    CL147300  26.114  -0.266   2.542
  423XTA    CL247301  26.073  -0.302   2.404
  423XTA    CL347302  26.128  -0.425   2.337
  423XTA    CL447303  26.283  -0.427   2.330
  423XTA    CO347304  26.349  -0.512   2.440
  423XTA    OA347305  26.284  -0.637   2.453
  423XTA    CO447306  26.333  -0.715   2.554
  423XTA    CT147307  26.263  -0.848   2.542
  423XTA    CL547308  26.332  -0.947   2.628
  423XTA    CL647309  26.290  -1.098   2.608
  423XTA    OA447310  26.465   0.811   2.448
  423XTA    CO547311  26.480   0.867   2.316
  423XTA    CL747312  26.493   1.024   2.322
  423XTA    CL847313  26.610   1.055   2.419
  423XTA    CL947314  26.645   1.205   2.407
  423XTA   CL1047315  26.775   1.234   2.482
  423XTA    CO647316  26.792   1.174   2.623
  423XTA    OA547317  26.877   1.258   2.698
  423XTA    CO747318  26.893   1.217   2.827
  423XTA    CT247319  26.939   1.335   2.919
  423XTA   CL1147320  26.942   1.283   3.064
  423XTA   CL1247321  27.070   1.221   3.109
  423XTA    HL147322  27.121   0.182   2.430
  423XTA    HL247323  27.115   0.140   2.607
  423XTA    HL347324  27.214   0.043   2.480
  423XTA    HL447325  26.040  -0.130   2.701
  423XTA    HL547326  25.925  -0.179   2.572
  423XTA    HL647327  26.109  -0.351   2.609
  423XTA    HL747328  26.219  -0.231   2.534
  423XTA    HL847329  26.109  -0.211   2.352
  423XTA    HL947330  25.965  -0.308   2.394
  423XTA   HL1047331  26.097  -0.526   2.381
  423XTA   HL1147332  26.088  -0.428   2.240
  423XTA   HL1247333  26.324  -0.328   2.344
  423XTA   HL1347334  26.304  -0.466   2.244
  423XTA   HL1447335  26.451  -0.524   2.432
  423XTA   HL1547336  26.328  -0.464   2.543
  423XTA   HL1647337  26.446  -0.724   2.536
  423XTA   HL1747338  26.322  -0.662   2.654
  423XTA   HL1847339  26.313  -0.910   2.723
  423XTA   HL1947340  26.441  -0.953   2.625
  423XTA   HL2047341  26.182  -1.113   2.608
  423XTA   HL2147342  26.315  -1.162   2.690
  423XTA   HL2247343  26.329  -1.143   2.525
  423XTA   HL2347344  26.404   0.833   2.251
  423XTA   HL2447345  26.572   0.833   2.279
  423XTA   HL2547346  26.500   1.067   2.223
  423XTA   HL2647347  26.403   1.070   2.365
  423XTA   HL2747348  26.585   1.038   2.524
  423XTA   HL2847349  26.695   0.982   2.396
  423XTA   HL2947350  26.665   1.235   2.300
  423XTA   HL3047351  26.557   1.256   2.432
  423XTA   HL3147352  26.862   1.204   2.423
  423XTA   HL3247353  26.778   1.338   2.491
  423XTA   HL3347354  26.688   1.173   2.666
  423XTA   HL3447355  26.833   1.075   2.608
  423XTA   HL3547356  26.966   1.135   2.836
  423XTA   HL3647357  26.793   1.182   2.854
  423XTA   HL3747358  26.855   1.213   3.079
  423XTA   HL3847359  26.922   1.368   3.124
  423XTA   HL3947360  27.095   1.132   3.053
  423XTA   HL4047361  27.047   1.180   3.204
  423XTA   HL4147362  27.163   1.278   3.111
  423XTA    CO847363  26.261  -0.899   2.400
  423XTA    CO947364  26.125  -0.827   2.595
  423XTA    OA647365  26.364  -0.902   2.356
  423XTA   HL4247366  26.215  -0.821   2.349
  423XTA   HL4347367  26.194  -0.990   2.390
  423XTA   HL4447368  26.811   1.447   2.806
  423XTA   HL4547369  26.722   1.413   2.985
  423XTA   CO1047370  26.838   1.446   2.910
  423XTA   CO1147371  27.071   1.395   2.888
  423XTA    OA747372  27.072   1.415   2.782
  423XTA   HL4647373  27.078   1.486   2.946
  423XTA   HL4747374  27.160   1.338   2.909
  423XTA   HL4847375  26.125  -0.765   2.721
  423XTA   HL4947376  26.091  -0.928   2.606
  424XTA     NT47377  26.568  -1.291   7.293
  424XTA    CN147378  26.453  -1.345   7.245
  424XTA     C147379  26.377  -1.264   7.164
  424XTA     C247380  26.263  -1.317   7.098
  424XTA     C347381  26.214  -1.442   7.134
  424XTA     C447382  26.289  -1.525   7.217
  424XTA     C547383  26.414  -1.477   7.267
  424XTA    CN247384  26.602  -1.302   7.425
  424XTA     C647385  26.530  -1.219   7.511
  424XTA     C747386  26.561  -1.225   7.650
  424XTA     C847387  26.658  -1.311   7.706
  424XTA     C947388  26.722  -1.394   7.618
  424XTA    C1047389  26.693  -1.391   7.476
  424XTA    CN347390  26.662  -1.247   7.212
  424XTA    C1147391  26.714  -1.334   7.112
  424XTA    C1247392  26.823  -1.289   7.029
  424XTA    C1347393  26.851  -1.153   7.023
  424XTA    C1447394  26.805  -1.073   7.122
  424XTA    C1547395  26.713  -1.113   7.220
  424XTA     H147396  26.411  -1.167   7.141
  424XTA     H247397  26.214  -1.251   7.029
  424XTA     H347398  26.270  -1.626   7.239
  424XTA     H447399  26.476  -1.540   7.323
  424XTA     H547400  26.456  -1.151   7.470
  424XTA     H647401  26.510  -1.160   7.719
  424XTA     H747402  26.807  -1.459   7.654
  424XTA     H847403  26.744  -1.452   7.412
  424XTA     H947404  26.688  -1.435   7.102
  424XTA    H1047405  26.867  -1.366   6.960
  424XTA    H1147406  26.825  -0.972   7.107
  424XTA    H1247407  26.685  -1.050   7.307
  424XTA    OA147408  26.089  -1.468   7.088
  424XTA    CO147409  26.030  -1.586   7.134
  424XTA    OA247410  26.690  -1.309   7.842
  424XTA    CO247411  26.763  -1.414   7.888
  424XTA    CL147412  26.907  -1.358   7.879
  424XTA    CL247413  27.014  -1.459   7.937
  424XTA    CL347414  27.165  -1.418   7.941
  424XTA    CL447415  27.254  -1.522   8.019
  424XTA    CO347416  27.399  -1.505   7.990
  424XTA    OA347417  27.456  -1.586   8.097
  424XTA    CO447418  27.578  -1.642   8.060
  424XTA    CT147419  27.615  -1.729   8.191
  424XTA    CL547420  27.489  -1.817   8.230
  424XTA    CL647421  27.357  -1.762   8.288
  424XTA    OA447422  26.935  -1.093   6.926
  424XTA    CO547423  27.017  -1.180   6.833
  424XTA    CL747424  27.061  -1.092   6.714
  424XTA    CL847425  26.944  -1.043   6.619
  424XTA    CL947426  26.984  -0.924   6.532
  424XTA   CL1047427  27.086  -0.963   6.423
  424XTA    CO647428  27.136  -0.847   6.353
  424XTA    OA547429  27.022  -0.776   6.304
  424XTA    CO747430  26.950  -0.831   6.195
  424XTA    CT247431  26.857  -0.735   6.120
  424XTA   CL1147432  26.779  -0.805   6.011
  424XTA   CL1247433  26.852  -0.867   5.891
  424XTA    HL147434  25.988  -1.583   7.235
  424XTA    HL247435  25.948  -1.599   7.060
  424XTA    HL347436  26.088  -1.673   7.117
  424XTA    HL447437  26.736  -1.412   7.993
  424XTA    HL547438  26.744  -1.515   7.859
  424XTA    HL647439  26.913  -1.265   7.939
  424XTA    HL747440  26.939  -1.333   7.772
  424XTA    HL847441  27.011  -1.550   7.885
  424XTA    HL947442  26.981  -1.477   8.035
  424XTA   HL1047443  27.196  -1.418   7.841
  424XTA   HL1147444  27.196  -1.319   7.977
  424XTA   HL1247445  27.217  -1.614   7.996
  424XTA   HL1347446  27.246  -1.512   8.127
  424XTA   HL1447447  27.418  -1.534   7.894
  424XTA   HL1547448  27.429  -1.399   8.001
  424XTA   HL1647449  27.556  -1.701   7.969
  424XTA   HL1747450  27.650  -1.557   8.051
  424XTA   HL1847451  27.528  -1.881   8.307
  424XTA   HL1947452  27.472  -1.886   8.160
  424XTA   HL2047453  27.282  -1.829   8.339
  424XTA   HL2147454  27.300  -1.720   8.207
  424XTA   HL2247455  27.392  -1.689   8.362
  424XTA   HL2347456  26.961  -1.260   6.800
  424XTA   HL2447457  27.100  -1.217   6.881
  424XTA   HL2547458  27.117  -1.008   6.755
  424XTA   HL2647459  27.135  -1.140   6.649
  424XTA   HL2747460  26.919  -1.123   6.551
  424XTA   HL2847461  26.864  -1.010   6.688
  424XTA   HL2947462  26.895  -0.883   6.489
  424XTA   HL3047463  27.015  -0.840   6.592
  424XTA   HL3147464  27.161  -1.009   6.485
  424XTA   HL3247465  27.039  -1.035   6.359
  424XTA   HL3347466  27.205  -0.787   6.411
  424XTA   HL3447467  27.195  -0.882   6.274
  424XTA   HL3547468  26.899  -0.913   6.246
  424XTA   HL3647469  27.021  -0.871   6.125
  424XTA   HL3747470  26.712  -0.738   5.960
  424XTA   HL3847471  26.722  -0.892   6.059
  424XTA   HL3947472  26.871  -0.792   5.818
  424XTA   HL4047473  26.792  -0.945   5.843
  424XTA   HL4147474  26.948  -0.913   5.908
  424XTA    CO847475  27.660  -1.644   8.307
  424XTA    CO947476  27.724  -1.827   8.142
  424XTA    OA647477  27.744  -1.899   8.221
  424XTA   HL4247478  27.750  -1.589   8.275
  424XTA   HL4347479  27.689  -1.720   8.426
  424XTA   HL4447480  26.883  -0.545   6.007
  424XTA   HL4547481  26.985  -0.554   6.147
  424XTA   CO1047482  26.939  -0.612   6.063
  424XTA   CO1147483  26.749  -0.680   6.220
  424XTA    OA747484  27.016  -0.651   5.986
  424XTA   HL4647485  26.690  -0.574   6.149
  424XTA   HL4747486  26.804  -0.643   6.308
  424XTA   HL4847487  27.816  -1.771   8.113
  424XTA   HL4947488  27.669  -1.872   8.057
  425XTA     NT47489  30.537   3.770   0.177
  425XTA    CN147490  30.472   3.679   0.095
  425XTA     C147491  30.353   3.610   0.133
  425XTA     C247492  30.282   3.540   0.031
  425XTA     C347493  30.326   3.534  -0.101
  425XTA     C447494  30.452   3.594  -0.136
  425XTA     C547495  30.516   3.671  -0.034
  425XTA    CN247496  30.479   3.888   0.215
  425XTA     C647497  30.547   4.010   0.196
  425XTA     C747498  30.486   4.131   0.229
  425XTA     C847499  30.366   4.141   0.297
  425XTA     C947500  30.300   4.017   0.316
  425XTA    C1047501  30.352   3.892   0.267
  425XTA    CN347502  30.632   3.720   0.254
  425XTA    C1147503  30.766   3.760   0.225
  425XTA    C1247504  30.871   3.697   0.296
  425XTA    C1347505  30.842   3.592   0.386
  425XTA    C1447506  30.713   3.547   0.411
  425XTA    C1547507  30.609   3.618   0.345
  425XTA     H147508  30.317   3.612   0.228
  425XTA     H247509  30.182   3.512   0.045
  425XTA     H347510  30.498   3.584  -0.234
  425XTA     H447511  30.606   3.724  -0.058
  425XTA     H547512  30.639   4.006   0.137
  425XTA     H647513  30.542   4.222   0.198
  425XTA     H747514  30.198   4.013   0.361
  425XTA     H847515  30.305   3.800   0.288
  425XTA     H947516  30.773   3.831   0.150
  425XTA    H1047517  30.973   3.711   0.271
  425XTA    H1147518  30.691   3.469   0.477
  425XTA    H1247519  30.507   3.594   0.375
  425XTA    OA147520  30.261   3.472  -0.204
  425XTA    CO147521  30.146   3.382  -0.178
  425XTA    OA247522  30.319   4.270   0.327
  425XTA    CO247523  30.297   4.289   0.467
  425XTA    CL147524  30.426   4.302   0.547
  425XTA    CL247525  30.415   4.348   0.694
  425XTA    CL347526  30.548   4.377   0.757
  425XTA    CL447527  30.530   4.433   0.896
  425XTA    CO347528  30.658   4.474   0.972
  425XTA    OA347529  30.733   4.352   0.960
  425XTA    CO447530  30.851   4.353   1.038
  425XTA    CT147531  30.925   4.224   1.048
  425XTA    CL547532  30.852   4.108   1.117
  425XTA    CL647533  30.784   4.145   1.246
  425XTA    OA447534  30.957   3.543   0.447
  425XTA    CO547535  30.947   3.421   0.513
  425XTA    CL747536  31.091   3.362   0.518
  425XTA    CL847537  31.171   3.349   0.387
  425XTA    CL947538  31.146   3.212   0.317
  425XTA   CL1047539  31.010   3.187   0.247
  425XTA    CO647540  30.978   3.302   0.154
  425XTA    OA547541  30.878   3.261   0.063
  425XTA    CO747542  30.753   3.279   0.112
  425XTA    CT247543  30.649   3.221   0.016
  425XTA   CL1147544  30.658   3.066   0.017
  425XTA   CL1247545  30.783   2.997  -0.048
  425XTA    HL147546  30.124   3.305  -0.253
  425XTA    HL247547  30.156   3.317  -0.084
  425XTA    HL347548  30.051   3.442  -0.179
  425XTA    HL447549  30.233   4.376   0.480
  425XTA    HL547550  30.246   4.211   0.513
  425XTA    HL647551  30.483   4.369   0.497
  425XTA    HL747552  30.485   4.210   0.554
  425XTA    HL847553  30.377   4.264   0.755
  425XTA    HL947554  30.335   4.425   0.701
  425XTA   HL1047555  30.605   4.289   0.771
  425XTA   HL1147556  30.614   4.456   0.707
  425XTA   HL1247557  30.486   4.353   0.955
  425XTA   HL1347558  30.462   4.523   0.881
  425XTA   HL1447559  30.716   4.550   0.919
  425XTA   HL1547560  30.636   4.508   1.074
  425XTA   HL1647561  30.924   4.429   0.991
  425XTA   HL1747562  30.840   4.404   1.140
  425XTA   HL1847563  30.914   4.030   1.141
  425XTA   HL1947564  30.776   4.079   1.043
  425XTA   HL2047565  30.851   4.185   1.326
  425XTA   HL2147566  30.723   4.065   1.294
  425XTA   HL2247567  30.720   4.223   1.224
  425XTA   HL2347568  30.886   3.351   0.459
  425XTA   HL2447569  30.903   3.421   0.611
  425XTA   HL2547570  31.154   3.429   0.583
  425XTA   HL2647571  31.086   3.271   0.572
  425XTA   HL2747572  31.158   3.431   0.324
  425XTA   HL2847573  31.278   3.354   0.421
  425XTA   HL2947574  31.225   3.188   0.242
  425XTA   HL3047575  31.160   3.136   0.392
  425XTA   HL3147576  31.017   3.096   0.192
  425XTA   HL3247577  30.940   3.178   0.327
  425XTA   HL3347578  30.957   3.400   0.204
  425XTA   HL3447579  31.058   3.321   0.086
  425XTA   HL3547580  30.722   3.383   0.134
  425XTA   HL3647581  30.757   3.239   0.209
  425XTA   HL3747582  30.564   3.034  -0.025
  425XTA   HL3847583  30.653   3.034   0.122
  425XTA   HL3947584  30.763   2.890  -0.029
  425XTA   HL4047585  30.878   3.024  -0.007
  425XTA   HL4147586  30.785   3.012  -0.155
  425XTA    CO847587  31.055   4.253   1.132
  425XTA    CO947588  30.969   4.180   0.904
  425XTA    OA647589  31.120   4.129   1.145
  425XTA   HL4247590  31.014   4.281   1.226
  425XTA   HL4347591  31.110   4.335   1.092
  425XTA   HL4447592  30.652   3.387  -0.125
  425XTA   HL4547593  30.782   3.271  -0.174
  425XTA   CO1047594  30.679   3.279  -0.135
  425XTA   CO1147595  30.506   3.256   0.062
  425XTA    OA747596  30.607   3.237  -0.210
  425XTA   HL4647597  30.514   3.388   0.113
  425XTA   HL4747598  30.449   3.250  -0.027
  425XTA   HL4847599  30.940   4.265   0.839
  425XTA   HL4947600  31.081   4.186   0.904
  426XTA     NT47601  29.467   3.590   1.561
  426XTA    CN147602  29.406   3.629   1.673
  426XTA     C147603  29.405   3.763   1.703
  426XTA     C247604  29.344   3.812   1.822
  426XTA     C347605  29.284   3.724   1.913
  426XTA     C447606  29.282   3.588   1.880
  426XTA     C547607  29.340   3.541   1.764
  426XTA    CN247608  29.571   3.507   1.584
  426XTA     C647609  29.567   3.376   1.538
  426XTA     C747610  29.680   3.289   1.573
  426XTA     C847611  29.793   3.339   1.642
  426XTA     C947612  29.798   3.478   1.680
  426XTA    C1047613  29.686   3.558   1.650
  426XTA    CN347614  29.425   3.632   1.443
  426XTA    C1147615  29.494   3.738   1.371
  426XTA    C1247616  29.450   3.771   1.245
  426XTA    C1347617  29.356   3.689   1.179
  426XTA    C1447618  29.282   3.594   1.257
  426XTA    C1547619  29.310   3.570   1.390
  426XTA     H147620  29.448   3.830   1.635
  426XTA     H247621  29.336   3.920   1.846
  426XTA     H347622  29.242   3.516   1.953
  426XTA     H447623  29.329   3.432   1.751
  426XTA     H547624  29.476   3.338   1.486
  426XTA     H647625  29.681   3.190   1.548
  426XTA     H747626  29.869   3.535   1.728
  426XTA     H847627  29.688   3.662   1.675
  426XTA     H947628  29.575   3.788   1.412
  426XTA    H1047629  29.499   3.846   1.187
  426XTA    H1147630  29.209   3.534   1.215
  426XTA    H1247631  29.261   3.489   1.445
  426XTA    OA147632  29.220   3.756   2.034
  426XTA    CO147633  29.145   3.879   2.025
  426XTA    OA247634  29.890   3.253   1.678
  426XTA    CO247635  29.933   3.262   1.816
  426XTA    CL147636  29.817   3.225   1.914
  426XTA    CL247637  29.846   3.241   2.064
  426XTA    CL347638  29.905   3.373   2.119
  426XTA    CL447639  29.907   3.373   2.275
  426XTA    CO347640  30.016   3.277   2.328
  426XTA    OA347641  29.987   3.193   2.438
  426XTA    CO447642  29.906   3.080   2.397
  426XTA    CT147643  29.822   3.043   2.510
  426XTA    CL547644  29.732   2.923   2.462
  426XTA    CL647645  29.798   2.796   2.416
  426XTA    OA447646  29.330   3.711   1.044
  426XTA    CO547647  29.202   3.669   0.994
  426XTA    CL747648  29.207   3.527   0.947
  426XTA    CL847649  29.073   3.467   0.909
  426XTA    CL947650  29.076   3.326   0.854
  426XTA   CL1047651  29.136   3.213   0.949
  426XTA    CO647652  29.119   3.075   0.879
  426XTA    OA547653  29.172   3.071   0.746
  426XTA    CO747654  29.123   2.960   0.675
  426XTA    CT247655  29.202   2.929   0.551
  426XTA   CL1147656  29.341   2.866   0.594
  426XTA   CL1247657  29.345   2.761   0.713
  426XTA    HL147658  29.087   3.867   1.948
  426XTA    HL247659  29.085   3.882   2.114
  426XTA    HL347660  29.202   3.964   2.016
  426XTA    HL447661  30.016   3.192   1.822
  426XTA    HL547662  29.963   3.360   1.834
  426XTA    HL647663  29.789   3.123   1.905
  426XTA    HL747664  29.724   3.283   1.900
  426XTA    HL847665  29.904   3.160   2.109
  426XTA    HL947666  29.751   3.230   2.106
  426XTA   HL1047667  29.996   3.399   2.072
  426XTA   HL1147668  29.839   3.458   2.092
  426XTA   HL1247669  29.813   3.324   2.301
  426XTA   HL1347670  29.922   3.475   2.315
  426XTA   HL1447671  30.054   3.220   2.247
  426XTA   HL1547672  30.102   3.336   2.361
  426XTA   HL1647673  29.849   3.106   2.308
  426XTA   HL1747674  29.961   2.991   2.368
  426XTA   HL1847675  29.661   2.962   2.388
  426XTA   HL1947676  29.666   2.887   2.545
  426XTA   HL2047677  29.730   2.734   2.350
  426XTA   HL2147678  29.830   2.733   2.500
  426XTA   HL2247679  29.892   2.807   2.370
  426XTA   HL2347680  29.168   3.727   0.909
  426XTA   HL2447681  29.134   3.690   1.071
  426XTA   HL2547682  29.267   3.524   0.854
  426XTA   HL2647683  29.246   3.462   1.022
  426XTA   HL2747684  29.024   3.452   1.006
  426XTA   HL2847685  29.019   3.524   0.833
  426XTA   HL2947686  28.975   3.286   0.839
  426XTA   HL3047687  29.127   3.321   0.747
  426XTA   HL3147688  29.246   3.229   0.964
  426XTA   HL3247689  29.079   3.215   1.041
  426XTA   HL3347690  29.165   2.995   0.938
  426XTA   HL3447691  29.011   3.057   0.884
  426XTA   HL3547692  29.017   2.980   0.651
  426XTA   HL3647693  29.123   2.867   0.746
  426XTA   HL3747694  29.394   2.954   0.632
  426XTA   HL3847695  29.396   2.841   0.499
  426XTA   HL3947696  29.314   2.801   0.809
  426XTA   HL4047697  29.448   2.726   0.730
  426XTA   HL4147698  29.281   2.675   0.706
  426XTA    CO847699  29.747   3.167   2.557
  426XTA    CO947700  29.903   2.982   2.630
  426XTA    OA647701  29.973   3.059   2.678
  426XTA   HL4247702  29.723   3.229   2.472
  426XTA   HL4347703  29.834   3.249   2.632
  426XTA   HL4447704  29.355   3.041   0.397
  426XTA   HL4547705  29.285   3.123   0.550
  426XTA   CO1047706  29.240   3.060   0.479
  426XTA   CO1147707  29.120   2.835   0.454
  426XTA    OA747708  29.139   2.730   0.485
  426XTA   HL4647709  29.012   2.856   0.448
  426XTA   HL4747710  29.159   2.858   0.357
  426XTA   HL4847711  29.969   2.911   2.581
  426XTA   HL4947712  29.832   2.949   2.702
  427XTA     NT47713  30.807   2.611   0.312
  427XTA    CN147714  30.930   2.658   0.350
  427XTA     C147715  31.011   2.574   0.423
  427XTA     C247716  31.138   2.613   0.465
  427XTA     C347717  31.184   2.748   0.439
  427XTA     C447718  31.108   2.825   0.345
  427XTA     C547719  30.981   2.782   0.307
  427XTA    CN247720  30.782   2.566   0.187
  427XTA     C647721  30.714   2.652   0.097
  427XTA     C747722  30.709   2.610  -0.036
  427XTA     C847723  30.768   2.492  -0.086
  427XTA     C947724  30.823   2.405   0.007
  427XTA    C1047725  30.827   2.439   0.144
  427XTA    CN347726  30.709   2.613   0.401
  427XTA    C1147727  30.663   2.497   0.454
  427XTA    C1247728  30.559   2.497   0.546
  427XTA    C1347729  30.500   2.622   0.588
  427XTA    C1447730  30.541   2.744   0.526
  427XTA    C1547731  30.648   2.737   0.434
  427XTA     H147732  30.976   2.469   0.449
  427XTA     H247733  31.207   2.546   0.518
  427XTA     H347734  31.152   2.918   0.313
  427XTA     H447735  30.914   2.838   0.247
  427XTA     H547736  30.673   2.744   0.127
  427XTA     H647737  30.667   2.674  -0.119
  427XTA     H747738  30.864   2.313  -0.026
  427XTA     H847739  30.867   2.366   0.211
  427XTA     H947740  30.715   2.412   0.409
  427XTA    H1047741  30.521   2.407   0.593
  427XTA    H1147742  30.514   2.839   0.566
  427XTA    H1247743  30.705   2.811   0.388
  427XTA    OA147744  31.311   2.782   0.477
  427XTA    CO147745  31.322   2.907   0.531
  427XTA    OA247746  30.758   2.470  -0.218
  427XTA    CO247747  30.821   2.353  -0.271
  427XTA    CL147748  30.831   2.375  -0.423
  427XTA    CL247749  30.950   2.290  -0.474
  427XTA    CL347750  30.977   2.300  -0.624
  427XTA    CL447751  31.101   2.221  -0.662
  427XTA    CO347752  31.143   2.220  -0.803
  427XTA    OA347753  31.256   2.307  -0.828
  427XTA    CO447754  31.214   2.440  -0.816
  427XTA    CT147755  31.323   2.542  -0.837
  427XTA    CL547756  31.275   2.682  -0.791
  427XTA    CL647757  31.386   2.792  -0.776
  427XTA    OA447758  30.410   2.629   0.692
  427XTA    CO547759  30.295   2.561   0.675
  427XTA    CL747760  30.233   2.514   0.808
  427XTA    CL847761  30.110   2.432   0.804
  427XTA    CL947762  30.050   2.398   0.936
  427XTA   CL1047763  29.951   2.506   0.982
  427XTA    CO647764  29.966   2.541   1.125
  427XTA    OA547765  30.099   2.587   1.137
  427XTA    CO747766  30.142   2.608   1.270
  427XTA    CT247767  30.270   2.691   1.268
  427XTA   CL1147768  30.328   2.697   1.416
  427XTA   CL1247769  30.455   2.771   1.440
  427XTA    HL147770  31.431   2.925   0.540
  427XTA    HL247771  31.259   2.973   0.462
  427XTA    HL347772  31.264   2.935   0.617
  427XTA    HL447773  30.928   2.348  -0.230
  427XTA    HL547774  30.781   2.260  -0.240
  427XTA    HL647775  30.844   2.477  -0.449
  427XTA    HL747776  30.736   2.347  -0.465
  427XTA    HL847777  30.929   2.186  -0.442
  427XTA    HL947778  31.046   2.319  -0.424
  427XTA   HL1047779  30.886   2.256  -0.669
  427XTA   HL1147780  30.972   2.401  -0.656
  427XTA   HL1247781  31.067   2.121  -0.636
  427XTA   HL1347782  31.182   2.240  -0.598
  427XTA   HL1447783  31.185   2.125  -0.834
  427XTA   HL1547784  31.058   2.254  -0.866
  427XTA   HL1647785  31.131   2.453  -0.886
  427XTA   HL1747786  31.174   2.457  -0.719
  427XTA   HL1847787  31.222   2.661  -0.698
  427XTA   HL1947788  31.200   2.716  -0.865
  427XTA   HL2047789  31.348   2.892  -0.763
  427XTA   HL2147790  31.447   2.799  -0.875
  427XTA   HL2247791  31.448   2.769  -0.688
  427XTA   HL2347792  30.309   2.468   0.610
  427XTA   HL2447793  30.226   2.623   0.616
  427XTA   HL2547794  30.312   2.468   0.868
  427XTA   HL2647795  30.200   2.609   0.852
  427XTA   HL2747796  30.048   2.491   0.738
  427XTA   HL2847797  30.110   2.337   0.747
  427XTA   HL2947798  29.978   2.315   0.925
  427XTA   HL3047799  30.127   2.374   1.013
  427XTA   HL3147800  29.966   2.601   0.933
  427XTA   HL3247801  29.853   2.473   0.960
  427XTA   HL3347802  29.887   2.614   1.149
  427XTA   HL3447803  29.946   2.459   1.191
  427XTA   HL3547804  30.172   2.514   1.319
  427XTA   HL3647805  30.064   2.665   1.316
  427XTA   HL3747806  30.355   2.597   1.458
  427XTA   HL3847807  30.260   2.735   1.488
  427XTA   HL3947808  30.438   2.874   1.437
  427XTA   HL4047809  30.533   2.745   1.367
  427XTA   HL4147810  30.497   2.751   1.540
  427XTA    CO847811  31.367   2.553  -0.992
  427XTA    CO947812  31.458   2.514  -0.772
  427XTA    OA647813  31.364   2.433  -1.063
  427XTA   HL4247814  31.465   2.596  -0.984
  427XTA   HL4347815  31.312   2.631  -1.039
  427XTA   HL4447816  30.332   2.901   1.221
  427XTA   HL4547817  30.221   2.809   1.106
  427XTA   CO1047818  30.249   2.832   1.210
  427XTA   CO1147819  30.375   2.603   1.188
  427XTA    OA747820  30.154   2.879   1.251
  427XTA   HL4647821  30.323   2.546   1.076
  427XTA   HL4747822  30.390   2.519   1.256
  427XTA   HL4847823  31.530   2.597  -0.773
  427XTA   HL4947824  31.514   2.429  -0.828
  428XTA     NT47825  28.882   6.309   3.524
  428XTA    CN147826  28.890   6.175   3.520
  428XTA     C147827  28.917   6.103   3.629
  428XTA     C247828  28.932   5.960   3.622
  428XTA     C347829  28.916   5.884   3.500
  428XTA     C447830  28.882   5.965   3.391
  428XTA     C547831  28.871   6.105   3.398
  428XTA    CN247832  28.977   6.385   3.465
  428XTA     C647833  28.947   6.471   3.352
  428XTA     C747834  29.051   6.539   3.285
  428XTA     C847835  29.180   6.537   3.341
  428XTA     C947836  29.211   6.449   3.450
  428XTA    C1047837  29.107   6.383   3.518
  428XTA    CN347838  28.784   6.372   3.598
  428XTA    C1147839  28.649   6.362   3.573
  428XTA    C1247840  28.554   6.452   3.634
  428XTA    C1347841  28.602   6.549   3.724
  428XTA    C1447842  28.742   6.557   3.746
  428XTA    C1547843  28.827   6.473   3.683
  428XTA     H147844  28.924   6.143   3.728
  428XTA     H247845  28.947   5.906   3.714
  428XTA     H347846  28.852   5.918   3.301
  428XTA     H447847  28.843   6.169   3.315
  428XTA     H547848  28.848   6.484   3.317
  428XTA     H647849  29.043   6.607   3.201
  428XTA     H747850  29.314   6.431   3.482
  428XTA     H847851  29.123   6.314   3.599
  428XTA     H947852  28.609   6.306   3.484
  428XTA    H1047853  28.448   6.434   3.618
  428XTA    H1147854  28.778   6.634   3.813
  428XTA    H1247855  28.941   6.489   3.697
  428XTA    OA147856  28.926   5.750   3.485
  428XTA    CO147857  28.949   5.689   3.356
  428XTA    OA247858  29.268   6.626   3.285
  428XTA    CO247859  29.404   6.624   3.336
  428XTA    CL147860  29.489   6.731   3.266
  428XTA    CL247861  29.632   6.722   3.327
  428XTA    CL347862  29.719   6.847   3.294
  428XTA    CL447863  29.772   6.841   3.155
  428XTA    CO347864  29.881   6.948   3.143
  428XTA    OA347865  30.016   6.908   3.169
  428XTA    CO447866  30.111   6.955   3.078
  428XTA    CT147867  30.239   6.883   3.090
  428XTA    CL547868  30.300   6.914   3.232
  428XTA    CL647869  30.338   7.069   3.259
  428XTA    OA447870  28.523   6.631   3.798
  428XTA    CO547871  28.409   6.675   3.731
  428XTA    CL747872  28.349   6.793   3.806
  428XTA    CL847873  28.426   6.924   3.784
  428XTA    CL947874  28.573   6.913   3.807
  428XTA   CL1047875  28.656   7.037   3.757
  428XTA    CO647876  28.651   7.057   3.601
  428XTA    OA547877  28.528   7.112   3.564
  428XTA    CO747878  28.516   7.161   3.438
  428XTA    CT247879  28.387   7.246   3.416
  428XTA   CL1147880  28.378   7.372   3.501
  428XTA   CL1247881  28.355   7.355   3.652
  428XTA    HL147882  28.851   5.682   3.300
  428XTA    HL247883  29.033   5.724   3.300
  428XTA    HL347884  28.976   5.584   3.377
  428XTA    HL447885  29.401   6.651   3.444
  428XTA    HL547886  29.445   6.517   3.314
  428XTA    HL647887  29.452   6.827   3.295
  428XTA    HL747888  29.483   6.721   3.156
  428XTA    HL847889  29.692   6.644   3.290
  428XTA    HL947890  29.617   6.710   3.433
  428XTA   HL1047891  29.667   6.946   3.316
  428XTA   HL1147892  29.801   6.841   3.365
  428XTA   HL1247893  29.694   6.841   3.074
  428XTA   HL1347894  29.818   6.745   3.137
  428XTA   HL1447895  29.877   6.993   3.042
  428XTA   HL1547896  29.848   7.035   3.204
  428XTA   HL1647897  30.082   6.935   2.974
  428XTA   HL1747898  30.111   7.062   3.091
  428XTA   HL1847899  30.383   6.844   3.259
  428XTA   HL1947900  30.220   6.884   3.306
  428XTA   HL2047901  30.249   7.132   3.254
  428XTA   HL2147902  30.415   7.109   3.192
  428XTA   HL2247903  30.369   7.075   3.357
  428XTA   HL2347904  28.347   6.584   3.715
  428XTA   HL2447905  28.444   6.704   3.627
  428XTA   HL2547906  28.243   6.799   3.786
  428XTA   HL2647907  28.341   6.763   3.907
  428XTA   HL2747908  28.403   6.962   3.689
  428XTA   HL2847909  28.390   6.995   3.854
  428XTA   HL2947910  28.594   6.899   3.915
  428XTA   HL3047911  28.609   6.825   3.752
  428XTA   HL3147912  28.630   7.137   3.807
  428XTA   HL3247913  28.761   7.012   3.781
  428XTA   HL3347914  28.727   7.119   3.556
  428XTA   HL3447915  28.668   6.963   3.548
  428XTA   HL3547916  28.521   7.079   3.364
  428XTA   HL3647917  28.617   7.213   3.419
  428XTA   HL3747918  28.307   7.439   3.465
  428XTA   HL3847919  28.461   7.439   3.490
  428XTA   HL3947920  28.279   7.284   3.660
  428XTA   HL4047921  28.336   7.457   3.699
  428XTA   HL4147922  28.438   7.312   3.704
  428XTA    CO847923  30.335   6.922   2.974
  428XTA    CO947924  30.216   6.730   3.087
  428XTA    OA647925  30.347   6.676   3.066
  428XTA   HL4247926  30.368   7.029   2.957
  428XTA   HL4347927  30.431   6.874   2.996
  428XTA   HL4447928  28.286   7.107   3.547
  428XTA   HL4547929  28.172   7.205   3.458
  428XTA   CO1047930  28.269   7.150   3.453
  428XTA   CO1147931  28.381   7.283   3.265
  428XTA    OA747932  28.267   7.044   3.354
  428XTA   HL4647933  28.465   7.341   3.237
  428XTA   HL4747934  28.388   7.192   3.203
  428XTA   HL4847935  30.147   6.698   3.010
  428XTA   HL4947936  30.186   6.694   3.185
  429XTA     NT47937  29.092   4.332   1.935
  429XTA    CN147938  29.015   4.272   1.845
  429XTA     C147939  29.069   4.195   1.749
  429XTA     C247940  28.971   4.128   1.667
  429XTA     C347941  28.833   4.132   1.688
  429XTA     C447942  28.782   4.223   1.786
  429XTA     C547943  28.874   4.287   1.867
  429XTA    CN247944  29.134   4.272   2.051
  429XTA     C647945  29.038   4.211   2.138
  429XTA     C747946  29.075   4.144   2.262
  429XTA     C847947  29.212   4.144   2.296
  429XTA     C947948  29.310   4.197   2.206
  429XTA    C1047949  29.267   4.252   2.077
  429XTA    CN347950  29.127   4.460   1.914
  429XTA    C1147951  29.060   4.557   1.990
  429XTA    C1247952  29.097   4.690   1.991
  429XTA    C1347953  29.203   4.734   1.911
  429XTA    C1447954  29.267   4.641   1.825
  429XTA    C1547955  29.231   4.508   1.830
  429XTA     H147956  29.169   4.177   1.715
  429XTA     H247957  29.017   4.077   1.583
  429XTA     H347958  28.681   4.234   1.802
  429XTA     H447959  28.839   4.343   1.954
  429XTA     H547960  28.937   4.224   2.111
  429XTA     H647961  29.004   4.103   2.333
  429XTA     H747962  29.412   4.195   2.235
  429XTA     H847963  29.339   4.276   2.001
  429XTA     H947964  28.977   4.526   2.058
  429XTA    H1047965  29.040   4.754   2.060
  429XTA    H1147966  29.345   4.669   1.754
  429XTA    H1247967  29.289   4.435   1.779
  429XTA    OA147968  28.757   4.046   1.613
  429XTA    CO147969  28.617   4.046   1.627
  429XTA    OA247970  29.257   4.095   2.414
  429XTA    CO247971  29.289   3.956   2.397
  429XTA    CL147972  29.270   3.880   2.528
  429XTA    CL247973  29.128   3.892   2.579
  429XTA    CL347974  29.108   3.791   2.692
  429XTA    CL447975  28.965   3.786   2.739
  429XTA    CO347976  28.943   3.676   2.847
  429XTA    OA347977  29.032   3.693   2.961
  429XTA    CO447978  29.005   3.807   3.041
  429XTA    CT147979  29.105   3.794   3.159
  429XTA    CL547980  29.246   3.826   3.103
  429XTA    CL647981  29.327   3.711   3.040
  429XTA    OA447982  29.234   4.865   1.906
  429XTA    CO547983  29.293   4.918   1.787
  429XTA    CL747984  29.192   4.912   1.661
  429XTA    CL847985  29.213   5.007   1.546
  429XTA    CL947986  29.221   4.948   1.407
  429XTA   CL1047987  29.357   4.883   1.353
  429XTA    CO647988  29.400   4.751   1.430
  429XTA    OA547989  29.311   4.639   1.396
  429XTA    CO747990  29.368   4.510   1.414
  429XTA    CT247991  29.272   4.397   1.368
  429XTA   CL1147992  29.354   4.267   1.364
  429XTA   CL1247993  29.288   4.159   1.284
  429XTA    HL147994  28.560   3.974   1.572
  429XTA    HL247995  28.601   4.031   1.735
  429XTA    HL347996  28.583   4.140   1.589
  429XTA    HL447997  29.223   3.911   2.326
  429XTA    HL547998  29.383   3.945   2.351
  429XTA    HL647999  29.337   3.911   2.607
  429XTA    HL748000  29.287   3.775   2.512
  429XTA    HL848001  29.065   3.857   2.492
  429XTA    HL948002  29.087   3.993   2.598
  429XTA   HL1048003  29.136   3.689   2.661
  429XTA   HL1148004  29.162   3.811   2.787
  429XTA   HL1248005  28.903   3.759   2.657
  429XTA   HL1348006  28.938   3.889   2.778
  429XTA   HL1448007  28.835   3.683   2.879
  429XTA   HL1548008  28.962   3.576   2.817
  429XTA   HL1648009  29.008   3.902   2.995
  429XTA   HL1748010  28.902   3.790   3.065
  429XTA   HL1848011  29.313   3.880   3.175
  429XTA   HL1948012  29.246   3.899   3.023
  429XTA   HL2048013  29.352   3.635   3.110
  429XTA   HL2148014  29.428   3.742   3.011
  429XTA   HL2248015  29.282   3.670   2.945
  429XTA   HL2348016  29.385   4.862   1.760
  429XTA   HL2448017  29.327   5.022   1.808
  429XTA   HL2548018  29.187   4.810   1.628
  429XTA   HL2648019  29.096   4.931   1.701
  429XTA   HL2748020  29.131   5.073   1.538
  429XTA   HL2848021  29.298   5.074   1.567
  429XTA   HL2948022  29.155   4.861   1.400
  429XTA   HL3048023  29.183   5.015   1.338
  429XTA   HL3148024  29.343   4.855   1.252
  429XTA   HL3248025  29.444   4.950   1.363
  429XTA   HL3348026  29.498   4.723   1.391
  429XTA   HL3448027  29.404   4.773   1.535
  429XTA   HL3548028  29.377   4.499   1.525
  429XTA   HL3648029  29.476   4.506   1.376
  429XTA   HL3748030  29.377   4.232   1.467
  429XTA   HL3848031  29.455   4.285   1.326
  429XTA   HL3948032  29.284   4.195   1.184
  429XTA   HL4048033  29.201   4.130   1.338
  429XTA   HL4148034  29.357   4.077   1.286
  429XTA    CO848035  29.102   3.654   3.234
  429XTA    CO948036  29.061   3.898   3.265
  429XTA    OA648037  28.996   3.624   3.256
  429XTA   HL4248038  29.166   3.661   3.319
  429XTA   HL4348039  29.142   3.581   3.164
  429XTA   HL4448040  29.124   4.381   1.196
  429XTA   HL4548041  29.167   4.544   1.256
  429XTA   CO1048042  29.207   4.441   1.234
  429XTA   CO1148043  29.157   4.385   1.478
  429XTA    OA748044  29.077   4.504   1.465
  429XTA   HL4648045  29.089   4.302   1.463
  429XTA   HL4748046  29.202   4.372   1.571
  429XTA   HL4848047  28.957   3.854   3.338
  429XTA   HL4948048  29.136   3.915   3.342
  430XTA     NT48049  29.871   5.036   2.608
  430XTA    CN148050  29.908   4.979   2.494
  430XTA     C148051  29.812   4.972   2.387
  430XTA     C248052  29.849   4.911   2.263
  430XTA     C348053  29.983   4.884   2.239
  430XTA     C448054  30.075   4.898   2.341
  430XTA     C548055  30.039   4.948   2.466
  430XTA    CN248056  29.924   5.152   2.658
  430XTA     C648057  30.039   5.154   2.741
  430XTA     C748058  30.095   5.275   2.786
  430XTA     C848059  30.051   5.403   2.737
  430XTA     C948060  29.935   5.401   2.660
  430XTA    C1048061  29.878   5.280   2.615
  430XTA    CN348062  29.795   4.970   2.696
  430XTA    C1148063  29.841   4.859   2.771
  430XTA    C1248064  29.749   4.799   2.858
  430XTA    C1348065  29.618   4.847   2.874
  430XTA    C1448066  29.579   4.960   2.803
  430XTA    C1548067  29.664   5.019   2.714
  430XTA     H148068  29.708   4.994   2.401
  430XTA     H248069  29.770   4.901   2.191
  430XTA     H348070  30.183   4.892   2.325
  430XTA     H448071  30.120   4.957   2.540
  430XTA     H548072  30.077   5.059   2.775
  430XTA     H648073  30.178   5.277   2.855
  430XTA     H748074  29.894   5.493   2.618
  430XTA     H848075  29.803   5.273   2.541
  430XTA     H948076  29.947   4.824   2.757
  430XTA    H1048077  29.771   4.712   2.912
  430XTA    H1148078  29.483   4.995   2.819
  430XTA    H1248079  29.643   5.119   2.675
  430XTA    OA148080  30.015   4.836   2.109
  430XTA    CO148081  30.152   4.798   2.093
  430XTA    OA248082  30.096   5.526   2.794
  430XTA    CO248083  30.228   5.564   2.763
  430XTA    CL148084  30.239   5.588   2.617
  430XTA    CL248085  30.368   5.647   2.551
  430XTA    CL348086  30.360   5.671   2.406
  430XTA    CL448087  30.491   5.645   2.334
  430XTA    CO348088  30.529   5.498   2.280
  430XTA    OA348089  30.528   5.512   2.145
  430XTA    CO448090  30.564   5.393   2.078
  430XTA    CT148091  30.634   5.415   1.943
  430XTA    CL548092  30.748   5.518   1.961
  430XTA    CL648093  30.860   5.455   2.047
  430XTA    OA448094  29.519   4.800   2.957
  430XTA    CO548095  29.546   4.684   3.039
  430XTA    CL748096  29.535   4.557   2.954
  430XTA    CL848097  29.404   4.549   2.880
  430XTA    CL948098  29.401   4.416   2.790
  430XTA   CL1048099  29.318   4.311   2.863
  430XTA    CO648100  29.341   4.170   2.801
  430XTA    OA548101  29.482   4.145   2.801
  430XTA    CO748102  29.515   4.039   2.882
  430XTA    CT248103  29.666   4.043   2.903
  430XTA   CL1148104  29.715   3.934   3.002
  430XTA   CL1248105  29.654   3.936   3.148
  430XTA    HL148106  30.213   4.889   2.089
  430XTA    HL248107  30.189   4.735   2.179
  430XTA    HL348108  30.159   4.741   2.003
  430XTA    HL448109  30.246   5.651   2.827
  430XTA    HL548110  30.299   5.484   2.786
  430XTA    HL648111  30.151   5.639   2.583
  430XTA    HL748112  30.222   5.493   2.569
  430XTA    HL848113  30.458   5.588   2.570
  430XTA    HL948114  30.390   5.749   2.588
  430XTA   HL1048115  30.271   5.610   2.371
  430XTA   HL1148116  30.336   5.771   2.378
  430XTA   HL1248117  30.579   5.679   2.398
  430XTA   HL1348118  30.492   5.720   2.259
  430XTA   HL1448119  30.638   5.490   2.299
  430XTA   HL1548120  30.474   5.416   2.316
  430XTA   HL1648121  30.622   5.321   2.135
  430XTA   HL1748122  30.473   5.331   2.064
  430XTA   HL1848123  30.708   5.609   2.014
  430XTA   HL1948124  30.784   5.544   1.861
  430XTA   HL2048125  30.919   5.383   1.994
  430XTA   HL2148126  30.811   5.404   2.132
  430XTA   HL2248127  30.928   5.532   2.088
  430XTA   HL2348128  29.463   4.694   3.114
  430XTA   HL2448129  29.630   4.677   3.100
  430XTA   HL2548130  29.619   4.548   2.880
  430XTA   HL2648131  29.536   4.472   3.017
  430XTA   HL2748132  29.308   4.556   2.938
  430XTA   HL2848133  29.391   4.633   2.816
  430XTA   HL2948134  29.356   4.433   2.690
  430XTA   HL3048135  29.502   4.386   2.770
  430XTA   HL3148136  29.350   4.314   2.968
  430XTA   HL3248137  29.209   4.332   2.866
  430XTA   HL3348138  29.281   4.092   2.844
  430XTA   HL3448139  29.316   4.167   2.704
  430XTA   HL3548140  29.492   3.946   2.831
  430XTA   HL3648141  29.453   4.044   2.980
  430XTA   HL3748142  29.820   3.946   3.013
  430XTA   HL3848143  29.696   3.826   2.966
  430XTA   HL3948144  29.713   3.889   3.229
  430XTA   HL4048145  29.559   3.889   3.143
  430XTA   HL4148146  29.623   4.041   3.167
  430XTA    CO848147  30.539   5.458   1.837
  430XTA    CO948148  30.663   5.288   1.861
  430XTA    OA648149  30.583   5.348   1.758
  430XTA   HL4248150  30.549   5.558   1.793
  430XTA   HL4348151  30.435   5.435   1.868
  430XTA   HL4448152  29.703   4.250   2.857
  430XTA   HL4548153  29.637   4.231   3.012
  430XTA   CO1048154  29.706   4.186   2.948
  430XTA   CO1148155  29.735   4.020   2.764
  430XTA    OA748156  29.801   4.184   3.004
  430XTA   HL4648157  29.673   4.113   2.672
  430XTA   HL4748158  29.843   4.049   2.772
  430XTA   HL4848159  30.629   5.194   1.903
  430XTA   HL4948160  30.770   5.275   1.835
  431XTA     NT48161  27.661   3.211   3.019
  431XTA    CN148162  27.673   3.077   2.988
  431XTA     C148163  27.797   3.018   2.960
  431XTA     C248164  27.802   2.881   2.938
  431XTA     C348165  27.686   2.803   2.931
  431XTA     C448166  27.559   2.872   2.936
  431XTA     C548167  27.555   3.005   2.969
  431XTA    CN248168  27.701   3.242   3.145
  431XTA     C648169  27.617   3.241   3.262
  431XTA     C748170  27.671   3.264   3.391
  431XTA     C848171  27.805   3.306   3.399
  431XTA     C948172  27.887   3.311   3.283
  431XTA    C1048173  27.837   3.270   3.160
  431XTA    CN348174  27.576   3.295   2.954
  431XTA    C1148175  27.441   3.313   2.995
  431XTA    C1248176  27.361   3.391   2.908
  431XTA    C1348177  27.414   3.462   2.801
  431XTA    C1448178  27.541   3.433   2.765
  431XTA    C1548179  27.627   3.353   2.841
  431XTA     H148180  27.884   3.078   2.969
  431XTA     H248181  27.897   2.836   2.926
  431XTA     H348182  27.472   2.815   2.924
  431XTA     H448183  27.457   3.053   2.985
  431XTA     H548184  27.513   3.209   3.249
  431XTA     H648185  27.618   3.260   3.482
  431XTA     H748186  27.987   3.349   3.284
  431XTA     H848187  27.900   3.274   3.067
  431XTA     H948188  27.406   3.250   3.077
  431XTA    H1048189  27.249   3.389   2.930
  431XTA    H1148190  27.585   3.478   2.674
  431XTA    H1248191  27.730   3.337   2.805
  431XTA    OA148192  27.696   2.665   2.903
  431XTA    CO148193  27.590   2.584   2.942
  431XTA    OA248194  27.855   3.330   3.525
  431XTA    CO248195  27.987   3.362   3.549
  431XTA    CL148196  28.005   3.390   3.694
  431XTA    CL248197  28.001   3.261   3.785
  431XTA    CL348198  28.125   3.162   3.768
  431XTA    CL448199  28.108   3.027   3.838
  431XTA    CO348200  28.003   2.935   3.781
  431XTA    OA348201  28.027   2.919   3.639
  431XTA    CO448202  27.918   2.959   3.559
  431XTA    CT148203  27.935   2.913   3.415
  431XTA    CL548204  28.047   2.997   3.351
  431XTA    CL648205  28.195   2.977   3.403
  431XTA    OA448206  27.341   3.527   2.709
  431XTA    CO548207  27.215   3.582   2.755
  431XTA    CL748208  27.235   3.685   2.865
  431XTA    CL848209  27.261   3.835   2.824
  431XTA    CL948210  27.273   3.917   2.953
  431XTA   CL1048211  27.137   3.943   3.017
  431XTA    CO648212  27.020   3.989   2.933
  431XTA    OA548213  26.902   3.997   3.017
  431XTA    CO748214  26.842   3.868   3.034
  431XTA    CT248215  26.687   3.867   3.057
  431XTA   CL1148216  26.612   3.944   2.946
  431XTA   CL1248217  26.645   3.914   2.798
  431XTA    HL148218  27.587   2.590   3.048
  431XTA    HL248219  27.488   2.595   2.899
  431XTA    HL348220  27.618   2.483   2.924
  431XTA    HL448221  28.056   3.285   3.508
  431XTA    HL548222  28.006   3.450   3.492
  431XTA    HL648223  27.934   3.464   3.727
  431XTA    HL748224  28.108   3.438   3.699
  431XTA    HL848225  27.912   3.208   3.766
  431XTA    HL948226  27.998   3.297   3.885
  431XTA   HL1048227  28.143   3.136   3.662
  431XTA   HL1148228  28.212   3.217   3.806
  431XTA   HL1248229  28.082   3.050   3.940
  431XTA   HL1348230  28.203   2.976   3.832
  431XTA   HL1448231  28.012   2.838   3.838
  431XTA   HL1548232  27.909   2.979   3.813
  431XTA   HL1648233  27.827   2.908   3.593
  431XTA   HL1748234  27.889   3.060   3.576
  431XTA   HL1848235  28.026   3.102   3.333
  431XTA   HL1948236  28.049   2.972   3.250
  431XTA   HL2048237  28.270   3.034   3.349
  431XTA   HL2148238  28.218   2.874   3.397
  431XTA   HL2248239  28.209   3.018   3.502
  431XTA   HL2348240  27.157   3.497   2.784
  431XTA   HL2448241  27.152   3.627   2.678
  431XTA   HL2548242  27.135   3.689   2.917
  431XTA   HL2648243  27.311   3.655   2.939
  431XTA   HL2748244  27.356   3.838   2.776
  431XTA   HL2848245  27.191   3.890   2.751
  431XTA   HL2948246  27.346   3.878   3.025
  431XTA   HL3048247  27.307   4.017   2.930
  431XTA   HL3148248  27.104   3.849   3.051
  431XTA   HL3248249  27.159   4.008   3.106
  431XTA   HL3348250  27.050   4.091   2.902
  431XTA   HL3448251  27.003   3.935   2.839
  431XTA   HL3548252  26.888   3.819   3.112
  431XTA   HL3648253  26.866   3.812   2.946
  431XTA   HL3748254  26.631   4.043   2.979
  431XTA   HL3848255  26.508   3.925   2.962
  431XTA   HL3948256  26.753   3.920   2.775
  431XTA   HL4048257  26.600   3.990   2.737
  431XTA   HL4148258  26.622   3.812   2.769
  431XTA    CO848259  27.810   2.941   3.328
  431XTA    CO948260  27.957   2.763   3.415
  431XTA    OA648261  28.001   2.719   3.291
  431XTA   HL4248262  27.792   3.048   3.339
  431XTA   HL4348263  27.837   2.940   3.220
  431XTA   HL4448264  26.696   4.037   3.192
  431XTA   HL4548265  26.711   3.879   3.272
  431XTA   CO1048266  26.658   3.932   3.190
  431XTA   CO1148267  26.641   3.732   3.077
  431XTA    OA748268  26.719   3.647   3.160
  431XTA   HL4648269  26.538   3.707   3.082
  431XTA   HL4748270  26.659   3.693   2.977
  431XTA   HL4848271  27.866   2.709   3.439
  431XTA   HL4948272  28.023   2.736   3.497
  432XTA     NT48273  31.625   3.702   7.202
  432XTA    CN148274  31.733   3.775   7.208
  432XTA     C148275  31.729   3.900   7.272
  432XTA     C248276  31.849   3.970   7.288
  432XTA     C348277  31.968   3.928   7.229
  432XTA     C448278  31.974   3.804   7.166
  432XTA     C548279  31.853   3.727   7.154
  432XTA    CN248280  31.542   3.704   7.092
  432XTA     C648281  31.521   3.582   7.022
  432XTA     C748282  31.414   3.578   6.925
  432XTA     C848283  31.333   3.693   6.900
  432XTA     C948284  31.360   3.811   6.975
  432XTA    C1048285  31.466   3.820   7.068
  432XTA    CN348286  31.590   3.637   7.306
  432XTA    C1148287  31.519   3.685   7.421
  432XTA    C1248288  31.498   3.604   7.536
  432XTA    C1348289  31.543   3.473   7.538
  432XTA    C1448290  31.607   3.423   7.427
  432XTA    C1548291  31.634   3.501   7.311
  432XTA     H148292  31.642   3.948   7.322
  432XTA     H248293  31.854   4.061   7.344
  432XTA     H348294  32.062   3.763   7.126
  432XTA     H448295  31.849   3.630   7.112
  432XTA     H548296  31.578   3.491   7.049
  432XTA     H648297  31.400   3.488   6.871
  432XTA     H748298  31.300   3.902   6.957
  432XTA     H848299  31.496   3.907   7.122
  432XTA     H948300  31.489   3.793   7.421
  432XTA    H1048301  31.452   3.635   7.626
  432XTA    H1148302  31.631   3.316   7.422
  432XTA    H1248303  31.691   3.457   7.230
  432XTA    OA148304  32.093   3.989   7.251
  432XTA    CO148305  32.101   4.097   7.348
  432XTA    OA248306  31.236   3.703   6.809
  432XTA    CO248307  31.200   3.573   6.751
  432XTA    CL148308  31.055   3.587   6.689
  432XTA    CL248309  30.957   3.666   6.790
  432XTA    CL348310  30.807   3.667   6.745
  432XTA    CL448311  30.793   3.734   6.612
  432XTA    CO348312  30.649   3.707   6.566
  432XTA    OA348313  30.650   3.772   6.438
  432XTA    CO448314  30.521   3.799   6.392
  432XTA    CT148315  30.484   3.951   6.389
  432XTA    CL548316  30.538   4.020   6.263
  432XTA    CL648317  30.692   4.037   6.235
  432XTA    OA448318  31.491   3.401   7.643
  432XTA    CO548319  31.411   3.291   7.604
  432XTA    CL748320  31.306   3.274   7.711
  432XTA    CL848321  31.202   3.384   7.733
  432XTA    CL948322  31.082   3.338   7.813
  432XTA   CL1048323  30.973   3.283   7.728
  432XTA    CO648324  30.869   3.232   7.824
  432XTA    OA548325  30.742   3.219   7.752
  432XTA    CO748326  30.637   3.152   7.817
  432XTA    CT248327  30.520   3.233   7.866
  432XTA   CL1148328  30.399   3.149   7.920
  432XTA   CL1248329  30.320   3.058   7.817
  432XTA    HL148330  32.206   4.133   7.364
  432XTA    HL248331  32.045   4.179   7.306
  432XTA    HL348332  32.053   4.064   7.436
  432XTA    HL448333  31.273   3.555   6.670
  432XTA    HL548334  31.203   3.487   6.816
  432XTA    HL648335  31.003   3.490   6.668
  432XTA    HL748336  31.064   3.632   6.592
  432XTA    HL848337  30.980   3.773   6.789
  432XTA    HL948338  30.980   3.626   6.883
  432XTA   HL1048339  30.774   3.560   6.747
  432XTA   HL1148340  30.739   3.713   6.822
  432XTA   HL1248341  30.869   3.698   6.550
  432XTA   HL1348342  30.808   3.841   6.624
  432XTA   HL1448343  30.630   3.601   6.559
  432XTA   HL1548344  30.579   3.743   6.641
  432XTA   HL1648345  30.512   3.754   6.297
  432XTA   HL1748346  30.455   3.736   6.450
  432XTA   HL1848347  30.502   4.122   6.243
  432XTA   HL1948348  30.489   3.968   6.185
  432XTA   HL2048349  30.704   4.112   6.159
  432XTA   HL2148350  30.747   3.948   6.211
  432XTA   HL2248351  30.737   4.071   6.338
  432XTA   HL2348352  31.468   3.198   7.580
  432XTA   HL2448353  31.354   3.300   7.510
  432XTA   HL2548354  31.259   3.173   7.686
  432XTA   HL2648355  31.351   3.258   7.801
  432XTA   HL2748356  31.263   3.472   7.766
  432XTA   HL2848357  31.163   3.414   7.640
  432XTA   HL2948358  31.105   3.254   7.881
  432XTA   HL3048359  31.048   3.420   7.877
  432XTA   HL3148360  30.928   3.354   7.670
  432XTA   HL3248361  31.010   3.202   7.667
  432XTA   HL3348362  30.909   3.137   7.867
  432XTA   HL3448363  30.854   3.303   7.907
  432XTA   HL3548364  30.685   3.089   7.896
  432XTA   HL3648365  30.611   3.080   7.742
  432XTA   HL3748366  30.334   3.207   7.976
  432XTA   HL3848367  30.432   3.078   7.995
  432XTA   HL3948368  30.383   2.974   7.779
  432XTA   HL4048369  30.286   3.128   7.744
  432XTA   HL4148370  30.237   3.018   7.866
  432XTA    CO848371  30.538   4.023   6.509
  432XTA    CO948372  30.326   3.968   6.395
  432XTA    OA648373  30.477   3.980   6.627
  432XTA   HL4248374  30.531   4.125   6.487
  432XTA   HL4348375  30.641   4.009   6.511
  432XTA   HL4448376  30.425   3.273   7.678
  432XTA   HL4548377  30.370   3.369   7.809
  432XTA   CO1048378  30.460   3.328   7.760
  432XTA   CO1148379  30.577   3.309   7.988
  432XTA    OA748380  30.559   3.416   7.717
  432XTA   HL4648381  30.505   3.385   8.011
  432XTA   HL4748382  30.657   3.358   7.947
  432XTA   HL4848383  30.288   3.988   6.491
  432XTA   HL4948384  30.296   4.064   6.345
  433XTA     NT48385  34.207   2.724   5.877
  433XTA    CN148386  34.282   2.637   5.950
  433XTA     C148387  34.415   2.596   5.904
  433XTA     C248388  34.485   2.505   5.987
  433XTA     C348389  34.427   2.454   6.106
  433XTA     C448390  34.294   2.482   6.141
  433XTA     C548391  34.221   2.578   6.064
  433XTA    CN248392  34.254   2.850   5.841
  433XTA     C648393  34.307   2.946   5.933
  433XTA     C748394  34.370   3.061   5.877
  433XTA     C848395  34.376   3.091   5.746
  433XTA     C948396  34.305   3.008   5.653
  433XTA    C1048397  34.245   2.891   5.704
  433XTA    CN348398  34.081   2.697   5.839
  433XTA    C1148399  34.048   2.610   5.735
  433XTA    C1248400  33.911   2.601   5.693
  433XTA    C1348401  33.811   2.670   5.757
  433XTA    C1448402  33.843   2.741   5.868
  433XTA    C1548403  33.974   2.761   5.905
  433XTA     H148404  34.454   2.631   5.809
  433XTA     H248405  34.592   2.482   5.967
  433XTA     H348406  34.245   2.441   6.230
  433XTA     H448407  34.121   2.598   6.094
  433XTA     H548408  34.310   2.937   6.042
  433XTA     H648409  34.420   3.131   5.943
  433XTA     H748410  34.286   3.036   5.549
  433XTA     H848411  34.194   2.826   5.633
  433XTA     H948412  34.126   2.554   5.681
  433XTA    H1048413  33.885   2.534   5.616
  433XTA    H1148414  33.768   2.799   5.921
  433XTA    H1248415  33.991   2.831   5.983
  433XTA    OA148416  34.502   2.368   6.176
  433XTA    CO148417  34.605   2.428   6.259
  433XTA    OA248418  34.443   3.203   5.700
  433XTA    CO248419  34.553   3.188   5.609
  433XTA    CL148420  34.672   3.108   5.672
  433XTA    CL248421  34.655   2.958   5.657
  433XTA    CL348422  34.762   2.876   5.717
  433XTA    CL448423  34.878   2.849   5.614
  433XTA    CO348424  34.980   2.768   5.677
  433XTA    OA348425  34.996   2.781   5.811
  433XTA    CO448426  35.079   2.892   5.839
  433XTA    CT148427  35.144   2.853   5.965
  433XTA    CL548428  35.249   2.953   6.013
  433XTA    CL648429  35.381   2.963   5.942
  433XTA    OA448430  33.687   2.667   5.706
  433XTA    CO548431  33.636   2.791   5.679
  433XTA    CL748432  33.518   2.773   5.586
  433XTA    CL848433  33.448   2.911   5.548
  433XTA    CL948434  33.297   2.895   5.520
  433XTA   CL1048435  33.220   3.011   5.462
  433XTA    CO648436  33.080   3.038   5.515
  433XTA    OA548437  32.974   2.958   5.456
  433XTA    CO748438  32.989   2.819   5.463
  433XTA    CT248439  32.864   2.742   5.413
  433XTA   CL1148440  32.737   2.801   5.488
  433XTA   CL1248441  32.717   2.770   5.636
  433XTA    HL148442  34.666   2.501   6.212
  433XTA    HL248443  34.574   2.469   6.356
  433XTA    HL348444  34.683   2.355   6.287
  433XTA    HL448445  34.523   3.133   5.521
  433XTA    HL548446  34.587   3.288   5.580
  433XTA    HL648447  34.678   3.144   5.771
  433XTA    HL748448  34.770   3.141   5.627
  433XTA    HL848449  34.655   2.932   5.554
  433XTA    HL948450  34.567   2.925   5.695
  433XTA   HL1048451  34.791   2.894   5.812
  433XTA   HL1148452  34.736   2.771   5.729
  433XTA   HL1248453  34.912   2.949   5.588
  433XTA   HL1348454  34.826   2.803   5.530
  433XTA   HL1448455  34.962   2.661   5.673
  433XTA   HL1548456  35.067   2.780   5.608
  433XTA   HL1648457  35.157   2.910   5.763
  433XTA   HL1748458  35.008   2.977   5.854
  433XTA   HL1848459  35.263   2.937   6.114
  433XTA   HL1948460  35.198   3.045   6.027
  433XTA   HL2048461  35.444   2.870   5.958
  433XTA   HL2148462  35.436   3.046   5.993
  433XTA   HL2248463  35.380   2.988   5.841
  433XTA   HL2348464  33.701   2.853   5.625
  433XTA   HL2448465  33.606   2.841   5.775
  433XTA   HL2548466  33.542   2.716   5.494
  433XTA   HL2648467  33.449   2.712   5.639
  433XTA   HL2748468  33.454   2.980   5.630
  433XTA   HL2848469  33.491   2.969   5.466
  433XTA   HL2948470  33.282   2.824   5.435
  433XTA   HL3048471  33.252   2.850   5.607
  433XTA   HL3148472  33.268   3.103   5.494
  433XTA   HL3248473  33.212   3.008   5.353
  433XTA   HL3348474  33.072   3.027   5.624
  433XTA   HL3448475  33.055   3.138   5.487
  433XTA   HL3548476  33.014   2.794   5.566
  433XTA   HL3648477  33.075   2.777   5.405
  433XTA   HL3748478  32.641   2.769   5.432
  433XTA   HL3848479  32.735   2.911   5.482
  433XTA   HL3948480  32.801   2.806   5.695
  433XTA   HL4048481  32.705   2.662   5.661
  433XTA   HL4148482  32.639   2.836   5.679
  433XTA    CO848483  35.207   2.716   5.950
  433XTA    CO948484  35.035   2.840   6.075
  433XTA    OA648485  34.940   2.949   6.077
  433XTA   HL4248486  35.270   2.692   6.037
  433XTA   HL4348487  35.277   2.730   5.867
  433XTA   HL4448488  32.846   2.575   5.545
  433XTA   HL4548489  32.794   2.507   5.362
  433XTA   CO1048490  32.875   2.589   5.439
  433XTA   CO1148491  32.852   2.747   5.262
  433XTA    OA748492  32.750   2.711   5.229
  433XTA   HL4648493  32.869   2.853   5.232
  433XTA   HL4748494  32.927   2.676   5.224
  433XTA   HL4848495  35.082   2.829   6.169
  433XTA   HL4948496  34.980   2.748   6.058
  434XTA     NT48497  31.673  -0.354   1.198
  434XTA    CN148498  31.606  -0.235   1.198
  434XTA     C148499  31.629  -0.133   1.293
  434XTA     C248500  31.560  -0.008   1.284
  434XTA     C348501  31.463   0.014   1.184
  434XTA     C448502  31.439  -0.093   1.092
  434XTA     C548503  31.512  -0.214   1.100
  434XTA    CN248504  31.646  -0.457   1.284
  434XTA     C648505  31.735  -0.479   1.391
  434XTA     C748506  31.706  -0.569   1.489
  434XTA     C848507  31.590  -0.649   1.486
  434XTA     C948508  31.493  -0.631   1.380
  434XTA    C1048509  31.527  -0.532   1.285
  434XTA    CN348510  31.799  -0.364   1.137
  434XTA    C1148511  31.891  -0.256   1.149
  434XTA    C1248512  32.020  -0.267   1.088
  434XTA    C1348513  32.051  -0.383   1.011
  434XTA    C1448514  31.949  -0.482   0.983
  434XTA    C1548515  31.822  -0.467   1.043
  434XTA     H148516  31.693  -0.133   1.376
  434XTA     H248517  31.586   0.069   1.351
  434XTA     H348518  31.372  -0.082   1.011
  434XTA     H448519  31.487  -0.297   1.033
  434XTA     H548520  31.821  -0.415   1.402
  434XTA     H648521  31.758  -0.573   1.576
  434XTA     H748522  31.392  -0.673   1.379
  434XTA     H848523  31.445  -0.503   1.219
  434XTA     H948524  31.862  -0.169   1.207
  434XTA    H1048525  32.108  -0.199   1.106
  434XTA    H1148526  31.964  -0.566   0.913
  434XTA    H1248527  31.742  -0.544   1.015
  434XTA    OA148528  31.389   0.129   1.175
  434XTA    CO148529  31.360   0.166   1.035
  434XTA    OA248530  31.586  -0.744   1.582
  434XTA    CO248531  31.457  -0.795   1.611
  434XTA    CL148532  31.469  -0.872   1.745
  434XTA    CL248533  31.484  -0.771   1.863
  434XTA    CL348534  31.582  -0.815   1.981
  434XTA    CL448535  31.731  -0.805   1.936
  434XTA    CO348536  31.829  -0.825   2.060
  434XTA    OA348537  31.958  -0.859   2.010
  434XTA    CO448538  32.004  -0.757   1.918
  434XTA    CT148539  32.125  -0.791   1.838
  434XTA    CL548540  32.099  -0.938   1.783
  434XTA    CL648541  32.199  -1.006   1.687
  434XTA    OA448542  32.177  -0.388   0.959
  434XTA    CO548543  32.233  -0.515   0.930
  434XTA    CL748544  32.315  -0.563   1.050
  434XTA    CL848545  32.372  -0.703   1.034
  434XTA    CL948546  32.497  -0.724   1.123
  434XTA   CL1048547  32.459  -0.766   1.267
  434XTA    CO648548  32.363  -0.689   1.358
  434XTA    OA548549  32.419  -0.562   1.377
  434XTA    CO748550  32.326  -0.475   1.438
  434XTA    CT248551  32.378  -0.326   1.459
  434XTA   CL1148552  32.517  -0.321   1.531
  434XTA   CL1248553  32.539  -0.403   1.656
  434XTA    HL148554  31.292   0.100   0.982
  434XTA    HL248555  31.304   0.258   1.044
  434XTA    HL348556  31.452   0.189   0.972
  434XTA    HL448557  31.393  -0.709   1.626
  434XTA    HL548558  31.412  -0.857   1.537
  434XTA    HL648559  31.563  -0.930   1.741
  434XTA    HL748560  31.389  -0.950   1.772
  434XTA    HL848561  31.392  -0.759   1.910
  434XTA    HL948562  31.516  -0.677   1.818
  434XTA   HL1048563  31.564  -0.746   2.062
  434XTA   HL1148564  31.560  -0.911   2.016
  434XTA   HL1248565  31.733  -0.712   1.892
  434XTA   HL1348566  31.749  -0.888   1.857
  434XTA   HL1448567  31.831  -0.736   2.127
  434XTA   HL1548568  31.789  -0.906   2.114
  434XTA   HL1648569  31.928  -0.736   1.844
  434XTA   HL1748570  32.023  -0.665   1.966
  434XTA   HL1848571  32.011  -0.930   1.716
  434XTA   HL1948572  32.077  -1.005   1.860
  434XTA   HL2048573  32.298  -1.020   1.732
  434XTA   HL2148574  32.203  -0.946   1.596
  434XTA   HL2248575  32.175  -1.103   1.645
  434XTA   HL2348576  32.301  -0.501   0.847
  434XTA   HL2448577  32.158  -0.586   0.894
  434XTA   HL2548578  32.400  -0.496   1.056
  434XTA   HL2648579  32.248  -0.552   1.140
  434XTA   HL2748580  32.301  -0.783   1.048
  434XTA   HL2848581  32.415  -0.707   0.928
  434XTA   HL2948582  32.552  -0.806   1.082
  434XTA   HL3048583  32.563  -0.642   1.116
  434XTA   HL3148584  32.440  -0.871   1.269
  434XTA   HL3248585  32.550  -0.755   1.329
  434XTA   HL3348586  32.260  -0.684   1.312
  434XTA   HL3448587  32.345  -0.744   1.448
  434XTA   HL3548588  32.295  -0.520   1.532
  434XTA   HL3648589  32.237  -0.463   1.369
  434XTA   HL3748590  32.538  -0.213   1.545
  434XTA   HL3848591  32.587  -0.351   1.454
  434XTA   HL3948592  32.639  -0.392   1.691
  434XTA   HL4048593  32.519  -0.509   1.655
  434XTA   HL4148594  32.483  -0.362   1.739
  434XTA    CO848595  32.248  -0.809   1.935
  434XTA    CO948596  32.166  -0.690   1.737
  434XTA    OA648597  32.286  -0.733   2.005
  434XTA   HL4248598  32.325  -0.829   1.863
  434XTA   HL4348599  32.232  -0.900   1.991
  434XTA   HL4448600  32.305  -0.144   1.558
  434XTA   HL4548601  32.180  -0.235   1.480
  434XTA   CO1048602  32.275  -0.248   1.543
  434XTA   CO1148603  32.375  -0.254   1.316
  434XTA    OA748604  32.246  -0.298   1.642
  434XTA   HL4648605  32.401  -0.112   1.322
  434XTA   HL4748606  32.272  -0.262   1.290
  434XTA   HL4848607  32.298  -0.709   1.689
  434XTA   HL4948608  32.121  -0.704   1.640
  435XTA     NT48609  30.150   4.453  -0.343
  435XTA    CN148610  30.218   4.432  -0.454
  435XTA     C148611  30.331   4.347  -0.449
  435XTA     C248612  30.402   4.320  -0.564
  435XTA     C348613  30.362   4.373  -0.690
  435XTA     C448614  30.244   4.461  -0.695
  435XTA     C548615  30.176   4.485  -0.577
  435XTA    CN248616  30.036   4.376  -0.335
  435XTA     C648617  29.925   4.400  -0.417
  435XTA     C748618  29.814   4.316  -0.412
  435XTA     C848619  29.819   4.201  -0.336
  435XTA     C948620  29.931   4.172  -0.260
  435XTA    C1048621  30.038   4.261  -0.252
  435XTA    CN348622  30.170   4.564  -0.267
  435XTA    C1148623  30.289   4.571  -0.190
  435XTA    C1248624  30.299   4.676  -0.095
  435XTA    C1348625  30.191   4.758  -0.067
  435XTA    C1448626  30.084   4.764  -0.154
  435XTA    C1548627  30.075   4.667  -0.258
  435XTA     H148628  30.371   4.300  -0.356
  435XTA     H248629  30.485   4.255  -0.560
  435XTA     H348630  30.222   4.496  -0.797
  435XTA     H448631  30.092   4.556  -0.570
  435XTA     H548632  29.920   4.493  -0.480
  435XTA     H648633  29.736   4.339  -0.480
  435XTA     H748634  29.920   4.083  -0.192
  435XTA     H848635  30.114   4.240  -0.183
  435XTA     H948636  30.372   4.503  -0.200
  435XTA    H1048637  30.386   4.681  -0.032
  435XTA    H1148638  30.003   4.832  -0.130
  435XTA    H1248639  29.996   4.662  -0.326
  435XTA    OA148640  30.435   4.354  -0.806
  435XTA    CO148641  30.362   4.327  -0.924
  435XTA    OA248642  29.719   4.109  -0.329
  435XTA    CO248643  29.585   4.150  -0.362
  435XTA    CL148644  29.542   4.253  -0.259
  435XTA    CL248645  29.569   4.200  -0.115
  435XTA    CL348646  29.531   4.294  -0.004
  435XTA    CL448647  29.464   4.206   0.112
  435XTA    CO348648  29.573   4.112   0.173
  435XTA    OA348649  29.522   4.024   0.271
  435XTA    CO448650  29.437   3.924   0.215
  435XTA    CT148651  29.382   3.822   0.320
  435XTA    CL548652  29.491   3.730   0.376
  435XTA    CL648653  29.555   3.648   0.270
  435XTA    OA448654  30.185   4.835   0.045
  435XTA    CO548655  30.300   4.920   0.066
  435XTA    CL748656  30.278   5.029   0.176
  435XTA    CL848657  30.410   5.107   0.202
  435XTA    CL948658  30.410   5.148   0.345
  435XTA   CL1048659  30.315   5.263   0.374
  435XTA    CO648660  30.354   5.390   0.307
  435XTA    OA548661  30.282   5.498   0.372
  435XTA    CO748662  30.142   5.493   0.324
  435XTA    CT248663  30.051   5.523   0.442
  435XTA   CL1148664  29.911   5.573   0.389
  435XTA   CL1248665  29.802   5.595   0.498
  435XTA    HL148666  30.264   4.283  -0.911
  435XTA    HL248667  30.358   4.419  -0.988
  435XTA    HL348668  30.407   4.256  -0.989
  435XTA    HL448669  29.587   4.195  -0.461
  435XTA    HL548670  29.526   4.061  -0.366
  435XTA    HL648671  29.439   4.276  -0.274
  435XTA    HL748672  29.599   4.342  -0.277
  435XTA    HL848673  29.672   4.162  -0.098
  435XTA    HL948674  29.518   4.099  -0.112
  435XTA   HL1048675  29.610   4.358   0.033
  435XTA   HL1148676  29.458   4.365  -0.032
  435XTA   HL1248677  29.372   4.166   0.077
  435XTA   HL1348678  29.420   4.267   0.186
  435XTA   HL1448679  29.617   4.058   0.091
  435XTA   HL1548680  29.652   4.167   0.217
  435XTA   HL1648681  29.352   3.972   0.175
  435XTA   HL1748682  29.499   3.877   0.138
  435XTA   HL1848683  29.445   3.674   0.460
  435XTA   HL1948684  29.571   3.794   0.420
  435XTA   HL2048685  29.638   3.598   0.322
  435XTA   HL2148686  29.605   3.709   0.193
  435XTA   HL2248687  29.479   3.586   0.229
  435XTA   HL2348688  30.347   4.965  -0.024
  435XTA   HL2448689  30.380   4.855   0.089
  435XTA   HL2548690  30.207   5.096   0.129
  435XTA   HL2648691  30.245   4.975   0.264
  435XTA   HL2748692  30.481   5.035   0.180
  435XTA   HL2848693  30.413   5.185   0.122
  435XTA   HL2948694  30.391   5.059   0.413
  435XTA   HL3048695  30.514   5.174   0.368
  435XTA   HL3148696  30.211   5.241   0.342
  435XTA   HL3248697  30.324   5.285   0.483
  435XTA   HL3348698  30.465   5.408   0.328
  435XTA   HL3448699  30.333   5.387   0.206
  435XTA   HL3548700  30.104   5.400   0.269
  435XTA   HL3648701  30.136   5.579   0.261
  435XTA   HL3748702  29.872   5.497   0.313
  435XTA   HL3848703  29.927   5.666   0.336
  435XTA   HL3948704  29.766   5.500   0.544
  435XTA   HL4048705  29.714   5.640   0.448
  435XTA   HL4148706  29.836   5.670   0.571
  435XTA    CO848707  29.255   3.765   0.274
  435XTA    CO948708  29.317   3.891   0.444
  435XTA    OA648709  29.196   3.839   0.387
  435XTA   HL4248710  29.269   3.658   0.278
  435XTA   HL4348711  29.214   3.795   0.179
  435XTA   HL4448712  30.040   5.672   0.615
  435XTA   HL4548713  30.130   5.698   0.470
  435XTA   CO1048714  30.111   5.621   0.544
  435XTA   CO1148715  30.037   5.385   0.522
  435XTA    OA748716  29.974   5.291   0.440
  435XTA   HL4648717  30.137   5.343   0.551
  435XTA   HL4748718  29.987   5.401   0.609
  435XTA   HL4848719  29.325   4.003   0.447
  435XTA   HL4948720  29.342   3.853   0.538
  436XTA     NT48721  28.652   8.252  -0.738
  436XTA    CN148722  28.623   8.121  -0.761
  436XTA     C148723  28.512   8.090  -0.843
  436XTA     C248724  28.475   7.955  -0.875
  436XTA     C348725  28.557   7.848  -0.825
  436XTA     C448726  28.667   7.884  -0.736
  436XTA     C548727  28.703   8.018  -0.709
  436XTA    CN248728  28.592   8.318  -0.638
  436XTA     C648729  28.605   8.270  -0.502
  436XTA     C748730  28.546   8.351  -0.401
  436XTA     C848731  28.468   8.465  -0.430
  436XTA     C948732  28.455   8.507  -0.564
  436XTA    C1048733  28.515   8.433  -0.666
  436XTA    CN348734  28.772   8.291  -0.792
  436XTA    C1148735  28.782   8.309  -0.932
  436XTA    C1248736  28.903   8.354  -0.997
  436XTA    C1348737  29.024   8.374  -0.924
  436XTA    C1448738  29.010   8.344  -0.784
  436XTA    C1548739  28.891   8.311  -0.722
  436XTA     H148740  28.459   8.169  -0.893
  436XTA     H248741  28.390   7.930  -0.932
  436XTA     H348742  28.729   7.809  -0.694
  436XTA     H448743  28.786   8.035  -0.643
  436XTA     H548744  28.674   8.185  -0.470
  436XTA     H648745  28.539   8.306  -0.304
  436XTA     H748746  28.411   8.604  -0.575
  436XTA     H848747  28.504   8.464  -0.768
  436XTA     H948748  28.695   8.286  -1.001
  436XTA    H1048749  28.906   8.362  -1.106
  436XTA    H1148750  29.095   8.335  -0.722
  436XTA    H1248751  28.902   8.300  -0.616
  436XTA    OA148752  28.533   7.714  -0.858
  436XTA    CO148753  28.531   7.699  -0.999
  436XTA    OA248754  28.400   8.532  -0.329
  436XTA    CO248755  28.264   8.510  -0.338
  436XTA    CL148756  28.238   8.379  -0.270
  436XTA    CL248757  28.114   8.309  -0.333
  436XTA    CL348758  28.062   8.189  -0.255
  436XTA    CL448759  28.164   8.081  -0.214
  436XTA    CO348760  28.220   8.006  -0.336
  436XTA    OA348761  28.260   7.875  -0.301
  436XTA    CO448762  28.392   7.869  -0.248
  436XTA    CT148763  28.453   7.724  -0.237
  436XTA    CL548764  28.488   7.683  -0.382
  436XTA    CL648765  28.372   7.682  -0.486
  436XTA    OA448766  29.139   8.436  -0.974
  436XTA    CO548767  29.120   8.527  -1.078
  436XTA    CL748768  29.245   8.593  -1.134
  436XTA    CL848769  29.216   8.701  -1.236
  436XTA    CL948770  29.132   8.820  -1.166
  436XTA   CL1048771  29.147   8.954  -1.241
  436XTA    CO648772  29.088   8.951  -1.382
  436XTA    OA548773  29.061   9.084  -1.427
  436XTA    CO748774  29.189   9.148  -1.447
  436XTA    CT248775  29.175   9.308  -1.470
  436XTA   CL1148776  29.101   9.368  -1.356
  436XTA   CL1248777  29.174   9.346  -1.231
  436XTA    HL148778  28.475   7.605  -1.025
  436XTA    HL248779  28.468   7.772  -1.050
  436XTA    HL348780  28.635   7.686  -1.033
  436XTA    HL448781  28.209   8.591  -0.285
  436XTA    HL548782  28.242   8.498  -0.442
  436XTA    HL648783  28.217   8.398  -0.165
  436XTA    HL748784  28.326   8.308  -0.285
  436XTA    HL848785  28.128   8.288  -0.431
  436XTA    HL948786  28.035   8.377  -0.355
  436XTA   HL1048787  28.011   8.236  -0.174
  436XTA   HL1148788  27.986   8.136  -0.306
  436XTA   HL1248789  28.108   8.015  -0.143
  436XTA   HL1348790  28.251   8.129  -0.165
  436XTA   HL1448791  28.139   7.975  -0.410
  436XTA   HL1548792  28.290   8.060  -0.390
  436XTA   HL1648793  28.449   7.929  -0.319
  436XTA   HL1748794  28.394   7.914  -0.153
  436XTA   HL1848795  28.527   7.581  -0.382
  436XTA   HL1948796  28.561   7.749  -0.435
  436XTA   HL2048797  28.338   7.785  -0.494
  436XTA   HL2148798  28.290   7.624  -0.447
  436XTA   HL2248799  28.414   7.640  -0.583
  436XTA   HL2348800  29.047   8.597  -1.043
  436XTA   HL2448801  29.076   8.472  -1.156
  436XTA   HL2548802  29.306   8.633  -1.049
  436XTA   HL2648803  29.302   8.503  -1.175
  436XTA   HL2748804  29.304   8.734  -1.289
  436XTA   HL2848805  29.161   8.659  -1.321
  436XTA   HL2948806  29.025   8.796  -1.157
  436XTA   HL3048807  29.158   8.845  -1.063
  436XTA   HL3148808  29.100   9.028  -1.181
  436XTA   HL3248809  29.254   8.976  -1.242
  436XTA   HL3348810  29.172   8.915  -1.443
  436XTA   HL3448811  29.016   8.876  -1.381
  436XTA   HL3548812  29.244   9.097  -1.523
  436XTA   HL3648813  29.252   9.132  -1.363
  436XTA   HL3748814  28.999   9.333  -1.360
  436XTA   HL3848815  29.085   9.477  -1.370
  436XTA   HL3948816  29.268   9.395  -1.222
  436XTA   HL4048817  29.198   9.243  -1.202
  436XTA   HL4148818  29.122   9.393  -1.148
  436XTA    CO848819  28.376   7.621  -0.171
  436XTA    CO948820  28.556   7.701  -0.132
  436XTA    OA648821  28.456   7.584  -0.110
  436XTA   HL4248822  28.339   7.538  -0.239
  436XTA   HL4348823  28.293   7.662  -0.114
  436XTA   HL4448824  29.174   9.290  -1.679
  436XTA   HL4548825  29.011   9.258  -1.614
  436XTA   CO1048826  29.097   9.321  -1.604
  436XTA   CO1148827  29.316   9.373  -1.482
  436XTA    OA748828  29.049   9.448  -1.620
  436XTA   HL4648829  29.314   9.476  -1.448
  436XTA   HL4748830  29.337   9.389  -1.587
  436XTA   HL4848831  28.573   7.799  -0.030
  436XTA   HL4948832  28.649   7.669  -0.174
  437XTA     NT48833  31.226   2.699   0.974
  437XTA    CN148834  31.218   2.566   0.990
  437XTA     C148835  31.196   2.521   1.120
  437XTA     C248836  31.176   2.384   1.142
  437XTA     C348837  31.192   2.290   1.041
  437XTA     C448838  31.233   2.333   0.911
  437XTA     C548839  31.244   2.470   0.888
  437XTA    CN248840  31.124   2.773   0.925
  437XTA     C648841  31.091   2.891   0.992
  437XTA     C748842  31.003   2.982   0.931
  437XTA     C848843  30.946   2.952   0.804
  437XTA     C948844  30.980   2.835   0.740
  437XTA    C1048845  31.074   2.747   0.795
  437XTA    CN348846  31.349   2.753   0.963
  437XTA    C1148847  31.407   2.770   0.840
  437XTA    C1248848  31.522   2.838   0.814
  437XTA    C1348849  31.593   2.898   0.925
  437XTA    C1448850  31.538   2.898   1.055
  437XTA    C1548851  31.413   2.826   1.068
  437XTA     H148852  31.190   2.600   1.191
  437XTA     H248853  31.152   2.351   1.244
  437XTA     H348854  31.263   2.256   0.834
  437XTA     H448855  31.267   2.499   0.784
  437XTA     H548856  31.137   2.906   1.088
  437XTA     H648857  30.980   3.079   0.963
  437XTA     H748858  30.933   2.812   0.643
  437XTA     H848859  31.092   2.657   0.748
  437XTA     H948860  31.358   2.726   0.755
  437XTA    H1048861  31.566   2.833   0.716
  437XTA    H1148862  31.585   2.944   1.138
  437XTA    H1248863  31.359   2.813   1.165
  437XTA    OA148864  31.179   2.158   1.076
  437XTA    CO148865  31.126   2.065   0.988
  437XTA    OA248866  30.854   3.032   0.737
  437XTA    CO248867  30.819   3.155   0.797
  437XTA    CL148868  30.689   3.212   0.733
  437XTA    CL248869  30.663   3.348   0.802
  437XTA    CL348870  30.520   3.351   0.871
  437XTA    CL448871  30.517   3.253   0.994
  437XTA    CO348872  30.377   3.195   1.024
  437XTA    OA348873  30.334   3.130   0.902
  437XTA    CO448874  30.208   3.194   0.850
  437XTA    CT148875  30.162   3.130   0.715
  437XTA    CL548876  30.110   2.982   0.726
  437XTA    CL648877  29.965   2.964   0.781
  437XTA    OA448878  31.714   2.964   0.903
  437XTA    CO548879  31.774   2.943   0.769
  437XTA    CL748880  31.835   2.806   0.764
  437XTA    CL848881  31.917   2.776   0.634
  437XTA    CL948882  31.865   2.656   0.553
  437XTA   CL1048883  31.735   2.697   0.478
  437XTA    CO648884  31.741   2.809   0.370
  437XTA    OA548885  31.843   2.775   0.278
  437XTA    CO748886  31.895   2.884   0.207
  437XTA    CT248887  31.997   2.823   0.099
  437XTA   CL1148888  32.066   2.924   0.003
  437XTA   CL1248889  32.129   3.046   0.058
  437XTA    HL148890  31.127   1.966   1.014
  437XTA    HL248891  31.021   2.092   0.971
  437XTA    HL348892  31.175   2.071   0.888
  437XTA    HL448893  30.804   3.140   0.905
  437XTA    HL548894  30.900   3.232   0.788
  437XTA    HL648895  30.607   3.141   0.728
  437XTA    HL748896  30.720   3.223   0.630
  437XTA    HL848897  30.672   3.433   0.733
  437XTA    HL948898  30.747   3.367   0.868
  437XTA   HL1048899  30.498   3.456   0.907
  437XTA   HL1148900  30.447   3.332   0.793
  437XTA   HL1248901  30.560   3.309   1.084
  437XTA   HL1348902  30.584   3.172   0.971
  437XTA   HL1448903  30.384   3.136   1.112
  437XTA   HL1548904  30.297   3.272   1.054
  437XTA   HL1648905  30.132   3.189   0.927
  437XTA   HL1748906  30.241   3.292   0.829
  437XTA   HL1848907  30.187   2.927   0.781
  437XTA   HL1948908  30.113   2.933   0.633
  437XTA   HL2048909  29.956   3.000   0.879
  437XTA   HL2148910  29.953   2.854   0.776
  437XTA   HL2248911  29.886   3.008   0.716
  437XTA   HL2348912  31.866   3.006   0.765
  437XTA   HL2448913  31.717   2.980   0.689
  437XTA   HL2548914  31.883   2.791   0.861
  437XTA   HL2648915  31.750   2.738   0.777
  437XTA   HL2748916  31.924   2.865   0.574
  437XTA   HL2848917  32.017   2.748   0.672
  437XTA   HL2948918  31.939   2.633   0.477
  437XTA   HL3048919  31.842   2.562   0.610
  437XTA   HL3148920  31.706   2.602   0.431
  437XTA   HL3248921  31.659   2.717   0.552
  437XTA   HL3348922  31.646   2.814   0.309
  437XTA   HL3448923  31.748   2.911   0.407
  437XTA   HL3548924  31.945   2.959   0.267
  437XTA   HL3648925  31.817   2.939   0.148
  437XTA   HL3748926  31.991   2.962  -0.063
  437XTA   HL3848927  32.132   2.864  -0.060
  437XTA   HL3948928  32.055   3.100   0.121
  437XTA   HL4048929  32.168   3.123  -0.014
  437XTA   HL4148930  32.207   3.025   0.136
  437XTA    CO848931  30.286   3.139   0.613
  437XTA    CO948932  30.050   3.213   0.653
  437XTA    OA648933  30.252   3.102   0.513
  437XTA   HL4248934  30.373   3.090   0.660
  437XTA   HL4348935  30.307   3.247   0.610
  437XTA   HL4448936  31.869   2.645   0.083
  437XTA   HL4548937  31.848   2.760  -0.040
  437XTA   CO1048938  31.923   2.717   0.014
  437XTA   CO1148939  32.110   2.760   0.181
  437XTA    OA748940  32.002   2.630  -0.069
  437XTA   HL4648941  32.142   2.827   0.263
  437XTA   HL4748942  32.059   2.676   0.225
  437XTA   HL4848943  29.956   3.236   0.747
  437XTA   HL4948944  30.005   3.157   0.574
  438XTA     NT48945  32.973   6.518   1.873
  438XTA    CN148946  33.012   6.642   1.903
  438XTA     C148947  33.152   6.673   1.899
  438XTA     C248948  33.193   6.806   1.883
  438XTA     C348949  33.105   6.917   1.890
  438XTA     C448950  32.971   6.885   1.901
  438XTA     C548951  32.929   6.750   1.904
  438XTA    CN248952  32.988   6.461   1.748
  438XTA     C648953  33.052   6.334   1.736
  438XTA     C748954  33.078   6.286   1.606
  438XTA     C848955  33.044   6.361   1.492
  438XTA     C948956  32.977   6.486   1.513
  438XTA    C1048957  32.949   6.536   1.643
  438XTA    CN348958  32.933   6.438   1.975
  438XTA    C1148959  33.020   6.370   2.058
  438XTA    C1248960  32.974   6.274   2.147
  438XTA    C1348961  32.832   6.261   2.159
  438XTA    C1448962  32.739   6.337   2.082
  438XTA    C1548963  32.793   6.419   1.986
  438XTA     H148964  33.233   6.601   1.903
  438XTA     H248965  33.297   6.821   1.874
  438XTA     H348966  32.901   6.964   1.920
  438XTA     H448967  32.822   6.726   1.918
  438XTA     H548968  33.082   6.275   1.818
  438XTA     H648969  33.123   6.184   1.599
  438XTA     H748970  32.938   6.553   1.440
  438XTA     H848971  32.902   6.628   1.651
  438XTA     H948972  33.124   6.388   2.037
  438XTA    H1048973  33.040   6.230   2.218
  438XTA    H1148974  32.631   6.326   2.099
  438XTA    H1248975  32.732   6.458   1.908
  438XTA    OA148976  33.137   7.052   1.904
  438XTA    CO148977  33.277   7.087   1.906
  438XTA    OA248978  33.077   6.313   1.371
  438XTA    CO248979  33.055   6.400   1.261
  438XTA    CL148980  33.071   6.333   1.128
  438XTA    CL248981  32.954   6.225   1.101
  438XTA    CL348982  32.932   6.123   1.212
  438XTA    CL448983  32.812   6.151   1.305
  438XTA    CO348984  32.810   6.085   1.437
  438XTA    OA348985  32.694   6.129   1.496
  438XTA    CO448986  32.690   6.110   1.632
  438XTA    CT148987  32.547   6.161   1.677
  438XTA    CL548988  32.516   6.164   1.829
  438XTA    CL648989  32.566   6.051   1.914
  438XTA    OA448990  32.776   6.182   2.267
  438XTA    CO548991  32.633   6.172   2.287
  438XTA    CL748992  32.619   6.059   2.388
  438XTA    CL848993  32.473   6.022   2.403
  438XTA    CL948994  32.445   5.885   2.456
  438XTA   CL1048995  32.516   5.849   2.591
  438XTA    CO648996  32.498   5.701   2.621
  438XTA    OA548997  32.556   5.614   2.532
  438XTA    CO748998  32.698   5.620   2.509
  438XTA    CT248999  32.754   5.494   2.453
  438XTA   CL1149000  32.776   5.500   2.301
  438XTA   CL1249001  32.894   5.598   2.264
  438XTA    HL149002  33.288   7.193   1.889
  438XTA    HL249003  33.320   7.058   2.004
  438XTA    HL349004  33.330   7.043   1.831
  438XTA    HL449005  32.951   6.430   1.260
  438XTA    HL549006  33.111   6.491   1.276
  438XTA    HL649007  33.166   6.283   1.111
  438XTA    HL749008  33.063   6.412   1.056
  438XTA    HL849009  32.975   6.174   1.004
  438XTA    HL949010  32.859   6.290   1.090
  438XTA   HL1049011  32.919   6.025   1.168
  438XTA   HL1149012  33.017   6.116   1.282
  438XTA   HL1249013  32.723   6.123   1.240
  438XTA   HL1349014  32.802   6.258   1.318
  438XTA   HL1449015  32.795   5.978   1.439
  438XTA   HL1549016  32.895   6.106   1.505
  438XTA   HL1649017  32.703   6.005   1.666
  438XTA   HL1749018  32.769   6.180   1.678
  438XTA   HL1849019  32.408   6.193   1.845
  438XTA   HL1949020  32.563   6.249   1.869
  438XTA   HL2049021  32.483   6.027   1.988
  438XTA   HL2149022  32.653   6.073   1.984
  438XTA   HL2249023  32.590   5.960   1.851
  438XTA   HL2349024  32.583   6.136   2.194
  438XTA   HL2449025  32.589   6.269   2.332
  438XTA   HL2549026  32.662   5.962   2.351
  438XTA   HL2649027  32.673   6.072   2.481
  438XTA   HL2749028  32.422   6.096   2.464
  438XTA   HL2849029  32.425   6.044   2.309
  438XTA   HL2949030  32.342   5.879   2.470
  438XTA   HL3049031  32.471   5.810   2.382
  438XTA   HL3149032  32.626   5.861   2.576
  438XTA   HL3249033  32.485   5.918   2.677
  438XTA   HL3349034  32.542   5.673   2.726
  438XTA   HL3449035  32.393   5.689   2.625
  438XTA   HL3549036  32.749   5.647   2.606
  438XTA   HL3649037  32.724   5.693   2.444
  438XTA   HL3749038  32.683   5.537   2.262
  438XTA   HL3849039  32.786   5.400   2.257
  438XTA   HL3949040  33.000   5.562   2.269
  438XTA   HL4049041  32.890   5.699   2.317
  438XTA   HL4149042  32.873   5.611   2.157
  438XTA    CO849043  32.436   6.077   1.609
  438XTA    CO949044  32.534   6.305   1.616
  438XTA    OA649045  32.412   6.359   1.666
  438XTA   HL4249046  32.370   6.146   1.553
  438XTA   HL4349047  32.494   6.025   1.528
  438XTA   HL4449048  32.633   5.387   2.601
  438XTA   HL4549049  32.577   5.391   2.433
  438XTA   CO1049050  32.668   5.376   2.495
  438XTA   CO1149051  32.890   5.468   2.533
  438XTA    OA749052  32.710   5.273   2.493
  438XTA   HL4649053  32.994   5.567   2.523
  438XTA   HL4749054  32.946   5.384   2.487
  438XTA   HL4849055  32.526   6.302   1.511
  438XTA   HL4949056  32.615   6.372   1.655
  439XTA     NT49057  33.306   2.141   6.037
  439XTA    CN149058  33.207   2.218   5.987
  439XTA     C149059  33.084   2.165   5.933
  439XTA     C249060  32.974   2.246   5.894
  439XTA     C349061  32.987   2.385   5.906
  439XTA     C449062  33.109   2.439   5.947
  439XTA     C549063  33.217   2.359   5.987
  439XTA    CN249064  33.269   2.047   6.129
  439XTA     C649065  33.222   1.911   6.102
  439XTA     C749066  33.187   1.825   6.213
  439XTA     C849067  33.204   1.868   6.346
  439XTA     C949068  33.264   1.995   6.364
  439XTA    C1049069  33.295   2.086   6.261
  439XTA    CN349070  33.409   2.118   5.954
  439XTA    C1149071  33.527   2.197   5.970
  439XTA    C1249072  33.637   2.180   5.885
  439XTA    C1349073  33.633   2.087   5.780
  439XTA    C1449074  33.516   2.015   5.763
  439XTA    C1549075  33.405   2.025   5.853
  439XTA     H149076  33.082   2.057   5.926
  439XTA     H249077  32.877   2.210   5.864
  439XTA     H349078  33.113   2.550   5.952
  439XTA     H449079  33.306   2.407   6.026
  439XTA     H549080  33.203   1.880   6.000
  439XTA     H649081  33.142   1.723   6.185
  439XTA     H749082  33.259   2.031   6.462
  439XTA     H849083  33.317   2.190   6.276
  439XTA     H949084  33.529   2.269   6.054
  439XTA    H1049085  33.716   2.250   5.884
  439XTA    H1149086  33.504   1.954   5.674
  439XTA    H1249087  33.311   1.972   5.826
  439XTA    OA149088  32.890   2.470   5.861
  439XTA    CO149089  32.767   2.452   5.934
  439XTA    OA249090  33.173   1.792   6.458
  439XTA    CO249091  33.156   1.653   6.438
  439XTA    CL149092  33.106   1.595   6.577
  439XTA    CL249093  33.068   1.454   6.569
  439XTA    CL349094  33.159   1.361   6.480
  439XTA    CL449095  33.101   1.337   6.339
  439XTA    CO349096  33.198   1.283   6.236
  439XTA    OA349097  33.281   1.388   6.200
  439XTA    CO449098  33.373   1.353   6.105
  439XTA    CT149099  33.461   1.475   6.068
  439XTA    CL549100  33.370   1.587   6.018
  439XTA    CL649101  33.434   1.676   5.919
  439XTA    OA449102  33.743   2.082   5.695
  439XTA    CO549103  33.730   1.994   5.590
  439XTA    CL749104  33.855   1.984   5.500
  439XTA    CL849105  33.845   1.861   5.408
  439XTA    CL949106  33.925   1.734   5.437
  439XTA   CL1049107  33.867   1.667   5.561
  439XTA    CO649108  33.949   1.548   5.607
  439XTA    OA549109  33.951   1.548   5.753
  439XTA    CO749110  34.072   1.579   5.815
  439XTA    CT249111  34.144   1.460   5.878
  439XTA   CL1149112  34.236   1.511   5.992
  439XTA   CL1249113  34.328   1.632   5.964
  439XTA    HL149114  32.701   2.535   5.901
  439XTA    HL249115  32.713   2.364   5.907
  439XTA    HL349116  32.788   2.439   6.037
  439XTA    HL449117  33.086   1.633   6.359
  439XTA    HL549118  33.243   1.593   6.409
  439XTA    HL649119  33.025   1.642   6.628
  439XTA    HL749120  33.187   1.606   6.651
  439XTA    HL849121  32.960   1.452   6.544
  439XTA    HL949122  33.067   1.396   6.666
  439XTA   HL1049123  33.265   1.408   6.480
  439XTA   HL1149124  33.168   1.258   6.518
  439XTA   HL1249125  33.059   1.431   6.300
  439XTA   HL1349126  33.015   1.276   6.359
  439XTA   HL1449127  33.258   1.200   6.276
  439XTA   HL1549128  33.147   1.244   6.144
  439XTA   HL1649129  33.440   1.275   6.146
  439XTA   HL1749130  33.314   1.314   6.022
  439XTA   HL1849131  33.345   1.648   6.108
  439XTA   HL1949132  33.271   1.551   5.979
  439XTA   HL2049133  33.502   1.742   5.963
  439XTA   HL2149134  33.363   1.742   5.882
  439XTA   HL2249135  33.484   1.625   5.834
  439XTA   HL2349136  33.647   2.017   5.528
  439XTA   HL2449137  33.715   1.887   5.627
  439XTA   HL2549138  33.856   2.068   5.436
  439XTA   HL2649139  33.951   1.984   5.562
  439XTA   HL2749140  33.738   1.838   5.393
  439XTA   HL2849141  33.880   1.889   5.309
  439XTA   HL2949142  33.926   1.680   5.343
  439XTA   HL3049143  34.027   1.752   5.464
  439XTA   HL3149144  33.880   1.745   5.633
  439XTA   HL3249145  33.761   1.654   5.559
  439XTA   HL3349146  33.922   1.447   5.572
  439XTA   HL3449147  34.056   1.556   5.593
  439XTA   HL3549148  34.044   1.641   5.888
  439XTA   HL3649149  34.140   1.634   5.754
  439XTA   HL3749150  34.287   1.441   6.051
  439XTA   HL3849151  34.164   1.552   6.066
  439XTA   HL3949152  34.404   1.593   5.903
  439XTA   HL4049153  34.366   1.668   6.057
  439XTA   HL4149154  34.284   1.716   5.903
  439XTA    CO849155  33.556   1.423   5.953
  439XTA    CO949156  33.544   1.523   6.186
  439XTA    OA649157  33.500   1.401   5.861
  439XTA   HL4249158  33.608   1.337   5.974
  439XTA   HL4349159  33.641   1.499   5.931
  439XTA   HL4449160  34.306   1.473   5.739
  439XTA   HL4549161  34.290   1.319   5.826
  439XTA   CO1049162  34.237   1.396   5.773
  439XTA   CO1149163  34.052   1.343   5.929
  439XTA    OA749164  33.976   1.387   6.038
  439XTA   HL4649165  33.984   1.293   5.856
  439XTA   HL4749166  34.126   1.271   5.965
  439XTA   HL4849167  33.463   1.572   6.296
  439XTA   HL4949168  33.607   1.605   6.163
  440XTA     NT49169  32.795   6.936   4.525
  440XTA    CN149170  32.849   6.931   4.400
  440XTA     C149171  32.947   6.838   4.371
  440XTA     C249172  32.999   6.819   4.241
  440XTA     C349173  32.942   6.899   4.140
  440XTA     C449174  32.837   6.979   4.163
  440XTA     C549175  32.790   7.003   4.292
  440XTA    CN249176  32.854   7.029   4.604
  440XTA     C649177  32.931   6.982   4.710
  440XTA     C749178  33.025   7.068   4.768
  440XTA     C849179  33.030   7.207   4.734
  440XTA     C949180  32.938   7.256   4.638
  440XTA    C1049181  32.849   7.166   4.572
  440XTA    CN349182  32.674   6.883   4.557
  440XTA    C1149183  32.553   6.944   4.510
  440XTA    C1249184  32.427   6.896   4.533
  440XTA    C1349185  32.421   6.782   4.613
  440XTA    C1449186  32.536   6.724   4.666
  440XTA    C1549187  32.666   6.764   4.632
  440XTA     H149188  32.988   6.787   4.448
  440XTA     H249189  33.069   6.744   4.227
  440XTA     H349190  32.785   7.029   4.081
  440XTA     H449191  32.717   7.077   4.316
  440XTA     H549192  32.937   6.875   4.739
  440XTA     H649193  33.096   7.041   4.844
  440XTA     H749194  32.950   7.365   4.605
  440XTA     H849195  32.793   7.203   4.491
  440XTA     H949196  32.567   7.030   4.454
  440XTA    H1049197  32.337   6.934   4.480
  440XTA    H1149198  32.520   6.643   4.733
  440XTA    H1249199  32.759   6.715   4.663
  440XTA    OA149200  32.995   6.884   4.013
  440XTA    CO149201  32.963   6.979   3.913
  440XTA    OA249202  33.125   7.282   4.792
  440XTA    CO249203  33.155   7.417   4.746
  440XTA    CL149204  33.224   7.502   4.862
  440XTA    CL249205  33.134   7.557   4.969
  440XTA    CL349206  33.205   7.650   5.065
  440XTA    CL449207  33.111   7.740   5.145
  440XTA    CO349208  33.071   7.691   5.285
  440XTA    OA349209  32.974   7.590   5.249
  440XTA    CO449210  32.914   7.524   5.361
  440XTA    CT149211  32.854   7.382   5.327
  440XTA    CL549212  32.787   7.328   5.454
  440XTA    CL649213  32.862   7.371   5.582
  440XTA    OA449214  32.304   6.733   4.666
  440XTA    CO549215  32.179   6.778   4.612
  440XTA    CL749216  32.130   6.695   4.491
  440XTA    CL849217  32.200   6.734   4.358
  440XTA    CL949218  32.137   6.670   4.233
  440XTA   CL1049219  31.986   6.695   4.221
  440XTA    CO649220  31.946   6.841   4.237
  440XTA    OA549221  31.802   6.851   4.228
  440XTA    CO749222  31.758   6.990   4.225
  440XTA    CT249223  31.604   7.012   4.222
  440XTA   CL1149224  31.583   7.166   4.249
  440XTA   CL1249225  31.624   7.248   4.127
  440XTA    HL149226  32.850   6.988   3.892
  440XTA    HL249227  33.020   7.069   3.942
  440XTA    HL349228  33.002   6.949   3.813
  440XTA    HL449229  33.218   7.389   4.661
  440XTA    HL549230  33.074   7.475   4.708
  440XTA    HL649231  33.281   7.581   4.817
  440XTA    HL749232  33.298   7.438   4.907
  440XTA    HL849233  33.094   7.481   5.035
  440XTA    HL949234  33.047   7.611   4.927
  440XTA   HL1049235  33.264   7.584   5.132
  440XTA   HL1149236  33.277   7.708   5.012
  440XTA   HL1249237  33.023   7.774   5.080
  440XTA   HL1349238  33.169   7.825   5.160
  440XTA   HL1449239  33.155   7.640   5.331
  440XTA   HL1549240  33.031   7.771   5.349
  440XTA   HL1649241  32.996   7.520   5.438
  440XTA   HL1749242  32.846   7.587   5.405
  440XTA   HL1849243  32.754   7.224   5.448
  440XTA   HL1949244  32.687   7.379   5.459
  440XTA   HL2049245  32.968   7.341   5.578
  440XTA   HL2149246  32.824   7.322   5.674
  440XTA   HL2249247  32.857   7.477   5.592
  440XTA   HL2349248  32.179   6.889   4.590
  440XTA   HL2449249  32.115   6.765   4.701
  440XTA   HL2549250  32.147   6.585   4.507
  440XTA   HL2649251  32.023   6.715   4.473
  440XTA   HL2749252  32.201   6.840   4.354
  440XTA   HL2849253  32.300   6.700   4.364
  440XTA   HL2949254  32.192   6.692   4.145
  440XTA   HL3049255  32.147   6.564   4.231
  440XTA   HL3149256  31.954   6.671   4.119
  440XTA   HL3249257  31.930   6.638   4.289
  440XTA   HL3349258  31.985   6.887   4.331
  440XTA   HL3449259  31.991   6.905   4.159
  440XTA   HL3549260  31.793   7.032   4.133
  440XTA   HL3649261  31.789   7.035   4.317
  440XTA   HL3749262  31.657   7.204   4.321
  440XTA   HL3849263  31.480   7.199   4.269
  440XTA   HL3949264  31.562   7.229   4.044
  440XTA   HL4049265  31.730   7.237   4.089
  440XTA   HL4149266  31.615   7.359   4.142
  440XTA    CO849267  32.964   7.284   5.281
  440XTA    CO949268  32.762   7.389   5.203
  440XTA    OA649269  32.935   7.147   5.310
  440XTA   HL4249270  33.057   7.319   5.332
  440XTA   HL4349271  33.000   7.297   5.174
  440XTA   HL4449272  31.429   6.927   4.285
  440XTA   HL4549273  31.568   6.841   4.346
  440XTA   CO1049274  31.527   6.940   4.332
  440XTA   CO1149275  31.553   6.984   4.078
  440XTA    OA749276  31.510   7.001   4.463
  440XTA   HL4649277  31.604   7.040   4.001
  440XTA   HL4749278  31.573   6.879   4.054
  440XTA   HL4849279  32.830   7.405   5.113
  440XTA   HL4949280  32.702   7.477   5.216
  441XTA     NT49281  26.694   5.191   6.133
  441XTA    CN149282  26.735   5.216   6.260
  441XTA     C149283  26.871   5.196   6.294
  441XTA     C249284  26.909   5.209   6.431
  441XTA     C349285  26.822   5.270   6.529
  441XTA     C449286  26.688   5.295   6.490
  441XTA     C549287  26.655   5.279   6.353
  441XTA    CN249288  26.716   5.072   6.077
  441XTA     C649289  26.640   4.963   6.122
  441XTA     C749290  26.660   4.833   6.059
  441XTA     C849291  26.752   4.813   5.956
  441XTA     C949292  26.831   4.921   5.915
  441XTA    C1049293  26.809   5.050   5.971
  441XTA    CN349294  26.606   5.281   6.075
  441XTA    C1149295  26.666   5.403   6.038
  441XTA    C1249296  26.594   5.501   5.967
  441XTA    C1349297  26.453   5.477   5.943
  441XTA    C1449298  26.395   5.356   5.977
  441XTA    C1549299  26.469   5.253   6.044
  441XTA     H149300  26.934   5.158   6.221
  441XTA     H249301  27.003   5.169   6.461
  441XTA     H349302  26.619   5.330   6.565
  441XTA     H449303  26.553   5.286   6.320
  441XTA     H549304  26.570   4.979   6.204
  441XTA     H649305  26.600   4.745   6.078
  441XTA     H749306  26.898   4.916   5.834
  441XTA     H849307  26.856   5.133   5.930
  441XTA     H949308  26.767   5.435   6.060
  441XTA    H1049309  26.647   5.586   5.926
  441XTA    H1149310  26.293   5.346   5.950
  441XTA    H1249311  26.431   5.150   6.061
  441XTA    OA149312  26.852   5.276   6.662
  441XTA    CO149313  26.988   5.241   6.698
  441XTA    OA249314  26.755   4.690   5.910
  441XTA    CO249315  26.880   4.625   5.905
  441XTA    CL149316  26.843   4.486   5.944
  441XTA    CL249317  26.764   4.398   5.850
  441XTA    CL349318  26.731   4.265   5.907
  441XTA    CL449319  26.621   4.258   6.015
  441XTA    CO349320  26.489   4.307   5.964
  441XTA    OA349321  26.387   4.260   6.045
  441XTA    CO449322  26.367   4.340   6.160
  441XTA    CT149323  26.244   4.280   6.237
  441XTA    CL549324  26.221   4.372   6.361
  441XTA    CL649325  26.081   4.341   6.431
  441XTA    OA449326  26.367   5.568   5.876
  441XTA    CO549327  26.388   5.708   5.892
  441XTA    CL749328  26.350   5.752   6.032
  441XTA    CL849329  26.191   5.757   6.031
  441XTA    CL949330  26.134   5.836   6.156
  441XTA   CL1049331  25.989   5.825   6.168
  441XTA    CO649332  25.938   5.851   6.311
  441XTA    OA549333  25.989   5.757   6.402
  441XTA    CO749334  25.924   5.637   6.423
  441XTA    CT249335  26.023   5.522   6.458
  441XTA   CL1149336  26.121   5.514   6.343
  441XTA   CL1249337  26.223   5.401   6.351
  441XTA    HL149338  26.991   5.230   6.806
  441XTA    HL249339  27.005   5.141   6.662
  441XTA    HL349340  27.071   5.303   6.655
  441XTA    HL449341  26.916   4.628   5.801
  441XTA    HL549342  26.961   4.665   5.972
  441XTA    HL649343  26.795   4.487   6.039
  441XTA    HL749344  26.938   4.440   5.959
  441XTA    HL849345  26.836   4.373   5.767
  441XTA    HL949346  26.677   4.447   5.808
  441XTA   HL1049347  26.722   4.196   5.820
  441XTA   HL1149348  26.817   4.216   5.958
  441XTA   HL1249349  26.637   4.303   6.111
  441XTA   HL1349350  26.616   4.148   6.039
  441XTA   HL1449351  26.499   4.414   5.967
  441XTA   HL1549352  26.484   4.274   5.861
  441XTA   HL1649353  26.460   4.319   6.221
  441XTA   HL1749354  26.359   4.443   6.127
  441XTA   HL1849355  26.238   4.479   6.326
  441XTA   HL1949356  26.302   4.354   6.435
  441XTA   HL2049357  26.072   4.240   6.458
  441XTA   HL2149358  26.000   4.375   6.367
  441XTA   HL2249359  26.071   4.411   6.517
  441XTA   HL2349360  26.330   5.757   5.817
  441XTA   HL2449361  26.493   5.727   5.875
  441XTA   HL2549362  26.398   5.688   6.107
  441XTA   HL2649363  26.387   5.857   6.036
  441XTA   HL2749364  26.160   5.820   5.952
  441XTA   HL2849365  26.157   5.650   6.033
  441XTA   HL2949366  26.189   5.794   6.237
  441XTA   HL3049367  26.152   5.948   6.152
  441XTA   HL3149368  25.933   5.886   6.095
  441XTA   HL3249369  25.956   5.726   6.139
  441XTA   HL3349370  25.966   5.953   6.351
  441XTA   HL3449371  25.830   5.841   6.308
  441XTA   HL3549372  25.880   5.608   6.330
  441XTA   HL3649373  25.860   5.645   6.509
  441XTA   HL3749374  26.169   5.608   6.322
  441XTA   HL3849375  26.064   5.495   6.255
  441XTA   HL3949376  26.293   5.414   6.430
  441XTA   HL4049377  26.266   5.382   6.256
  441XTA   HL4149378  26.169   5.307   6.365
  441XTA    CO849379  26.277   4.134   6.270
  441XTA    CO949380  26.132   4.281   6.139
  441XTA    OA649381  26.353   4.108   6.349
  441XTA   HL4249382  26.298   4.086   6.174
  441XTA   HL4349383  26.184   4.084   6.305
  441XTA   HL4449384  26.028   5.262   6.493
  441XTA   HL4549385  25.889   5.386   6.571
  441XTA   CO1049386  25.950   5.380   6.479
  441XTA   CO1149387  26.093   5.560   6.593
  441XTA    OA749388  26.015   5.570   6.672
  441XTA   HL4649389  26.167   5.482   6.626
  441XTA   HL4749390  26.139   5.656   6.587
  441XTA   HL4849391  26.173   4.232   6.016
  441XTA   HL4949392  26.057   4.213   6.179
  442XTA     NT49393  31.967   6.840   0.200
  442XTA    CN149394  32.004   6.962   0.166
  442XTA     C149395  31.934   7.035   0.065
  442XTA     C249396  31.983   7.165   0.028
  442XTA     C349397  32.086   7.229   0.100
  442XTA     C449398  32.149   7.157   0.205
  442XTA     C549399  32.100   7.030   0.243
  442XTA    CN249400  31.988   6.734   0.116
  442XTA     C649401  32.101   6.653   0.129
  442XTA     C749402  32.123   6.533   0.059
  442XTA     C849403  32.023   6.494  -0.033
  442XTA     C949404  31.902   6.563  -0.040
  442XTA    C1049405  31.883   6.677   0.047
  442XTA    CN349406  31.909   6.814   0.316
  442XTA    C1149407  31.985   6.756   0.419
  442XTA    C1249408  31.924   6.763   0.551
  442XTA    C1349409  31.798   6.822   0.574
  442XTA    C1449410  31.722   6.872   0.462
  442XTA    C1549411  31.783   6.870   0.335
  442XTA     H149412  31.856   6.987   0.010
  442XTA     H249413  31.931   7.213  -0.053
  442XTA     H349414  32.228   7.194   0.267
  442XTA     H449415  32.133   6.983   0.333
  442XTA     H549416  32.178   6.705   0.191
  442XTA     H649417  32.225   6.481   0.071
  442XTA     H749418  31.822   6.520  -0.094
  442XTA     H849419  31.781   6.710   0.068
  442XTA     H949420  32.088   6.726   0.404
  442XTA    H1049421  31.976   6.727   0.640
  442XTA    H1149422  31.628   6.921   0.475
  442XTA    H1249423  31.730   6.925   0.256
  442XTA    OA149424  32.126   7.353   0.058
  442XTA    CO149425  32.243   7.411   0.127
  442XTA    OA249426  32.036   6.382  -0.113
  442XTA    CO249427  32.169   6.331  -0.118
  442XTA    CL149428  32.182   6.209  -0.204
  442XTA    CL249429  32.330   6.198  -0.232
  442XTA    CL349430  32.368   6.075  -0.309
  442XTA    CL449431  32.523   6.084  -0.339
  442XTA    CO349432  32.589   5.953  -0.379
  442XTA    OA349433  32.569   5.852  -0.292
  442XTA    CO449434  32.669   5.867  -0.190
  442XTA    CT149435  32.621   5.810  -0.064
  442XTA    CL549436  32.722   5.842   0.046
  442XTA    CL649437  32.859   5.781   0.041
  442XTA    OA449438  31.734   6.827   0.696
  442XTA    CO549439  31.803   6.774   0.813
  442XTA    CL749440  31.929   6.855   0.859
  442XTA    CL849441  31.986   6.808   0.991
  442XTA    CL949442  32.074   6.685   0.977
  442XTA   CL1049443  32.136   6.636   1.106
  442XTA    CO649444  32.048   6.546   1.192
  442XTA    OA549445  31.972   6.635   1.269
  442XTA    CO749446  31.882   6.573   1.355
  442XTA    CT249447  31.823   6.661   1.467
  442XTA   CL1149448  31.729   6.586   1.569
  442XTA   CL1249449  31.584   6.547   1.513
  442XTA    HL149450  32.274   7.506   0.080
  442XTA    HL249451  32.223   7.432   0.234
  442XTA    HL349452  32.331   7.345   0.125
  442XTA    HL449453  32.230   6.406  -0.174
  442XTA    HL549454  32.205   6.307  -0.016
  442XTA    HL649455  32.120   6.204  -0.295
  442XTA    HL749456  32.160   6.125  -0.135
  442XTA    HL849457  32.386   6.200  -0.131
  442XTA    HL949458  32.376   6.291  -0.273
  442XTA   HL1049459  32.350   5.990  -0.246
  442XTA   HL1149460  32.319   6.063  -0.400
  442XTA   HL1249461  32.574   6.117  -0.254
  442XTA   HL1349462  32.538   6.159  -0.415
  442XTA   HL1449463  32.546   5.922  -0.476
  442XTA   HL1549464  32.689   5.973  -0.415
  442XTA   HL1649465  32.754   5.812  -0.231
  442XTA   HL1749466  32.701   5.973  -0.180
  442XTA   HL1849467  32.688   5.824   0.144
  442XTA   HL1949468  32.733   5.945   0.034
  442XTA   HL2049469  32.855   5.674   0.078
  442XTA   HL2149470  32.927   5.837   0.106
  442XTA   HL2249471  32.896   5.772  -0.063
  442XTA   HL2349472  31.824   6.665   0.782
  442XTA   HL2449473  31.718   6.782   0.887
  442XTA   HL2549474  32.006   6.857   0.783
  442XTA   HL2649475  31.908   6.960   0.871
  442XTA   HL2749476  32.051   6.888   1.033
  442XTA   HL2849477  31.909   6.780   1.060
  442XTA   HL2949478  32.003   6.607   0.941
  442XTA   HL3049479  32.148   6.705   0.898
  442XTA   HL3149480  32.208   6.564   1.068
  442XTA   HL3249481  32.183   6.723   1.148
  442XTA   HL3349482  31.990   6.473   1.141
  442XTA   HL3449483  32.105   6.495   1.265
  442XTA   HL3549484  31.926   6.493   1.410
  442XTA   HL3649485  31.811   6.523   1.292
  442XTA   HL3749486  31.711   6.649   1.654
  442XTA   HL3849487  31.776   6.498   1.612
  442XTA   HL3949488  31.599   6.480   1.430
  442XTA   HL4049489  31.524   6.632   1.485
  442XTA   HL4149490  31.542   6.485   1.584
  442XTA    CO849491  32.609   5.657  -0.066
  442XTA    CO949492  32.485   5.874  -0.025
  442XTA    OA649493  32.504   6.003   0.014
  442XTA   HL4249494  32.535   5.645  -0.143
  442XTA   HL4349495  32.548   5.627   0.019
  442XTA   HL4449496  31.840   6.856   1.351
  442XTA   HL4549497  31.677   6.759   1.332
  442XTA   CO1049498  31.764   6.785   1.404
  442XTA   CO1149499  31.936   6.714   1.555
  442XTA    OA749500  31.708   6.855   1.515
  442XTA   HL4649501  31.897   6.762   1.646
  442XTA   HL4749502  31.998   6.780   1.496
  442XTA   HL4849503  32.432   5.821   0.058
  442XTA   HL4949504  32.421   5.866  -0.110
  443XTH     NT49505  27.559   5.332   3.845
  443XTH    CN149506  27.510   5.349   3.968
  443XTH     C149507  27.390   5.279   4.011
  443XTH     C249508  27.353   5.280   4.146
  443XTH     C349509  27.422   5.360   4.240
  443XTH     C449510  27.530   5.436   4.197
  443XTH     C549511  27.575   5.423   4.065
  443XTH    CN249512  27.670   5.254   3.837
  443XTH     C649513  27.674   5.112   3.849
  443XTH     C749514  27.792   5.038   3.839
  443XTH     C849515  27.911   5.109   3.823
  443XTH     C949516  27.914   5.247   3.807
  443XTH    C1049517  27.793   5.320   3.802
  443XTH    CN349518  27.501   5.375   3.735
  443XTH    C1149519  27.478   5.517   3.733
  443XTH    C1249520  27.409   5.568   3.624
  443XTH    C1349521  27.366   5.489   3.511
  443XTH    C1449522  27.392   5.350   3.523
  443XTH    C1549523  27.458   5.299   3.630
  443XTH     H149524  27.331   5.217   3.950
  443XTH     H249525  27.274   5.211   4.166
  443XTH     H349526  27.587   5.501   4.259
  443XTH     H449527  27.666   5.471   4.035
  443XTH     H549528  27.593   5.053   3.880
  443XTH     H649529  27.789   4.930   3.862
  443XTH     H749530  28.010   5.295   3.795
  443XTH     H849531  27.794   5.425   3.764
  443XTH     H949532  27.512   5.581   3.813
  443XTH    H1049533  27.381   5.672   3.636
  443XTH    H1149534  27.378   5.275   3.439
  443XTH    H1249535  27.479   5.193   3.632
  443XTH    OA149536  27.380   5.373   4.371
  443XTH    CO149537  27.471   5.437   4.461
  443XTH    OA249538  28.028   5.033   3.834
  443XTH    CO249539  28.139   5.075   3.757
  443XTH    CL149540  28.236   4.956   3.771
  443XTH    CL249541  28.219   4.845   3.673
  443XTH    CL349542  28.098   4.747   3.696
  443XTH    CL449543  28.071   4.661   3.574
  443XTH    CO349544  27.948   4.570   3.600
  443XTH    OA349545  27.916   4.508   3.471
  443XTH    CO449546  27.860   4.376   3.497
  443XTH    CT149547  27.793   4.322   3.374
  443XTH    CL549548  27.675   4.399   3.328
  443XTH    CL649549  27.568   4.419   3.439
  443XTH    OA449550  27.303   5.537   3.399
  443XTH    CO549551  27.316   5.672   3.372
  443XTH    CL749552  27.200   5.770   3.391
  443XTH    CL849553  27.198   5.877   3.283
  443XTH    CL949554  27.120   5.843   3.160
  443XTH   CL1049555  26.981   5.778   3.197
  443XTH    CO649556  26.903   5.746   3.069
  443XTH    OA549557  26.776   5.691   3.095
  443XTH    CO749558  26.793   5.555   3.147
  443XTH    CT249559  26.659   5.481   3.184
  443XTH   CL1149560  26.552   5.521   3.075
  443XTH   CL1249561  26.586   5.469   2.935
  443XTH    HL149562  27.448   5.433   4.562
  443XTH    HL249563  27.573   5.394   4.454
  443XTH    HL349564  27.481   5.547   4.449
  443XTH    HL449565  28.109   5.101   3.657
  443XTH    HL549566  28.172   5.170   3.810
  443XTH    HL649567  28.225   4.911   3.869
  443XTH    HL749568  28.338   4.996   3.766
  443XTH    HL849569  28.323   4.794   3.663
  443XTH    HL949570  28.199   4.900   3.585
  443XTH   HL1049571  28.107   4.688   3.782
  443XTH   HL1149572  28.002   4.802   3.714
  443XTH   HL1249573  28.161   4.598   3.546
  443XTH   HL1349574  28.060   4.732   3.493
  443XTH   HL1449575  27.960   4.497   3.677
  443XTH   HL1549576  27.868   4.635   3.630
  443XTH   HL1649577  27.940   4.314   3.531
  443XTH   HL1749578  27.789   4.375   3.576
  443XTH   HL1849579  27.616   4.355   3.247
  443XTH   HL1949580  27.711   4.498   3.294
  443XTH   HL2049581  27.608   4.465   3.527
  443XTH   HL2149582  27.522   4.327   3.477
  443XTH   HL2249583  27.495   4.479   3.388
  443XTH   HL2349584  27.344   5.666   3.269
  443XTH   HL2449585  27.413   5.707   3.413
  443XTH   HL2549586  27.113   5.714   3.402
  443XTH   HL2649587  27.219   5.821   3.488
  443XTH   HL2749588  27.144   5.962   3.323
  443XTH   HL2849589  27.300   5.917   3.264
  443XTH   HL2949590  27.115   5.933   3.103
  443XTH   HL3049591  27.183   5.775   3.107
  443XTH   HL3149592  26.986   5.686   3.257
  443XTH   HL3249593  26.925   5.848   3.265
  443XTH   HL3349594  26.879   5.833   3.011
  443XTH   HL3449595  26.955   5.671   3.009
  443XTH   HL3549596  26.856   5.555   3.235
  443XTH   HL3649597  26.847   5.488   3.076
  443XTH   HL3749598  26.518   5.630   3.071
  443XTH   HL3849599  26.460   5.466   3.097
  443XTH   HL3949600  26.677   5.518   2.898
  443XTH   HL4049601  26.512   5.493   2.858
  443XTH   HL4149602  26.601   5.365   2.922
  443XTH    CO849603  27.734   4.176   3.406
  443XTH    CO949604  27.899   4.308   3.260
  443XTH    OA649605  27.811   4.104   3.401
  443XTH   HL4249606  27.647   4.155   3.348
  443XTH   HL4349607  27.681   4.186   3.505
  443XTH   HL4449608  26.526   5.474   3.347
  443XTH   HL4549609  26.693   5.499   3.397
  443XTH   CO1049610  26.618   5.525   3.319
  443XTH   CO1149611  26.674   5.334   3.189
  443XTH    OA749612  26.601   5.640   3.326
  443XTH   HL4649613  26.546   5.269   3.209
  443XTH   HL4749614  26.715   5.290   3.095
  443XTH   HL4849615  27.970   4.431   3.239
  443XTH   HL4949616  27.965   4.225   3.292
  444XTA     NT49617  25.752   6.114   3.831
  444XTA    CN149618  25.655   6.069   3.912
  444XTA     C149619  25.569   6.163   3.973
  444XTA     C249620  25.461   6.128   4.052
  444XTA     C349621  25.447   5.995   4.094
  444XTA     C449622  25.540   5.897   4.038
  444XTA     C549623  25.642   5.935   3.953
  444XTA    CN249624  25.746   6.073   3.703
  444XTA     C649625  25.659   6.131   3.609
  444XTA     C749626  25.667   6.101   3.474
  444XTA     C849627  25.759   6.012   3.423
  444XTA     C949628  25.838   5.945   3.517
  444XTA    C1049629  25.835   5.973   3.656
  444XTA    CN349630  25.865   6.168   3.882
  444XTA    C1149631  25.891   6.302   3.838
  444XTA    C1249632  26.005   6.369   3.891
  444XTA    C1349633  26.090   6.299   3.979
  444XTA    C1449634  26.052   6.169   4.026
  444XTA    C1549635  25.939   6.106   3.983
  444XTA     H149636  25.585   6.266   3.953
  444XTA     H249637  25.392   6.207   4.082
  444XTA     H349638  25.541   5.800   4.066
  444XTA     H449639  25.705   5.860   3.913
  444XTA     H549640  25.592   6.207   3.649
  444XTA     H649641  25.595   6.147   3.415
  444XTA     H749642  25.897   5.866   3.470
  444XTA     H849643  25.894   5.916   3.719
  444XTA     H949644  25.823   6.356   3.772
  444XTA    H1049645  26.018   6.475   3.864
  444XTA    H1149646  26.122   6.117   4.088
  444XTA    H1249647  25.916   6.003   4.016
  444XTA    OA149648  25.342   5.956   4.177
  444XTA    CO149649  25.330   5.814   4.196
  444XTA    OA249650  25.756   5.993   3.287
  444XTA    CO249651  25.870   5.931   3.223
  444XTA    CL149652  25.992   6.028   3.223
  444XTA    CL249653  25.958   6.159   3.147
  444XTA    CL349654  26.075   6.246   3.130
  444XTA    CL449655  26.038   6.384   3.065
  444XTA    CO349656  26.115   6.506   3.137
  444XTA    OA349657  26.250   6.512   3.104
  444XTA    CO449658  26.271   6.528   2.968
  444XTA    CT149659  26.410   6.582   2.935
  444XTA    CL549660  26.435   6.711   3.020
  444XTA    CL649661  26.338   6.827   2.987
  444XTA    OA449662  26.197   6.358   4.043
  444XTA    CO549663  26.206   6.496   4.039
  444XTA    CL749664  26.325   6.550   4.109
  444XTA    CL849665  26.335   6.541   4.264
  444XTA    CL949666  26.253   6.646   4.336
  444XTA   CL1049667  26.281   6.656   4.479
  444XTA    CO649668  26.163   6.712   4.556
  444XTA    OA549669  26.196   6.693   4.694
  444XTA    CO749670  26.205   6.815   4.764
  444XTA    CT249671  26.280   6.809   4.904
  444XTA   CL1149672  26.429   6.763   4.891
  444XTA   CL1249673  26.520   6.860   4.806
  444XTA    HL149674  25.254   5.797   4.282
  444XTA    HL249675  25.303   5.751   4.113
  444XTA    HL349676  25.422   5.764   4.235
  444XTA    HL449677  25.900   5.834   3.267
  444XTA    HL549678  25.853   5.895   3.118
  444XTA    HL649679  26.081   5.981   3.183
  444XTA    HL749680  26.009   6.057   3.333
  444XTA    HL849681  25.887   6.211   3.212
  444XTA    HL949682  25.917   6.138   3.050
  444XTA   HL1049683  26.107   6.272   3.230
  444XTA   HL1149684  26.158   6.195   3.079
  444XTA   HL1249685  25.935   6.390   3.093
  444XTA   HL1349686  26.037   6.385   2.954
  444XTA   HL1449687  26.059   6.595   3.143
  444XTA   HL1549688  26.120   6.479   3.243
  444XTA   HL1649689  26.246   6.439   2.908
  444XTA   HL1749690  26.206   6.599   2.931
  444XTA   HL1849691  26.538   6.742   3.030
  444XTA   HL1949692  26.415   6.690   3.121
  444XTA   HL2049693  26.320   6.877   3.081
  444XTA   HL2149694  26.243   6.799   2.964
  444XTA   HL2249695  26.378   6.890   2.913
  444XTA   HL2349696  26.117   6.531   4.081
  444XTA   HL2449697  26.211   6.523   3.926
  444XTA   HL2549698  26.416   6.495   4.079
  444XTA   HL2649699  26.341   6.652   4.080
  444XTA   HL2749700  26.293   6.448   4.302
  444XTA   HL2849701  26.434   6.537   4.299
  444XTA   HL2949702  26.267   6.743   4.288
  444XTA   HL3049703  26.155   6.613   4.308
  444XTA   HL3149704  26.300   6.559   4.520
  444XTA   HL3249705  26.372   6.721   4.493
  444XTA   HL3349706  26.156   6.815   4.531
  444XTA   HL3449707  26.071   6.663   4.518
  444XTA   HL3549708  26.108   6.866   4.774
  444XTA   HL3649709  26.252   6.893   4.713
  444XTA   HL3749710  26.458   6.664   4.858
  444XTA   HL3849711  26.471   6.766   4.991
  444XTA   HL3949712  26.615   6.818   4.782
  444XTA   HL4049713  26.536   6.957   4.852
  444XTA   HL4149714  26.478   6.882   4.703
  444XTA    CO849715  26.423   6.606   2.790
  444XTA    CO949716  26.508   6.479   2.980
  444XTA    OA649717  26.486   6.358   2.909
  444XTA   HL4249718  26.480   6.698   2.781
  444XTA   HL4349719  26.483   6.524   2.740
  444XTA   HL4449720  26.227   6.563   4.940
  444XTA   HL4549721  26.100   6.708   4.963
  444XTA   CO1049722  26.207   6.701   4.987
  444XTA   CO1149723  26.251   6.942   4.975
  444XTA    OA749724  26.315   7.030   4.949
  444XTA   HL4649725  26.147   6.961   4.961
  444XTA   HL4749726  26.261   6.928   5.082
  444XTA   HL4849727  26.495   6.450   3.086
  444XTA   HL4949728  26.614   6.500   2.956
  445XTA     NT49729  30.297   0.507   4.161
  445XTA    CN149730  30.410   0.483   4.092
  445XTA     C149731  30.482   0.366   4.119
  445XTA     C249732  30.581   0.319   4.034
  445XTA     C349733  30.611   0.392   3.913
  445XTA     C449734  30.546   0.517   3.894
  445XTA     C549735  30.445   0.556   3.978
  445XTA    CN249736  30.180   0.496   4.087
  445XTA     C649737  30.118   0.607   4.032
  445XTA     C749738  30.003   0.607   3.952
  445XTA     C849739  29.939   0.484   3.933
  445XTA     C949740  30.007   0.365   3.977
  445XTA    C1049741  30.127   0.369   4.053
  445XTA    CN349742  30.289   0.495   4.291
  445XTA    C1149743  30.280   0.604   4.384
  445XTA    C1249744  30.254   0.586   4.522
  445XTA    C1349745  30.240   0.462   4.580
  445XTA    C1449746  30.260   0.351   4.488
  445XTA    C1549747  30.274   0.371   4.352
  445XTA     H149748  30.464   0.305   4.200
  445XTA     H249749  30.631   0.232   4.066
  445XTA     H349750  30.574   0.585   3.817
  445XTA     H449751  30.379   0.633   3.949
  445XTA     H549752  30.179   0.702   4.035
  445XTA     H649753  29.972   0.708   3.912
  445XTA     H749754  29.962   0.276   3.948
  445XTA     H849755  30.178   0.281   4.082
  445XTA     H949756  30.280   0.703   4.354
  445XTA    H1049757  30.243   0.680   4.582
  445XTA    H1149758  30.247   0.249   4.535
  445XTA    H1249759  30.276   0.282   4.287
  445XTA    OA149760  30.705   0.337   3.829
  445XTA    CO149761  30.727   0.412   3.709
  445XTA    OA249762  29.826   0.472   3.864
  445XTA    CO249763  29.728   0.407   3.940
  445XTA    CL149764  29.588   0.416   3.864
  445XTA    CL249765  29.484   0.314   3.904
  445XTA    CL349766  29.385   0.304   3.792
  445XTA    CL449767  29.271   0.208   3.818
  445XTA    CO349768  29.330   0.067   3.857
  445XTA    OA349769  29.223  -0.034   3.848
  445XTA    CO449770  29.260  -0.169   3.882
  445XTA    CT149771  29.164  -0.284   3.841
  445XTA    CL549772  29.025  -0.247   3.896
  445XTA    CL649773  28.905  -0.312   3.826
  445XTA    OA449774  30.196   0.448   4.712
  445XTA    CO549775  30.155   0.563   4.786
  445XTA    CL749776  30.079   0.520   4.914
  445XTA    CL849777  30.174   0.433   5.000
  445XTA    CL949778  30.105   0.331   5.098
  445XTA   CL1049779  30.208   0.226   5.161
  445XTA    CO649780  30.233   0.107   5.067
  445XTA    OA549781  30.119   0.028   5.067
  445XTA    CO749782  30.144  -0.103   5.013
  445XTA    CT249783  30.019  -0.186   5.023
  445XTA   CL1149784  30.038  -0.317   4.948
  445XTA   CL1249785  30.151  -0.409   4.993
  445XTA    HL149786  30.798   0.358   3.655
  445XTA    HL249787  30.639   0.438   3.648
  445XTA    HL349788  30.772   0.497   3.746
  445XTA    HL449789  29.735   0.304   3.975
  445XTA    HL549790  29.719   0.460   4.032
  445XTA    HL649791  29.617   0.409   3.755
  445XTA    HL749792  29.543   0.511   3.865
  445XTA    HL849793  29.436   0.334   3.996
  445XTA    HL949794  29.534   0.222   3.907
  445XTA   HL1049795  29.345   0.402   3.793
  445XTA   HL1149796  29.425   0.283   3.693
  445XTA   HL1249797  29.205   0.187   3.733
  445XTA   HL1349798  29.198   0.248   3.892
  445XTA   HL1449799  29.413   0.034   3.789
  445XTA   HL1549800  29.364   0.078   3.968
  445XTA   HL1649801  29.365  -0.186   3.841
  445XTA   HL1749802  29.258  -0.171   3.983
  445XTA   HL1849803  29.017  -0.135   3.890
  445XTA   HL1949804  29.029  -0.272   4.000
  445XTA   HL2049805  28.814  -0.291   3.876
  445XTA   HL2149806  28.923  -0.408   3.792
  445XTA   HL2249807  28.884  -0.256   3.737
  445XTA   HL2349808  30.085   0.617   4.729
  445XTA   HL2449809  30.244   0.627   4.801
  445XTA   HL2549810  30.030   0.604   4.970
  445XTA   HL2649811  29.994   0.459   4.878
  445XTA   HL2749812  30.249   0.392   4.937
  445XTA   HL2849813  30.217   0.500   5.076
  445XTA   HL2949814  30.043   0.392   5.171
  445XTA   HL3049815  30.028   0.262   5.044
  445XTA   HL3149816  30.303   0.270   5.187
  445XTA   HL3249817  30.177   0.178   5.256
  445XTA   HL3349818  30.272   0.136   4.965
  445XTA   HL3449819  30.319   0.044   5.101
  445XTA   HL3549820  30.227  -0.139   5.075
  445XTA   HL3649821  30.168  -0.098   4.910
  445XTA   HL3749822  30.051  -0.294   4.841
  445XTA   HL3849823  29.943  -0.373   4.947
  445XTA   HL3949824  30.244  -0.349   4.981
  445XTA   HL4049825  30.138  -0.494   4.928
  445XTA   HL4149826  30.146  -0.440   5.089
  445XTA    CO849827  29.210  -0.410   3.916
  445XTA    CO949828  29.169  -0.317   3.692
  445XTA    OA649829  29.295  -0.370   3.651
  445XTA   HL4249830  29.139  -0.488   3.899
  445XTA   HL4349831  29.304  -0.442   3.862
  445XTA   HL4449832  29.815  -0.186   4.991
  445XTA   HL4549833  29.863  -0.022   5.014
  445XTA   CO1049834  29.892  -0.122   4.970
  445XTA   CO1149835  29.984  -0.205   5.175
  445XTA    OA749836  29.913  -0.099   4.837
  445XTA   HL4649837  29.880  -0.231   5.185
  445XTA   HL4749838  29.981  -0.102   5.214
  445XTA   HL4849839  29.131  -0.227   3.639
  445XTA   HL4949840  29.091  -0.399   3.675
  446XTA     NT49841  31.991   6.221   4.672
  446XTA    CN149842  31.869   6.262   4.628
  446XTA     C149843  31.769   6.167   4.594
  446XTA     C249844  31.632   6.204   4.564
  446XTA     C349845  31.602   6.342   4.562
  446XTA     C449846  31.701   6.439   4.597
  446XTA     C549847  31.834   6.400   4.623
  446XTA    CN249848  32.001   6.167   4.796
  446XTA     C649849  32.025   6.028   4.809
  446XTA     C749850  32.033   5.969   4.937
  446XTA     C849851  32.031   6.051   5.056
  446XTA     C949852  32.023   6.190   5.033
  446XTA    C1049853  32.006   6.247   4.908
  446XTA    CN349854  32.102   6.249   4.601
  446XTA    C1149855  32.205   6.331   4.654
  446XTA    C1249856  32.312   6.368   4.576
  446XTA    C1349857  32.331   6.320   4.444
  446XTA    C1449858  32.227   6.243   4.388
  446XTA    C1549859  32.119   6.205   4.470
  446XTA     H149860  31.793   6.066   4.616
  446XTA     H249861  31.563   6.122   4.547
  446XTA     H349862  31.671   6.542   4.600
  446XTA     H449863  31.911   6.469   4.649
  446XTA     H549864  32.030   5.967   4.717
  446XTA     H649865  32.048   5.868   4.949
  446XTA     H749866  32.040   6.249   5.123
  446XTA     H849867  31.986   6.356   4.901
  446XTA     H949868  32.191   6.384   4.747
  446XTA    H1049869  32.375   6.436   4.628
  446XTA    H1149870  32.245   6.199   4.291
  446XTA    H1249871  32.050   6.129   4.430
  446XTA    OA149872  31.472   6.394   4.541
  446XTA    CO149873  31.374   6.293   4.522
  446XTA    OA249874  32.042   6.008   5.182
  446XTA    CO249875  32.110   5.873   5.206
  446XTA    CL149876  32.189   5.878   5.336
  446XTA    CL249877  32.319   5.959   5.325
  446XTA    CL349878  32.306   6.108   5.309
  446XTA    CL449879  32.450   6.169   5.338
  446XTA    CO349880  32.476   6.304   5.291
  446XTA    OA349881  32.595   6.364   5.341
  446XTA    CO449882  32.621   6.349   5.481
  446XTA    CT149883  32.761   6.407   5.504
  446XTA    CL549884  32.769   6.561   5.492
  446XTA    CL649885  32.678   6.641   5.580
  446XTA    OA449886  32.431   6.363   4.362
  446XTA    CO549887  32.495   6.478   4.404
  446XTA    CL749888  32.584   6.528   4.292
  446XTA    CL849889  32.503   6.585   4.174
  446XTA    CL949890  32.591   6.689   4.103
  446XTA   CL1049891  32.508   6.771   4.001
  446XTA    CO649892  32.594   6.868   3.925
  446XTA    OA549893  32.690   6.807   3.834
  446XTA    CO749894  32.639   6.731   3.718
  446XTA    CT249895  32.741   6.625   3.672
  446XTA   CL1149896  32.873   6.683   3.617
  446XTA   CL1249897  32.858   6.828   3.563
  446XTA    HL149898  31.279   6.337   4.498
  446XTA    HL249899  31.396   6.232   4.433
  446XTA    HL349900  31.365   6.231   4.610
  446XTA    HL449901  32.028   5.801   5.201
  446XTA    HL549902  32.177   5.846   5.124
  446XTA    HL649903  32.212   5.772   5.359
  446XTA    HL749904  32.113   5.925   5.405
  446XTA    HL849905  32.387   5.920   5.251
  446XTA    HL949906  32.372   5.959   5.415
  446XTA   HL1049907  32.278   6.126   5.197
  446XTA   HL1149908  32.239   6.165   5.366
  446XTA   HL1249909  32.522   6.101   5.287
  446XTA   HL1349910  32.466   6.152   5.442
  446XTA   HL1449911  32.482   6.316   5.174
  446XTA   HL1549912  32.394   6.370   5.320
  446XTA   HL1649913  32.540   6.397   5.528
  446XTA   HL1749914  32.607   6.249   5.515
  446XTA   HL1849915  32.749   6.576   5.384
  446XTA   HL1949916  32.874   6.598   5.512
  446XTA   HL2049917  32.727   6.645   5.675
  446XTA   HL2149918  32.588   6.590   5.583
  446XTA   HL2249919  32.664   6.741   5.540
  446XTA   HL2349920  32.554   6.450   4.491
  446XTA   HL2449921  32.421   6.555   4.434
  446XTA   HL2549922  32.630   6.606   4.347
  446XTA   HL2649923  32.670   6.468   4.264
  446XTA   HL2749924  32.470   6.511   4.100
  446XTA   HL2849925  32.419   6.642   4.205
  446XTA   HL2949926  32.617   6.762   4.177
  446XTA   HL3049927  32.677   6.650   4.052
  446XTA   HL3149928  32.458   6.714   3.928
  446XTA   HL3249929  32.429   6.821   4.059
  446XTA   HL3349930  32.528   6.929   3.856
  446XTA   HL3449931  32.632   6.944   3.997
  446XTA   HL3549932  32.626   6.808   3.640
  446XTA   HL3649933  32.546   6.679   3.743
  446XTA   HL3749934  32.907   6.613   3.545
  446XTA   HL3849935  32.940   6.686   3.698
  446XTA   HL3949936  32.953   6.860   3.525
  446XTA   HL4049937  32.847   6.908   3.638
  446XTA   HL4149938  32.797   6.828   3.470
  446XTA    CO849939  32.864   6.341   5.400
  446XTA    CO949940  32.806   6.362   5.647
  446XTA    OA649941  32.791   6.254   5.671
  446XTA   HL4249942  32.948   6.295   5.460
  446XTA   HL4349943  32.814   6.229   5.333
  446XTA   HL4449944  32.753   6.483   3.508
  446XTA   HL4549945  32.600   6.482   3.603
  446XTA   CO1049946  32.676   6.545   3.551
  446XTA   CO1149947  32.760   6.534   3.797
  446XTA    OA749948  32.630   6.615   3.478
  446XTA   HL4649949  32.635   6.499   3.838
  446XTA   HL4749950  32.800   6.601   3.869
  446XTA   HL4849951  32.741   6.422   5.711
  446XTA   HL4949952  32.909   6.394   5.661
  447XTA     NT49953  31.235   4.038   2.261
  447XTA    CN149954  31.140   3.950   2.298
  447XTA     C149955  31.107   3.940   2.432
  447XTA     C249956  31.002   3.856   2.475
  447XTA     C349957  30.937   3.770   2.385
  447XTA     C449958  30.983   3.767   2.251
  447XTA     C549959  31.082   3.861   2.209
  447XTA    CN249960  31.201   4.169   2.250
  447XTA     C649961  31.164   4.227   2.123
  447XTA     C749962  31.146   4.364   2.107
  447XTA     C849963  31.132   4.437   2.222
  447XTA     C949964  31.161   4.384   2.351
  447XTA    C1049965  31.205   4.251   2.364
  447XTA    CN349966  31.366   4.010   2.259
  447XTA    C1149967  31.438   4.020   2.381
  447XTA    C1249968  31.580   4.017   2.379
  447XTA    C1349969  31.652   4.001   2.260
  447XTA    C1449970  31.574   3.988   2.141
  447XTA    C1549971  31.430   3.998   2.138
  447XTA     H149972  31.159   4.004   2.501
  447XTA     H249973  30.962   3.848   2.575
  447XTA     H349974  30.943   3.703   2.175
  447XTA     H449975  31.119   3.866   2.108
  447XTA     H549976  31.176   4.170   2.024
  447XTA     H649977  31.146   4.416   2.012
  447XTA     H749978  31.136   4.435   2.445
  447XTA     H849979  31.230   4.220   2.457
  447XTA     H949980  31.382   4.036   2.475
  447XTA    H1049981  31.645   4.030   2.464
  447XTA    H1149982  31.615   3.970   2.041
  447XTA    H1249983  31.372   3.998   2.046
  447XTA    OA149984  30.838   3.694   2.432
  447XTA    CO149985  30.754   3.642   2.324
  447XTA    OA249986  31.087   4.570   2.213
  447XTA    CO249987  31.138   4.658   2.311
  447XTA    CL149988  31.141   4.803   2.266
  447XTA    CL249989  31.210   4.898   2.371
  447XTA    CL349990  31.370   4.879   2.391
  447XTA    CL449991  31.458   4.895   2.262
  447XTA    CO349992  31.605   4.866   2.293
  447XTA    OA349993  31.620   4.733   2.349
  447XTA    CO449994  31.599   4.628   2.255
  447XTA    CT149995  31.623   4.493   2.325
  447XTA    CL549996  31.516   4.477   2.434
  447XTA    CL649997  31.534   4.342   2.518
  447XTA    OA449998  31.789   3.985   2.264
  447XTA    CO549999  31.853   3.966   2.136
  447XTA    CL750000  32.012   3.954   2.152
  447XTA    CL850001  32.073   3.881   2.030
  447XTA    CL950002  32.225   3.882   2.033
  447XTA   CL1050003  32.281   3.791   1.922
  447XTA    CO650004  32.255   3.843   1.781
  447XTA    OA550005  32.130   3.781   1.725
  447XTA    CO750006  32.160   3.644   1.686
  447XTA    CT250007  32.049   3.572   1.605
  447XTA   CL1150008  32.086   3.437   1.547
  447XTA   CL1250009  32.221   3.433   1.468
  447XTA    HL150010  30.801   3.583   2.245
  447XTA    HL250011  30.684   3.573   2.374
  447XTA    HL350012  30.699   3.725   2.275
  447XTA    HL450013  31.086   4.647   2.405
  447XTA    HL550014  31.245   4.633   2.321
  447XTA    HL650015  31.036   4.836   2.255
  447XTA    HL750016  31.198   4.815   2.171
  447XTA    HL850017  31.164   4.874   2.462
  447XTA    HL950018  31.195   4.998   2.353
  447XTA   HL1050019  31.401   4.953   2.472
  447XTA   HL1150020  31.398   4.785   2.443
  447XTA   HL1250021  31.429   4.995   2.227
  447XTA   HL1350022  31.423   4.824   2.184
  447XTA   HL1450023  31.662   4.881   2.202
  447XTA   HL1550024  31.641   4.932   2.370
  447XTA   HL1650025  31.502   4.621   2.218
  447XTA   HL1750026  31.663   4.630   2.168
  447XTA   HL1850027  31.410   4.470   2.390
  447XTA   HL1950028  31.515   4.560   2.500
  447XTA   HL2050029  31.642   4.335   2.546
  447XTA   HL2150030  31.514   4.261   2.446
  447XTA   HL2250031  31.459   4.340   2.595
  447XTA   HL2350032  31.812   4.046   2.079
  447XTA   HL2450033  31.810   3.867   2.093
  447XTA   HL2550034  32.063   4.044   2.168
  447XTA   HL2650035  32.027   3.892   2.240
  447XTA   HL2750036  32.046   3.782   2.023
  447XTA   HL2850037  32.044   3.940   1.940
  447XTA   HL2950038  32.261   3.984   2.022
  447XTA   HL3050039  32.267   3.852   2.130
  447XTA   HL3150040  32.389   3.780   1.938
  447XTA   HL3250041  32.237   3.690   1.937
  447XTA   HL3350042  32.232   3.946   1.774
  447XTA   HL3450043  32.344   3.843   1.716
  447XTA   HL3550044  32.211   3.589   1.766
  447XTA   HL3650045  32.233   3.656   1.608
  447XTA   HL3750046  32.001   3.393   1.505
  447XTA   HL3850047  32.108   3.371   1.631
  447XTA   HL3950048  32.244   3.336   1.428
  447XTA   HL4050049  32.305   3.465   1.533
  447XTA   HL4150050  32.207   3.503   1.385
  447XTA    CO850051  31.766   4.486   2.383
  447XTA    CO950052  31.614   4.379   2.219
  447XTA    OA650053  31.659   4.403   2.129
  447XTA   HL4250054  31.770   4.526   2.483
  447XTA   HL4350055  31.809   4.354   2.408
  447XTA   HL4450056  31.898   3.607   1.449
  447XTA   HL4550057  31.930   3.732   1.566
  447XTA   CO1050058  31.981   3.658   1.506
  447XTA   CO1150059  31.936   3.550   1.708
  447XTA    OA750060  32.043   3.709   1.429
  447XTA   HL4650061  31.903   3.670   1.775
  447XTA   HL4750062  31.968   3.476   1.780
  447XTA   HL4850063  31.508   4.368   2.192
  447XTA   HL4950064  31.646   4.285   2.263
  448XTA     NT50065  33.271   5.769   7.202
  448XTA    CN150066  33.237   5.664   7.278
  448XTA     C150067  33.153   5.685   7.391
  448XTA     C250068  33.118   5.584   7.473
  448XTA     C350069  33.183   5.458   7.462
  448XTA     C450070  33.253   5.431   7.347
  448XTA     C550071  33.288   5.535   7.258
  448XTA    CN250072  33.173   5.843   7.144
  448XTA     C650073  33.171   5.986   7.153
  448XTA     C750074  33.057   6.057   7.117
  448XTA     C850075  32.947   5.995   7.053
  448XTA     C950076  32.954   5.860   7.027
  448XTA    C1050077  33.060   5.782   7.080
  448XTA    CN350078  33.399   5.783   7.163
  448XTA    C1150079  33.496   5.840   7.252
  448XTA    C1250080  33.625   5.859   7.198
  448XTA    C1350081  33.659   5.819   7.068
  448XTA    C1450082  33.562   5.758   6.987
  448XTA    C1550083  33.433   5.732   7.034
  448XTA     H150084  33.105   5.779   7.407
  448XTA     H250085  33.052   5.601   7.560
  448XTA     H350086  33.309   5.334   7.330
  448XTA     H450087  33.356   5.511   7.173
  448XTA     H550088  33.242   6.048   7.204
  448XTA     H650089  33.053   6.165   7.147
  448XTA     H750090  32.880   5.796   6.974
  448XTA     H850091  33.060   5.670   7.067
  448XTA     H950092  33.481   5.888   7.345
  448XTA    H1050093  33.703   5.899   7.267
  448XTA    H1150094  33.602   5.728   6.892
  448XTA    H1250095  33.366   5.691   6.962
  448XTA    OA150096  33.152   5.355   7.549
  448XTA    CO150097  33.223   5.238   7.524
  448XTA    OA250098  32.838   6.065   7.012
  448XTA    CO250099  32.728   6.040   7.099
  448XTA    CL150100  32.630   5.947   7.043
  448XTA    CL250101  32.514   5.913   7.131
  448XTA    CL350102  32.555   5.837   7.259
  448XTA    CL450103  32.599   5.691   7.239
  448XTA    CO350104  32.669   5.630   7.365
  448XTA    OA350105  32.572   5.548   7.436
  448XTA    CO450106  32.470   5.622   7.511
  448XTA    CT150107  32.386   5.537   7.606
  448XTA    CL550108  32.256   5.616   7.649
  448XTA    CL650109  32.273   5.744   7.739
  448XTA    OA450110  33.780   5.844   7.012
  448XTA    CO550111  33.800   5.958   6.929
  448XTA    CL750112  33.774   5.936   6.781
  448XTA    CL850113  33.864   5.817   6.735
  448XTA    CL950114  33.822   5.789   6.588
  448XTA   CL1050115  33.895   5.672   6.526
  448XTA    CO650116  33.828   5.539   6.543
  448XTA    OA550117  33.896   5.427   6.500
  448XTA    CO750118  33.908   5.424   6.358
  448XTA    CT250119  33.955   5.285   6.316
  448XTA   CL1150120  33.848   5.172   6.346
  448XTA   CL1250121  33.707   5.204   6.304
  448XTA    HL150122  33.180   5.177   7.446
  448XTA    HL250123  33.325   5.255   7.486
  448XTA    HL350124  33.242   5.179   7.620
  448XTA    HL450125  32.766   6.008   7.196
  448XTA    HL550126  32.688   6.145   7.112
  448XTA    HL650127  32.659   5.845   7.020
  448XTA    HL750128  32.596   5.996   6.954
  448XTA    HL850129  32.425   5.872   7.071
  448XTA    HL950130  32.474   6.005   7.169
  448XTA   HL1050131  32.633   5.885   7.315
  448XTA   HL1150132  32.468   5.841   7.320
  448XTA   HL1250133  32.674   5.683   7.154
  448XTA   HL1350134  32.512   5.637   7.215
  448XTA   HL1450135  32.745   5.562   7.332
  448XTA   HL1550136  32.713   5.698   7.442
  448XTA   HL1650137  32.523   5.695   7.574
  448XTA   HL1750138  32.402   5.678   7.446
  448XTA   HL1850139  32.193   5.550   7.706
  448XTA   HL1950140  32.188   5.640   7.566
  448XTA   HL2050141  32.357   5.812   7.699
  448XTA   HL2150142  32.307   5.728   7.844
  448XTA   HL2250143  32.172   5.798   7.745
  448XTA   HL2350144  33.906   5.981   6.926
  448XTA   HL2450145  33.746   6.053   6.967
  448XTA   HL2550146  33.671   5.912   6.764
  448XTA   HL2650147  33.808   6.023   6.731
  448XTA   HL2750148  33.966   5.844   6.732
  448XTA   HL2850149  33.858   5.730   6.796
  448XTA   HL2950150  33.708   5.772   6.581
  448XTA   HL3050151  33.852   5.880   6.538
  448XTA   HL3150152  33.906   5.687   6.418
  448XTA   HL3250153  33.997   5.682   6.553
  448XTA   HL3350154  33.815   5.528   6.647
  448XTA   HL3450155  33.733   5.546   6.501
  448XTA   HL3550156  33.970   5.508   6.317
  448XTA   HL3650157  33.810   5.440   6.318
  448XTA   HL3750158  33.846   5.152   6.455
  448XTA   HL3850159  33.884   5.073   6.310
  448XTA   HL3950160  33.668   5.292   6.357
  448XTA   HL4050161  33.645   5.120   6.305
  448XTA   HL4150162  33.706   5.233   6.195
  448XTA    CO850163  32.471   5.490   7.719
  448XTA    CO950164  32.343   5.413   7.529
  448XTA    OA650165  32.389   5.407   7.815
  448XTA   HL4250166  32.509   5.573   7.782
  448XTA   HL4350167  32.558   5.445   7.671
  448XTA   HL4450168  34.077   5.226   6.491
  448XTA   HL4550169  34.126   5.156   6.340
  448XTA   CO1050170  34.090   5.251   6.378
  448XTA   CO1150171  33.976   5.284   6.172
  448XTA    OA750172  34.180   5.360   6.369
  448XTA   HL4650173  33.990   5.183   6.141
  448XTA   HL4750174  34.078   5.323   6.158
  448XTA   HL4850175  32.263   5.383   7.593
  448XTA   HL4950176  32.414   5.337   7.499
  449XTA     NT50177  33.958  -2.461  -0.742
  449XTA    CN150178  33.959  -2.380  -0.854
  449XTA     C150179  33.992  -2.437  -0.979
  449XTA     C250180  33.976  -2.355  -1.095
  449XTA     C350181  33.943  -2.222  -1.087
  449XTA     C450182  33.918  -2.162  -0.960
  449XTA     C550183  33.924  -2.249  -0.850
  449XTA    CN250184  34.047  -2.451  -0.641
  449XTA     C650185  34.000  -2.464  -0.505
  449XTA     C750186  34.101  -2.452  -0.404
  449XTA     C850187  34.232  -2.445  -0.437
  449XTA     C950188  34.281  -2.435  -0.565
  449XTA    C1050189  34.183  -2.442  -0.672
  449XTA    CN350190  33.859  -2.554  -0.728
  449XTA    C1150191  33.890  -2.689  -0.712
  449XTA    C1250192  33.789  -2.781  -0.701
  449XTA    C1350193  33.653  -2.742  -0.707
  449XTA    C1450194  33.620  -2.608  -0.735
  449XTA    C1550195  33.724  -2.512  -0.740
  449XTA     H150196  34.034  -2.534  -0.993
  449XTA     H250197  33.997  -2.400  -1.189
  449XTA     H350198  33.893  -2.064  -0.938
  449XTA     H450199  33.886  -2.210  -0.754
  449XTA     H550200  33.899  -2.477  -0.473
  449XTA     H650201  34.075  -2.465  -0.298
  449XTA     H750202  34.389  -2.422  -0.590
  449XTA     H850203  34.219  -2.438  -0.775
  449XTA     H950204  33.992  -2.721  -0.715
  449XTA    H1050205  33.814  -2.892  -0.687
  449XTA    H1150206  33.522  -2.577  -0.735
  449XTA    H1250207  33.709  -2.409  -0.751
  449XTA    OA150208  33.919  -2.153  -1.202
  449XTA    CO150209  33.831  -2.043  -1.204
  449XTA    OA250210  34.323  -2.443  -0.336
  449XTA    CO250211  34.370  -2.315  -0.295
  449XTA    CL150212  34.269  -2.256  -0.203
  449XTA    CL250213  34.261  -2.104  -0.229
  449XTA    CL350214  34.143  -2.041  -0.146
  449XTA    CL450215  34.166  -2.050   0.005
  449XTA    CO350216  34.065  -1.965   0.096
  449XTA    OA350217  33.931  -2.012   0.088
  449XTA    CO450218  33.918  -2.129   0.173
  449XTA    CT150219  33.779  -2.197   0.158
  449XTA    CL550220  33.754  -2.237   0.011
  449XTA    CL650221  33.841  -2.341  -0.058
  449XTA    OA450222  33.545  -2.820  -0.679
  449XTA    CO550223  33.572  -2.927  -0.592
  449XTA    CL750224  33.436  -2.968  -0.541
  449XTA    CL850225  33.386  -2.867  -0.436
  449XTA    CL950226  33.262  -2.924  -0.347
  449XTA   CL1050227  33.144  -2.989  -0.434
  449XTA    CO650228  33.040  -2.876  -0.455
  449XTA    OA550229  32.961  -2.849  -0.346
  449XTA    CO750230  32.865  -2.950  -0.316
  449XTA    CT250231  32.813  -2.942  -0.166
  449XTA   CL1150232  32.932  -2.931  -0.070
  449XTA   CL1250233  33.026  -3.057  -0.071
  449XTA    HL150234  33.733  -2.073  -1.169
  449XTA    HL250235  33.874  -1.967  -1.133
  449XTA    HL350236  33.809  -2.015  -1.311
  449XTA    HL450237  34.471  -2.329  -0.247
  449XTA    HL550238  34.393  -2.253  -0.384
  449XTA    HL650239  34.278  -2.293  -0.095
  449XTA    HL750240  34.170  -2.289  -0.236
  449XTA    HL850241  34.255  -2.064  -0.330
  449XTA    HL950242  34.353  -2.063  -0.187
  449XTA   HL1050243  34.130  -1.934  -0.178
  449XTA   HL1150244  34.048  -2.077  -0.177
  449XTA   HL1250245  34.258  -2.014   0.025
  449XTA   HL1350246  34.173  -2.157   0.025
  449XTA   HL1450247  34.092  -1.958   0.207
  449XTA   HL1550248  34.058  -1.857   0.068
  449XTA   HL1650249  33.998  -2.202   0.153
  449XTA   HL1750250  33.933  -2.095   0.275
  449XTA   HL1850251  33.765  -2.141  -0.052
  449XTA   HL1950252  33.648  -2.273  -0.005
  449XTA   HL2050253  33.845  -2.436  -0.013
  449XTA   HL2150254  33.948  -2.305  -0.077
  449XTA   HL2250255  33.811  -2.354  -0.159
  449XTA   HL2350256  33.649  -2.917  -0.517
  449XTA   HL2450257  33.592  -3.005  -0.661
  449XTA   HL2550258  33.370  -2.971  -0.629
  449XTA   HL2650259  33.448  -3.068  -0.498
  449XTA   HL2750260  33.470  -2.859  -0.364
  449XTA   HL2850261  33.375  -2.768  -0.486
  449XTA   HL2950262  33.303  -2.995  -0.272
  449XTA   HL3050263  33.230  -2.837  -0.285
  449XTA   HL3150264  33.177  -3.036  -0.526
  449XTA   HL3250265  33.098  -3.069  -0.372
  449XTA   HL3350266  33.092  -2.780  -0.489
  449XTA   HL3450267  32.975  -2.902  -0.538
  449XTA   HL3550268  32.915  -3.042  -0.322
  449XTA   HL3650269  32.788  -2.953  -0.392
  449XTA   HL3750270  32.891  -2.908   0.027
  449XTA   HL3850271  32.991  -2.846  -0.105
  449XTA   HL3950272  33.087  -3.073  -0.161
  449XTA   HL4050273  32.969  -3.154  -0.055
  449XTA   HL4150274  33.091  -3.055   0.017
  449XTA    CO850275  33.673  -2.095   0.204
  449XTA    CO950276  33.768  -2.327   0.245
  449XTA    OA650277  33.691  -2.057   0.307
  449XTA   HL4250278  33.574  -2.132   0.210
  449XTA   HL4350279  33.654  -2.011   0.149
  449XTA   HL4450280  32.675  -3.067   0.006
  449XTA   HL4550281  32.764  -3.156  -0.153
  449XTA   CO1050282  32.720  -3.065  -0.130
  449XTA   CO1150283  32.737  -2.807  -0.166
  449XTA    OA750284  32.689  -2.779  -0.074
  449XTA   HL4650285  32.817  -2.732  -0.183
  449XTA   HL4750286  32.667  -2.793  -0.245
  449XTA   HL4850287  33.771  -2.291   0.377
  449XTA   HL4950288  33.673  -2.367   0.222
  450XTA     NT50289  28.815  -2.132   1.833
  450XTA    CN150290  28.764  -2.250   1.869
  450XTA     C150291  28.709  -2.276   1.996
  450XTA     C250292  28.642  -2.395   2.021
  450XTA     C350293  28.640  -2.498   1.931
  450XTA     C450294  28.695  -2.472   1.800
  450XTA     C550295  28.746  -2.348   1.767
  450XTA    CN250296  28.788  -2.019   1.897
  450XTA     C650297  28.890  -1.948   1.961
  450XTA     C750298  28.859  -1.833   2.035
  450XTA     C850299  28.725  -1.789   2.048
  450XTA     C950300  28.631  -1.849   1.969
  450XTA    C1050301  28.654  -1.965   1.894
  450XTA    CN350302  28.901  -2.115   1.732
  450XTA    C1150303  28.874  -2.042   1.616
  450XTA    C1250304  28.971  -2.004   1.530
  450XTA    C1350305  29.099  -2.067   1.545
  450XTA    C1450306  29.121  -2.160   1.645
  450XTA    C1550307  29.022  -2.179   1.745
  450XTA     H150308  28.715  -2.202   2.075
  450XTA     H250309  28.596  -2.413   2.119
  450XTA     H350310  28.683  -2.546   1.718
  450XTA     H450311  28.788  -2.330   1.666
  450XTA     H550312  28.995  -1.984   1.960
  450XTA     H650313  28.938  -1.780   2.084
  450XTA     H750314  28.530  -1.809   1.962
  450XTA     H850315  28.576  -2.016   1.837
  450XTA     H950316  28.777  -1.994   1.605
  450XTA    H1050317  28.956  -1.931   1.458
  450XTA    H1150318  29.212  -2.213   1.659
  450XTA    H1250319  29.035  -2.243   1.830
  450XTA    OA150320  28.588  -2.622   1.974
  450XTA    CO150321  28.592  -2.734   1.886
  450XTA    OA250322  28.698  -1.679   2.126
  450XTA    CO250323  28.571  -1.609   2.123
  450XTA    CL150324  28.574  -1.477   2.198
  450XTA    CL250325  28.670  -1.373   2.121
  450XTA    CL350326  28.717  -1.249   2.201
  450XTA    CL450327  28.632  -1.128   2.172
  450XTA    CO350328  28.485  -1.151   2.203
  450XTA    OA350329  28.458  -1.202   2.336
  450XTA    CO450330  28.320  -1.245   2.355
  450XTA    CT150331  28.299  -1.288   2.499
  450XTA    CL550332  28.328  -1.166   2.591
  450XTA    CL650333  28.228  -1.049   2.590
  450XTA    OA450334  29.205  -2.056   1.456
  450XTA    CO550335  29.182  -1.965   1.352
  450XTA    CL750336  29.288  -1.968   1.242
  450XTA    CL850337  29.235  -1.967   1.096
  450XTA    CL950338  29.304  -1.856   1.003
  450XTA   CL1050339  29.220  -1.847   0.874
  450XTA    CO650340  29.097  -1.766   0.906
  450XTA    OA550341  29.049  -1.679   0.806
  450XTA    CO750342  28.976  -1.759   0.710
  450XTA    CT250343  28.925  -1.683   0.592
  450XTA   CL1150344  28.819  -1.561   0.625
  450XTA   CL1250345  28.675  -1.599   0.661
  450XTA    HL150346  28.529  -2.730   1.789
  450XTA    HL250347  28.686  -2.734   1.843
  450XTA    HL350348  28.565  -2.816   1.950
  450XTA    HL450349  28.551  -1.582   2.022
  450XTA    HL550350  28.496  -1.671   2.163
  450XTA    HL650351  28.604  -1.488   2.303
  450XTA    HL750352  28.469  -1.440   2.195
  450XTA    HL850353  28.624  -1.345   2.027
  450XTA    HL950354  28.757  -1.431   2.092
  450XTA   HL1050355  28.708  -1.258   2.313
  450XTA   HL1150356  28.821  -1.222   2.192
  450XTA   HL1250357  28.641  -1.110   2.065
  450XTA   HL1350358  28.667  -1.044   2.234
  450XTA   HL1450359  28.436  -1.053   2.186
  450XTA   HL1550360  28.447  -1.216   2.130
  450XTA   HL1650361  28.255  -1.160   2.338
  450XTA   HL1750362  28.291  -1.332   2.294
  450XTA   HL1850363  28.424  -1.139   2.554
  450XTA   HL1950364  28.347  -1.202   2.702
  450XTA   HL2050365  28.215  -1.009   2.492
  450XTA   HL2150366  28.271  -0.974   2.654
  450XTA   HL2250367  28.143  -1.085   2.632
  450XTA   HL2350368  29.176  -1.863   1.403
  450XTA   HL2450369  29.088  -1.997   1.305
  450XTA   HL2550370  29.363  -1.892   1.265
  450XTA   HL2650371  29.353  -2.052   1.257
  450XTA   HL2750372  29.266  -2.059   1.047
  450XTA   HL2850373  29.126  -1.954   1.099
  450XTA   HL2950374  29.319  -1.764   1.046
  450XTA   HL3050375  29.405  -1.896   0.974
  450XTA   HL3150376  29.272  -1.794   0.792
  450XTA   HL3250377  29.187  -1.943   0.833
  450XTA   HL3350378  29.019  -1.827   0.942
  450XTA   HL3450379  29.119  -1.706   0.991
  450XTA   HL3550380  28.895  -1.805   0.768
  450XTA   HL3650381  29.043  -1.839   0.686
  450XTA   HL3750382  28.811  -1.511   0.531
  450XTA   HL3850383  28.868  -1.494   0.703
  450XTA   HL3950384  28.667  -1.676   0.741
  450XTA   HL4050385  28.625  -1.645   0.579
  450XTA   HL4150386  28.611  -1.522   0.702
  450XTA    CO850387  28.409  -1.404   2.522
  450XTA    CO950388  28.162  -1.341   2.541
  450XTA    OA650389  28.439  -1.403   2.627
  450XTA   HL4250390  28.497  -1.386   2.459
  450XTA   HL4350391  28.364  -1.497   2.498
  450XTA   HL4450392  28.764  -1.806   0.520
  450XTA   HL4550393  28.932  -1.898   0.476
  450XTA   CO1050394  28.856  -1.775   0.486
  450XTA   CO1150395  29.049  -1.624   0.514
  450XTA    OA750396  29.128  -1.697   0.490
  450XTA   HL4650397  29.021  -1.578   0.424
  450XTA   HL4750398  29.093  -1.551   0.581
  450XTA   HL4850399  28.121  -1.450   2.461
  450XTA   HL4950400  28.085  -1.267   2.518
  451XTA     NT50401  25.811   5.132   2.582
  451XTA    CN150402  25.854   5.198   2.468
  451XTA     C150403  25.987   5.238   2.454
  451XTA     C250404  26.035   5.303   2.335
  451XTA     C350405  25.942   5.336   2.232
  451XTA     C450406  25.806   5.323   2.255
  451XTA     C550407  25.766   5.241   2.364
  451XTA    CN250408  25.858   5.182   2.701
  451XTA     C650409  25.838   5.318   2.722
  451XTA     C750410  25.876   5.379   2.841
  451XTA     C850411  25.929   5.304   2.950
  451XTA     C950412  25.955   5.163   2.933
  451XTA    C1050413  25.919   5.106   2.806
  451XTA    CN350414  25.779   5.000   2.562
  451XTA    C1150415  25.881   4.906   2.539
  451XTA    C1250416  25.844   4.772   2.524
  451XTA    C1350417  25.707   4.728   2.552
  451XTA    C1450418  25.608   4.823   2.580
  451XTA    C1550419  25.641   4.961   2.592
  451XTA     H150420  26.057   5.222   2.535
  451XTA     H250421  26.142   5.329   2.328
  451XTA     H350422  25.732   5.344   2.176
  451XTA     H450423  25.663   5.210   2.359
  451XTA     H550424  25.785   5.379   2.650
  451XTA     H650425  25.855   5.488   2.850
  451XTA     H750426  25.996   5.102   3.015
  451XTA     H850427  25.926   4.994   2.802
  451XTA     H950428  25.981   4.929   2.521
  451XTA    H1050429  25.922   4.708   2.506
  451XTA    H1150430  25.508   4.794   2.607
  451XTA    H1250431  25.569   5.032   2.608
  451XTA    OA150432  25.978   5.399   2.113
  451XTA    CO150433  26.102   5.361   2.062
  451XTA    OA250434  25.957   5.349   3.075
  451XTA    CO250435  25.947   5.490   3.092
  451XTA    CL150436  26.077   5.557   3.038
  451XTA    CL250437  26.091   5.701   3.037
  451XTA    CL350438  26.212   5.740   2.957
  451XTA    CL450439  26.279   5.874   2.994
  451XTA    CO350440  26.420   5.888   2.935
  451XTA    OA350441  26.463   6.021   2.942
  451XTA    CO450442  26.595   6.036   2.895
  451XTA    CT150443  26.666   6.172   2.932
  451XTA    CL550444  26.680   6.192   3.083
  451XTA    CL650445  26.747   6.073   3.161
  451XTA    OA450446  25.668   4.595   2.560
  451XTA    CO550447  25.768   4.509   2.604
  451XTA    CL750448  25.707   4.370   2.633
  451XTA    CL850449  25.593   4.355   2.738
  451XTA    CL950450  25.553   4.205   2.751
  451XTA   CL1050451  25.420   4.182   2.807
  451XTA    CO650452  25.425   4.155   2.957
  451XTA    OA550453  25.487   4.270   3.017
  451XTA    CO750454  25.519   4.245   3.155
  451XTA    CT250455  25.673   4.203   3.169
  451XTA   CL1150456  25.771   4.299   3.088
  451XTA   CL1250457  25.764   4.453   3.110
  451XTA    HL150458  26.104   5.267   2.008
  451XTA    HL250459  26.115   5.437   1.982
  451XTA    HL350460  26.190   5.353   2.126
  451XTA    HL450461  25.857   5.535   3.047
  451XTA    HL550462  25.923   5.520   3.197
  451XTA    HL650463  26.085   5.520   2.937
  451XTA    HL750464  26.166   5.522   3.086
  451XTA    HL850465  26.080   5.729   3.139
  451XTA    HL950466  26.003   5.741   2.982
  451XTA   HL1050467  26.288   5.656   2.983
  451XTA   HL1150468  26.203   5.736   2.847
  451XTA   HL1250469  26.281   5.876   3.102
  451XTA   HL1350470  26.212   5.962   2.967
  451XTA   HL1450471  26.488   5.830   2.997
  451XTA   HL1550472  26.434   5.851   2.834
  451XTA   HL1650473  26.657   5.947   2.907
  451XTA   HL1750474  26.588   6.040   2.782
  451XTA   HL1850475  26.583   6.219   3.124
  451XTA   HL1950476  26.746   6.277   3.098
  451XTA   HL2050477  26.690   5.985   3.166
  451XTA   HL2150478  26.770   6.104   3.264
  451XTA   HL2250479  26.841   6.045   3.120
  451XTA   HL2350480  25.802   4.551   2.699
  451XTA   HL2450481  25.851   4.508   2.529
  451XTA   HL2550482  25.666   4.323   2.539
  451XTA   HL2650483  25.795   4.316   2.657
  451XTA   HL2750484  25.608   4.395   2.832
  451XTA   HL2850485  25.502   4.404   2.707
  451XTA   HL2950486  25.563   4.145   2.665
  451XTA   HL3050487  25.616   4.152   2.823
  451XTA   HL3150488  25.334   4.243   2.778
  451XTA   HL3250489  25.384   4.082   2.781
  451XTA   HL3350490  25.331   4.125   3.001
  451XTA   HL3450491  25.491   4.068   2.980
  451XTA   HL3550492  25.456   4.167   3.198
  451XTA   HL3650493  25.490   4.331   3.216
  451XTA   HL3750494  25.748   4.290   2.983
  451XTA   HL3850495  25.880   4.264   3.101
  451XTA   HL3950496  25.660   4.477   3.085
  451XTA   HL4050497  25.836   4.498   3.050
  451XTA   HL4150498  25.789   4.465   3.215
  451XTA    CO850499  26.596   6.291   2.861
  451XTA    CO950500  26.807   6.163   2.880
  451XTA    OA650501  26.817   6.166   2.772
  451XTA   HL4250502  26.677   6.360   2.856
  451XTA   HL4350503  26.569   6.258   2.718
  451XTA   HL4450504  25.807   4.002   3.194
  451XTA   HL4550505  25.732   4.053   3.028
  451XTA   CO1050506  25.694   4.052   3.129
  451XTA   CO1150507  25.710   4.210   3.317
  451XTA    OA750508  25.817   4.190   3.338
  451XTA   HL4650509  25.678   4.312   3.348
  451XTA   HL4750510  25.647   4.136   3.364
  451XTA   HL4850511  26.854   6.071   2.904
  451XTA   HL4950512  26.868   6.239   2.930
  452XTA     NT50513  35.117  -2.973   0.417
  452XTA    CN150514  35.248  -2.963   0.454
  452XTA     C150515  35.349  -2.969   0.356
  452XTA     C250516  35.483  -2.954   0.387
  452XTA     C350517  35.521  -2.931   0.516
  452XTA     C450518  35.421  -2.914   0.620
  452XTA     C550519  35.284  -2.943   0.591
  452XTA    CN250520  35.038  -3.066   0.469
  452XTA     C650521  34.975  -3.055   0.594
  452XTA     C750522  34.896  -3.158   0.652
  452XTA     C850523  34.866  -3.273   0.586
  452XTA     C950524  34.927  -3.285   0.457
  452XTA    C1050525  35.005  -3.182   0.399
  452XTA    CN350526  35.058  -2.866   0.367
  452XTA    C1150527  35.070  -2.744   0.437
  452XTA    C1250528  35.020  -2.625   0.383
  452XTA    C1350529  34.943  -2.629   0.266
  452XTA    C1450530  34.919  -2.751   0.202
  452XTA    C1550531  34.975  -2.871   0.256
  452XTA     H150532  35.310  -2.978   0.249
  452XTA     H250533  35.561  -2.941   0.308
  452XTA     H350534  35.457  -2.894   0.722
  452XTA     H450535  35.203  -2.941   0.664
  452XTA     H550536  34.995  -2.963   0.647
  452XTA     H650537  34.856  -3.161   0.756
  452XTA     H750538  34.913  -3.370   0.395
  452XTA     H850539  35.044  -3.202   0.305
  452XTA     H950540  35.129  -2.746   0.530
  452XTA    H1050541  35.038  -2.529   0.435
  452XTA    H1150542  34.856  -2.752   0.109
  452XTA    H1250543  34.950  -2.959   0.202
  452XTA    OA150544  35.651  -2.904   0.541
  452XTA    CO150545  35.701  -2.978   0.653
  452XTA    OA250546  34.775  -3.357   0.636
  452XTA    CO250547  34.700  -3.425   0.538
  452XTA    CL150548  34.577  -3.496   0.593
  452XTA    CL250549  34.494  -3.560   0.482
  452XTA    CL350550  34.381  -3.654   0.532
  452XTA    CL450551  34.421  -3.756   0.642
  452XTA    CO350552  34.543  -3.834   0.603
  452XTA    OA350553  34.601  -3.898   0.722
  452XTA    CO450554  34.559  -4.028   0.752
  452XTA    CT150555  34.673  -4.115   0.797
  452XTA    CL550556  34.737  -4.051   0.917
  452XTA    CL650557  34.848  -4.135   0.975
  452XTA    OA450558  34.901  -2.509   0.218
  452XTA    CO550559  34.769  -2.507   0.176
  452XTA    CL750560  34.755  -2.404   0.064
  452XTA    CL850561  34.612  -2.366   0.030
  452XTA    CL950562  34.558  -2.284   0.146
  452XTA   CL1050563  34.441  -2.188   0.113
  452XTA    CO650564  34.412  -2.109   0.247
  452XTA    OA550565  34.522  -2.025   0.263
  452XTA    CO750566  34.511  -1.894   0.207
  452XTA    CT250567  34.643  -1.814   0.234
  452XTA   CL1150568  34.776  -1.890   0.201
  452XTA   CL1250569  34.774  -1.943   0.059
  452XTA    HL150570  35.650  -2.937   0.740
  452XTA    HL250571  35.673  -3.088   0.650
  452XTA    HL350572  35.814  -2.964   0.664
  452XTA    HL450573  34.669  -3.354   0.457
  452XTA    HL550574  34.768  -3.491   0.491
  452XTA    HL650575  34.514  -3.431   0.654
  452XTA    HL750576  34.616  -3.569   0.671
  452XTA    HL850577  34.563  -3.617   0.420
  452XTA    HL950578  34.447  -3.490   0.410
  452XTA   HL1050579  34.295  -3.589   0.554
  452XTA   HL1150580  34.342  -3.711   0.449
  452XTA   HL1250581  34.343  -3.817   0.668
  452XTA   HL1350582  34.432  -3.696   0.728
  452XTA   HL1450583  34.532  -3.905   0.516
  452XTA   HL1550584  34.614  -3.765   0.556
  452XTA   HL1650585  34.495  -4.018   0.833
  452XTA   HL1750586  34.503  -4.080   0.667
  452XTA   HL1850587  34.662  -4.031   0.999
  452XTA   HL1950588  34.762  -3.949   0.878
  452XTA   HL2050589  34.933  -4.159   0.906
  452XTA   HL2150590  34.819  -4.231   1.011
  452XTA   HL2250591  34.900  -4.081   1.054
  452XTA   HL2350592  34.707  -2.483   0.263
  452XTA   HL2450593  34.729  -2.605   0.146
  452XTA   HL2550594  34.810  -2.319   0.089
  452XTA   HL2650595  34.805  -2.437  -0.026
  452XTA   HL2750596  34.605  -2.303  -0.056
  452XTA   HL2850597  34.536  -2.448   0.027
  452XTA   HL2950598  34.530  -2.348   0.223
  452XTA   HL3050599  34.638  -2.213   0.185
  452XTA   HL3150600  34.454  -2.121   0.030
  452XTA   HL3250601  34.358  -2.242   0.080
  452XTA   HL3350602  34.326  -2.042   0.243
  452XTA   HL3450603  34.403  -2.175   0.332
  452XTA   HL3550604  34.420  -1.846   0.235
  452XTA   HL3650605  34.497  -1.909   0.099
  452XTA   HL3750606  34.778  -1.972   0.277
  452XTA   HL3850607  34.864  -1.820   0.232
  452XTA   HL3950608  34.860  -2.001   0.041
  452XTA   HL4050609  34.764  -1.870  -0.016
  452XTA   HL4150610  34.708  -2.026   0.037
  452XTA    CO850611  34.771  -4.141   0.680
  452XTA    CO950612  34.623  -4.256   0.823
  452XTA    OA650613  34.527  -4.263   0.931
  452XTA   HL4250614  34.825  -4.049   0.676
  452XTA   HL4350615  34.714  -4.146   0.587
  452XTA   HL4450616  34.595  -1.850   0.444
  452XTA   HL4550617  34.742  -1.754   0.417
  452XTA   CO1050618  34.641  -1.768   0.385
  452XTA   CO1150619  34.642  -1.679   0.159
  452XTA    OA750620  34.575  -1.648   0.409
  452XTA   HL4650621  34.642  -1.703   0.055
  452XTA   HL4750622  34.553  -1.626   0.176
  452XTA   HL4850623  34.697  -4.321   0.858
  452XTA   HL4950624  34.577  -4.303   0.725
  453XTA     NT50625  25.949   3.931   2.614
  453XTA    CN150626  25.941   3.796   2.632
  453XTA     C150627  25.877   3.739   2.747
  453XTA     C250628  25.882   3.597   2.768
  453XTA     C350629  25.952   3.517   2.677
  453XTA     C450630  26.013   3.577   2.560
  453XTA     C550631  25.999   3.712   2.543
  453XTA    CN250632  25.900   3.983   2.500
  453XTA     C650633  25.975   4.039   2.400
  453XTA     C750634  25.917   4.113   2.297
  453XTA     C850635  25.778   4.123   2.288
  453XTA     C950636  25.699   4.057   2.383
  453XTA    C1050637  25.762   3.987   2.490
  453XTA    CN350638  26.031   3.999   2.693
  453XTA    C1150639  25.983   4.111   2.762
  453XTA    C1250640  26.060   4.195   2.843
  453XTA    C1350641  26.194   4.164   2.860
  453XTA    C1450642  26.244   4.046   2.794
  453XTA    C1550643  26.166   3.975   2.698
  453XTA     H150644  25.832   3.807   2.819
  453XTA     H250645  25.845   3.562   2.856
  453XTA     H350646  26.072   3.520   2.486
  453XTA     H450647  26.051   3.741   2.453
  453XTA     H550648  26.083   4.043   2.411
  453XTA     H650649  25.977   4.165   2.228
  453XTA     H750650  25.591   4.063   2.391
  453XTA     H850651  25.700   3.957   2.574
  453XTA     H950652  25.881   4.145   2.759
  453XTA    H1050653  26.027   4.285   2.874
  453XTA    H1150654  26.346   4.019   2.809
  453XTA    H1250655  26.212   3.895   2.638
  453XTA    OA150656  25.954   3.385   2.711
  453XTA    CO150657  26.040   3.298   2.635
  453XTA    OA250658  25.717   4.184   2.184
  453XTA    CO250659  25.792   4.270   2.097
  453XTA    CL150660  25.697   4.369   2.044
  453XTA    CL250661  25.641   4.460   2.154
  453XTA    CL350662  25.625   4.606   2.118
  453XTA    CL450663  25.547   4.687   2.229
  453XTA    CO350664  25.570   4.837   2.207
  453XTA    OA350665  25.491   4.906   2.301
  453XTA    CO450666  25.352   4.913   2.261
  453XTA    CT150667  25.273   5.014   2.340
  453XTA    CL550668  25.348   5.155   2.337
  453XTA    CL650669  25.274   5.261   2.416
  453XTA    OA450670  26.265   4.236   2.957
  453XTA    CO550671  26.401   4.273   2.926
  453XTA    CL750672  26.409   4.367   2.805
  453XTA    CL850673  26.317   4.489   2.809
  453XTA    CL950674  26.349   4.586   2.693
  453XTA   CL1050675  26.494   4.637   2.673
  453XTA    CO650676  26.501   4.740   2.561
  453XTA    OA550677  26.639   4.758   2.531
  453XTA    CO750678  26.674   4.827   2.411
  453XTA    CT250679  26.818   4.782   2.370
  453XTA   CL1150680  26.815   4.634   2.388
  453XTA   CL1250681  26.939   4.557   2.374
  453XTA    HL150682  26.009   3.294   2.537
  453XTA    HL250683  26.142   3.339   2.636
  453XTA    HL350684  26.036   3.198   2.673
  453XTA    HL450685  25.872   4.331   2.147
  453XTA    HL550686  25.841   4.202   2.021
  453XTA    HL650687  25.615   4.303   2.005
  453XTA    HL750688  25.747   4.421   1.958
  453XTA    HL850689  25.713   4.458   2.235
  453XTA    HL950690  25.557   4.409   2.199
  453XTA   HL1050691  25.718   4.648   2.093
  453XTA   HL1150692  25.558   4.608   2.026
  453XTA   HL1250693  25.593   4.663   2.330
  453XTA   HL1350694  25.441   4.645   2.225
  453XTA   HL1450695  25.678   4.859   2.232
  453XTA   HL1550696  25.546   4.860   2.099
  453XTA   HL1650697  25.355   4.931   2.153
  453XTA   HL1750698  25.303   4.818   2.264
  453XTA   HL1850699  25.354   5.206   2.239
  453XTA   HL1950700  25.446   5.142   2.384
  453XTA   HL2050701  25.334   5.349   2.436
  453XTA   HL2150702  25.244   5.221   2.512
  453XTA   HL2250703  25.183   5.293   2.369
  453XTA   HL2350704  26.468   4.182   2.909
  453XTA   HL2450705  26.427   4.328   3.018
  453XTA   HL2550706  26.510   4.401   2.790
  453XTA   HL2650707  26.392   4.314   2.716
  453XTA   HL2750708  26.224   4.449   2.797
  453XTA   HL2850709  26.308   4.551   2.899
  453XTA   HL2950710  26.326   4.534   2.599
  453XTA   HL3050711  26.279   4.667   2.700
  453XTA   HL3150712  26.532   4.669   2.765
  453XTA   HL3250713  26.561   4.552   2.645
  453XTA   HL3350714  26.435   4.709   2.474
  453XTA   HL3450715  26.453   4.835   2.594
  453XTA   HL3550716  26.666   4.937   2.424
  453XTA   HL3650717  26.603   4.792   2.330
  453XTA   HL3750718  26.724   4.597   2.330
  453XTA   HL3850719  26.767   4.607   2.481
  453XTA   HL3950720  26.977   4.559   2.275
  453XTA   HL4050721  26.924   4.453   2.406
  453XTA   HL4150722  27.013   4.600   2.438
  453XTA    CO850723  25.240   4.964   2.484
  453XTA    CO950724  25.143   5.034   2.251
  453XTA    OA650725  25.213   4.855   2.490
  453XTA   HL4250726  25.164   5.031   2.521
  453XTA   HL4350727  25.330   4.988   2.551
  453XTA   HL4450728  27.023   4.825   2.434
  453XTA   HL4550729  26.907   4.961   2.454
  453XTA   CO1050730  26.918   4.850   2.459
  453XTA   CO1150731  26.846   4.822   2.224
  453XTA    OA750732  26.904   4.814   2.591
  453XTA   HL4650733  26.812   4.925   2.212
  453XTA   HL4750734  26.783   4.760   2.159
  453XTA   HL4850735  25.178   5.076   2.119
  453XTA   HL4950736  25.091   5.125   2.286
  454XTA     NT50737  26.149   3.817   2.102
  454XTA    CN150738  26.040   3.846   2.032
  454XTA     C150739  25.920   3.831   2.101
  454XTA     C250740  25.800   3.890   2.049
  454XTA     C350741  25.801   3.943   1.918
  454XTA     C450742  25.921   3.939   1.845
  454XTA     C550743  26.043   3.902   1.903
  454XTA    CN250744  26.226   3.914   2.170
  454XTA     C650745  26.273   4.032   2.108
  454XTA     C750746  26.365   4.115   2.164
  454XTA     C850747  26.398   4.103   2.299
  454XTA     C950748  26.357   3.986   2.364
  454XTA    C1050749  26.268   3.890   2.301
  454XTA    CN350750  26.185   3.687   2.096
  454XTA    C1150751  26.273   3.638   1.998
  454XTA    C1250752  26.297   3.505   1.982
  454XTA    C1350753  26.243   3.411   2.067
  454XTA    C1450754  26.163   3.455   2.178
  454XTA    C1550755  26.139   3.595   2.192
  454XTA     H150756  25.921   3.777   2.196
  454XTA     H250757  25.713   3.889   2.118
  454XTA     H350758  25.919   3.969   1.737
  454XTA     H450759  26.138   3.909   1.862
  454XTA     H550760  26.248   4.052   2.005
  454XTA     H650761  26.399   4.199   2.104
  454XTA     H750762  26.382   3.971   2.464
  454XTA     H850763  26.251   3.798   2.345
  454XTA     H950764  26.307   3.705   1.920
  454XTA    H1050765  26.351   3.479   1.892
  454XTA    H1150766  26.113   3.384   2.243
  454XTA    H1250767  26.086   3.636   2.277
  454XTA    OA150768  25.698   3.998   1.857
  454XTA    CO150769  25.578   3.983   1.925
  454XTA    OA250770  26.483   4.198   2.362
  454XTA    CO250771  26.412   4.300   2.426
  454XTA    CL150772  26.338   4.394   2.330
  454XTA    CL250773  26.189   4.374   2.308
  454XTA    CL350774  26.119   4.467   2.204
  454XTA    CL450775  26.155   4.424   2.067
  454XTA    CO350776  26.111   4.530   1.955
  454XTA    OA350777  26.194   4.531   1.836
  454XTA    CO450778  26.164   4.431   1.746
  454XTA    CT150779  26.292   4.358   1.701
  454XTA    CL550780  26.360   4.285   1.819
  454XTA    CL650781  26.451   4.161   1.785
  454XTA    OA450782  26.261   3.277   2.051
  454XTA    CO550783  26.226   3.232   1.915
  454XTA    CL750784  26.244   3.083   1.906
  454XTA    CL850785  26.194   3.007   1.778
  454XTA    CL950786  26.226   2.855   1.778
  454XTA   CL1050787  26.371   2.813   1.771
  454XTA    CO650788  26.395   2.672   1.817
  454XTA    OA550789  26.463   2.676   1.938
  454XTA    CO750790  26.392   2.711   2.048
  454XTA    CT250791  26.478   2.725   2.175
  454XTA   CL1150792  26.557   2.857   2.182
  454XTA   CL1250793  26.601   2.895   2.321
  454XTA    HL150794  25.585   3.999   2.033
  454XTA    HL250795  25.503   4.060   1.888
  454XTA    HL350796  25.536   3.883   1.907
  454XTA    HL450797  26.332   4.260   2.493
  454XTA    HL550798  26.497   4.352   2.477
  454XTA    HL650799  26.397   4.386   2.240
  454XTA    HL750800  26.340   4.497   2.360
  454XTA    HL850801  26.142   4.394   2.403
  454XTA    HL950802  26.174   4.275   2.272
  454XTA   HL1050803  26.019   4.465   2.228
  454XTA   HL1150804  26.154   4.568   2.218
  454XTA   HL1250805  26.119   4.319   2.053
  454XTA   HL1350806  26.256   4.412   2.051
  454XTA   HL1450807  26.004   4.499   1.937
  454XTA   HL1550808  26.115   4.627   1.993
  454XTA   HL1650809  26.084   4.368   1.783
  454XTA   HL1750810  26.110   4.487   1.668
  454XTA   HL1850811  26.281   4.249   1.890
  454XTA   HL1950812  26.415   4.359   1.880
  454XTA   HL2050813  26.483   4.102   1.871
  454XTA   HL2150814  26.548   4.188   1.734
  454XTA   HL2250815  26.397   4.095   1.719
  454XTA   HL2350816  26.300   3.290   1.847
  454XTA   HL2450817  26.124   3.273   1.896
  454XTA   HL2550818  26.351   3.053   1.917
  454XTA   HL2650819  26.188   3.033   1.984
  454XTA   HL2750820  26.089   3.010   1.762
  454XTA   HL2850821  26.243   3.052   1.694
  454XTA   HL2950822  26.179   2.802   1.860
  454XTA   HL3050823  26.169   2.809   1.694
  454XTA   HL3150824  26.409   2.838   1.678
  454XTA   HL3250825  26.430   2.874   1.837
  454XTA   HL3350826  26.298   2.613   1.833
  454XTA   HL3450827  26.463   2.616   1.753
  454XTA   HL3550828  26.316   2.640   2.079
  454XTA   HL3650829  26.341   2.800   2.035
  454XTA   HL3750830  26.489   2.937   2.140
  454XTA   HL3850831  26.647   2.849   2.128
  454XTA   HL3950832  26.524   2.937   2.383
  454XTA   HL4050833  26.670   2.977   2.322
  454XTA   HL4150834  26.653   2.819   2.383
  454XTA    CO850835  26.394   4.455   1.636
  454XTA    CO950836  26.241   4.255   1.593
  454XTA    OA650837  26.511   4.392   1.579
  454XTA   HL4250838  26.426   4.528   1.712
  454XTA   HL4350839  26.344   4.508   1.554
  454XTA   HL4450840  26.647   2.591   2.289
  454XTA   HL4550841  26.651   2.629   2.083
  454XTA   CO1050842  26.584   2.605   2.166
  454XTA   CO1150843  26.392   2.697   2.302
  454XTA    OA750844  26.326   2.787   2.327
  454XTA   HL4650845  26.345   2.606   2.294
  454XTA   HL4750846  26.454   2.672   2.385
  454XTA   HL4850847  26.320   4.224   1.527
  454XTA   HL4950848  26.218   4.152   1.626
  455XTA     NT50849  31.656  -1.265   3.570
  455XTA    CN150850  31.591  -1.256   3.447
  455XTA     C150851  31.454  -1.229   3.437
  455XTA     C250852  31.398  -1.216   3.305
  455XTA     C350853  31.469  -1.231   3.186
  455XTA     C450854  31.602  -1.279   3.202
  455XTA     C550855  31.659  -1.293   3.327
  455XTA    CN250856  31.652  -1.381   3.636
  455XTA     C650857  31.528  -1.430   3.686
  455XTA     C750858  31.529  -1.555   3.760
  455XTA     C850859  31.646  -1.622   3.787
  455XTA     C950860  31.766  -1.565   3.736
  455XTA    C1050861  31.779  -1.446   3.660
  455XTA    CN350862  31.708  -1.148   3.616
  455XTA    C1150863  31.661  -1.100   3.742
  455XTA    C1250864  31.692  -0.982   3.801
  455XTA    C1350865  31.776  -0.895   3.727
  455XTA    C1450866  31.823  -0.936   3.603
  455XTA    C1550867  31.797  -1.061   3.547
  455XTA     H150868  31.397  -1.201   3.520
  455XTA     H250869  31.293  -1.193   3.294
  455XTA     H350870  31.652  -1.302   3.109
  455XTA     H450871  31.760  -1.350   3.333
  455XTA     H550872  31.445  -1.370   3.666
  455XTA     H650873  31.439  -1.587   3.805
  455XTA     H750874  31.854  -1.627   3.753
  455XTA     H850875  31.867  -1.393   3.624
  455XTA     H950876  31.594  -1.165   3.796
  455XTA    H1050877  31.639  -0.956   3.892
  455XTA    H1150878  31.883  -0.859   3.554
  455XTA    H1250879  31.829  -1.082   3.445
  455XTA    OA150880  31.402  -1.215   3.068
  455XTA    CO150881  31.478  -1.237   2.949
  455XTA    OA250882  31.634  -1.726   3.870
  455XTA    CO250883  31.748  -1.746   3.954
  455XTA    CL150884  31.695  -1.823   4.081
  455XTA    CL250885  31.586  -1.748   4.165
  455XTA    CL350886  31.450  -1.721   4.099
  455XTA    CL450887  31.353  -1.842   4.063
  455XTA    CO350888  31.243  -1.816   3.958
  455XTA    OA350889  31.306  -1.840   3.832
  455XTA    CO450890  31.216  -1.809   3.731
  455XTA    CT150891  31.250  -1.876   3.598
  455XTA    CL550892  31.280  -2.026   3.607
  455XTA    CL650893  31.168  -2.110   3.676
  455XTA    OA450894  31.819  -0.770   3.776
  455XTA    CO550895  31.780  -0.739   3.910
  455XTA    CL750896  31.857  -0.606   3.932
  455XTA    CL850897  31.992  -0.632   4.007
  455XTA    CL950898  31.984  -0.633   4.160
  455XTA   CL1050899  32.133  -0.668   4.210
  455XTA    CO650900  32.139  -0.682   4.360
  455XTA    OA550901  32.050  -0.595   4.419
  455XTA    CO750902  32.111  -0.480   4.473
  455XTA    CT250903  32.013  -0.425   4.579
  455XTA   CL1150904  31.926  -0.515   4.662
  455XTA   CL1250905  32.009  -0.613   4.752
  455XTA    HL150906  31.552  -1.158   2.941
  455XTA    HL250907  31.520  -1.332   2.937
  455XTA    HL350908  31.421  -1.228   2.858
  455XTA    HL450909  31.797  -1.828   3.897
  455XTA    HL550910  31.802  -1.658   3.969
  455XTA    HL650911  31.780  -1.839   4.152
  455XTA    HL750912  31.648  -1.912   4.048
  455XTA    HL850913  31.619  -1.647   4.194
  455XTA    HL950914  31.576  -1.804   4.257
  455XTA   HL1050915  31.396  -1.640   4.148
  455XTA   HL1150916  31.471  -1.667   4.009
  455XTA   HL1250917  31.309  -1.856   4.165
  455XTA   HL1350918  31.402  -1.936   4.038
  455XTA   HL1450919  31.152  -1.879   3.973
  455XTA   HL1550920  31.207  -1.715   3.973
  455XTA   HL1650921  31.115  -1.847   3.759
  455XTA   HL1750922  31.208  -1.700   3.729
  455XTA   HL1850923  31.370  -2.049   3.665
  455XTA   HL1950924  31.302  -2.074   3.507
  455XTA   HL2050925  31.069  -2.111   3.627
  455XTA   HL2150926  31.155  -2.096   3.778
  455XTA   HL2250927  31.204  -2.212   3.670
  455XTA   HL2350928  31.806  -0.806   3.992
  455XTA   HL2450929  31.671  -0.718   3.904
  455XTA   HL2550930  31.882  -0.524   3.860
  455XTA   HL2650931  31.803  -0.550   4.007
  455XTA   HL2750932  32.040  -0.718   3.970
  455XTA   HL2850933  32.071  -0.560   3.985
  455XTA   HL2950934  31.964  -0.540   4.208
  455XTA   HL3050935  31.915  -0.715   4.183
  455XTA   HL3150936  32.172  -0.749   4.153
  455XTA   HL3250937  32.198  -0.590   4.177
  455XTA   HL3350938  32.100  -0.779   4.390
  455XTA   HL3450939  32.240  -0.668   4.402
  455XTA   HL3550940  32.120  -0.413   4.384
  455XTA   HL3650941  32.211  -0.506   4.508
  455XTA   HL3750942  31.845  -0.570   4.616
  455XTA   HL3850943  31.879  -0.445   4.740
  455XTA   HL3950944  32.075  -0.687   4.700
  455XTA   HL4050945  31.934  -0.665   4.808
  455XTA   HL4150946  32.075  -0.551   4.808
  455XTA    CO850947  31.371  -1.814   3.517
  455XTA    CO950948  31.132  -1.844   3.502
  455XTA    OA650949  31.378  -1.854   3.420
  455XTA   HL4250950  31.458  -1.839   3.575
  455XTA   HL4350951  31.366  -1.704   3.514
  455XTA   HL4450952  31.841  -0.288   4.559
  455XTA   HL4550953  31.821  -0.418   4.430
  455XTA   CO1050954  31.912  -0.334   4.495
  455XTA   CO1150955  32.105  -0.321   4.659
  455XTA    OA750956  32.185  -0.379   4.713
  455XTA   HL4650957  32.150  -0.242   4.597
  455XTA   HL4750958  32.034  -0.263   4.723
  455XTA   HL4850959  31.141  -1.716   3.458
  455XTA   HL4950960  31.137  -1.906   3.418
  456XTA     NT50961  28.949   4.776   4.048
  456XTA    CN150962  29.042   4.708   3.980
  456XTA     C150963  29.003   4.577   3.929
  456XTA     C250964  29.100   4.509   3.852
  456XTA     C350965  29.237   4.550   3.842
  456XTA     C450966  29.261   4.681   3.893
  456XTA     C550967  29.173   4.760   3.963
  456XTA    CN250968  28.865   4.847   3.967
  456XTA     C650969  28.750   4.788   3.911
  456XTA     C750970  28.656   4.861   3.836
  456XTA     C850971  28.681   5.001   3.818
  456XTA     C950972  28.793   5.060   3.876
  456XTA    C1050973  28.882   4.987   3.957
  456XTA    CN350974  28.915   4.739   4.173
  456XTA    C1150975  28.833   4.630   4.200
  456XTA    C1250976  28.803   4.607   4.339
  456XTA    C1350977  28.848   4.685   4.444
  456XTA    C1450978  28.912   4.806   4.409
  456XTA    C1550979  28.952   4.830   4.278
  456XTA     H150980  28.902   4.540   3.935
  456XTA     H250981  29.077   4.409   3.820
  456XTA     H350982  29.360   4.719   3.876
  456XTA     H450983  29.203   4.865   4.000
  456XTA     H550984  28.740   4.682   3.929
  456XTA     H650985  28.562   4.818   3.797
  456XTA     H750986  28.810   5.169   3.874
  456XTA     H850987  28.961   5.030   4.012
  456XTA     H950988  28.793   4.563   4.128
  456XTA    H1050989  28.753   4.513   4.349
  456XTA    H1150990  28.933   4.880   4.486
  456XTA    H1250991  29.000   4.920   4.249
  456XTA    OA150992  29.345   4.475   3.801
  456XTA    CO150993  29.314   4.350   3.741
  456XTA    OA250994  28.589   5.072   3.741
  456XTA    CO250995  28.626   5.199   3.689
  456XTA    CL150996  28.546   5.230   3.565
  456XTA    CL250997  28.538   5.123   3.458
  456XTA    CL350998  28.426   5.136   3.362
  456XTA    CL450999  28.386   5.001   3.298
  456XTA    CO351000  28.294   5.030   3.175
  456XTA    OA351001  28.217   4.923   3.111
  456XTA    CO451002  28.092   4.895   3.175
  456XTA    CT151003  28.037   4.759   3.125
  456XTA    CL551004  28.140   4.650   3.097
  456XTA    CL651005  28.226   4.621   3.210
  456XTA    OA451006  28.803   4.657   4.569
  456XTA    CO551007  28.723   4.760   4.624
  456XTA    CL751008  28.608   4.685   4.669
  456XTA    CL851009  28.497   4.779   4.720
  456XTA    CL951010  28.407   4.850   4.615
  456XTA   CL1051011  28.458   4.988   4.568
  456XTA    CO651012  28.369   5.042   4.459
  456XTA    OA551013  28.430   5.164   4.428
  456XTA    CO751014  28.385   5.214   4.299
  456XTA    CT251015  28.495   5.220   4.184
  456XTA   CL1151016  28.561   5.090   4.146
  456XTA   CL1251017  28.680   5.043   4.233
  456XTA    HL151018  29.273   4.365   3.640
  456XTA    HL251019  29.414   4.300   3.726
  456XTA    HL351020  29.251   4.291   3.807
  456XTA    HL451021  28.616   5.273   3.764
  456XTA    HL551022  28.725   5.200   3.664
  456XTA    HL651023  28.594   5.315   3.516
  456XTA    HL751024  28.445   5.258   3.588
  456XTA    HL851025  28.507   5.036   3.517
  456XTA    HL951026  28.634   5.104   3.406
  456XTA   HL1051027  28.331   5.153   3.420
  456XTA   HL1151028  28.439   5.220   3.299
  456XTA   HL1251029  28.328   4.937   3.371
  456XTA   HL1351030  28.462   4.939   3.255
  456XTA   HL1451031  28.245   5.128   3.193
  456XTA   HL1551032  28.351   5.070   3.089
  456XTA   HL1651033  28.120   4.895   3.282
  456XTA   HL1751034  28.022   4.974   3.154
  456XTA   HL1851035  28.205   4.697   3.024
  456XTA   HL1951036  28.101   4.554   3.053
  456XTA   HL2051037  28.271   4.710   3.262
  456XTA   HL2151038  28.314   4.560   3.173
  456XTA   HL2251039  28.184   4.571   3.290
  456XTA   HL2351040  28.679   4.823   4.543
  456XTA   HL2451041  28.764   4.820   4.698
  456XTA   HL2551042  28.582   4.610   4.595
  456XTA   HL2651043  28.635   4.619   4.752
  456XTA   HL2751044  28.429   4.709   4.780
  456XTA   HL2851045  28.529   4.861   4.793
  456XTA   HL2951046  28.398   4.784   4.529
  456XTA   HL3051047  28.311   4.854   4.665
  456XTA   HL3151048  28.458   5.052   4.652
  456XTA   HL3251049  28.559   4.994   4.539
  456XTA   HL3351050  28.373   4.974   4.371
  456XTA   HL3451051  28.265   5.052   4.487
  456XTA   HL3551052  28.351   5.316   4.330
  456XTA   HL3651053  28.294   5.170   4.254
  456XTA   HL3751054  28.593   5.096   4.042
  456XTA   HL3851055  28.491   5.009   4.149
  456XTA   HL3951056  28.729   4.952   4.194
  456XTA   HL4051057  28.648   5.021   4.330
  456XTA   HL4151058  28.751   5.120   4.233
  456XTA    CO851059  27.970   4.786   2.994
  456XTA    CO951060  27.932   4.705   3.224
  456XTA    OA651061  27.963   4.667   2.918
  456XTA   HL4251062  28.044   4.851   2.938
  456XTA   HL4351063  27.884   4.847   2.997
  456XTA   HL4451064  28.548   5.417   4.240
  456XTA   HL4551065  28.654   5.295   4.314
  456XTA   CO1051066  28.596   5.324   4.219
  456XTA   CO1151067  28.420   5.276   4.061
  456XTA    OA751068  28.695   5.335   4.128
  456XTA   HL4651069  28.377   5.186   4.011
  456XTA   HL4751070  28.494   5.311   3.987
  456XTA   HL4851071  27.886   4.619   3.181
  456XTA   HL4951072  27.972   4.670   3.318
  457XTA     NT51073  31.879   0.820   0.437
  457XTA    CN151074  31.988   0.852   0.369
  457XTA     C151075  32.096   0.931   0.422
  457XTA     C251076  32.210   0.957   0.349
  457XTA     C351077  32.226   0.906   0.214
  457XTA     C451078  32.125   0.829   0.160
  457XTA     C551079  32.008   0.800   0.238
  457XTA    CN251080  31.758   0.857   0.387
  457XTA     C651081  31.665   0.763   0.339
  457XTA     C751082  31.534   0.802   0.313
  457XTA     C851083  31.501   0.936   0.311
  457XTA     C951084  31.593   1.033   0.349
  457XTA    C1051085  31.717   0.989   0.400
  457XTA    CN351086  31.887   0.787   0.568
  457XTA    C1151087  31.895   0.886   0.671
  457XTA    C1251088  31.904   0.843   0.805
  457XTA    C1351089  31.905   0.699   0.834
  457XTA    C1451090  31.907   0.606   0.729
  457XTA    C1551091  31.892   0.650   0.598
  457XTA     H151092  32.095   0.953   0.530
  457XTA     H251093  32.290   1.010   0.393
  457XTA     H351094  32.118   0.798   0.054
  457XTA     H451095  31.935   0.731   0.193
  457XTA     H551096  31.688   0.654   0.327
  457XTA     H651097  31.467   0.725   0.295
  457XTA     H751098  31.567   1.136   0.362
  457XTA     H851099  31.788   1.059   0.444
  457XTA     H951100  31.905   0.987   0.636
  457XTA    H1051101  31.897   0.915   0.883
  457XTA    H1151102  31.898   0.508   0.751
  457XTA    H1251103  31.888   0.587   0.512
  457XTA    OA151104  32.337   0.936   0.134
  457XTA    CO151105  32.433   1.030   0.182
  457XTA    OA251106  31.374   0.982   0.292
  457XTA    CO251107  31.307   0.915   0.190
  457XTA    CL151108  31.197   0.820   0.240
  457XTA    CL251109  31.140   0.724   0.132
  457XTA    CL351110  31.021   0.636   0.173
  457XTA    CL451111  30.984   0.535   0.062
  457XTA    CO351112  31.094   0.433   0.033
  457XTA    OA351113  31.035   0.338  -0.052
  457XTA    CO451114  31.124   0.239  -0.097
  457XTA    CT151115  31.066   0.136  -0.190
  457XTA    CL551116  30.941   0.049  -0.137
  457XTA    CL651117  30.819   0.136  -0.110
  457XTA    OA451118  31.907   0.641   0.955
  457XTA    CO551119  31.946   0.714   1.073
  457XTA    CL751120  32.032   0.629   1.169
  457XTA    CL851121  32.161   0.581   1.096
  457XTA    CL951122  32.256   0.508   1.188
  457XTA   CL1051123  32.376   0.461   1.119
  457XTA    CO651124  32.354   0.395   0.979
  457XTA    OA551125  32.472   0.328   0.954
  457XTA    CO751126  32.458   0.272   0.829
  457XTA    CT251127  32.580   0.185   0.798
  457XTA   CL1151128  32.704   0.277   0.803
  457XTA   CL1251129  32.688   0.416   0.737
  457XTA    HL151130  32.505   1.037   0.103
  457XTA    HL251131  32.395   1.123   0.203
  457XTA    HL351132  32.472   0.990   0.277
  457XTA    HL451133  31.254   0.989   0.136
  457XTA    HL551134  31.376   0.879   0.114
  457XTA    HL651135  31.117   0.885   0.276
  457XTA    HL751136  31.251   0.764   0.319
  457XTA    HL851137  31.220   0.662   0.094
  457XTA    HL951138  31.108   0.800   0.063
  457XTA   HL1051139  31.057   0.585   0.267
  457XTA   HL1151140  30.933   0.692   0.202
  457XTA   HL1251141  30.954   0.582  -0.030
  457XTA   HL1351142  30.891   0.483   0.095
  457XTA   HL1451143  31.177   0.484  -0.020
  457XTA   HL1551144  31.140   0.391   0.130
  457XTA   HL1651145  31.212   0.294  -0.138
  457XTA   HL1751146  31.149   0.178  -0.001
  457XTA   HL1851147  30.967  -0.008  -0.047
  457XTA   HL1951148  30.914  -0.036  -0.199
  457XTA   HL2051149  30.778   0.180  -0.201
  457XTA   HL2151150  30.840   0.218  -0.041
  457XTA   HL2251151  30.735   0.086  -0.061
  457XTA   HL2351152  31.860   0.763   1.128
  457XTA   HL2451153  32.006   0.801   1.049
  457XTA   HL2551154  32.063   0.690   1.257
  457XTA   HL2651155  31.985   0.533   1.200
  457XTA   HL2751156  32.129   0.516   1.016
  457XTA   HL2851157  32.207   0.667   1.058
  457XTA   HL2951158  32.283   0.576   1.268
  457XTA   HL3051159  32.207   0.426   1.242
  457XTA   HL3151160  32.450   0.541   1.115
  457XTA   HL3251161  32.430   0.395   1.180
  457XTA   HL3351162  32.271   0.323   0.981
  457XTA   HL3451163  32.336   0.475   0.908
  457XTA   HL3551164  32.438   0.349   0.753
  457XTA   HL3651165  32.360   0.210   0.835
  457XTA   HL3751166  32.795   0.225   0.778
  457XTA   HL3851167  32.723   0.314   0.903
  457XTA   HL3951168  32.634   0.406   0.646
  457XTA   HL4051169  32.780   0.461   0.717
  457XTA   HL4151170  32.636   0.487   0.792
  457XTA    CO851171  31.171   0.035  -0.236
  457XTA    CO951172  31.013   0.211  -0.316
  457XTA    OA651173  31.102   0.266  -0.361
  457XTA   HL4251174  31.150  -0.056  -0.175
  457XTA   HL4351175  31.162  -0.014  -0.370
  457XTA   HL4451176  32.464   0.054   0.673
  457XTA   HL4551177  32.642   0.059   0.644
  457XTA   CO1051178  32.550   0.115   0.660
  457XTA   CO1151179  32.586   0.075   0.906
  457XTA    OA751180  32.679  -0.027   0.876
  457XTA   HL4651181  32.614   0.120   1.008
  457XTA   HL4751182  32.483   0.027   0.906
  457XTA   HL4851183  30.932   0.271  -0.290
  457XTA   HL4951184  30.986   0.142  -0.392
  458XTA     NT51185  32.302   0.207   1.594
  458XTA    CN151186  32.265   0.336   1.619
  458XTA     C151187  32.318   0.455   1.552
  458XTA     C251188  32.290   0.584   1.600
  458XTA     C351189  32.200   0.608   1.702
  458XTA     C451190  32.145   0.499   1.766
  458XTA     C551191  32.178   0.367   1.728
  458XTA    CN251192  32.407   0.160   1.664
  458XTA     C651193  32.384   0.065   1.770
  458XTA     C751194  32.489   0.041   1.865
  458XTA     C851195  32.611   0.097   1.846
  458XTA     C951196  32.636   0.184   1.738
  458XTA    C1051197  32.533   0.217   1.647
  458XTA    CN351198  32.289   0.159   1.472
  458XTA    C1151199  32.175   0.080   1.443
  458XTA    C1251200  32.138   0.050   1.308
  458XTA    C1351201  32.228   0.080   1.202
  458XTA    C1451202  32.343   0.154   1.229
  458XTA    C1551203  32.374   0.194   1.362
  458XTA     H151204  32.399   0.454   1.480
  458XTA     H251205  32.352   0.660   1.557
  458XTA     H351206  32.066   0.506   1.847
  458XTA     H451207  32.155   0.279   1.784
  458XTA     H551208  32.284   0.018   1.790
  458XTA     H651209  32.470  -0.032   1.940
  458XTA     H751210  32.734   0.236   1.738
  458XTA     H851211  32.555   0.289   1.575
  458XTA     H951212  32.097   0.077   1.522
  458XTA    H1051213  32.033   0.016   1.288
  458XTA    H1151214  32.408   0.183   1.146
  458XTA    H1251215  32.447   0.272   1.366
  458XTA    OA151216  32.178   0.737   1.732
  458XTA    CO151217  32.072   0.771   1.813
  458XTA    OA251218  32.726   0.063   1.916
  458XTA    CO251219  32.713   0.087   2.052
  458XTA    CL151220  32.841   0.052   2.124
  458XTA    CL251221  32.886  -0.093   2.098
  458XTA    CL351222  32.783  -0.216   2.104
  458XTA    CL451223  32.852  -0.345   2.069
  458XTA    CO351224  32.909  -0.410   2.195
  458XTA    OA351225  32.900  -0.555   2.177
  458XTA    CO451226  32.924  -0.634   2.291
  458XTA    CT151227  32.901  -0.787   2.263
  458XTA    CL551228  33.021  -0.832   2.179
  458XTA    CL651229  33.011  -0.967   2.099
  458XTA    OA451230  32.205   0.063   1.065
  458XTA    CO551231  32.078   0.061   1.017
  458XTA    CL751232  32.023   0.205   1.013
  458XTA    CL851233  31.876   0.199   0.990
  458XTA    CL951234  31.822   0.342   1.016
  458XTA   CL1051235  31.668   0.349   1.021
  458XTA    CO651236  31.609   0.484   1.043
  458XTA    OA551237  31.470   0.470   1.058
  458XTA    CO751238  31.422   0.592   1.108
  458XTA    CT251239  31.266   0.575   1.115
  458XTA   CL1151240  31.201   0.703   1.167
  458XTA   CL1251241  31.267   0.766   1.291
  458XTA    HL151242  31.975   0.764   1.765
  458XTA    HL251243  32.079   0.714   1.905
  458XTA    HL351244  32.073   0.869   1.853
  458XTA    HL451245  32.709   0.196   2.073
  458XTA    HL551246  32.629   0.045   2.105
  458XTA    HL651247  32.825   0.067   2.225
  458XTA    HL751248  32.921   0.128   2.102
  458XTA    HL851249  32.966  -0.119   2.166
  458XTA    HL951250  32.930  -0.098   2.004
  458XTA   HL1051251  32.734  -0.225   2.196
  458XTA   HL1151252  32.704  -0.198   2.038
  458XTA   HL1251253  32.924  -0.334   1.986
  458XTA   HL1351254  32.778  -0.413   2.033
  458XTA   HL1451255  33.012  -0.383   2.214
  458XTA   HL1551256  32.856  -0.391   2.285
  458XTA   HL1651257  33.022  -0.607   2.337
  458XTA   HL1751258  32.853  -0.610   2.372
  458XTA   HL1851259  33.118  -0.815   2.232
  458XTA   HL1951260  33.035  -0.761   2.092
  458XTA   HL2051261  32.906  -0.994   2.075
  458XTA   HL2151262  33.049  -1.045   2.166
  458XTA   HL2251263  33.073  -0.977   2.005
  458XTA   HL2351264  32.011   0.002   1.079
  458XTA   HL2451265  32.085   0.015   0.917
  458XTA   HL2551266  32.057   0.265   1.102
  458XTA   HL2651267  32.070   0.254   0.924
  458XTA   HL2751268  31.844   0.160   0.888
  458XTA   HL2851269  31.836   0.130   1.061
  458XTA   HL2951270  31.864   0.381   1.101
  458XTA   HL3051271  31.850   0.402   0.934
  458XTA   HL3151272  31.638   0.311   0.930
  458XTA   HL3251273  31.638   0.281   1.101
  458XTA   HL3351274  31.658   0.525   1.131
  458XTA   HL3451275  31.636   0.546   0.957
  458XTA   HL3551276  31.452   0.674   1.047
  458XTA   HL3651277  31.463   0.618   1.202
  458XTA   HL3751278  31.106   0.671   1.186
  458XTA   HL3851279  31.182   0.782   1.095
  458XTA   HL3951280  31.208   0.843   1.337
  458XTA   HL4051281  31.367   0.805   1.275
  458XTA   HL4151282  31.288   0.690   1.364
  458XTA    CO851283  32.776  -0.804   2.171
  458XTA    CO951284  32.891  -0.877   2.393
  458XTA    OA651285  32.770  -0.839   2.470
  458XTA   HL4251286  32.807  -0.794   2.070
  458XTA   HL4351287  32.747  -0.910   2.173
  458XTA   HL4451288  31.288   0.374   1.180
  458XTA   HL4551289  31.232   0.490   1.333
  458XTA   CO1051290  31.223   0.461   1.196
  458XTA   CO1151291  31.216   0.547   0.974
  458XTA    OA751292  31.111   0.565   0.960
  458XTA   HL4651293  31.264   0.608   0.902
  458XTA   HL4751294  31.252   0.448   0.947
  458XTA   HL4851295  32.978  -0.882   2.458
  458XTA   HL4951296  32.880  -0.980   2.354
  459XTA     NT51297  32.705  -0.988   0.317
  459XTA    CN151298  32.689  -0.902   0.213
  459XTA     C151299  32.625  -0.776   0.232
  459XTA     C251300  32.605  -0.688   0.129
  459XTA     C351301  32.628  -0.730  -0.009
  459XTA     C451302  32.699  -0.852  -0.025
  459XTA     C551303  32.722  -0.938   0.082
  459XTA    CN251304  32.602  -1.047   0.385
  459XTA     C651305  32.591  -1.034   0.525
  459XTA     C751306  32.501  -1.117   0.597
  459XTA     C851307  32.415  -1.209   0.532
  459XTA     C951308  32.420  -1.207   0.391
  459XTA    C1051309  32.518  -1.131   0.316
  459XTA    CN351310  32.824  -0.996   0.380
  459XTA    C1151311  32.886  -0.885   0.433
  459XTA    C1251312  33.014  -0.888   0.495
  459XTA    C1351313  33.083  -1.015   0.497
  459XTA    C1451314  33.014  -1.129   0.454
  459XTA    C1551315  32.888  -1.118   0.396
  459XTA     H151316  32.591  -0.757   0.331
  459XTA     H251317  32.569  -0.582   0.142
  459XTA     H351318  32.718  -0.895  -0.122
  459XTA     H451319  32.773  -1.032   0.063
  459XTA     H551320  32.651  -0.968   0.575
  459XTA     H651321  32.509  -1.110   0.707
  459XTA     H751322  32.366  -1.282   0.332
  459XTA     H851323  32.533  -1.146   0.210
  459XTA     H951324  32.833  -0.790   0.429
  459XTA    H1051325  33.061  -0.797   0.529
  459XTA    H1151326  33.069  -1.224   0.464
  459XTA    H1251327  32.829  -1.206   0.364
  459XTA    OA151328  32.601  -0.637  -0.114
  459XTA    CO151329  32.636  -0.680  -0.250
  459XTA    OA251330  32.340  -1.303   0.602
  459XTA    CO251331  32.318  -1.283   0.736
  459XTA    CL151332  32.411  -1.363   0.828
  459XTA    CL251333  32.377  -1.362   0.978
  459XTA    CL351334  32.397  -1.236   1.062
  459XTA    CL451335  32.284  -1.131   1.056
  459XTA    CO351336  32.204  -1.132   1.184
  459XTA    OA351337  32.078  -1.070   1.157
  459XTA    CO451338  32.014  -1.049   1.285
  459XTA    CT151339  31.865  -1.013   1.256
  459XTA    CL551340  31.852  -0.889   1.180
  459XTA    CL651341  31.885  -0.764   1.257
  459XTA    OA451342  33.199  -1.049   0.556
  459XTA    CO551343  33.262  -0.946   0.632
  459XTA    CL751344  33.404  -0.997   0.660
  459XTA    CL851345  33.496  -0.903   0.736
  459XTA    CL951346  33.635  -0.883   0.671
  459XTA   CL1051347  33.618  -0.796   0.547
  459XTA    CO651348  33.564  -0.654   0.570
  459XTA    OA551349  33.575  -0.576   0.449
  459XTA    CO751350  33.455  -0.514   0.407
  459XTA    CT251351  33.455  -0.461   0.267
  459XTA   CL1151352  33.564  -0.357   0.234
  459XTA   CL1251353  33.715  -0.407   0.233
  459XTA    HL151354  32.582  -0.776  -0.260
  459XTA    HL251355  32.604  -0.610  -0.329
  459XTA    HL351356  32.745  -0.696  -0.259
  459XTA    HL451357  32.306  -1.187   0.774
  459XTA    HL551358  32.222  -1.313   0.764
  459XTA    HL651359  32.511  -1.336   0.817
  459XTA    HL751360  32.406  -1.467   0.800
  459XTA    HL851361  32.451  -1.433   1.012
  459XTA    HL951362  32.278  -1.402   0.998
  459XTA   HL1051363  32.412  -1.273   1.164
  459XTA   HL1151364  32.496  -1.186   1.041
  459XTA   HL1251365  32.221  -1.158   0.967
  459XTA   HL1351366  32.317  -1.026   1.048
  459XTA   HL1451367  32.190  -1.227   1.226
  459XTA   HL1551368  32.260  -1.077   1.260
  459XTA   HL1651369  32.023  -1.150   1.327
  459XTA   HL1751370  32.061  -0.970   1.346
  459XTA   HL1851371  31.754  -0.883   1.132
  459XTA   HL1951372  31.925  -0.892   1.095
  459XTA   HL2051373  31.828  -0.756   1.352
  459XTA   HL2151374  31.865  -0.685   1.186
  459XTA   HL2251375  31.993  -0.749   1.282
  459XTA   HL2351376  33.212  -0.932   0.729
  459XTA   HL2451377  33.252  -0.846   0.581
  459XTA   HL2551378  33.393  -1.078   0.741
  459XTA   HL2651379  33.446  -1.035   0.569
  459XTA   HL2751380  33.439  -0.819   0.755
  459XTA   HL2851381  33.502  -0.948   0.839
  459XTA   HL2951382  33.710  -0.831   0.737
  459XTA   HL3051383  33.675  -0.980   0.639
  459XTA   HL3151384  33.717  -0.775   0.510
  459XTA   HL3251385  33.557  -0.851   0.468
  459XTA   HL3351386  33.461  -0.665   0.587
  459XTA   HL3451387  33.625  -0.606   0.652
  459XTA   HL3551388  33.447  -0.428   0.481
  459XTA   HL3651389  33.366  -0.581   0.417
  459XTA   HL3751390  33.570  -0.277   0.305
  459XTA   HL3851391  33.540  -0.297   0.146
  459XTA   HL3951392  33.772  -0.313   0.252
  459XTA   HL4051393  33.750  -0.447   0.134
  459XTA   HL4151394  33.749  -0.469   0.325
  459XTA    CO851395  31.792  -1.009   1.389
  459XTA    CO951396  31.813  -1.133   1.175
  459XTA    OA651397  31.712  -1.107   1.130
  459XTA   HL4251398  31.851  -0.945   1.448
  459XTA   HL4351399  31.662  -0.944   1.371
  459XTA   HL4451400  33.316  -0.349   0.144
  459XTA   HL4551401  33.239  -0.470   0.239
  459XTA   CO1051402  33.316  -0.396   0.243
  459XTA   CO1151403  33.473  -0.584   0.175
  459XTA    OA751404  33.294  -0.319   0.324
  459XTA   HL4651405  33.591  -0.657   0.219
  459XTA   HL4751406  33.500  -0.544   0.078
  459XTA   HL4851407  31.796  -1.218   1.234
  459XTA   HL4951408  31.885  -1.156   1.096
  460XTA     NT51409  33.461  -2.181  -0.354
  460XTA    CN151410  33.582  -2.121  -0.371
  460XTA     C151411  33.687  -2.209  -0.334
  460XTA     C251412  33.817  -2.184  -0.378
  460XTA     C351413  33.846  -2.056  -0.436
  460XTA     C451414  33.745  -1.961  -0.464
  460XTA     C551415  33.611  -2.000  -0.438
  460XTA    CN251416  33.392  -2.210  -0.468
  460XTA     C651417  33.274  -2.143  -0.482
  460XTA     C751418  33.205  -2.155  -0.604
  460XTA     C851419  33.249  -2.243  -0.704
  460XTA     C951420  33.362  -2.323  -0.680
  460XTA    C1051421  33.437  -2.304  -0.563
  460XTA    CN351422  33.400  -2.165  -0.235
  460XTA    C1151423  33.352  -2.280  -0.167
  460XTA    C1251424  33.282  -2.262  -0.048
  460XTA    C1351425  33.260  -2.134   0.010
  460XTA    C1451426  33.314  -2.026  -0.054
  460XTA    C1551427  33.391  -2.037  -0.173
  460XTA     H151428  33.659  -2.307  -0.288
  460XTA     H251429  33.889  -2.259  -0.363
  460XTA     H351430  33.766  -1.873  -0.518
  460XTA     H451431  33.528  -1.945  -0.469
  460XTA     H551432  33.233  -2.074  -0.407
  460XTA     H651433  33.121  -2.095  -0.624
  460XTA     H751434  33.402  -2.392  -0.753
  460XTA     H851435  33.528  -2.362  -0.537
  460XTA     H951436  33.380  -2.374  -0.204
  460XTA    H1051437  33.233  -2.350  -0.003
  460XTA    H1151438  33.307  -1.926  -0.018
  460XTA    H1251439  33.427  -1.952  -0.226
  460XTA    OA151440  33.963  -2.028  -0.500
  460XTA    CO151441  34.069  -2.126  -0.508
  460XTA    OA251442  33.181  -2.262  -0.823
  460XTA    CO251443  33.060  -2.182  -0.850
  460XTA    CL151444  32.941  -2.228  -0.758
  460XTA    CL251445  32.810  -2.200  -0.829
  460XTA    CL351446  32.678  -2.255  -0.765
  460XTA    CL451447  32.552  -2.186  -0.840
  460XTA    CO351448  32.425  -2.228  -0.774
  460XTA    OA351449  32.317  -2.183  -0.840
  460XTA    CO451450  32.206  -2.193  -0.761
  460XTA    CT151451  32.084  -2.163  -0.844
  460XTA    CL551452  32.064  -2.282  -0.942
  460XTA    CL651453  32.063  -2.420  -0.891
  460XTA    OA451454  33.197  -2.116   0.126
  460XTA    CO551455  33.157  -1.982   0.164
  460XTA    CL751456  33.037  -1.984   0.266
  460XTA    CL851457  33.062  -2.064   0.393
  460XTA    CL951458  32.940  -2.069   0.488
  460XTA   CL1051459  32.972  -2.151   0.612
  460XTA    CO651460  32.970  -2.302   0.583
  460XTA    OA551461  33.078  -2.371   0.657
  460XTA    CO751462  33.210  -2.342   0.611
  460XTA    CT251463  33.274  -2.438   0.508
  460XTA   CL1151464  33.416  -2.388   0.473
  460XTA   CL1251465  33.433  -2.251   0.387
  460XTA    HL151466  34.095  -2.166  -0.417
  460XTA    HL251467  34.044  -2.210  -0.577
  460XTA    HL351468  34.162  -2.076  -0.544
  460XTA    HL451469  33.085  -2.076  -0.849
  460XTA    HL551470  33.033  -2.197  -0.952
  460XTA    HL651471  32.940  -2.173  -0.664
  460XTA    HL751472  32.955  -2.335  -0.738
  460XTA    HL851473  32.822  -2.233  -0.929
  460XTA    HL951474  32.800  -2.095  -0.832
  460XTA   HL1051475  32.667  -2.364  -0.775
  460XTA   HL1151476  32.682  -2.233  -0.660
  460XTA   HL1251477  32.542  -2.212  -0.942
  460XTA   HL1351478  32.574  -2.080  -0.823
  460XTA   HL1451479  32.424  -2.340  -0.773
  460XTA   HL1551480  32.428  -2.196  -0.671
  460XTA   HL1651481  32.201  -2.286  -0.704
  460XTA   HL1751482  32.219  -2.115  -0.690
  460XTA   HL1851483  32.139  -2.268  -1.021
  460XTA   HL1951484  31.972  -2.263  -0.998
  460XTA   HL2051485  32.008  -2.492  -0.961
  460XTA   HL2151486  32.018  -2.434  -0.792
  460XTA   HL2251487  32.164  -2.453  -0.883
  460XTA   HL2351488  33.121  -1.919   0.086
  460XTA   HL2451489  33.242  -1.935   0.207
  460XTA   HL2551490  33.004  -1.879   0.300
  460XTA   HL2651491  32.955  -2.029   0.214
  460XTA   HL2751492  33.086  -2.169   0.379
  460XTA   HL2851493  33.148  -2.024   0.441
  460XTA   HL2951494  32.932  -1.964   0.510
  460XTA   HL3051495  32.853  -2.112   0.436
  460XTA   HL3151496  33.067  -2.121   0.662
  460XTA   HL3251497  32.905  -2.133   0.693
  460XTA   HL3351498  32.880  -2.344   0.616
  460XTA   HL3451499  32.967  -2.309   0.475
  460XTA   HL3551500  33.288  -2.345   0.691
  460XTA   HL3651501  33.235  -2.241   0.575
  460XTA   HL3751502  33.475  -2.460   0.412
  460XTA   HL3851503  33.470  -2.381   0.568
  460XTA   HL3951504  33.372  -2.173   0.423
  460XTA   HL4051505  33.406  -2.261   0.283
  460XTA   HL4151506  33.537  -2.226   0.391
  460XTA    CO851507  32.103  -2.034  -0.923
  460XTA    CO951508  31.955  -2.145  -0.767
  460XTA    OA651509  31.971  -2.064  -0.698
  460XTA   HL4251510  32.187  -2.051  -0.993
  460XTA   HL4351511  32.143  -1.939  -0.830
  460XTA   HL4451512  33.110  -2.520   0.396
  460XTA   HL4551513  33.165  -2.370   0.329
  460XTA   CO1051514  33.197  -2.460   0.379
  460XTA   CO1151515  33.277  -2.575   0.576
  460XTA    OA751516  33.258  -2.514   0.311
  460XTA   HL4651517  33.301  -2.678   0.486
  460XTA   HL4751518  33.167  -2.600   0.596
  460XTA   HL4851519  31.940  -2.229  -0.695
  460XTA   HL4951520  31.875  -2.136  -0.829
  461XTA     NT51521  33.569   1.321   6.724
  461XTA    CN151522  33.510   1.225   6.650
  461XTA     C151523  33.443   1.116   6.710
  461XTA     C251524  33.393   1.016   6.633
  461XTA     C351525  33.411   1.018   6.490
  461XTA     C451526  33.475   1.126   6.426
  461XTA     C551527  33.523   1.231   6.510
  461XTA    CN251528  33.509   1.442   6.733
  461XTA     C651529  33.440   1.460   6.855
  461XTA     C751530  33.384   1.590   6.886
  461XTA     C851531  33.398   1.696   6.799
  461XTA     C951532  33.453   1.666   6.671
  461XTA    C1051533  33.513   1.547   6.641
  461XTA    CN351534  33.702   1.305   6.749
  461XTA    C1151535  33.804   1.373   6.674
  461XTA    C1251536  33.939   1.346   6.706
  461XTA    C1351537  33.970   1.248   6.807
  461XTA    C1451538  33.867   1.184   6.872
  461XTA    C1551539  33.733   1.214   6.854
  461XTA     H151540  33.442   1.108   6.820
  461XTA     H251541  33.342   0.926   6.679
  461XTA     H351542  33.472   1.133   6.318
  461XTA     H451543  33.571   1.315   6.469
  461XTA     H551544  33.440   1.372   6.930
  461XTA     H651545  33.322   1.604   6.977
  461XTA     H751546  33.446   1.735   6.584
  461XTA     H851547  33.564   1.539   6.544
  461XTA     H951548  33.790   1.434   6.591
  461XTA    H1051549  34.016   1.405   6.653
  461XTA    H1151550  33.883   1.110   6.937
  461XTA    H1251551  33.648   1.173   6.908
  461XTA    OA151552  33.364   0.919   6.407
  461XTA    CO151553  33.297   0.814   6.469
  461XTA    OA251554  33.357   1.825   6.829
  461XTA    CO251555  33.349   1.924   6.727
  461XTA    CL151556  33.276   2.050   6.771
  461XTA    CL251557  33.344   2.125   6.884
  461XTA    CL351558  33.304   2.273   6.880
  461XTA    CL451559  33.348   2.339   6.746
  461XTA    CO351560  33.416   2.483   6.759
  461XTA    OA351561  33.429   2.550   6.635
  461XTA    CO451562  33.497   2.475   6.528
  461XTA    CT151563  33.513   2.569   6.401
  461XTA    CL551564  33.571   2.484   6.292
  461XTA    CL651565  33.592   2.555   6.154
  461XTA    OA451566  34.095   1.210   6.849
  461XTA    CO551567  34.206   1.291   6.811
  461XTA    CL751568  34.244   1.259   6.662
  461XTA    CL851569  34.320   1.372   6.603
  461XTA    CL951570  34.358   1.353   6.457
  461XTA   CL1051571  34.447   1.474   6.412
  461XTA    CO651572  34.487   1.487   6.262
  461XTA    OA551573  34.519   1.626   6.241
  461XTA    CO751574  34.661   1.649   6.240
  461XTA    CT251575  34.692   1.801   6.248
  461XTA   CL1151576  34.611   1.874   6.145
  461XTA   CL1251577  34.655   2.026   6.137
  461XTA    HL151578  33.371   0.771   6.540
  461XTA    HL251579  33.202   0.829   6.522
  461XTA    HL351580  33.272   0.728   6.398
  461XTA    HL451581  33.449   1.944   6.697
  461XTA    HL551582  33.293   1.871   6.642
  461XTA    HL651583  33.174   2.021   6.811
  461XTA    HL751584  33.249   2.111   6.679
  461XTA    HL851585  33.452   2.130   6.878
  461XTA    HL951586  33.312   2.074   6.977
  461XTA   HL1051587  33.193   2.286   6.883
  461XTA   HL1151588  33.356   2.337   6.956
  461XTA   HL1251589  33.262   2.334   6.680
  461XTA   HL1351590  33.417   2.276   6.694
  461XTA   HL1451591  33.358   2.546   6.824
  461XTA   HL1551592  33.520   2.472   6.794
  461XTA   HL1651593  33.590   2.440   6.567
  461XTA   HL1751594  33.431   2.392   6.496
  461XTA   HL1851595  33.503   2.398   6.288
  461XTA   HL1951596  33.663   2.444   6.327
  461XTA   HL2051597  33.633   2.651   6.161
  461XTA   HL2151598  33.503   2.560   6.092
  461XTA   HL2251599  33.658   2.489   6.102
  461XTA   HL2351600  34.276   1.256   6.885
  461XTA   HL2451601  34.187   1.399   6.821
  461XTA   HL2551602  34.303   1.170   6.659
  461XTA   HL2651603  34.147   1.239   6.622
  461XTA   HL2751604  34.254   1.460   6.600
  461XTA   HL2851605  34.406   1.395   6.672
  461XTA   HL2951606  34.416   1.260   6.450
  461XTA   HL3051607  34.265   1.345   6.388
  461XTA   HL3151608  34.394   1.569   6.430
  461XTA   HL3251609  34.541   1.477   6.479
  461XTA   HL3351610  34.573   1.422   6.234
  461XTA   HL3451611  34.407   1.452   6.196
  461XTA   HL3551612  34.701   1.607   6.146
  461XTA   HL3651613  34.697   1.590   6.318
  461XTA   HL3751614  34.508   1.887   6.170
  461XTA   HL3851615  34.622   1.823   6.046
  461XTA   HL3951616  34.757   2.053   6.093
  461XTA   HL4051617  34.644   2.085   6.222
  461XTA   HL4151618  34.586   2.076   6.059
  461XTA    CO851619  33.618   2.680   6.431
  461XTA    CO951620  33.380   2.630   6.355
  461XTA    OA651621  33.295   2.557   6.344
  461XTA   HL4251622  33.603   2.715   6.538
  461XTA   HL4351623  33.745   2.626   6.433
  461XTA   HL4451624  34.866   1.789   6.138
  461XTA   HL4551625  34.875   1.927   6.238
  461XTA   CO1051626  34.844   1.823   6.237
  461XTA   CO1151627  34.641   1.853   6.391
  461XTA    OA751628  34.900   1.738   6.340
  461XTA   HL4651629  34.536   1.859   6.400
  461XTA   HL4751630  34.664   1.772   6.459
  461XTA   HL4851631  33.398   2.677   6.257
  461XTA   HL4951632  33.361   2.705   6.431
  462XTA     NT51633  32.033   3.263  -0.307
  462XTA    CN151634  32.155   3.242  -0.255
  462XTA     C151635  32.234   3.136  -0.303
  462XTA     C251636  32.358   3.115  -0.246
  462XTA     C351637  32.419   3.196  -0.150
  462XTA     C451638  32.338   3.302  -0.101
  462XTA     C551639  32.208   3.322  -0.158
  462XTA    CN251640  32.006   3.371  -0.377
  462XTA     C651641  32.027   3.501  -0.327
  462XTA     C751642  32.015   3.625  -0.395
  462XTA     C851643  31.957   3.623  -0.522
  462XTA     C951644  31.926   3.494  -0.578
  462XTA    C1051645  31.940   3.369  -0.506
  462XTA    CN351646  31.926   3.200  -0.244
  462XTA    C1151647  31.898   3.232  -0.109
  462XTA    C1251648  31.800   3.162  -0.042
  462XTA    C1351649  31.739   3.044  -0.092
  462XTA    C1451650  31.780   3.006  -0.220
  462XTA    C1551651  31.863   3.085  -0.299
  462XTA     H151652  32.179   3.076  -0.373
  462XTA     H251653  32.403   3.023  -0.282
  462XTA     H351654  32.374   3.356  -0.020
  462XTA     H451655  32.157   3.404  -0.116
  462XTA     H551656  32.076   3.514  -0.235
  462XTA     H651657  32.044   3.717  -0.342
  462XTA     H751658  31.872   3.476  -0.671
  462XTA     H851659  31.907   3.271  -0.539
  462XTA     H951660  31.947   3.314  -0.060
  462XTA    H1051661  31.779   3.192   0.058
  462XTA    H1151662  31.731   2.927  -0.260
  462XTA    H1251663  31.901   3.056  -0.391
  462XTA    OA151664  32.542   3.161  -0.105
  462XTA    CO151665  32.558   3.185   0.042
  462XTA    OA251666  31.946   3.737  -0.595
  462XTA    CO251667  31.814   3.739  -0.658
  462XTA    CL151668  31.782   3.879  -0.689
  462XTA    CL251669  31.750   3.968  -0.569
  462XTA    CL351670  31.687   4.103  -0.615
  462XTA    CL451671  31.687   4.213  -0.497
  462XTA    CO351672  31.629   4.164  -0.368
  462XTA    OA351673  31.493   4.124  -0.392
  462XTA    CO451674  31.437   4.042  -0.295
  462XTA    CT151675  31.307   3.975  -0.336
  462XTA    CL551676  31.323   3.927  -0.484
  462XTA    CL651677  31.426   3.820  -0.514
  462XTA    OA451678  31.643   2.965  -0.031
  462XTA    CO551679  31.551   3.033   0.053
  462XTA    CL751680  31.431   2.948   0.085
  462XTA    CL851681  31.310   2.963  -0.013
  462XTA    CL951682  31.342   2.919  -0.162
  462XTA   CL1051683  31.386   2.769  -0.175
  462XTA    CO651684  31.464   2.746  -0.308
  462XTA    OA551685  31.530   2.617  -0.317
  462XTA    CO751686  31.432   2.519  -0.343
  462XTA    CT251687  31.498   2.401  -0.410
  462XTA   CL1151688  31.393   2.291  -0.427
  462XTA   CL1251689  31.343   2.224  -0.304
  462XTA    HL151690  32.463   3.164   0.087
  462XTA    HL251691  32.620   3.107   0.094
  462XTA    HL351692  32.599   3.283   0.077
  462XTA    HL451693  31.802   3.676  -0.739
  462XTA    HL551694  31.739   3.695  -0.592
  462XTA    HL651695  31.695   3.877  -0.754
  462XTA    HL751696  31.865   3.921  -0.755
  462XTA    HL851697  31.839   3.988  -0.511
  462XTA    HL951698  31.684   3.909  -0.500
  462XTA   HL1051699  31.744   4.145  -0.695
  462XTA   HL1151700  31.584   4.077  -0.647
  462XTA   HL1251701  31.644   4.311  -0.521
  462XTA   HL1351702  31.789   4.245  -0.465
  462XTA   HL1451703  31.689   4.079  -0.334
  462XTA   HL1551704  31.620   4.242  -0.298
  462XTA   HL1651705  31.509   3.965  -0.269
  462XTA   HL1751706  31.426   4.103  -0.208
  462XTA   HL1851707  31.347   4.019  -0.538
  462XTA   HL1951708  31.230   3.891  -0.526
  462XTA   HL2051709  31.502   3.803  -0.439
  462XTA   HL2151710  31.472   3.842  -0.603
  462XTA   HL2251711  31.373   3.725  -0.524
  462XTA   HL2351712  31.514   3.128   0.006
  462XTA   HL2451713  31.592   3.066   0.143
  462XTA   HL2551714  31.463   2.844   0.099
  462XTA   HL2651715  31.400   2.978   0.187
  462XTA   HL2751716  31.224   2.907   0.017
  462XTA   HL2851717  31.273   3.069  -0.008
  462XTA   HL2951718  31.257   2.941  -0.225
  462XTA   HL3051719  31.424   2.985  -0.195
  462XTA   HL3151720  31.452   2.728  -0.098
  462XTA   HL3251721  31.297   2.702  -0.174
  462XTA   HL3351722  31.398   2.757  -0.393
  462XTA   HL3451723  31.531   2.823  -0.334
  462XTA   HL3551724  31.346   2.557  -0.393
  462XTA   HL3651725  31.389   2.488  -0.248
  462XTA   HL3751726  31.423   2.221  -0.507
  462XTA   HL3851727  31.308   2.339  -0.463
  462XTA   HL3951728  31.267   2.280  -0.253
  462XTA   HL4051729  31.402   2.182  -0.222
  462XTA   HL4151730  31.284   2.138  -0.337
  462XTA    CO851731  31.189   4.075  -0.336
  462XTA    CO951732  31.271   3.856  -0.248
  462XTA    OA651733  31.267   3.892  -0.145
  462XTA   HL4251734  31.221   4.173  -0.359
  462XTA   HL4351735  31.134   4.095  -0.208
  462XTA   HL4451736  31.589   2.299  -0.244
  462XTA   HL4551737  31.659   2.254  -0.389
  462XTA   CO1051738  31.623   2.344  -0.341
  462XTA   CO1151739  31.536   2.447  -0.556
  462XTA    OA751740  31.423   2.479  -0.641
  462XTA   HL4651741  31.608   2.532  -0.562
  462XTA   HL4751742  31.592   2.366  -0.600
  462XTA   HL4851743  31.347   3.781  -0.242
  462XTA   HL4951744  31.175   3.799  -0.271
  463XTA     NT51745  28.419   3.510   5.866
  463XTA    CN151746  28.294   3.501   5.820
  463XTA     C151747  28.231   3.376   5.808
  463XTA     C251748  28.102   3.362   5.758
  463XTA     C351749  28.023   3.483   5.728
  463XTA     C451750  28.095   3.604   5.732
  463XTA     C551751  28.227   3.612   5.774
  463XTA    CN251752  28.444   3.460   5.982
  463XTA     C651753  28.379   3.516   6.096
  463XTA     C751754  28.391   3.456   6.222
  463XTA     C851755  28.475   3.342   6.243
  463XTA     C951756  28.540   3.283   6.128
  463XTA    C1051757  28.520   3.337   5.999
  463XTA    CN351758  28.521   3.566   5.801
  463XTA    C1151759  28.602   3.659   5.862
  463XTA    C1251760  28.726   3.702   5.800
  463XTA    C1351761  28.757   3.656   5.671
  463XTA    C1451762  28.664   3.577   5.601
  463XTA    C1551763  28.548   3.531   5.666
  463XTA     H151764  28.282   3.292   5.839
  463XTA     H251765  28.068   3.258   5.747
  463XTA     H351766  28.051   3.692   5.689
  463XTA     H451767  28.291   3.699   5.765
  463XTA     H551768  28.324   3.607   6.073
  463XTA     H651769  28.328   3.490   6.298
  463XTA     H751770  28.601   3.193   6.134
  463XTA     H851771  28.572   3.293   5.915
  463XTA     H951772  28.583   3.703   5.961
  463XTA    H1051773  28.778   3.782   5.852
  463XTA    H1151774  28.685   3.536   5.504
  463XTA    H1251775  28.483   3.470   5.608
  463XTA    OA151776  27.899   3.480   5.665
  463XTA    CO151777  27.872   3.355   5.600
  463XTA    OA251778  28.493   3.307   6.376
  463XTA    CO251779  28.613   3.235   6.397
  463XTA    CL151780  28.633   3.212   6.552
  463XTA    CL251781  28.571   3.328   6.636
  463XTA    CL351782  28.628   3.467   6.603
  463XTA    CL451783  28.562   3.569   6.692
  463XTA    CO351784  28.589   3.564   6.841
  463XTA    OA351785  28.515   3.664   6.900
  463XTA    CO451786  28.540   3.674   7.039
  463XTA    CT151787  28.450   3.772   7.118
  463XTA    CL551788  28.469   3.911   7.043
  463XTA    CL651789  28.376   4.021   7.089
  463XTA    OA451790  28.875   3.698   5.624
  463XTA    CO551791  28.914   3.642   5.494
  463XTA    CL751792  29.059   3.674   5.459
  463XTA    CL851793  29.147   3.646   5.581
  463XTA    CL951794  29.292   3.700   5.561
  463XTA   CL1051795  29.376   3.690   5.685
  463XTA    CO651796  29.405   3.550   5.725
  463XTA    OA551797  29.477   3.539   5.846
  463XTA    CO751798  29.441   3.419   5.907
  463XTA    CT251799  29.523   3.400   6.037
  463XTA   CL1151800  29.517   3.517   6.139
  463XTA   CL1251801  29.384   3.553   6.201
  463XTA    HL151802  27.783   3.362   5.532
  463XTA    HL251803  27.949   3.322   5.536
  463XTA    HL351804  27.858   3.272   5.667
  463XTA    HL451805  28.606   3.137   6.347
  463XTA    HL551806  28.695   3.296   6.361
  463XTA    HL651807  28.739   3.210   6.573
  463XTA    HL751808  28.581   3.121   6.595
  463XTA    HL851809  28.587   3.304   6.743
  463XTA    HL951810  28.462   3.334   6.632
  463XTA   HL1051811  28.730   3.458   6.620
  463XTA   HL1151812  28.611   3.495   6.502
  463XTA   HL1251813  28.449   3.564   6.683
  463XTA   HL1351814  28.591   3.669   6.664
  463XTA   HL1451815  28.562   3.470   6.891
  463XTA   HL1551816  28.698   3.572   6.865
  463XTA   HL1651817  28.535   3.572   7.081
  463XTA   HL1751818  28.642   3.706   7.049
  463XTA   HL1851819  28.457   3.893   6.938
  463XTA   HL1951820  28.565   3.950   7.060
  463XTA   HL2051821  28.276   3.991   7.084
  463XTA   HL2151822  28.396   4.117   7.040
  463XTA   HL2251823  28.386   4.036   7.195
  463XTA   HL2351824  28.832   3.683   5.433
  463XTA   HL2451825  28.920   3.537   5.508
  463XTA   HL2551826  29.096   3.617   5.377
  463XTA   HL2651827  29.072   3.775   5.438
  463XTA   HL2751828  29.101   3.701   5.666
  463XTA   HL2851829  29.145   3.534   5.603
  463XTA   HL2951830  29.343   3.671   5.468
  463XTA   HL3051831  29.284   3.809   5.559
  463XTA   HL3151832  29.467   3.747   5.670
  463XTA   HL3251833  29.313   3.726   5.774
  463XTA   HL3351834  29.311   3.497   5.731
  463XTA   HL3451835  29.455   3.481   5.663
  463XTA   HL3551836  29.474   3.337   5.853
  463XTA   HL3651837  29.334   3.418   5.924
  463XTA   HL3751838  29.532   3.616   6.087
  463XTA   HL3851839  29.586   3.504   6.230
  463XTA   HL3951840  29.321   3.587   6.116
  463XTA   HL4051841  29.378   3.625   6.285
  463XTA   HL4151842  29.327   3.464   6.234
  463XTA    CO851843  28.507   3.787   7.262
  463XTA    CO951844  28.308   3.724   7.122
  463XTA    OA651845  28.250   3.728   7.026
  463XTA   HL4251846  28.448   3.854   7.324
  463XTA   HL4351847  28.628   3.855   7.255
  463XTA   HL4451848  29.683   3.299   5.913
  463XTA   HL4551849  29.703   3.468   5.945
  463XTA   CO1051850  29.670   3.376   5.991
  463XTA   CO1151851  29.470   3.261   6.090
  463XTA    OA751852  29.769   3.340   6.090
  463XTA   HL4651853  29.499   3.169   6.031
  463XTA   HL4751854  29.357   3.257   6.077
  463XTA   HL4851855  28.253   3.758   7.212
  463XTA   HL4951856  28.327   3.619   7.155
  464XTA     NT51857  27.434   1.433   8.514
  464XTA    CN151858  27.490   1.363   8.613
  464XTA     C151859  27.632   1.352   8.629
  464XTA     C251860  27.687   1.263   8.716
  464XTA     C351861  27.608   1.191   8.810
  464XTA     C451862  27.462   1.199   8.797
  464XTA     C551863  27.407   1.275   8.691
  464XTA    CN251864  27.400   1.560   8.540
  464XTA     C651865  27.265   1.590   8.554
  464XTA     C751866  27.228   1.723   8.567
  464XTA     C851867  27.322   1.827   8.567
  464XTA     C951868  27.453   1.791   8.556
  464XTA    C1051869  27.497   1.660   8.538
  464XTA    CN351870  27.421   1.382   8.391
  464XTA    C1151871  27.518   1.401   8.296
  464XTA    C1251872  27.489   1.359   8.164
  464XTA    C1351873  27.372   1.290   8.132
  464XTA    C1451874  27.282   1.262   8.238
  464XTA    C1551875  27.308   1.299   8.366
  464XTA     H151876  27.707   1.400   8.567
  464XTA     H251877  27.797   1.248   8.720
  464XTA     H351878  27.396   1.140   8.855
  464XTA     H451879  27.308   1.281   8.663
  464XTA     H551880  27.194   1.512   8.533
  464XTA     H651881  27.125   1.752   8.571
  464XTA     H751882  27.533   1.868   8.542
  464XTA     H851883  27.602   1.641   8.530
  464XTA     H951884  27.608   1.450   8.325
  464XTA    H1051885  27.558   1.376   8.088
  464XTA    H1151886  27.190   1.216   8.211
  464XTA    H1251887  27.231   1.274   8.436
  464XTA    OA151888  27.667   1.118   8.910
  464XTA    CO151889  27.790   1.048   8.883
  464XTA    OA251890  27.286   1.959   8.586
  464XTA    CO251891  27.327   2.051   8.488
  464XTA    CL151892  27.202   2.094   8.409
  464XTA    CL251893  27.240   2.206   8.311
  464XTA    CL351894  27.118   2.296   8.274
  464XTA    CL451895  27.146   2.413   8.171
  464XTA    CO351896  27.025   2.469   8.099
  464XTA    OA351897  26.954   2.356   8.045
  464XTA    CO451898  26.837   2.390   7.967
  464XTA    CT151899  26.735   2.281   7.999
  464XTA    CL551900  26.672   2.291   8.139
  464XTA    CL651901  26.768   2.289   8.251
  464XTA    OA451902  27.331   1.256   8.004
  464XTA    CO551903  27.412   1.314   7.901
  464XTA    CL751904  27.328   1.315   7.759
  464XTA    CL851905  27.211   1.407   7.767
  464XTA    CL951906  27.154   1.457   7.630
  464XTA   CL1051907  27.026   1.537   7.653
  464XTA    CO651908  26.994   1.624   7.532
  464XTA    OA551909  26.912   1.566   7.429
  464XTA    CO751910  26.990   1.508   7.324
  464XTA    CT251911  26.893   1.427   7.239
  464XTA   CL1151912  26.800   1.528   7.170
  464XTA   CL1251913  26.681   1.473   7.086
  464XTA    HL151914  27.824   0.980   8.959
  464XTA    HL251915  27.775   0.981   8.793
  464XTA    HL351916  27.867   1.117   8.866
  464XTA    HL451917  27.364   2.143   8.538
  464XTA    HL551918  27.410   2.010   8.426
  464XTA    HL651919  27.125   2.123   8.475
  464XTA    HL751920  27.157   2.004   8.365
  464XTA    HL851921  27.284   2.151   8.227
  464XTA    HL951922  27.313   2.270   8.360
  464XTA   HL1051923  27.046   2.227   8.221
  464XTA   HL1151924  27.071   2.341   8.356
  464XTA   HL1251925  27.212   2.366   8.091
  464XTA   HL1351926  27.202   2.489   8.218
  464XTA   HL1451927  26.955   2.531   8.159
  464XTA   HL1551928  27.069   2.525   8.020
  464XTA   HL1651929  26.798   2.487   8.005
  464XTA   HL1751930  26.864   2.414   7.865
  464XTA   HL1851931  26.592   2.209   8.152
  464XTA   HL1951932  26.623   2.383   8.143
  464XTA   HL2051933  26.721   2.286   8.344
  464XTA   HL2151934  26.836   2.373   8.257
  464XTA   HL2251935  26.843   2.214   8.241
  464XTA   HL2351936  27.510   1.266   7.892
  464XTA   HL2451937  27.434   1.417   7.929
  464XTA   HL2551938  27.392   1.343   7.680
  464XTA   HL2651939  27.292   1.216   7.737
  464XTA   HL2751940  27.139   1.350   7.824
  464XTA   HL2851941  27.238   1.496   7.825
  464XTA   HL2951942  27.233   1.524   7.578
  464XTA   HL3051943  27.139   1.385   7.556
  464XTA   HL3151944  26.949   1.463   7.677
  464XTA   HL3251945  27.052   1.609   7.733
  464XTA   HL3351946  26.929   1.703   7.578
  464XTA   HL3451947  27.079   1.681   7.487
  464XTA   HL3551948  27.063   1.434   7.354
  464XTA   HL3651949  27.027   1.591   7.270
  464XTA   HL3751950  26.867   1.593   7.114
  464XTA   HL3851951  26.765   1.598   7.252
  464XTA   HL3951952  26.603   1.417   7.141
  464XTA   HL4051953  26.727   1.398   7.022
  464XTA   HL4151954  26.628   1.538   7.024
  464XTA    CO851955  26.792   2.136   7.972
  464XTA    CO951956  26.625   2.292   7.893
  464XTA    OA651957  26.711   2.031   8.020
  464XTA   HL4251958  26.886   2.138   8.026
  464XTA   HL4351959  26.820   2.116   7.869
  464XTA   HL4451960  26.751   1.395   7.404
  464XTA   HL4551961  26.745   1.278   7.269
  464XTA   CO1051962  26.814   1.333   7.332
  464XTA   CO1151963  26.973   1.349   7.135
  464XTA    OA751964  27.051   1.425   7.047
  464XTA   HL4651965  27.048   1.278   7.173
  464XTA   HL4751966  26.894   1.288   7.088
  464XTA   HL4851967  26.560   2.354   7.944
  464XTA   HL4951968  26.562   2.204   7.890
  465XTA     NT51969  31.331  -2.735  -0.470
  465XTA    CN151970  31.357  -2.866  -0.447
  465XTA     C151971  31.284  -2.938  -0.350
  465XTA     C251972  31.309  -3.075  -0.333
  465XTA     C351973  31.417  -3.146  -0.392
  465XTA     C451974  31.489  -3.070  -0.488
  465XTA     C551975  31.458  -2.937  -0.516
  465XTA    CN251976  31.376  -2.640  -0.389
  465XTA     C651977  31.503  -2.637  -0.330
  465XTA     C751978  31.536  -2.526  -0.243
  465XTA     C851979  31.443  -2.420  -0.223
  465XTA     C951980  31.319  -2.421  -0.285
  465XTA    C1051981  31.286  -2.534  -0.361
  465XTA    CN351982  31.293  -2.705  -0.597
  465XTA    C1151983  31.380  -2.635  -0.683
  465XTA    C1251984  31.341  -2.602  -0.809
  465XTA    C1351985  31.209  -2.628  -0.854
  465XTA    C1451986  31.123  -2.701  -0.774
  465XTA    C1551987  31.167  -2.739  -0.647
  465XTA     H151988  31.208  -2.897  -0.294
  465XTA     H251989  31.246  -3.122  -0.257
  465XTA     H351990  31.564  -3.120  -0.539
  465XTA     H451991  31.511  -2.876  -0.584
  465XTA     H551992  31.577  -2.716  -0.345
  465XTA     H651993  31.633  -2.534  -0.185
  465XTA     H751994  31.257  -2.337  -0.263
  465XTA     H851995  31.188  -2.525  -0.408
  465XTA     H951996  31.474  -2.599  -0.657
  465XTA    H1051997  31.411  -2.554  -0.877
  465XTA    H1151998  31.024  -2.729  -0.807
  465XTA    H1251999  31.103  -2.791  -0.574
  465XTA    OA152000  31.449  -3.271  -0.358
  465XTA    CO152001  31.395  -3.334  -0.241
  465XTA    OA252002  31.471  -2.310  -0.140
  465XTA    CO252003  31.592  -2.322  -0.065
  465XTA    CL152004  31.563  -2.425   0.052
  465XTA    CL252005  31.645  -2.407   0.179
  465XTA    CL352006  31.613  -2.506   0.293
  465XTA    CL452007  31.467  -2.503   0.342
  465XTA    CO352008  31.451  -2.424   0.471
  465XTA    OA352009  31.530  -2.474   0.574
  465XTA    CO452010  31.467  -2.578   0.641
  465XTA    CT152011  31.568  -2.627   0.753
  465XTA    CL552012  31.511  -2.753   0.823
  465XTA    CL652013  31.368  -2.723   0.879
  465XTA    OA452014  31.173  -2.581  -0.975
  465XTA    CO552015  31.107  -2.459  -0.979
  465XTA    CL752016  31.066  -2.402  -1.116
  465XTA    CL852017  30.986  -2.271  -1.105
  465XTA    CL952018  30.882  -2.284  -0.995
  465XTA   CL1052019  30.773  -2.182  -1.011
  465XTA    CO652020  30.824  -2.040  -1.043
  465XTA    OA552021  30.714  -1.952  -1.052
  465XTA    CO752022  30.757  -1.821  -1.082
  465XTA    CT252023  30.629  -1.735  -1.077
  465XTA   CL1152024  30.666  -1.585  -1.087
  465XTA   CL1252025  30.723  -1.520  -0.964
  465XTA    HL152026  31.287  -3.359  -0.250
  465XTA    HL252027  31.453  -3.424  -0.201
  465XTA    HL352028  31.410  -3.257  -0.165
  465XTA    HL452029  31.689  -2.351  -0.117
  465XTA    HL552030  31.616  -2.228  -0.016
  465XTA    HL652031  31.574  -2.523   0.009
  465XTA    HL752032  31.460  -2.416   0.070
  465XTA    HL852033  31.645  -2.301   0.219
  465XTA    HL952034  31.751  -2.416   0.165
  465XTA   HL1052035  31.620  -2.610   0.258
  465XTA   HL1152036  31.674  -2.484   0.382
  465XTA   HL1252037  31.428  -2.598   0.351
  465XTA   HL1352038  31.413  -2.463   0.262
  465XTA   HL1452039  31.476  -2.320   0.456
  465XTA   HL1552040  31.347  -2.433   0.504
  465XTA   HL1652041  31.391  -2.531   0.696
  465XTA   HL1752042  31.432  -2.664   0.585
  465XTA   HL1852043  31.558  -2.785   0.918
  465XTA   HL1952044  31.499  -2.841   0.761
  465XTA   HL2052045  31.305  -2.701   0.793
  465XTA   HL2152046  31.371  -2.644   0.953
  465XTA   HL2252047  31.333  -2.818   0.931
  465XTA   HL2352048  31.174  -2.390  -0.932
  465XTA   HL2452049  31.018  -2.498  -0.924
  465XTA   HL2552050  31.161  -2.387  -1.166
  465XTA   HL2652051  31.010  -2.469  -1.175
  465XTA   HL2752052  31.058  -2.190  -1.091
  465XTA   HL2852053  30.934  -2.260  -1.202
  465XTA   HL2952054  30.838  -2.379  -0.984
  465XTA   HL3052055  30.944  -2.269  -0.906
  465XTA   HL3152056  30.718  -2.219  -1.103
  465XTA   HL3252057  30.701  -2.186  -0.931
  465XTA   HL3352058  30.878  -2.004  -0.953
  465XTA   HL3452059  30.897  -2.026  -1.125
  465XTA   HL3552060  30.807  -1.826  -1.175
  465XTA   HL3652061  30.822  -1.802  -1.000
  465XTA   HL3752062  30.582  -1.528  -1.130
  465XTA   HL3852063  30.746  -1.570  -1.162
  465XTA   HL3952064  30.788  -1.589  -0.904
  465XTA   HL4052065  30.646  -1.482  -0.893
  465XTA   HL4152066  30.778  -1.429  -0.998
  465XTA    CO852067  31.595  -2.520   0.860
  465XTA    CO952068  31.694  -2.666   0.671
  465XTA    OA652069  31.627  -2.402   0.799
  465XTA   HL4252070  31.680  -2.560   0.915
  465XTA   HL4352071  31.519  -2.501   0.920
  465XTA   HL4452072  30.489  -1.848  -0.951
  465XTA   HL4552073  30.482  -1.664  -0.934
  465XTA   CO1052074  30.547  -1.755  -0.944
  465XTA   CO1152075  30.534  -1.773  -1.198
  465XTA    OA752076  30.402  -1.729  -1.184
  465XTA   HL4652077  30.576  -1.726  -1.287
  465XTA   HL4752078  30.538  -1.878  -1.214
  465XTA   HL4852079  31.667  -2.691   0.561
  465XTA   HL4952080  31.765  -2.588   0.671
  466XTA     NT52081  25.496  -1.813   6.520
  466XTA    CN152082  25.395  -1.899   6.490
  466XTA     C152083  25.279  -1.896   6.571
  466XTA     C252084  25.174  -1.990   6.557
  466XTA     C352085  25.178  -2.080   6.453
  466XTA     C452086  25.284  -2.078   6.360
  466XTA     C552087  25.391  -1.985   6.383
  466XTA    CN252088  25.611  -1.861   6.579
  466XTA     C652089  25.595  -1.906   6.712
  466XTA     C752090  25.705  -1.938   6.791
  466XTA     C852091  25.835  -1.921   6.736
  466XTA     C952092  25.847  -1.875   6.605
  466XTA    C1052093  25.741  -1.840   6.523
  466XTA    CN352094  25.493  -1.682   6.496
  466XTA    C1152095  25.459  -1.635   6.366
  466XTA    C1252096  25.444  -1.498   6.339
  466XTA    C1352097  25.471  -1.402   6.443
  466XTA    C1452098  25.510  -1.447   6.570
  466XTA    C1552099  25.522  -1.590   6.595
  466XTA     H152100  25.269  -1.834   6.656
  466XTA     H252101  25.095  -1.989   6.628
  466XTA     H352102  25.277  -2.140   6.273
  466XTA     H452103  25.487  -1.983   6.336
  466XTA     H552104  25.489  -1.907   6.750
  466XTA     H652105  25.692  -1.980   6.890
  466XTA     H752106  25.945  -1.860   6.560
  466XTA     H852107  25.760  -1.807   6.417
  466XTA     H952108  25.446  -1.706   6.285
  466XTA    H1052109  25.418  -1.472   6.241
  466XTA    H1152110  25.514  -1.370   6.642
  466XTA    H1252111  25.558  -1.616   6.697
  466XTA    OA152112  25.072  -2.166   6.454
  466XTA    CO152113  25.088  -2.281   6.383
  466XTA    OA252114  25.940  -1.950   6.817
  466XTA    CO252115  26.056  -1.876   6.790
  466XTA    CL152116  26.177  -1.915   6.879
  466XTA    CL252117  26.279  -1.806   6.873
  466XTA    CL352118  26.395  -1.845   6.961
  466XTA    CL452119  26.478  -1.718   6.971
  466XTA    CO352120  26.528  -1.674   6.830
  466XTA    OA352121  26.623  -1.580   6.851
  466XTA    CO452122  26.590  -1.447   6.801
  466XTA    CT152123  26.633  -1.429   6.653
  466XTA    CL552124  26.671  -1.281   6.629
  466XTA    CL652125  26.570  -1.178   6.679
  466XTA    OA452126  25.453  -1.268   6.424
  466XTA    CO552127  25.516  -1.207   6.318
  466XTA    CL752128  25.519  -1.061   6.348
  466XTA    CL852129  25.587  -0.974   6.238
  466XTA    CL952130  25.730  -1.018   6.201
  466XTA   CL1052131  25.829  -1.004   6.325
  466XTA    CO652132  25.954  -1.096   6.314
  466XTA    OA552133  25.899  -1.226   6.326
  466XTA    CO752134  26.006  -1.327   6.337
  466XTA    CT252135  25.953  -1.466   6.372
  466XTA   CL1152136  25.865  -1.474   6.495
  466XTA   CL1252137  25.942  -1.465   6.623
  466XTA    HL152138  25.009  -2.333   6.424
  466XTA    HL252139  25.076  -2.265   6.276
  466XTA    HL352140  25.179  -2.320   6.424
  466XTA    HL452141  26.088  -1.888   6.690
  466XTA    HL552142  26.029  -1.769   6.795
  466XTA    HL652143  26.215  -2.007   6.850
  466XTA    HL752144  26.138  -1.925   6.984
  466XTA    HL852145  26.230  -1.713   6.908
  466XTA    HL952146  26.308  -1.806   6.774
  466XTA   HL1052147  26.359  -1.867   7.060
  466XTA   HL1152148  26.451  -1.922   6.921
  466XTA   HL1252149  26.557  -1.753   7.030
  466XTA   HL1352150  26.431  -1.640   7.031
  466XTA   HL1452151  26.583  -1.750   6.775
  466XTA   HL1552152  26.451  -1.632   6.763
  466XTA   HL1652153  26.484  -1.417   6.812
  466XTA   HL1752154  26.637  -1.379   6.866
  466XTA   HL1852155  26.692  -1.257   6.525
  466XTA   HL1952156  26.762  -1.249   6.681
  466XTA   HL2052157  26.596  -1.079   6.638
  466XTA   HL2152158  26.581  -1.167   6.782
  466XTA   HL2252159  26.466  -1.195   6.631
  466XTA   HL2352160  25.475  -1.236   6.215
  466XTA   HL2452161  25.616  -1.245   6.320
  466XTA   HL2552162  25.419  -1.034   6.360
  466XTA   HL2652163  25.563  -1.040   6.446
  466XTA   HL2752164  25.527  -0.966   6.147
  466XTA   HL2852165  25.593  -0.870   6.281
  466XTA   HL2952166  25.740  -1.121   6.158
  466XTA   HL3052167  25.767  -0.948   6.125
  466XTA   HL3152168  25.859  -0.907   6.342
  466XTA   HL3252169  25.767  -1.030   6.405
  466XTA   HL3352170  26.004  -1.090   6.217
  466XTA   HL3452171  26.032  -1.068   6.386
  466XTA   HL3552172  26.088  -1.288   6.403
  466XTA   HL3652173  26.052  -1.329   6.242
  466XTA   HL3752174  25.807  -1.570   6.489
  466XTA   HL3852175  25.787  -1.395   6.477
  466XTA   HL3952176  25.890  -1.385   6.679
  466XTA   HL4052177  26.045  -1.422   6.603
  466XTA   HL4152178  25.950  -1.571   6.675
  466XTA    CO852179  26.524  -1.481   6.553
  466XTA    CO952180  26.757  -1.509   6.621
  466XTA    OA652181  26.503  -1.622   6.546
  466XTA   HL4252182  26.548  -1.450   6.448
  466XTA   HL4352183  26.432  -1.428   6.562
  466XTA   HL4452184  26.107  -1.599   6.288
  466XTA   HL4552185  26.021  -1.660   6.412
  466XTA   CO1052186  26.064  -1.565   6.383
  466XTA   CO1152187  25.856  -1.508   6.258
  466XTA    OA752188  25.914  -1.537   6.128
  466XTA   HL4652189  25.799  -1.593   6.287
  466XTA   HL4752190  25.774  -1.431   6.241
  466XTA   HL4852191  26.742  -1.616   6.616
  466XTA   HL4952192  26.829  -1.488   6.706
  467XTA     NT52193  27.006  -0.302   1.715
  467XTA    CN152194  27.072  -0.218   1.634
  467XTA     C152195  27.026  -0.179   1.502
  467XTA     C252196  27.102  -0.088   1.425
  467XTA     C352197  27.222  -0.035   1.475
  467XTA     C452198  27.255  -0.052   1.607
  467XTA     C552199  27.185  -0.144   1.688
  467XTA    CN252200  26.925  -0.262   1.814
  467XTA     C652201  26.932  -0.330   1.940
  467XTA     C752202  26.834  -0.309   2.038
  467XTA     C852203  26.729  -0.221   2.003
  467XTA     C952204  26.725  -0.155   1.879
  467XTA    C1052205  26.821  -0.170   1.783
  467XTA    CN352206  27.033  -0.433   1.692
  467XTA    C1152207  27.145  -0.486   1.761
  467XTA    C1252208  27.176  -0.621   1.762
  467XTA    C1352209  27.089  -0.705   1.694
  467XTA    C1452210  26.972  -0.651   1.624
  467XTA    C1552211  26.941  -0.513   1.627
  467XTA     H152212  26.937  -0.221   1.457
  467XTA     H252213  27.078  -0.060   1.320
  467XTA     H352214  27.349  -0.008   1.654
  467XTA     H452215  27.234  -0.160   1.787
  467XTA     H552216  27.001  -0.410   1.971
  467XTA     H652217  26.842  -0.365   2.131
  467XTA     H752218  26.647  -0.080   1.870
  467XTA     H852219  26.813  -0.127   1.681
  467XTA     H952220  27.209  -0.417   1.819
  467XTA    H1052221  27.256  -0.663   1.815
  467XTA    H1152222  26.895  -0.710   1.587
  467XTA    H1252223  26.848  -0.474   1.588
  467XTA    OA152224  27.304   0.035   1.389
  467XTA    CO152225  27.444  -0.001   1.397
  467XTA    OA252226  26.639  -0.182   2.092
  467XTA    CO252227  26.506  -0.240   2.082
  467XTA    CL152228  26.401  -0.141   2.130
  467XTA    CL252229  26.429  -0.003   2.065
  467XTA    CL352230  26.333   0.108   2.101
  467XTA    CL452231  26.383   0.247   2.073
  467XTA    CO352232  26.274   0.354   2.053
  467XTA    OA352233  26.222   0.321   1.924
  467XTA    CO452234  26.144   0.419   1.871
  467XTA    CT152235  26.079   0.379   1.729
  467XTA    CL552236  25.979   0.262   1.744
  467XTA    CL652237  26.039   0.124   1.773
  467XTA    OA452238  27.129  -0.839   1.680
  467XTA    CO552239  27.029  -0.937   1.682
  467XTA    CL752240  27.099  -1.073   1.643
  467XTA    CL852241  27.141  -1.059   1.499
  467XTA    CL952242  27.216  -1.166   1.424
  467XTA   CL1052243  27.328  -1.230   1.498
  467XTA    CO652244  27.428  -1.304   1.400
  467XTA    OA552245  27.367  -1.409   1.330
  467XTA    CO752246  27.404  -1.544   1.368
  467XTA    CT252247  27.313  -1.651   1.304
  467XTA   CL1152248  27.276  -1.606   1.154
  467XTA   CL1252249  27.192  -1.712   1.082
  467XTA    HL152250  27.458  -0.108   1.380
  467XTA    HL252251  27.498   0.059   1.325
  467XTA    HL352252  27.494   0.024   1.490
  467XTA    HL452253  26.498  -0.254   1.978
  467XTA    HL552254  26.513  -0.330   2.148
  467XTA    HL652255  26.392  -0.120   2.236
  467XTA    HL752256  26.294  -0.174   2.108
  467XTA    HL852257  26.421  -0.019   1.958
  467XTA    HL952258  26.530   0.027   2.074
  467XTA   HL1052259  26.249   0.090   2.030
  467XTA   HL1152260  26.290   0.094   2.200
  467XTA   HL1252261  26.438   0.244   1.971
  467XTA   HL1352262  26.458   0.261   2.148
  467XTA   HL1452263  26.208   0.354   2.133
  467XTA   HL1552264  26.321   0.453   2.045
  467XTA   HL1652265  26.061   0.435   1.939
  467XTA   HL1752266  26.199   0.515   1.864
  467XTA   HL1852267  25.918   0.253   1.649
  467XTA   HL1952268  25.895   0.277   1.815
  467XTA   HL2052269  25.976   0.045   1.765
  467XTA   HL2152270  26.076   0.116   1.877
  467XTA   HL2252271  26.133   0.097   1.725
  467XTA   HL2352272  26.961  -0.908   1.605
  467XTA   HL2452273  26.982  -0.947   1.777
  467XTA   HL2552274  27.171  -1.094   1.718
  467XTA   HL2652275  27.021  -1.153   1.651
  467XTA   HL2752276  27.046  -1.031   1.451
  467XTA   HL2852277  27.209  -0.966   1.492
  467XTA   HL2952278  27.154  -1.239   1.379
  467XTA   HL3052279  27.259  -1.129   1.333
  467XTA   HL3152280  27.396  -1.158   1.552
  467XTA   HL3252281  27.291  -1.303   1.578
  467XTA   HL3352282  27.470  -1.240   1.325
  467XTA   HL3452283  27.511  -1.339   1.459
  467XTA   HL3552284  27.388  -1.554   1.477
  467XTA   HL3652285  27.511  -1.562   1.347
  467XTA   HL3752286  27.360  -1.577   1.102
  467XTA   HL3852287  27.213  -1.520   1.158
  467XTA   HL3952288  27.147  -1.664   0.996
  467XTA   HL4052289  27.114  -1.744   1.152
  467XTA   HL4152290  27.237  -1.811   1.049
  467XTA    CO852291  26.184   0.343   1.625
  467XTA    CO952292  26.009   0.506   1.680
  467XTA    OA652293  25.926   0.527   1.746
  467XTA   HL4252294  26.248   0.275   1.680
  467XTA   HL4352295  26.273   0.448   1.610
  467XTA   HL4452296  27.159  -1.779   1.387
  467XTA   HL4552297  27.203  -1.648   1.496
  467XTA   CO1052298  27.188  -1.675   1.388
  467XTA   CO1152299  27.391  -1.777   1.312
  467XTA    OA752300  27.312  -1.894   1.271
  467XTA   HL4652301  27.476  -1.769   1.241
  467XTA   HL4752302  27.444  -1.802   1.408
  467XTA   HL4852303  25.968   0.499   1.577
  467XTA   HL4952304  26.075   0.593   1.679
  468XTA     NT52305  29.730   1.227   3.352
  468XTA    CN152306  29.844   1.297   3.319
  468XTA     C152307  29.898   1.388   3.405
  468XTA     C252308  30.020   1.453   3.375
  468XTA     C352309  30.085   1.423   3.256
  468XTA     C452310  30.029   1.331   3.163
  468XTA     C552311  29.909   1.262   3.198
  468XTA    CN252312  29.633   1.243   3.256
  468XTA     C652313  29.546   1.358   3.249
  468XTA     C752314  29.459   1.363   3.135
  468XTA     C852315  29.462   1.273   3.028
  468XTA     C952316  29.555   1.165   3.035
  468XTA    C1052317  29.624   1.149   3.157
  468XTA    CN352318  29.719   1.138   3.453
  468XTA    C1152319  29.638   1.167   3.566
  468XTA    C1252320  29.614   1.073   3.666
  468XTA    C1352321  29.685   0.947   3.664
  468XTA    C1452322  29.769   0.927   3.556
  468XTA    C1552323  29.787   1.018   3.451
  468XTA     H152324  29.844   1.417   3.492
  468XTA     H252325  30.055   1.518   3.461
  468XTA     H352326  30.071   1.314   3.063
  468XTA     H452327  29.860   1.188   3.141
  468XTA     H552328  29.547   1.436   3.325
  468XTA     H652329  29.399   1.454   3.122
  468XTA     H752330  29.574   1.109   2.941
  468XTA     H852331  29.687   1.058   3.155
  468XTA     H952332  29.591   1.261   3.557
  468XTA    H1052333  29.550   1.100   3.744
  468XTA    H1152334  29.812   0.832   3.545
  468XTA    H1252335  29.855   1.010   3.364
  468XTA    OA152336  30.195   1.500   3.233
  468XTA    CO152337  30.297   1.425   3.160
  468XTA    OA252338  29.382   1.302   2.919
  468XTA    CO252339  29.375   1.202   2.813
  468XTA    CL152340  29.343   1.277   2.679
  468XTA    CL252341  29.441   1.383   2.639
  468XTA    CL352342  29.383   1.464   2.520
  468XTA    CL452343  29.489   1.553   2.461
  468XTA    CO352344  29.430   1.686   2.413
  468XTA    OA352345  29.521   1.777   2.359
  468XTA    CO452346  29.479   1.903   2.302
  468XTA    CT152347  29.602   1.971   2.246
  468XTA    CL552348  29.658   1.887   2.130
  468XTA    CL652349  29.561   1.883   2.000
  468XTA    OA452350  29.674   0.846   3.755
  468XTA    CO552351  29.584   0.858   3.868
  468XTA    CL752352  29.668   0.870   3.998
  468XTA    CL852353  29.772   0.982   4.013
  468XTA    CL952354  29.838   0.999   4.152
  468XTA   CL1052355  29.955   1.097   4.158
  468XTA    CO652356  30.002   1.123   4.297
  468XTA    OA552357  30.106   1.218   4.293
  468XTA    CO752358  30.114   1.286   4.417
  468XTA    CT252359  30.238   1.381   4.434
  468XTA   CL1152360  30.231   1.435   4.580
  468XTA   CL1252361  30.100   1.508   4.621
  468XTA    HL152362  30.259   1.418   3.055
  468XTA    HL252363  30.386   1.495   3.151
  468XTA    HL352364  30.305   1.325   3.198
  468XTA    HL452365  29.471   1.168   2.793
  468XTA    HL552366  29.310   1.127   2.849
  468XTA    HL652367  29.248   1.326   2.687
  468XTA    HL752368  29.325   1.210   2.596
  468XTA    HL852369  29.543   1.344   2.605
  468XTA    HL952370  29.463   1.439   2.731
  468XTA   HL1052371  29.346   1.400   2.440
  468XTA   HL1152372  29.288   1.517   2.550
  468XTA   HL1252373  29.538   1.508   2.373
  468XTA   HL1352374  29.568   1.579   2.535
  468XTA   HL1452375  29.342   1.670   2.340
  468XTA   HL1552376  29.373   1.727   2.497
  468XTA   HL1652377  29.397   1.880   2.227
  468XTA   HL1752378  29.422   1.963   2.372
  468XTA   HL1852379  29.679   1.787   2.170
  468XTA   HL1952380  29.754   1.938   2.096
  468XTA   HL2052381  29.620   1.836   1.918
  468XTA   HL2152382  29.518   1.976   1.950
  468XTA   HL2252383  29.471   1.818   2.018
  468XTA   HL2352384  29.519   0.772   3.866
  468XTA   HL2452385  29.522   0.943   3.872
  468XTA   HL2552386  29.595   0.883   4.084
  468XTA   HL2652387  29.717   0.768   4.001
  468XTA   HL2752388  29.858   0.958   3.940
  468XTA   HL2852389  29.715   1.070   3.987
  468XTA   HL2952390  29.755   1.031   4.214
  468XTA   HL3052391  29.865   0.898   4.191
  468XTA   HL3152392  30.046   1.048   4.112
  468XTA   HL3252393  29.940   1.185   4.096
  468XTA   HL3352394  29.915   1.159   4.349
  468XTA   HL3452395  30.032   1.031   4.344
  468XTA   HL3552396  30.118   1.209   4.489
  468XTA   HL3652397  30.021   1.344   4.434
  468XTA   HL3752398  30.324   1.498   4.594
  468XTA   HL3852399  30.249   1.353   4.650
  468XTA   HL3952400  30.105   1.540   4.723
  468XTA   HL4052401  30.004   1.458   4.613
  468XTA   HL4152402  30.084   1.598   4.554
  468XTA    CO852403  29.708   1.985   2.353
  468XTA    CO952404  29.571   2.118   2.201
  468XTA    OA652405  29.787   2.059   2.323
  468XTA   HL4252406  29.750   1.890   2.364
  468XTA   HL4352407  29.651   2.012   2.443
  468XTA   HL4452408  30.230   1.446   4.227
  468XTA   HL4552409  30.325   1.596   4.335
  468XTA   CO1052410  30.226   1.491   4.327
  468XTA   CO1152411  30.373   1.310   4.413
  468XTA    OA752412  30.364   1.212   4.466
  468XTA   HL4652413  30.393   1.296   4.305
  468XTA   HL4752414  30.457   1.365   4.461
  468XTA   HL4852415  29.481   2.110   2.090
  468XTA   HL4952416  29.654   2.166   2.155
  469XTA     NT52417  30.973   0.551   2.095
  469XTA    CN152418  31.031   0.629   2.191
  469XTA     C152419  31.115   0.565   2.288
  469XTA     C252420  31.160   0.638   2.397
  469XTA     C352421  31.145   0.775   2.398
  469XTA     C452422  31.074   0.835   2.293
  469XTA     C552423  31.002   0.764   2.195
  469XTA    CN252424  30.871   0.480   2.139
  469XTA     C652425  30.751   0.538   2.182
  469XTA     C752426  30.645   0.465   2.238
  469XTA     C852427  30.646   0.326   2.226
  469XTA     C952428  30.758   0.264   2.176
  469XTA    C1052429  30.870   0.338   2.136
  469XTA    CN352430  31.035   0.524   1.975
  469XTA    C1152431  30.955   0.531   1.857
  469XTA    C1252432  31.011   0.485   1.734
  469XTA    C1352433  31.144   0.447   1.720
  469XTA    C1452434  31.227   0.455   1.840
  469XTA    C1552435  31.173   0.483   1.964
  469XTA     H152436  31.132   0.453   2.290
  469XTA     H252437  31.212   0.589   2.476
  469XTA     H352438  31.073   0.940   2.286
  469XTA     H452439  30.946   0.810   2.119
  469XTA     H552440  30.737   0.645   2.175
  469XTA     H652441  30.559   0.507   2.289
  469XTA     H752442  30.749   0.157   2.171
  469XTA     H852443  30.959   0.280   2.107
  469XTA     H952444  30.852   0.557   1.866
  469XTA    H1052445  30.939   0.479   1.661
  469XTA    H1152446  31.326   0.419   1.837
  469XTA    H1252447  31.235   0.482   2.047
  469XTA    OA152448  31.195   0.851   2.499
  469XTA    CO152449  31.282   0.791   2.596
  469XTA    OA252450  30.538   0.258   2.271
  469XTA    CO252451  30.538   0.114   2.282
  469XTA    CL152452  30.426   0.079   2.384
  469XTA    CL252453  30.445   0.149   2.518
  469XTA    CL352454  30.330   0.099   2.615
  469XTA    CL452455  30.341   0.158   2.754
  469XTA    CO352456  30.216   0.121   2.841
  469XTA    OA352457  30.227   0.184   2.971
  469XTA    CO452458  30.158   0.315   2.972
  469XTA    CT152459  30.127   0.372   3.111
  469XTA    CL552460  30.251   0.429   3.181
  469XTA    CL652461  30.372   0.338   3.178
  469XTA    OA452462  31.186   0.389   1.606
  469XTA    CO552463  31.294   0.289   1.603
  469XTA    CL752464  31.244   0.165   1.531
  469XTA    CL852465  31.339   0.046   1.555
  469XTA    CL952466  31.285  -0.080   1.491
  469XTA   CL1052467  31.183  -0.161   1.575
  469XTA    CO652468  31.225  -0.228   1.704
  469XTA    OA552469  31.270  -0.130   1.802
  469XTA    CO752470  31.227  -0.145   1.936
  469XTA    CT252471  31.250  -0.014   2.021
  469XTA   CL1152472  31.201   0.116   1.965
  469XTA   CL1252473  31.061   0.125   1.906
  469XTA    HL152474  31.335   0.711   2.547
  469XTA    HL252475  31.353   0.864   2.644
  469XTA    HL352476  31.230   0.762   2.690
  469XTA    HL452477  30.524   0.049   2.195
  469XTA    HL552478  30.634   0.098   2.327
  469XTA    HL652479  30.409  -0.025   2.397
  469XTA    HL752480  30.328   0.114   2.342
  469XTA    HL852481  30.438   0.257   2.503
  469XTA    HL952482  30.546   0.139   2.558
  469XTA   HL1052483  30.229   0.118   2.578
  469XTA   HL1152484  30.339  -0.015   2.618
  469XTA   HL1252485  30.340   0.268   2.736
  469XTA   HL1352486  30.434   0.123   2.797
  469XTA   HL1452487  30.127   0.169   2.786
  469XTA   HL1552488  30.207   0.022   2.864
  469XTA   HL1652489  30.224   0.377   2.911
  469XTA   HL1752490  30.066   0.309   2.906
  469XTA   HL1852491  30.223   0.453   3.278
  469XTA   HL1952492  30.275   0.531   3.145
  469XTA   HL2052493  30.458   0.389   3.204
  469XTA   HL2152494  30.386   0.302   3.080
  469XTA   HL2252495  30.363   0.261   3.251
  469XTA   HL2352496  31.318   0.260   1.700
  469XTA   HL2452497  31.381   0.327   1.553
  469XTA   HL2552498  31.150   0.150   1.583
  469XTA   HL2652499  31.226   0.189   1.423
  469XTA   HL2752500  31.439   0.062   1.511
  469XTA   HL2852501  31.363   0.033   1.661
  469XTA   HL2952502  31.242  -0.050   1.394
  469XTA   HL3052503  31.374  -0.144   1.460
  469XTA   HL3152504  31.093  -0.101   1.599
  469XTA   HL3252505  31.146  -0.234   1.513
  469XTA   HL3352506  31.143  -0.287   1.741
  469XTA   HL3452507  31.306  -0.296   1.687
  469XTA   HL3552508  31.288  -0.219   1.987
  469XTA   HL3652509  31.124  -0.185   1.949
  469XTA   HL3752510  31.274   0.130   1.883
  469XTA   HL3852511  31.219   0.198   2.032
  469XTA   HL3952512  31.044   0.065   1.825
  469XTA   HL4052513  31.022   0.222   1.871
  469XTA   HL4152514  30.989   0.101   1.986
  469XTA    CO852515  30.072   0.255   3.195
  469XTA    CO952516  30.023   0.479   3.108
  469XTA    OA652517  30.040   0.295   3.289
  469XTA   HL4252518  30.158   0.187   3.198
  469XTA   HL4352519  29.984   0.216   3.147
  469XTA   HL4452520  31.426   0.055   2.118
  469XTA   HL4552521  31.446  -0.105   2.079
  469XTA   CO1052522  31.403  -0.013   2.038
  469XTA   CO1152523  31.184  -0.037   2.158
  469XTA    OA752524  31.052  -0.105   2.154
  469XTA   HL4652525  31.252  -0.079   2.241
  469XTA   HL4752526  31.163   0.055   2.197
  469XTA   HL4852527  29.902   0.421   3.063
  469XTA   HL4952528  30.002   0.510   3.207
  470XTA     NT52529  34.523   2.547   0.038
  470XTA    CN152530  34.465   2.532   0.160
  470XTA     C152531  34.473   2.633   0.256
  470XTA     C252532  34.425   2.624   0.388
  470XTA     C352533  34.371   2.503   0.433
  470XTA     C452534  34.380   2.393   0.342
  470XTA     C552535  34.419   2.407   0.206
  470XTA    CN252536  34.655   2.552   0.040
  470XTA     C652537  34.725   2.434   0.083
  470XTA     C752538  34.862   2.448   0.107
  470XTA     C852539  34.936   2.569   0.082
  470XTA     C952540  34.868   2.684   0.032
  470XTA    C1052541  34.730   2.670   0.011
  470XTA    CN352542  34.453   2.522  -0.075
  470XTA    C1152543  34.427   2.390  -0.116
  470XTA    C1252544  34.339   2.363  -0.219
  470XTA    C1352545  34.268   2.474  -0.274
  470XTA    C1452546  34.296   2.604  -0.231
  470XTA    C1552547  34.396   2.631  -0.138
  470XTA     H152548  34.510   2.728   0.225
  470XTA     H252549  34.433   2.708   0.457
  470XTA     H352550  34.347   2.287   0.373
  470XTA     H452551  34.409   2.337   0.128
  470XTA     H552552  34.672   2.346   0.109
  470XTA     H652553  34.910   2.356   0.142
  470XTA     H752554  34.932   2.772   0.009
  470XTA     H852555  34.677   2.760  -0.020
  470XTA     H952556  34.474   2.317  -0.060
  470XTA    H1052557  34.323   2.258  -0.248
  470XTA    H1152558  34.230   2.681  -0.278
  470XTA    H1252559  34.415   2.737  -0.118
  470XTA    OA152560  34.329   2.487   0.564
  470XTA    CO152561  34.280   2.363   0.604
  470XTA    OA252562  35.068   2.585   0.122
  470XTA    CO252563  35.120   2.507   0.228
  470XTA    CL152564  35.268   2.525   0.259
  470XTA    CL252565  35.290   2.514   0.414
  470XTA    CL352566  35.282   2.365   0.459
  470XTA    CL452567  35.396   2.277   0.409
  470XTA    CO352568  35.369   2.132   0.440
  470XTA    OA352569  35.262   2.085   0.367
  470XTA    CO452570  35.231   1.951   0.380
  470XTA    CT152571  35.123   1.903   0.274
  470XTA    CL552572  34.982   1.959   0.295
  470XTA    CL652573  34.989   2.107   0.328
  470XTA    OA452574  34.181   2.443  -0.370
  470XTA    CO552575  34.186   2.528  -0.484
  470XTA    CL752576  34.082   2.488  -0.587
  470XTA    CL852577  34.126   2.532  -0.727
  470XTA    CL952578  34.047   2.459  -0.832
  470XTA   CL1052579  34.094   2.506  -0.970
  470XTA    CO652580  34.005   2.446  -1.083
  470XTA    OA552581  33.867   2.436  -1.048
  470XTA    CO752582  33.789   2.543  -1.085
  470XTA    CT252583  33.643   2.524  -1.041
  470XTA   CL1152584  33.628   2.499  -0.888
  470XTA   CL1252585  33.491   2.460  -0.839
  470XTA    HL152586  34.181   2.336   0.564
  470XTA    HL252587  34.349   2.287   0.578
  470XTA    HL352588  34.264   2.375   0.708
  470XTA    HL452589  35.056   2.524   0.314
  470XTA    HL552590  35.104   2.406   0.215
  470XTA    HL652591  35.298   2.627   0.232
  470XTA    HL752592  35.325   2.465   0.185
  470XTA    HL852593  35.212   2.574   0.459
  470XTA    HL952594  35.391   2.545   0.441
  470XTA   HL1052595  35.264   2.357   0.565
  470XTA   HL1152596  35.192   2.330   0.413
  470XTA   HL1252597  35.488   2.311   0.467
  470XTA   HL1352598  35.415   2.283   0.305
  470XTA   HL1452599  35.452   2.073   0.403
  470XTA   HL1552600  35.346   2.116   0.548
  470XTA   HL1652601  35.321   1.893   0.367
  470XTA   HL1752602  35.186   1.927   0.476
  470XTA   HL1852603  34.933   1.923   0.384
  470XTA   HL1952604  34.906   1.938   0.220
  470XTA   HL2052605  34.897   2.151   0.360
  470XTA   HL2152606  35.017   2.161   0.238
  470XTA   HL2252607  35.048   2.121   0.418
  470XTA   HL2352608  34.291   2.538  -0.522
  470XTA   HL2452609  34.151   2.620  -0.442
  470XTA   HL2552610  34.082   2.375  -0.598
  470XTA   HL2652611  33.990   2.525  -0.552
  470XTA   HL2752612  34.112   2.634  -0.738
  470XTA   HL2852613  34.231   2.509  -0.745
  470XTA   HL2952614  34.062   2.352  -0.828
  470XTA   HL3052615  33.941   2.479  -0.820
  470XTA   HL3152616  34.101   2.614  -0.981
  470XTA   HL3252617  34.201   2.485  -0.996
  470XTA   HL3352618  34.019   2.506  -1.172
  470XTA   HL3452619  34.025   2.343  -1.101
  470XTA   HL3552620  33.795   2.541  -1.190
  470XTA   HL3652621  33.833   2.632  -1.044
  470XTA   HL3752622  33.657   2.589  -0.841
  470XTA   HL3852623  33.701   2.421  -0.870
  470XTA   HL3952624  33.461   2.362  -0.873
  470XTA   HL4052625  33.412   2.517  -0.875
  470XTA   HL4152626  33.484   2.445  -0.733
  470XTA    CO852627  35.102   1.752   0.281
  470XTA    CO952628  35.171   1.925   0.136
  470XTA    OA652629  35.077   1.717   0.415
  470XTA   HL4252630  35.197   1.706   0.253
  470XTA   HL4352631  35.013   1.718   0.223
  470XTA   HL4452632  33.488   2.366  -1.077
  470XTA   HL4552633  33.598   2.399  -1.209
  470XTA   CO1052634  33.591   2.387  -1.102
  470XTA   CO1152635  33.549   2.643  -1.086
  470XTA    OA752636  33.677   2.279  -1.072
  470XTA   HL4652637  33.453   2.618  -1.055
  470XTA   HL4752638  33.578   2.732  -1.028
  470XTA   HL4852639  35.176   2.028   0.119
  470XTA   HL4952640  35.275   1.894   0.144
  471XTA     NT52641  32.098   1.423   0.215
  471XTA    CN152642  32.009   1.354   0.142
  471XTA     C152643  31.909   1.426   0.070
  471XTA     C252644  31.808   1.357   0.006
  471XTA     C352645  31.810   1.217   0.007
  471XTA     C452646  31.913   1.146   0.071
  471XTA     C552647  32.020   1.214   0.131
  471XTA    CN252648  32.156   1.534   0.162
  471XTA     C652649  32.275   1.525   0.081
  471XTA     C752650  32.342   1.638   0.029
  471XTA     C852651  32.293   1.764   0.063
  471XTA     C952652  32.168   1.769   0.134
  471XTA    C1052653  32.101   1.662   0.183
  471XTA    CN352654  32.155   1.371   0.328
  471XTA    C1152655  32.292   1.336   0.342
  471XTA    C1252656  32.342   1.290   0.465
  471XTA    C1352657  32.260   1.261   0.574
  471XTA    C1452658  32.121   1.285   0.555
  471XTA    C1552659  32.068   1.335   0.433
  471XTA     H152660  31.905   1.533   0.071
  471XTA     H252661  31.730   1.415  -0.040
  471XTA     H352662  31.892   1.037   0.075
  471XTA     H452663  32.089   1.156   0.193
  471XTA     H552664  32.320   1.431   0.052
  471XTA     H652665  32.441   1.620  -0.016
  471XTA     H752666  32.118   1.866   0.136
  471XTA     H852667  32.008   1.683   0.235
  471XTA     H952668  32.355   1.367   0.262
  471XTA    H1052669  32.450   1.280   0.478
  471XTA    H1152670  32.042   1.249   0.621
  471XTA    H1252671  31.963   1.358   0.412
  471XTA    OA152672  31.702   1.139  -0.035
  471XTA    CO152673  31.577   1.198  -0.011
  471XTA    OA252674  32.342   1.880   0.021
  471XTA    CO252675  32.474   1.872  -0.040
  471XTA    CL152676  32.538   2.017  -0.047
  471XTA    CL252677  32.679   2.008  -0.104
  471XTA    CL352678  32.748   2.143  -0.139
  471XTA    CL452679  32.891   2.139  -0.208
  471XTA    CO352680  32.890   2.090  -0.356
  471XTA    OA352681  32.803   2.174  -0.435
  471XTA    CO452682  32.865   2.243  -0.540
  471XTA    CT152683  32.794   2.381  -0.562
  471XTA    CL552684  32.902   2.476  -0.619
  471XTA    CL652685  32.985   2.425  -0.736
  471XTA    OA452686  32.295   1.212   0.696
  471XTA    CO552687  32.433   1.228   0.739
  471XTA    CL752688  32.466   1.377   0.780
  471XTA    CL852689  32.364   1.448   0.846
  471XTA    CL952690  32.401   1.601   0.869
  471XTA   CL1052691  32.408   1.695   0.743
  471XTA    CO652692  32.282   1.778   0.727
  471XTA    OA552693  32.266   1.869   0.835
  471XTA    CO752694  32.344   1.986   0.827
  471XTA    CT252695  32.377   2.044   0.967
  471XTA   CL1152696  32.241   2.084   1.043
  471XTA   CL1252697  32.177   2.211   0.998
  471XTA    HL152698  31.545   1.277  -0.078
  471XTA    HL252699  31.496   1.122  -0.000
  471XTA    HL352700  31.581   1.247   0.085
  471XTA    HL452701  32.542   1.811   0.028
  471XTA    HL552702  32.468   1.833  -0.140
  471XTA    HL652703  32.538   2.075   0.046
  471XTA    HL752704  32.486   2.078  -0.121
  471XTA    HL852705  32.675   1.946  -0.192
  471XTA    HL952706  32.731   1.951  -0.022
  471XTA   HL1052707  32.681   2.198  -0.203
  471XTA   HL1152708  32.762   2.202  -0.048
  471XTA   HL1252709  32.951   2.077  -0.140
  471XTA   HL1352710  32.925   2.240  -0.205
  471XTA   HL1452711  32.991   2.073  -0.390
  471XTA   HL1552712  32.858   1.990  -0.356
  471XTA   HL1652713  32.966   2.274  -0.490
  471XTA   HL1752714  32.879   2.179  -0.626
  471XTA   HL1852715  32.970   2.512  -0.537
  471XTA   HL1952716  32.851   2.569  -0.644
  471XTA   HL2052717  32.917   2.418  -0.814
  471XTA   HL2152718  33.031   2.329  -0.716
  471XTA   HL2252719  33.060   2.500  -0.757
  471XTA   HL2352720  32.493   1.207   0.651
  471XTA   HL2452721  32.461   1.158   0.818
  471XTA   HL2552722  32.560   1.385   0.835
  471XTA   HL2652723  32.491   1.443   0.695
  471XTA   HL2752724  32.266   1.449   0.794
  471XTA   HL2852725  32.331   1.395   0.935
  471XTA   HL2952726  32.337   1.642   0.943
  471XTA   HL3052727  32.499   1.611   0.907
  471XTA   HL3152728  32.504   1.757   0.750
  471XTA   HL3252729  32.414   1.648   0.642
  471XTA   HL3352730  32.299   1.851   0.646
  471XTA   HL3452731  32.193   1.730   0.701
  471XTA   HL3552732  32.283   2.047   0.761
  471XTA   HL3652733  32.444   1.968   0.784
  471XTA   HL3752734  32.255   2.076   1.150
  471XTA   HL3852735  32.173   2.002   1.016
  471XTA   HL3952736  32.074   2.223   1.031
  471XTA   HL4052737  32.162   2.197   0.891
  471XTA   HL4152738  32.233   2.299   1.008
  471XTA    CO852739  32.747   2.431  -0.420
  471XTA    CO952740  32.674   2.353  -0.649
  471XTA    OA652741  32.689   2.558  -0.433
  471XTA   HL4252742  32.833   2.443  -0.356
  471XTA   HL4352743  32.686   2.360  -0.356
  471XTA   HL4452744  32.577   2.118   0.912
  471XTA   HL4552745  32.506   2.197   1.056
  471XTA   CO1052746  32.483   2.159   0.951
  471XTA   CO1152747  32.453   1.940   1.046
  471XTA    OA752748  32.508   1.980   1.170
  471XTA   HL4652749  32.398   1.857   1.079
  471XTA   HL4752750  32.535   1.907   0.978
  471XTA   HL4852751  32.696   2.272  -0.718
  471XTA   HL4952752  32.598   2.320  -0.577
  472XTA     NT52753  32.146   3.490   4.511
  472XTA    CN152754  32.058   3.586   4.511
  472XTA     C152755  31.993   3.623   4.632
  472XTA     C252756  31.894   3.717   4.641
  472XTA     C352757  31.846   3.779   4.524
  472XTA     C452758  31.904   3.746   4.399
  472XTA     C552759  32.010   3.655   4.395
  472XTA    CN252760  32.123   3.366   4.453
  472XTA     C652761  32.094   3.346   4.318
  472XTA     C752762  32.063   3.218   4.266
  472XTA     C852763  32.074   3.106   4.350
  472XTA     C952764  32.112   3.120   4.484
  472XTA    C1052765  32.132   3.251   4.530
  472XTA    CN352766  32.277   3.528   4.522
  472XTA    C1152767  32.364   3.537   4.409
  472XTA    C1252768  32.499   3.574   4.432
  472XTA    C1352769  32.547   3.623   4.559
  472XTA    C1452770  32.456   3.630   4.664
  472XTA    C1552771  32.320   3.593   4.643
  472XTA     H152772  32.023   3.584   4.726
  472XTA     H252773  31.847   3.732   4.741
  472XTA     H352774  31.877   3.797   4.317
  472XTA     H452775  32.051   3.622   4.300
  472XTA     H552776  32.096   3.438   4.260
  472XTA     H652777  32.044   3.200   4.164
  472XTA     H752778  32.122   3.041   4.543
  472XTA     H852779  32.156   3.259   4.633
  472XTA     H952780  32.327   3.508   4.312
  472XTA    H1052781  32.566   3.574   4.349
  472XTA    H1152782  32.481   3.675   4.762
  472XTA    H1252783  32.259   3.603   4.725
  472XTA    OA152784  31.737   3.865   4.538
  472XTA    CO152785  31.701   3.946   4.424
  472XTA    OA252786  32.045   2.983   4.306
  472XTA    CO252787  32.014   2.873   4.397
  472XTA    CL152788  32.138   2.793   4.427
  472XTA    CL252789  32.102   2.669   4.518
  472XTA    CL352790  32.228   2.591   4.561
  472XTA    CL452791  32.285   2.656   4.687
  472XTA    CO352792  32.427   2.617   4.724
  472XTA    OA352793  32.431   2.642   4.869
  472XTA    CO452794  32.561   2.623   4.917
  472XTA    CT152795  32.585   2.701   5.045
  472XTA    CL552796  32.489   2.655   5.158
  472XTA    CL652797  32.515   2.509   5.190
  472XTA    OA452798  32.672   3.677   4.569
  472XTA    CO552799  32.679   3.806   4.624
  472XTA    CL752800  32.824   3.839   4.644
  472XTA    CL852801  32.881   3.892   4.514
  472XTA    CL952802  33.028   3.928   4.526
  472XTA   CL1052803  33.117   3.806   4.549
  472XTA    CO652804  33.093   3.692   4.442
  472XTA    OA552805  33.180   3.579   4.454
  472XTA    CO752806  33.109   3.464   4.417
  472XTA    CT252807  33.187   3.332   4.443
  472XTA   CL1152808  33.245   3.323   4.579
  472XTA   CL1252809  33.349   3.420   4.632
  472XTA    HL152810  31.646   3.867   4.364
  472XTA    HL252811  31.624   4.021   4.443
  472XTA    HL352812  31.785   3.997   4.375
  472XTA    HL452813  31.956   2.912   4.486
  472XTA    HL552814  31.934   2.812   4.357
  472XTA    HL652815  32.227   2.850   4.469
  472XTA    HL752816  32.185   2.762   4.330
  472XTA    HL852817  32.034   2.596   4.471
  472XTA    HL952818  32.053   2.701   4.611
  472XTA   HL1052819  32.199   2.488   4.573
  472XTA   HL1152820  32.312   2.599   4.490
  472XTA   HL1252821  32.222   2.625   4.770
  472XTA   HL1352822  32.290   2.764   4.689
  472XTA   HL1452823  32.426   2.516   4.706
  472XTA   HL1552824  32.506   2.668   4.669
  472XTA   HL1652825  32.572   2.515   4.932
  472XTA   HL1752826  32.625   2.644   4.835
  472XTA   HL1852827  32.383   2.665   5.121
  472XTA   HL1952828  32.494   2.719   5.253
  472XTA   HL2052829  32.498   2.444   5.102
  472XTA   HL2152830  32.451   2.481   5.269
  472XTA   HL2252831  32.616   2.499   5.221
  472XTA   HL2352832  32.644   3.806   4.723
  472XTA   HL2452833  32.619   3.876   4.567
  472XTA   HL2552834  32.832   3.915   4.719
  472XTA   HL2652835  32.889   3.760   4.691
  472XTA   HL2752836  32.865   3.815   4.433
  472XTA   HL2852837  32.820   3.974   4.479
  472XTA   HL2952838  33.052   3.981   4.433
  472XTA   HL3052839  33.044   3.991   4.608
  472XTA   HL3152840  33.215   3.849   4.549
  472XTA   HL3252841  33.092   3.781   4.652
  472XTA   HL3352842  32.986   3.661   4.452
  472XTA   HL3452843  33.110   3.731   4.339
  472XTA   HL3552844  33.071   3.481   4.316
  472XTA   HL3652845  33.014   3.460   4.473
  472XTA   HL3752846  33.290   3.225   4.594
  472XTA   HL3852847  33.156   3.330   4.648
  472XTA   HL3952848  33.444   3.370   4.633
  472XTA   HL4052849  33.322   3.468   4.734
  472XTA   HL4152850  33.373   3.503   4.574
  472XTA    CO852851  32.559   2.855   5.014
  472XTA    CO952852  32.726   2.698   5.089
  472XTA    OA652853  32.579   2.951   5.118
  472XTA   HL4252854  32.451   2.865   4.998
  472XTA   HL4352855  32.611   2.888   4.928
  472XTA   HL4452856  33.344   3.214   4.336
  472XTA   HL4552857  33.238   3.323   4.238
  472XTA   CO1052858  33.292   3.316   4.337
  472XTA   CO1152859  33.093   3.217   4.427
  472XTA    OA752860  33.389   3.420   4.345
  472XTA   HL4652861  33.160   3.124   4.412
  472XTA   HL4752862  33.047   3.231   4.329
  472XTA   HL4852863  32.764   2.594   5.063
  472XTA   HL4952864  32.785   2.760   5.035
  473XTA     NT52865  30.025  -0.245  -0.055
  473XTA    CN152866  29.926  -0.331  -0.022
  473XTA     C152867  29.929  -0.388   0.107
  473XTA     C252868  29.843  -0.497   0.137
  473XTA     C352869  29.755  -0.545   0.043
  473XTA     C452870  29.742  -0.477  -0.080
  473XTA     C552871  29.834  -0.379  -0.118
  473XTA    CN252872  30.153  -0.290  -0.053
  473XTA     C652873  30.195  -0.371  -0.155
  473XTA     C752874  30.323  -0.427  -0.149
  473XTA     C852875  30.406  -0.381  -0.041
  473XTA     C952876  30.360  -0.305   0.067
  473XTA    C1052877  30.235  -0.260   0.057
  473XTA    CN352878  30.001  -0.120  -0.092
  473XTA    C1152879  30.015  -0.076  -0.220
  473XTA    C1252880  30.004   0.056  -0.251
  473XTA    C1352881  29.952   0.146  -0.161
  473XTA    C1452882  29.928   0.103  -0.030
  473XTA    C1552883  29.953  -0.035   0.005
  473XTA     H152884  29.998  -0.351   0.189
  473XTA     H252885  29.855  -0.555   0.229
  473XTA     H352886  29.657  -0.511  -0.144
  473XTA     H452887  29.833  -0.334  -0.218
  473XTA     H552888  30.127  -0.400  -0.234
  473XTA     H652889  30.358  -0.497  -0.223
  473XTA     H752890  30.422  -0.270   0.142
  473XTA     H852891  30.187  -0.215   0.142
  473XTA     H952892  30.058  -0.135  -0.301
  473XTA    H1052893  30.023   0.086  -0.349
  473XTA    H1152894  29.886   0.177   0.040
  473XTA    H1252895  29.930  -0.067   0.107
  473XTA    OA152896  29.658  -0.646   0.060
  473XTA    CO152897  29.670  -0.712   0.191
  473XTA    OA252898  30.541  -0.423  -0.054
  473XTA    CO252899  30.632  -0.361   0.037
  473XTA    CL152900  30.770  -0.385  -0.023
  473XTA    CL252901  30.795  -0.346  -0.164
  473XTA    CL352902  30.945  -0.379  -0.183
  473XTA    CL452903  30.980  -0.365  -0.329
  473XTA    CO352904  31.124  -0.377  -0.346
  473XTA    OA352905  31.193  -0.262  -0.288
  473XTA    CO452906  31.330  -0.301  -0.265
  473XTA    CT152907  31.413  -0.184  -0.210
  473XTA    CL552908  31.565  -0.227  -0.217
  473XTA    CL652909  31.624  -0.269  -0.350
  473XTA    OA452910  29.927   0.270  -0.209
  473XTA    CO552911  29.869   0.365  -0.123
  473XTA    CL752912  29.828   0.488  -0.204
  473XTA    CL852913  29.800   0.604  -0.109
  473XTA    CL952914  29.788   0.743  -0.177
  473XTA   CL1052915  29.919   0.800  -0.224
  473XTA    CO652916  29.902   0.922  -0.327
  473XTA    OA552917  29.920   0.883  -0.462
  473XTA    CO752918  29.824   0.781  -0.509
  473XTA    CT252919  29.875   0.725  -0.642
  473XTA   CL1152920  29.971   0.607  -0.626
  473XTA   CL1252921  29.910   0.472  -0.580
  473XTA    HL152922  29.576  -0.770   0.204
  473XTA    HL252923  29.753  -0.780   0.195
  473XTA    HL352924  29.685  -0.641   0.266
  473XTA    HL452925  30.618  -0.253   0.046
  473XTA    HL552926  30.618  -0.405   0.132
  473XTA    HL652927  30.780  -0.492  -0.011
  473XTA    HL752928  30.853  -0.348   0.047
  473XTA    HL852929  30.770  -0.245  -0.197
  473XTA    HL952930  30.744  -0.417  -0.234
  473XTA   HL1052931  31.004  -0.309  -0.118
  473XTA   HL1152932  30.976  -0.475  -0.144
  473XTA   HL1252933  30.961  -0.274  -0.383
  473XTA   HL1352934  30.928  -0.448  -0.382
  473XTA   HL1452935  31.162  -0.472  -0.301
  473XTA   HL1552936  31.157  -0.381  -0.451
  473XTA   HL1652937  31.353  -0.396  -0.211
  473XTA   HL1752938  31.363  -0.314  -0.365
  473XTA   HL1852939  31.577  -0.313  -0.142
  473XTA   HL1952940  31.611  -0.136  -0.179
  473XTA   HL2052941  31.603  -0.203  -0.431
  473XTA   HL2152942  31.592  -0.369  -0.376
  473XTA   HL2252943  31.733  -0.264  -0.340
  473XTA   HL2352944  29.948   0.382  -0.045
  473XTA   HL2452945  29.788   0.313  -0.077
  473XTA   HL2552946  29.913   0.518  -0.263
  473XTA   HL2652947  29.741   0.478  -0.267
  473XTA   HL2752948  29.716   0.591  -0.033
  473XTA   HL2852949  29.886   0.614  -0.041
  473XTA   HL2952950  29.705   0.749  -0.250
  473XTA   HL3052951  29.747   0.803  -0.098
  473XTA   HL3152952  29.980   0.820  -0.136
  473XTA   HL3252953  29.978   0.719  -0.271
  473XTA   HL3352954  29.803   0.969  -0.322
  473XTA   HL3452955  29.974   1.002  -0.306
  473XTA   HL3552956  29.736   0.836  -0.515
  473XTA   HL3652957  29.808   0.706  -0.437
  473XTA   HL3752958  30.042   0.639  -0.552
  473XTA   HL3852959  30.032   0.601  -0.718
  473XTA   HL3952960  29.816   0.444  -0.623
  473XTA   HL4052961  29.881   0.471  -0.471
  473XTA   HL4152962  29.983   0.392  -0.591
  473XTA    CO852963  31.382  -0.156  -0.056
  473XTA    CO952964  31.390  -0.048  -0.288
  473XTA    OA652965  31.313   0.055  -0.223
  473XTA   HL4252966  31.454  -0.083  -0.019
  473XTA   HL4352967  31.284  -0.111  -0.042
  473XTA   HL4452968  29.917   0.931  -0.709
  473XTA   HL4552969  30.016   0.820  -0.803
  473XTA   CO1052970  29.919   0.835  -0.744
  473XTA   CO1152971  29.758   0.703  -0.739
  473XTA    OA752972  29.807   0.810  -0.823
  473XTA   HL4652973  29.756   0.613  -0.799
  473XTA   HL4752974  29.659   0.707  -0.688
  473XTA   HL4852975  31.348  -0.073  -0.387
  473XTA   HL4952976  31.493  -0.014  -0.298
  474XTA     NT52977  35.039   0.397  -0.085
  474XTA    CN152978  35.102   0.307  -0.163
  474XTA     C152979  35.238   0.294  -0.169
  474XTA     C252980  35.299   0.190  -0.246
  474XTA     C352981  35.221   0.111  -0.336
  474XTA     C452982  35.079   0.120  -0.321
  474XTA     C552983  35.021   0.217  -0.239
  474XTA    CN252984  35.068   0.395   0.049
  474XTA     C652985  34.998   0.309   0.139
  474XTA     C752986  35.024   0.311   0.274
  474XTA     C852987  35.125   0.403   0.319
  474XTA     C952988  35.191   0.490   0.235
  474XTA    C1052989  35.158   0.486   0.095
  474XTA    CN352990  34.976   0.508  -0.131
  474XTA    C1152991  34.875   0.564  -0.046
  474XTA    C1252992  34.809   0.680  -0.092
  474XTA    C1352993  34.860   0.754  -0.198
  474XTA    C1452994  34.969   0.709  -0.272
  474XTA    C1552995  35.022   0.579  -0.242
  474XTA     H152996  35.294   0.361  -0.111
  474XTA     H252997  35.401   0.159  -0.241
  474XTA     H352998  35.018   0.055  -0.384
  474XTA     H452999  34.910   0.224  -0.239
  474XTA     H553000  34.935   0.238   0.093
  474XTA     H653001  34.972   0.247   0.338
  474XTA     H753002  35.263   0.558   0.268
  474XTA     H853003  35.206   0.550   0.021
  474XTA     H953004  34.839   0.509   0.045
  474XTA    H1053005  34.727   0.708  -0.029
  474XTA    H1153006  34.997   0.755  -0.363
  474XTA    H1253007  35.104   0.537  -0.291
  474XTA    OA153008  35.268   0.004  -0.411
  474XTA    CO153009  35.411  -0.001  -0.425
  474XTA    OA253010  35.151   0.403   0.450
  474XTA    CO253011  35.284   0.439   0.504
  474XTA    CL153012  35.264   0.439   0.656
  474XTA    CL253013  35.343   0.551   0.724
  474XTA    CL353014  35.352   0.525   0.877
  474XTA    CL453015  35.221   0.522   0.945
  474XTA    CO353016  35.235   0.514   1.097
  474XTA    OA353017  35.338   0.595   1.156
  474XTA    CO453018  35.306   0.731   1.141
  474XTA    CT153019  35.407   0.830   1.210
  474XTA    CL553020  35.377   0.974   1.174
  474XTA    CL653021  35.242   1.033   1.209
  474XTA    OA453022  34.801   0.871  -0.220
  474XTA    CO553023  34.891   0.990  -0.217
  474XTA    CL753024  34.958   0.990  -0.080
  474XTA    CL853025  35.042   1.115  -0.048
  474XTA    CL953026  35.139   1.100   0.066
  474XTA   CL1053027  35.231   1.221   0.063
  474XTA    CO653028  35.176   1.359   0.089
  474XTA    OA553029  35.129   1.377   0.227
  474XTA    CO753030  35.232   1.435   0.309
  474XTA    CT253031  35.190   1.486   0.447
  474XTA   CL1153032  35.159   1.366   0.544
  474XTA   CL1253033  35.015   1.307   0.527
  474XTA    HL153034  35.457  -0.051  -0.345
  474XTA    HL253035  35.440  -0.047  -0.522
  474XTA    HL353036  35.451   0.095  -0.443
  474XTA    HL453037  35.361   0.363   0.471
  474XTA    HL553038  35.314   0.535   0.474
  474XTA    HL653039  35.292   0.350   0.706
  474XTA    HL753040  35.159   0.456   0.678
  474XTA    HL853041  35.306   0.653   0.711
  474XTA    HL953042  35.446   0.552   0.689
  474XTA   HL1053043  35.408   0.431   0.886
  474XTA   HL1153044  35.420   0.601   0.914
  474XTA   HL1253045  35.161   0.445   0.907
  474XTA   HL1353046  35.174   0.617   0.939
  474XTA   HL1453047  35.145   0.539   1.151
  474XTA   HL1553048  35.256   0.409   1.121
  474XTA   HL1653049  35.300   0.745   1.037
  474XTA   HL1753050  35.202   0.754   1.182
  474XTA   HL1853051  35.376   0.993   1.068
  474XTA   HL1953052  35.452   1.034   1.218
  474XTA   HL2053053  35.253   1.038   1.314
  474XTA   HL2153054  35.151   0.976   1.181
  474XTA   HL2253055  35.234   1.133   1.168
  474XTA   HL2353056  34.834   1.081  -0.229
  474XTA   HL2453057  34.971   0.984  -0.293
  474XTA   HL2553058  34.896   0.969   0.005
  474XTA   HL2653059  35.023   0.898  -0.075
  474XTA   HL2753060  35.096   1.143  -0.140
  474XTA   HL2853061  34.967   1.187  -0.021
  474XTA   HL2953062  35.086   1.087   0.165
  474XTA   HL3053063  35.194   1.005   0.054
  474XTA   HL3153064  35.312   1.206   0.140
  474XTA   HL3253065  35.283   1.220  -0.027
  474XTA   HL3353066  35.257   1.422   0.061
  474XTA   HL3453067  35.087   1.380   0.031
  474XTA   HL3553068  35.260   1.518   0.263
  474XTA   HL3653069  35.325   1.375   0.309
  474XTA   HL3753070  35.180   1.397   0.646
  474XTA   HL3853071  35.231   1.288   0.517
  474XTA   HL3953072  35.007   1.240   0.450
  474XTA   HL4053073  34.944   1.394   0.534
  474XTA   HL4153074  34.983   1.252   0.616
  474XTA    CO853075  35.550   0.780   1.161
  474XTA    CO953076  35.423   0.815   1.363
  474XTA    OA653077  35.433   0.713   1.394
  474XTA   HL4253078  35.559   0.670   1.184
  474XTA   HL4353079  35.652   0.827   1.246
  474XTA   HL4453080  35.008   1.585   0.577
  474XTA   HL4553081  34.982   1.536   0.387
  474XTA   CO1053082  35.066   1.579   0.446
  474XTA   CO1153083  35.308   1.572   0.499
  474XTA    OA753084  35.394   1.509   0.513
  474XTA   HL4653085  35.333   1.640   0.421
  474XTA   HL4753086  35.271   1.634   0.579
  474XTA   HL4853087  35.327   0.841   1.407
  474XTA   HL4953088  35.489   0.884   1.416
  475XTA     NT53089  34.081   1.045   2.240
  475XTA    CN153090  34.117   1.133   2.334
  475XTA     C153091  34.065   1.264   2.331
  475XTA     C253092  34.093   1.355   2.435
  475XTA     C353093  34.191   1.321   2.537
  475XTA     C453094  34.248   1.195   2.537
  475XTA     C553095  34.210   1.101   2.434
  475XTA    CN253096  34.175   0.989   2.161
  475XTA     C653097  34.199   1.040   2.033
  475XTA     C753098  34.305   0.982   1.958
  475XTA     C853099  34.374   0.871   2.013
  475XTA     C953100  34.328   0.810   2.126
  475XTA    C1053101  34.234   0.870   2.210
  475XTA    CN353102  33.950   1.011   2.232
  475XTA    C1153103  33.898   0.925   2.332
  475XTA    C1253104  33.760   0.896   2.330
  475XTA    C1353105  33.675   0.950   2.233
  475XTA    C1453106  33.723   1.043   2.136
  475XTA    C1553107  33.862   1.078   2.140
  475XTA     H153108  33.989   1.297   2.262
  475XTA     H253109  34.033   1.445   2.441
  475XTA     H353110  34.303   1.155   2.618
  475XTA     H453111  34.244   0.992   2.433
  475XTA     H553112  34.149   1.124   1.991
  475XTA     H653113  34.332   1.027   1.862
  475XTA     H753114  34.369   0.716   2.159
  475XTA     H853115  34.211   0.826   2.302
  475XTA     H953116  33.968   0.894   2.408
  475XTA    H1053117  33.725   0.816   2.398
  475XTA    H1153118  33.663   1.077   2.053
  475XTA    H1253119  33.902   1.148   2.067
  475XTA    OA153120  34.200   1.404   2.641
  475XTA    CO153121  34.313   1.486   2.649
  475XTA    OA253122  34.473   0.800   1.948
  475XTA    CO253123  34.535   0.863   1.838
  475XTA    CL153124  34.660   0.776   1.813
  475XTA    CL253125  34.758   0.757   1.932
  475XTA    CL353126  34.889   0.692   1.893
  475XTA    CL453127  34.867   0.543   1.854
  475XTA    CO353128  34.993   0.463   1.828
  475XTA    OA353129  35.067   0.448   1.950
  475XTA    CO453130  35.198   0.404   1.937
  475XTA    CT153131  35.248   0.377   2.083
  475XTA    CL553132  35.192   0.244   2.153
  475XTA    CL653133  35.182   0.130   2.058
  475XTA    OA453134  33.539   0.901   2.237
  475XTA    CO553135  33.484   0.893   2.107
  475XTA    CL753136  33.382   0.783   2.117
  475XTA    CL853137  33.308   0.758   1.978
  475XTA    CL953138  33.230   0.876   1.926
  475XTA   CL1053139  33.081   0.855   1.945
  475XTA    CO653140  33.026   0.853   2.094
  475XTA    OA553141  33.085   0.962   2.160
  475XTA    CO753142  33.069   0.947   2.298
  475XTA    CT253143  33.121   1.066   2.377
  475XTA   CL1153144  33.081   1.190   2.305
  475XTA   CL1253145  33.108   1.328   2.369
  475XTA    HL153146  34.308   1.566   2.729
  475XTA    HL253147  34.402   1.427   2.681
  475XTA    HL353148  34.332   1.536   2.558
  475XTA    HL453149  34.471   0.858   1.748
  475XTA    HL553150  34.551   0.969   1.853
  475XTA    HL653151  34.708   0.802   1.719
  475XTA    HL753152  34.615   0.680   1.803
  475XTA    HL853153  34.705   0.717   2.019
  475XTA    HL953154  34.787   0.856   1.975
  475XTA   HL1053155  34.940   0.754   1.820
  475XTA   HL1153156  34.948   0.684   1.984
  475XTA   HL1253157  34.792   0.527   1.782
  475XTA   HL1353158  34.828   0.491   1.938
  475XTA   HL1453159  34.964   0.363   1.788
  475XTA   HL1553160  35.061   0.521   1.753
  475XTA   HL1653161  35.208   0.315   1.870
  475XTA   HL1753162  35.259   0.490   1.897
  475XTA   HL1853163  35.103   0.267   2.208
  475XTA   HL1953164  35.255   0.213   2.237
  475XTA   HL2053165  35.182   0.039   2.121
  475XTA   HL2153166  35.285   0.124   2.010
  475XTA   HL2253167  35.104   0.127   1.980
  475XTA   HL2353168  33.560   0.835   2.042
  475XTA   HL2453169  33.439   0.980   2.067
  475XTA   HL2553170  33.433   0.695   2.144
  475XTA   HL2653171  33.303   0.809   2.190
  475XTA   HL2753172  33.376   0.727   1.903
  475XTA   HL2853173  33.235   0.677   1.983
  475XTA   HL2953174  33.252   0.973   1.977
  475XTA   HL3053175  33.245   0.892   1.816
  475XTA   HL3153176  33.043   0.944   1.895
  475XTA   HL3253177  33.043   0.770   1.890
  475XTA   HL3353178  32.924   0.863   2.090
  475XTA   HL3453179  33.061   0.765   2.145
  475XTA   HL3553180  33.123   0.855   2.326
  475XTA   HL3653181  32.970   0.920   2.335
  475XTA   HL3753182  32.979   1.184   2.261
  475XTA   HL3853183  33.134   1.201   2.212
  475XTA   HL3953184  33.199   1.369   2.341
  475XTA   HL4053185  33.106   1.339   2.481
  475XTA   HL4153186  33.030   1.401   2.334
  475XTA    CO853187  35.196   0.484   2.180
  475XTA    CO953188  35.400   0.390   2.086
  475XTA    OA653189  35.243   0.461   2.311
  475XTA   HL4253190  35.089   0.470   2.194
  475XTA   HL4353191  35.216   0.582   2.140
  475XTA   HL4453192  33.295   0.945   2.418
  475XTA   HL4553193  33.322   1.081   2.304
  475XTA   CO1053194  33.274   1.052   2.396
  475XTA   CO1153195  33.057   1.069   2.515
  475XTA    OA753196  33.311   1.121   2.483
  475XTA   HL4653197  33.135   1.146   2.610
  475XTA   HL4753198  33.054   0.962   2.556
  475XTA   HL4853199  35.434   0.482   2.078
  475XTA   HL4953200  35.431   0.373   2.190
  476XTA     NT53201  33.103   3.539   2.155
  476XTA    CN153202  33.161   3.462   2.060
  476XTA     C153203  33.098   3.348   2.005
  476XTA     C253204  33.156   3.281   1.899
  476XTA     C353205  33.291   3.300   1.862
  476XTA     C453206  33.359   3.402   1.935
  476XTA     C553207  33.295   3.483   2.026
  476XTA    CN253208  33.038   3.657   2.134
  476XTA     C653209  33.091   3.777   2.179
  476XTA     C753210  33.023   3.894   2.142
  476XTA     C853211  32.888   3.891   2.101
  476XTA     C953212  32.838   3.767   2.058
  476XTA    C1053213  32.913   3.649   2.068
  476XTA    CN353214  33.090   3.488   2.280
  476XTA    C1153215  32.970   3.432   2.313
  476XTA    C1253216  32.952   3.385   2.451
  476XTA    C1353217  33.061   3.394   2.543
  476XTA    C1453218  33.174   3.471   2.503
  476XTA    C1553219  33.182   3.526   2.376
  476XTA     H153220  32.998   3.319   2.043
  476XTA     H253221  33.110   3.206   1.840
  476XTA     H353222  33.455   3.429   1.903
  476XTA     H453223  33.351   3.570   2.070
  476XTA     H553224  33.186   3.774   2.228
  476XTA     H653225  33.057   3.992   2.174
  476XTA     H753226  32.734   3.767   2.024
  476XTA     H853227  32.872   3.567   2.019
  476XTA     H953228  32.886   3.420   2.245
  476XTA    H1053229  32.863   3.341   2.486
  476XTA    H1153230  33.254   3.484   2.572
  476XTA    H1253231  33.258   3.586   2.344
  476XTA    OA153232  33.357   3.219   1.768
  476XTA    CO153233  33.473   3.270   1.719
  476XTA    OA253234  32.812   4.008   2.099
  476XTA    CO253235  32.668   4.005   2.117
  476XTA    CL153236  32.594   3.992   1.979
  476XTA    CL253237  32.629   4.118   1.893
  476XTA    CL353238  32.550   4.121   1.767
  476XTA    CL453239  32.582   4.023   1.661
  476XTA    CO353240  32.723   4.010   1.610
  476XTA    OA353241  32.698   3.930   1.485
  476XTA    CO453242  32.810   3.935   1.401
  476XTA    CT153243  32.778   3.835   1.288
  476XTA    CL553244  32.889   3.837   1.176
  476XTA    CL653245  32.868   3.945   1.076
  476XTA    OA453246  33.060   3.341   2.671
  476XTA    CO553247  32.954   3.258   2.712
  476XTA    CL753248  32.946   3.136   2.622
  476XTA    CL853249  32.859   3.034   2.704
  476XTA    CL953250  32.807   2.919   2.613
  476XTA   CL1053251  32.919   2.838   2.549
  476XTA    CO653252  33.012   2.770   2.646
  476XTA    OA553253  33.104   2.685   2.580
  476XTA    CO753254  33.184   2.616   2.673
  476XTA    CT253255  33.281   2.524   2.596
  476XTA   CL1153256  33.358   2.440   2.701
  476XTA   CL1253257  33.429   2.509   2.819
  476XTA    HL153258  33.547   3.286   1.797
  476XTA    HL253259  33.536   3.208   1.657
  476XTA    HL353260  33.440   3.362   1.672
  476XTA    HL453261  32.649   3.919   2.178
  476XTA    HL553262  32.641   4.095   2.175
  476XTA    HL653263  32.487   3.982   1.990
  476XTA    HL753264  32.633   3.894   1.932
  476XTA    HL853265  32.735   4.104   1.867
  476XTA    HL953266  32.616   4.205   1.954
  476XTA   HL1053267  32.443   4.117   1.779
  476XTA   HL1153268  32.578   4.215   1.716
  476XTA   HL1253269  32.517   4.055   1.577
  476XTA   HL1353270  32.546   3.927   1.692
  476XTA   HL1453271  32.770   4.104   1.588
  476XTA   HL1553272  32.784   3.961   1.675
  476XTA   HL1653273  32.836   4.033   1.359
  476XTA   HL1753274  32.892   3.899   1.453
  476XTA   HL1853275  32.911   3.737   1.138
  476XTA   HL1953276  32.982   3.864   1.222
  476XTA   HL2053277  32.880   4.049   1.113
  476XTA   HL2153278  32.775   3.942   1.018
  476XTA   HL2253279  32.951   3.932   1.000
  476XTA   HL2353280  32.858   3.308   2.720
  476XTA   HL2453281  32.977   3.229   2.807
  476XTA   HL2553282  32.910   3.169   2.529
  476XTA   HL2653283  33.048   3.092   2.624
  476XTA   HL2753284  32.917   2.988   2.782
  476XTA   HL2853285  32.776   3.081   2.762
  476XTA   HL2953286  32.747   2.855   2.678
  476XTA   HL3053287  32.733   2.962   2.538
  476XTA   HL3153288  32.880   2.765   2.482
  476XTA   HL3253289  32.984   2.908   2.496
  476XTA   HL3353290  33.074   2.836   2.706
  476XTA   HL3453291  32.946   2.709   2.708
  476XTA   HL3553292  33.117   2.562   2.740
  476XTA   HL3653293  33.236   2.691   2.734
  476XTA   HL3753294  33.446   2.391   2.650
  476XTA   HL3853295  33.298   2.358   2.738
  476XTA   HL3953296  33.506   2.570   2.772
  476XTA   HL4053297  33.479   2.446   2.890
  476XTA   HL4153298  33.385   2.590   2.880
  476XTA    CO853299  32.636   3.868   1.234
  476XTA    CO953300  32.769   3.694   1.351
  476XTA    OA653301  32.875   3.662   1.383
  476XTA   HL4253302  32.562   3.879   1.311
  476XTA   HL4353303  32.629   3.998   1.184
  476XTA   HL4453304  33.328   2.706   2.436
  476XTA   HL4553305  33.455   2.666   2.583
  476XTA   CO1053306  33.388   2.609   2.518
  476XTA   CO1153307  33.202   2.424   2.502
  476XTA    OA753308  33.122   2.366   2.550
  476XTA   HL4653309  33.161   2.488   2.420
  476XTA   HL4753310  33.280   2.353   2.468
  476XTA   HL4853311  32.724   3.627   1.274
  476XTA   HL4953312  32.705   3.696   1.439
  477XTA     NT53313  29.655   2.948   3.401
  477XTA    CN153314  29.635   3.077   3.441
  477XTA     C153315  29.675   3.120   3.568
  477XTA     C253316  29.671   3.256   3.601
  477XTA     C353317  29.643   3.348   3.500
  477XTA     C453318  29.591   3.306   3.382
  477XTA     C553319  29.591   3.170   3.348
  477XTA    CN253320  29.773   2.906   3.355
  477XTA     C653321  29.833   2.960   3.240
  477XTA     C753322  29.964   2.932   3.208
  477XTA     C853323  30.030   2.828   3.282
  477XTA     C953324  29.983   2.785   3.408
  477XTA    C1053325  29.852   2.829   3.440
  477XTA    CN353326  29.558   2.858   3.386
  477XTA    C1153327  29.499   2.843   3.257
  477XTA    C1253328  29.417   2.735   3.235
  477XTA    C1353329  29.384   2.647   3.337
  477XTA    C1453330  29.430   2.665   3.472
  477XTA    C1553331  29.522   2.767   3.491
  477XTA     H153332  29.720   3.054   3.639
  477XTA     H253333  29.710   3.284   3.701
  477XTA     H353334  29.565   3.375   3.304
  477XTA     H453335  29.556   3.149   3.253
  477XTA     H553336  29.772   3.028   3.180
  477XTA     H653337  29.990   2.963   3.102
  477XTA     H753338  30.039   2.715   3.471
  477XTA     H853339  29.803   2.806   3.533
  477XTA     H953340  29.514   2.919   3.178
  477XTA    H1053341  29.377   2.713   3.136
  477XTA    H1153342  29.422   2.590   3.552
  477XTA    H1253343  29.571   2.773   3.584
  477XTA    OA153344  29.644   3.480   3.530
  477XTA    CO153345  29.700   3.556   3.425
  477XTA    OA253346  30.156   2.802   3.242
  477XTA    CO253347  30.219   2.683   3.277
  477XTA    CL153348  30.290   2.620   3.160
  477XTA    CL253349  30.349   2.478   3.186
  477XTA    CL353350  30.246   2.359   3.181
  477XTA    CL453351  30.304   2.225   3.231
  477XTA    CO353352  30.199   2.111   3.218
  477XTA    OA353353  30.167   2.090   3.082
  477XTA    CO453354  30.054   2.006   3.056
  477XTA    CT153355  30.032   1.971   2.902
  477XTA    CL553356  30.143   1.878   2.854
  477XTA    CL653357  30.127   1.733   2.902
  477XTA    OA453358  29.324   2.523   3.311
  477XTA    CO553359  29.221   2.519   3.212
  477XTA    CL753360  29.259   2.436   3.094
  477XTA    CL853361  29.393   2.458   3.037
  477XTA    CL953362  29.432   2.355   2.933
  477XTA   CL1053363  29.562   2.390   2.870
  477XTA    CO653364  29.600   2.276   2.771
  477XTA    OA553365  29.716   2.296   2.697
  477XTA    CO753366  29.742   2.190   2.608
  477XTA    CT253367  29.865   2.216   2.511
  477XTA   CL1153368  29.840   2.347   2.435
  477XTA   CL1253369  29.950   2.387   2.340
  477XTA    HL153370  29.721   3.658   3.454
  477XTA    HL253371  29.789   3.505   3.388
  477XTA    HL353372  29.631   3.566   3.339
  477XTA    HL453373  30.286   2.694   3.363
  477XTA    HL553374  30.139   2.613   3.303
  477XTA    HL653375  30.379   2.669   3.122
  477XTA    HL753376  30.231   2.605   3.072
  477XTA    HL853377  30.418   2.473   3.266
  477XTA    HL953378  30.410   2.461   3.100
  477XTA   HL1053379  30.154   2.389   3.227
  477XTA   HL1153380  30.214   2.349   3.078
  477XTA   HL1253381  30.350   2.220   3.331
  477XTA   HL1353382  30.385   2.202   3.160
  477XTA   HL1453383  30.226   2.010   3.259
  477XTA   HL1553384  30.109   2.143   3.268
  477XTA   HL1653385  30.060   1.920   3.116
  477XTA   HL1753386  29.966   2.068   3.093
  477XTA   HL1853387  30.238   1.930   2.879
  477XTA   HL1953388  30.142   1.877   2.748
  477XTA   HL2053389  30.035   1.686   2.865
  477XTA   HL2153390  30.143   1.713   3.006
  477XTA   HL2253391  30.198   1.664   2.856
  477XTA   HL2353392  29.196   2.615   3.178
  477XTA   HL2453393  29.135   2.473   3.260
  477XTA   HL2553394  29.242   2.336   3.134
  477XTA   HL2653395  29.184   2.453   3.014
  477XTA   HL2753396  29.378   2.549   2.980
  477XTA   HL2853397  29.479   2.477   3.102
  477XTA   HL2953398  29.430   2.256   2.979
  477XTA   HL3053399  29.355   2.359   2.851
  477XTA   HL3153400  29.563   2.485   2.818
  477XTA   HL3253401  29.638   2.403   2.954
  477XTA   HL3353402  29.616   2.189   2.837
  477XTA   HL3453403  29.504   2.264   2.708
  477XTA   HL3553404  29.658   2.197   2.544
  477XTA   HL3653405  29.725   2.080   2.643
  477XTA   HL3753406  29.815   2.433   2.494
  477XTA   HL3853407  29.758   2.333   2.374
  477XTA   HL3953408  30.036   2.426   2.389
  477XTA   HL4053409  29.921   2.467   2.278
  477XTA   HL4153410  29.989   2.307   2.268
  477XTA    CO853411  30.034   2.107   2.832
  477XTA    CO953412  29.884   1.918   2.882
  477XTA    OA653413  29.846   1.859   2.966
  477XTA   HL4253414  29.949   2.170   2.870
  477XTA   HL4353415  30.162   2.165   2.838
  477XTA   HL4453416  29.915   2.011   2.476
  477XTA   HL4553417  29.970   2.110   2.351
  477XTA   CO1053418  29.882   2.096   2.417
  477XTA   CO1153419  29.991   2.223   2.610
  477XTA    OA753420  30.010   2.106   2.685
  477XTA   HL4653421  30.080   2.257   2.555
  477XTA   HL4753422  29.967   2.297   2.691
  477XTA   HL4853423  29.884   1.859   2.794
  477XTA   HL4953424  29.817   2.002   2.856
  478XTA     NT53425  27.042   6.153   0.471
  478XTA    CN153426  26.966   6.135   0.359
  478XTA     C153427  26.832   6.183   0.365
  478XTA     C253428  26.755   6.192   0.246
  478XTA     C353429  26.801   6.123   0.133
  478XTA     C453430  26.929   6.063   0.132
  478XTA     C553431  27.008   6.071   0.244
  478XTA    CN253432  27.070   6.052   0.559
  478XTA     C653433  27.199   6.045   0.622
  478XTA     C753434  27.220   5.949   0.726
  478XTA     C853435  27.119   5.854   0.762
  478XTA     C953436  26.998   5.867   0.700
  478XTA    C1053437  26.967   5.959   0.597
  478XTA    CN353438  27.053   6.277   0.518
  478XTA    C1153439  26.983   6.329   0.632
  478XTA    C1253440  27.015   6.448   0.700
  478XTA    C1353441  27.116   6.531   0.638
  478XTA    C1453442  27.179   6.488   0.516
  478XTA    C1553443  27.149   6.360   0.462
  478XTA     H153444  26.796   6.229   0.458
  478XTA     H253445  26.652   6.228   0.250
  478XTA     H353446  26.961   5.999   0.040
  478XTA     H453447  27.111   6.029   0.238
  478XTA     H553448  27.274   6.121   0.608
  478XTA     H653449  27.316   5.944   0.778
  478XTA     H753450  26.919   5.793   0.730
  478XTA     H853451  26.865   5.953   0.563
  478XTA     H953452  26.918   6.254   0.676
  478XTA    H1053453  26.960   6.473   0.790
  478XTA    H1153454  27.240   6.547   0.454
  478XTA    H1253455  27.204   6.327   0.374
  478XTA    OA153456  26.724   6.125   0.018
  478XTA    CO153457  26.736   6.010  -0.069
  478XTA    OA253458  27.137   5.754   0.857
  478XTA    CO253459  27.272   5.740   0.908
  478XTA    CL153460  27.271   5.605   0.983
  478XTA    CL253461  27.405   5.539   1.014
  478XTA    CL353462  27.394   5.414   1.107
  478XTA    CL453463  27.357   5.440   1.258
  478XTA    CO353464  27.322   5.306   1.329
  478XTA    OA353465  27.201   5.270   1.261
  478XTA    CO453466  27.145   5.152   1.292
  478XTA    CT153467  27.002   5.141   1.236
  478XTA    CL553468  26.947   5.003   1.285
  478XTA    CL653469  26.982   4.881   1.204
  478XTA    OA453470  27.134   6.656   0.693
  478XTA    CO553471  27.255   6.714   0.663
  478XTA    CL753472  27.253   6.857   0.730
  478XTA    CL853473  27.124   6.936   0.697
  478XTA    CL953474  27.118   7.064   0.770
  478XTA   CL1053475  27.119   7.040   0.923
  478XTA    CO653476  27.007   6.950   0.978
  478XTA    OA553477  27.010   6.944   1.122
  478XTA    CO753478  26.917   6.843   1.173
  478XTA    CT253479  26.911   6.855   1.327
  478XTA   CL1153480  26.794   6.776   1.398
  478XTA   CL1253481  26.775   6.626   1.358
  478XTA    HL153482  26.651   6.013  -0.139
  478XTA    HL253483  26.826   6.013  -0.124
  478XTA    HL353484  26.741   5.916  -0.019
  478XTA    HL453485  27.341   5.739   0.824
  478XTA    HL553486  27.307   5.821   0.974
  478XTA    HL653487  27.221   5.538   0.914
  478XTA    HL753488  27.204   5.620   1.063
  478XTA    HL853489  27.463   5.605   1.078
  478XTA    HL953490  27.475   5.518   0.928
  478XTA   HL1053491  27.327   5.336   1.069
  478XTA   HL1153492  27.498   5.368   1.101
  478XTA   HL1253493  27.261   5.493   1.259
  478XTA   HL1353494  27.433   5.499   1.316
  478XTA   HL1453495  27.396   5.232   1.311
  478XTA   HL1553496  27.307   5.303   1.437
  478XTA   HL1653497  27.217   5.068   1.254
  478XTA   HL1753498  27.134   5.136   1.402
  478XTA   HL1853499  26.837   5.010   1.295
  478XTA   HL1953500  26.984   4.989   1.381
  478XTA   HL2053501  27.083   4.856   1.185
  478XTA   HL2153502  26.942   4.890   1.098
  478XTA   HL2253503  26.937   4.792   1.253
  478XTA   HL2353504  27.268   6.724   0.553
  478XTA   HL2453505  27.346   6.663   0.699
  478XTA   HL2553506  27.252   6.852   0.834
  478XTA   HL2653507  27.340   6.921   0.704
  478XTA   HL2753508  27.118   6.966   0.591
  478XTA   HL2853509  27.044   6.879   0.719
  478XTA   HL2953510  27.208   7.119   0.733
  478XTA   HL3053511  27.036   7.120   0.732
  478XTA   HL3153512  27.218   7.001   0.952
  478XTA   HL3253513  27.116   7.140   0.976
  478XTA   HL3353514  26.907   6.988   0.939
  478XTA   HL3453515  27.010   6.852   0.942
  478XTA   HL3553516  26.934   6.741   1.139
  478XTA   HL3653517  26.815   6.879   1.135
  478XTA   HL3753518  26.692   6.812   1.366
  478XTA   HL3853519  26.800   6.778   1.509
  478XTA   HL3953520  26.865   6.566   1.381
  478XTA   HL4053521  26.749   6.602   1.251
  478XTA   HL4153522  26.684   6.592   1.414
  478XTA    CO853523  26.997   5.167   1.082
  478XTA    CO953524  26.938   5.266   1.300
  478XTA    OA653525  27.060   5.099   1.021
  478XTA   HL4253526  27.039   5.268   1.072
  478XTA   HL4353527  26.892   5.176   1.051
  478XTA   HL4453528  26.938   7.099   1.271
  478XTA   HL4553529  26.936   7.028   1.467
  478XTA   CO1053530  26.887   7.010   1.371
  478XTA   CO1153531  27.046   6.807   1.382
  478XTA    OA753532  27.060   6.705   1.353
  478XTA   HL4653533  27.130   6.876   1.356
  478XTA   HL4753534  27.033   6.824   1.495
  478XTA   HL4853535  27.011   5.390   1.276
  478XTA   HL4953536  26.944   5.243   1.404
  479XTA     NT53537  29.207  -0.538   0.301
  479XTA    CN153538  29.250  -0.668   0.327
  479XTA     C153539  29.190  -0.779   0.264
  479XTA     C253540  29.233  -0.906   0.293
  479XTA     C353541  29.328  -0.931   0.390
  479XTA     C453542  29.391  -0.818   0.451
  479XTA     C553543  29.351  -0.686   0.423
  479XTA    CN253544  29.285  -0.461   0.223
  479XTA     C653545  29.345  -0.347   0.277
  479XTA     C753546  29.424  -0.257   0.204
  479XTA     C853547  29.457  -0.287   0.073
  479XTA     C953548  29.408  -0.407   0.020
  479XTA    C1053549  29.324  -0.491   0.091
  479XTA    CN353550  29.077  -0.513   0.306
  479XTA    C1153551  29.006  -0.526   0.427
  479XTA    C1253552  28.864  -0.510   0.429
  479XTA    C1353553  28.799  -0.460   0.317
  479XTA    C1453554  28.867  -0.442   0.195
  479XTA    C1553555  29.009  -0.467   0.192
  479XTA     H153556  29.121  -0.761   0.187
  479XTA     H253557  29.175  -0.990   0.252
  479XTA     H353558  29.477  -0.839   0.499
  479XTA     H453559  29.399  -0.599   0.467
  479XTA     H553560  29.323  -0.332   0.383
  479XTA     H653561  29.468  -0.177   0.265
  479XTA     H753562  29.437  -0.444  -0.074
  479XTA     H853563  29.277  -0.580   0.055
  479XTA     H953564  29.075  -0.556   0.506
  479XTA    H1053565  28.818  -0.533   0.520
  479XTA    H1153566  28.822  -0.403   0.105
  479XTA    H1253567  29.063  -0.435   0.097
  479XTA    OA153568  29.355  -1.067   0.419
  479XTA    CO153569  29.438  -1.076   0.528
  479XTA    OA253570  29.542  -0.219  -0.003
  479XTA    CO253571  29.564  -0.087   0.027
  479XTA    CL153572  29.609  -0.012  -0.097
  479XTA    CL253573  29.500  -0.005  -0.208
  479XTA    CL353574  29.391   0.094  -0.179
  479XTA    CL453575  29.318   0.146  -0.300
  479XTA    CO353576  29.242   0.036  -0.380
  479XTA    OA353577  29.158  -0.040  -0.301
  479XTA    CO453578  29.080  -0.131  -0.369
  479XTA    CT153579  29.007  -0.217  -0.261
  479XTA    CL553580  28.902  -0.285  -0.333
  479XTA    CL653581  28.827  -0.390  -0.252
  479XTA    OA453582  28.662  -0.429   0.324
  479XTA    CO553583  28.623  -0.328   0.234
  479XTA    CL753584  28.479  -0.281   0.261
  479XTA    CL853585  28.400  -0.234   0.143
  479XTA    CL953586  28.470  -0.112   0.075
  479XTA   CL1053587  28.470   0.023   0.155
  479XTA    CO653588  28.499   0.138   0.058
  479XTA    OA553589  28.635   0.151   0.025
  479XTA    CO753590  28.650   0.180  -0.109
  479XTA    CT253591  28.795   0.200  -0.162
  479XTA   CL1153592  28.857   0.329  -0.096
  479XTA   CL1253593  28.775   0.460  -0.119
  479XTA    HL153594  29.420  -1.021   0.617
  479XTA    HL253595  29.448  -1.183   0.560
  479XTA    HL353596  29.536  -1.034   0.492
  479XTA    HL453597  29.468  -0.043   0.065
  479XTA    HL553598  29.625  -0.063   0.114
  479XTA    HL653599  29.693  -0.057  -0.145
  479XTA    HL753600  29.633   0.087  -0.068
  479XTA    HL853601  29.464  -0.105  -0.239
  479XTA    HL953602  29.553   0.033  -0.296
  479XTA   HL1053603  29.316   0.045  -0.120
  479XTA   HL1153604  29.414   0.179  -0.119
  479XTA   HL1253605  29.384   0.195  -0.366
  479XTA   HL1353606  29.241   0.212  -0.265
  479XTA   HL1453607  29.188   0.071  -0.463
  479XTA   HL1553608  29.319  -0.017  -0.430
  479XTA   HL1653609  29.008  -0.076  -0.439
  479XTA   HL1753610  29.139  -0.203  -0.421
  479XTA   HL1853611  28.934  -0.316  -0.440
  479XTA   HL1953612  28.829  -0.213  -0.366
  479XTA   HL2053613  28.793  -0.362  -0.152
  479XTA   HL2153614  28.884  -0.479  -0.234
  479XTA   HL2253615  28.742  -0.413  -0.311
  479XTA   HL2353616  28.626  -0.372   0.138
  479XTA   HL2453617  28.686  -0.239   0.230
  479XTA   HL2553618  28.418  -0.363   0.301
  479XTA   HL2653619  28.465  -0.208   0.334
  479XTA   HL2753620  28.376  -0.304   0.063
  479XTA   HL2853621  28.297  -0.214   0.179
  479XTA   HL2953622  28.569  -0.124   0.039
  479XTA   HL3053623  28.405  -0.096  -0.015
  479XTA   HL3153624  28.375   0.048   0.207
  479XTA   HL3253625  28.551   0.018   0.234
  479XTA   HL3353626  28.439   0.121  -0.034
  479XTA   HL3453627  28.486   0.232   0.113
  479XTA   HL3553628  28.580   0.251  -0.153
  479XTA   HL3653629  28.624   0.082  -0.149
  479XTA   HL3753630  28.959   0.337  -0.129
  479XTA   HL3853631  28.859   0.315   0.009
  479XTA   HL3953632  28.833   0.550  -0.082
  479XTA   HL4053633  28.669   0.463  -0.081
  479XTA   HL4153634  28.769   0.479  -0.230
  479XTA    CO853635  28.949  -0.130  -0.142
  479XTA    CO953636  29.099  -0.314  -0.187
  479XTA    OA653637  28.855  -0.035  -0.185
  479XTA   HL4253638  29.034  -0.079  -0.103
  479XTA   HL4353639  28.919  -0.194  -0.057
  479XTA   HL4453640  28.924   0.215  -0.329
  479XTA   HL4553641  28.773   0.129  -0.359
  479XTA   CO1053642  28.815   0.217  -0.310
  479XTA   CO1153643  28.878   0.086  -0.112
  479XTA    OA753644  28.762   0.293  -0.364
  479XTA   HL4653645  28.845   0.056   0.023
  479XTA   HL4753646  28.979   0.122  -0.122
  479XTA   HL4853647  29.050  -0.373  -0.103
  479XTA   HL4953648  29.178  -0.260  -0.140
  480XTA     NT53649  28.912  -0.350   7.056
  480XTA    CN153650  28.953  -0.461   7.120
  480XTA     C153651  28.926  -0.479   7.256
  480XTA     C253652  28.966  -0.599   7.317
  480XTA     C353653  29.022  -0.708   7.247
  480XTA     C453654  29.043  -0.691   7.108
  480XTA     C553655  29.016  -0.568   7.049
  480XTA    CN253656  28.780  -0.333   7.039
  480XTA     C653657  28.717  -0.239   7.128
  480XTA     C753658  28.579  -0.224   7.128
  480XTA     C853659  28.497  -0.298   7.047
  480XTA     C953660  28.559  -0.404   6.969
  480XTA    C1053661  28.702  -0.417   6.962
  480XTA    CN353662  29.000  -0.276   6.985
  480XTA    C1153663  29.027  -0.295   6.846
  480XTA    C1253664  29.128  -0.225   6.786
  480XTA    C1353665  29.200  -0.123   6.853
  480XTA    C1453666  29.172  -0.100   6.986
  480XTA    C1553667  29.076  -0.175   7.053
  480XTA     H153668  28.882  -0.395   7.314
  480XTA     H253669  28.953  -0.615   7.427
  480XTA     H353670  29.073  -0.773   7.042
  480XTA     H453671  29.023  -0.549   6.940
  480XTA     H553672  28.778  -0.175   7.190
  480XTA     H653673  28.550  -0.134   7.185
  480XTA     H753674  28.496  -0.472   6.910
  480XTA     H853675  28.744  -0.504   6.926
  480XTA     H953676  28.967  -0.359   6.789
  480XTA    H1053677  29.144  -0.238   6.674
  480XTA    H1153678  29.220  -0.020   7.034
  480XTA    H1253679  29.057  -0.155   7.152
  480XTA    OA153680  29.048  -0.821   7.314
  480XTA    CO153681  29.065  -0.945   7.244
  480XTA    OA253682  28.355  -0.285   7.045
  480XTA    CO253683  28.301  -0.192   7.132
  480XTA    CL153684  28.148  -0.224   7.136
  480XTA    CL253685  28.081  -0.178   7.009
  480XTA    CL353686  27.934  -0.213   6.992
  480XTA    CL453687  27.863  -0.101   6.911
  480XTA    CO353688  27.718  -0.106   6.931
  480XTA    OA353689  27.643  -0.192   6.845
  480XTA    CO453690  27.528  -0.127   6.786
  480XTA    CT153691  27.459  -0.214   6.686
  480XTA    CL553692  27.563  -0.250   6.569
  480XTA    CL653693  27.517  -0.333   6.447
  480XTA    OA453694  29.286  -0.045   6.779
  480XTA    CO553695  29.324   0.082   6.827
  480XTA    CL753696  29.400   0.160   6.722
  480XTA    CL853697  29.425   0.301   6.775
  480XTA    CL953698  29.527   0.369   6.685
  480XTA   CL1053699  29.584   0.501   6.738
  480XTA    CO653700  29.483   0.615   6.753
  480XTA    OA553701  29.551   0.738   6.767
  480XTA    CO753702  29.589   0.773   6.901
  480XTA    CT253703  29.654   0.910   6.901
  480XTA   CL1153704  29.789   0.904   6.826
  480XTA   CL1253705  29.843   1.039   6.770
  480XTA    HL153706  28.966  -0.967   7.199
  480XTA    HL253707  29.145  -0.950   7.167
  480XTA    HL353708  29.085  -1.025   7.321
  480XTA    HL453709  28.346  -0.216   7.230
  480XTA    HL553710  28.322  -0.088   7.115
  480XTA    HL653711  28.115  -0.187   7.228
  480XTA    HL753712  28.128  -0.329   7.161
  480XTA    HL853713  28.126  -0.243   6.924
  480XTA    HL953714  28.098  -0.066   6.989
  480XTA   HL1053715  27.930  -0.305   6.936
  480XTA   HL1153716  27.885  -0.201   7.089
  480XTA   HL1253717  27.890  -0.100   6.811
  480XTA   HL1353718  27.901  -0.009   6.960
  480XTA   HL1453719  27.687  -0.129   7.029
  480XTA   HL1553720  27.678  -0.005   6.925
  480XTA   HL1653721  27.465  -0.091   6.869
  480XTA   HL1753722  27.573  -0.038   6.734
  480XTA   HL1853723  27.658  -0.288   6.620
  480XTA   HL1953724  27.587  -0.158   6.514
  480XTA   HL2053725  27.444  -0.416   6.475
  480XTA   HL2153726  27.603  -0.372   6.398
  480XTA   HL2253727  27.465  -0.258   6.385
  480XTA   HL2353728  29.381   0.064   6.918
  480XTA   HL2453729  29.236   0.132   6.850
  480XTA   HL2553730  29.491   0.110   6.677
  480XTA   HL2653731  29.330   0.165   6.640
  480XTA   HL2753732  29.333   0.352   6.769
  480XTA   HL2853733  29.461   0.291   6.884
  480XTA   HL2953734  29.604   0.305   6.660
  480XTA   HL3053735  29.479   0.387   6.585
  480XTA   HL3153736  29.619   0.475   6.839
  480XTA   HL3253737  29.660   0.540   6.673
  480XTA   HL3353738  29.421   0.620   6.662
  480XTA   HL3453739  29.412   0.594   6.843
  480XTA   HL3553740  29.649   0.693   6.944
  480XTA   HL3653741  29.502   0.781   6.962
  480XTA   HL3753742  29.783   0.844   6.731
  480XTA   HL3853743  29.863   0.855   6.890
  480XTA   HL3953744  29.886   1.105   6.843
  480XTA   HL4053745  29.773   1.092   6.711
  480XTA   HL4153746  29.925   1.011   6.698
  480XTA    CO853747  27.337  -0.129   6.628
  480XTA    CO953748  27.413  -0.346   6.740
  480XTA    OA653749  27.257  -0.103   6.698
  480XTA   HL4253750  27.282  -0.193   6.556
  480XTA   HL4353751  27.379  -0.046   6.589
  480XTA   HL4453752  29.588   0.976   7.078
  480XTA   HL4553753  29.735   1.048   7.037
  480XTA   CO1053754  29.683   0.952   7.044
  480XTA   CO1153755  29.555   1.015   6.836
  480XTA    OA753756  29.427   0.985   6.892
  480XTA   HL4653757  29.578   1.115   6.853
  480XTA   HL4753758  29.547   0.985   6.732
  480XTA   HL4853759  27.324  -0.338   6.854
  480XTA   HL4953760  27.336  -0.381   6.674
  481XTA     NT53761  30.535   2.039   0.267
  481XTA    CN153762  30.470   2.107   0.175
  481XTA     C153763  30.378   2.045   0.084
  481XTA     C253764  30.319   2.124  -0.017
  481XTA     C353765  30.352   2.267  -0.032
  481XTA     C453766  30.443   2.321   0.056
  481XTA     C553767  30.500   2.242   0.159
  481XTA    CN253768  30.477   2.008   0.385
  481XTA     C653769  30.500   2.102   0.493
  481XTA     C753770  30.463   2.068   0.625
  481XTA     C853771  30.382   1.956   0.648
  481XTA     C953772  30.341   1.878   0.534
  481XTA    C1053773  30.399   1.897   0.407
  481XTA    CN353774  30.652   1.979   0.246
  481XTA    C1153775  30.769   2.055   0.266
  481XTA    C1253776  30.897   1.995   0.241
  481XTA    C1353777  30.906   1.859   0.198
  481XTA    C1453778  30.786   1.791   0.169
  481XTA    C1553779  30.662   1.851   0.192
  481XTA     H153780  30.345   1.941   0.103
  481XTA     H253781  30.264   2.069  -0.091
  481XTA     H353782  30.482   2.422   0.039
  481XTA     H453783  30.566   2.291   0.233
  481XTA     H553784  30.543   2.196   0.459
  481XTA     H653785  30.479   2.135   0.706
  481XTA     H753786  30.270   1.798   0.547
  481XTA     H853787  30.372   1.837   0.327
  481XTA     H953788  30.766   2.161   0.309
  481XTA    H1053789  30.982   2.060   0.247
  481XTA    H1153790  30.780   1.697   0.125
  481XTA    H1253791  30.575   1.791   0.161
  481XTA    OA153792  30.301   2.339  -0.132
  481XTA    CO153793  30.156   2.316  -0.144
  481XTA    OA253794  30.333   1.937   0.775
  481XTA    CO253795  30.437   1.944   0.878
  481XTA    CL153796  30.493   1.806   0.903
  481XTA    CL253797  30.389   1.696   0.895
  481XTA    CL353798  30.432   1.575   0.967
  481XTA    CL453799  30.318   1.476   0.978
  481XTA    CO353800  30.348   1.376   1.091
  481XTA    OA353801  30.223   1.307   1.116
  481XTA    CO453802  30.238   1.230   1.238
  481XTA    CT153803  30.125   1.128   1.248
  481XTA    CL553804  30.146   1.070   1.397
  481XTA    CL653805  30.061   0.957   1.435
  481XTA    OA453806  31.037   1.805   0.178
  481XTA    CO553807  31.057   1.684   0.099
  481XTA    CL753808  31.186   1.614   0.144
  481XTA    CL853809  31.208   1.480   0.079
  481XTA    CL953810  31.264   1.374   0.173
  481XTA   CL1053811  31.152   1.325   0.257
  481XTA    CO653812  31.213   1.261   0.383
  481XTA    OA553813  31.118   1.188   0.448
  481XTA    CO753814  31.142   1.157   0.588
  481XTA    CT253815  31.039   1.064   0.650
  481XTA   CL1153816  30.901   1.125   0.589
  481XTA   CL1253817  30.771   1.054   0.650
  481XTA    HL153818  30.110   2.308  -0.049
  481XTA    HL253819  30.102   2.397  -0.203
  481XTA    HL353820  30.133   2.220  -0.205
  481XTA    HL453821  30.512   2.020   0.846
  481XTA    HL553822  30.389   1.983   0.966
  481XTA    HL653823  30.543   1.806   0.998
  481XTA    HL753824  30.568   1.796   0.822
  481XTA    HL853825  30.367   1.666   0.789
  481XTA    HL953826  30.295   1.733   0.949
  481XTA   HL1053827  30.515   1.528   0.913
  481XTA   HL1153828  30.470   1.609   1.063
  481XTA   HL1253829  30.300   1.437   0.873
  481XTA   HL1353830  30.220   1.518   0.996
  481XTA   HL1453831  30.441   1.324   1.068
  481XTA   HL1553832  30.381   1.433   1.182
  481XTA   HL1653833  30.339   1.182   1.261
  481XTA   HL1753834  30.209   1.302   1.314
  481XTA   HL1853835  30.152   1.156   1.462
  481XTA   HL1953836  30.253   1.038   1.392
  481XTA   HL2053837  30.054   0.960   1.547
  481XTA   HL2153838  30.095   0.862   1.383
  481XTA   HL2253839  29.965   0.983   1.396
  481XTA   HL2353840  31.046   1.703  -0.008
  481XTA   HL2453841  30.981   1.603   0.119
  481XTA   HL2553842  31.261   1.686   0.107
  481XTA   HL2653843  31.193   1.603   0.257
  481XTA   HL2753844  31.116   1.445   0.038
  481XTA   HL2853845  31.275   1.482  -0.005
  481XTA   HL2953846  31.305   1.293   0.118
  481XTA   HL3053847  31.349   1.408   0.237
  481XTA   HL3153848  31.092   1.410   0.301
  481XTA   HL3253849  31.095   1.240   0.207
  481XTA   HL3353850  31.310   1.216   0.358
  481XTA   HL3453851  31.244   1.344   0.446
  481XTA   HL3553852  31.127   1.244   0.643
  481XTA   HL3653853  31.242   1.121   0.600
  481XTA   HL3753854  30.892   1.099   0.483
  481XTA   HL3853855  30.891   1.231   0.612
  481XTA   HL3953856  30.728   0.972   0.589
  481XTA   HL4053857  30.695   1.127   0.656
  481XTA   HL4153858  30.792   1.013   0.748
  481XTA    CO853859  30.141   1.028   1.138
  481XTA    CO953860  29.981   1.199   1.236
  481XTA    OA653861  29.917   1.210   1.327
  481XTA   HL4253862  30.072   0.946   1.154
  481XTA   HL4353863  30.107   1.087   1.015
  481XTA   HL4453864  31.030   1.182   0.830
  481XTA   HL4553865  30.979   1.013   0.858
  481XTA   CO1053866  31.053   1.078   0.802
  481XTA   CO1153867  31.064   0.917   0.609
  481XTA    OA753868  31.152   1.053   0.829
  481XTA   HL4653869  31.033   0.907   0.474
  481XTA   HL4753870  31.172   0.898   0.628
  481XTA   HL4853871  29.923   1.155   1.159
  481XTA   HL4953872  30.008   1.300   1.202
  482XTA     NT53873  33.603  -0.163  -0.883
  482XTA    CN153874  33.519  -0.057  -0.899
  482XTA     C153875  33.541   0.066  -0.831
  482XTA     C253876  33.478   0.181  -0.863
  482XTA     C353877  33.367   0.175  -0.945
  482XTA     C453878  33.328   0.050  -1.012
  482XTA     C553879  33.407  -0.062  -0.983
  482XTA    CN253880  33.736  -0.143  -0.905
  482XTA     C653881  33.815  -0.102  -0.799
  482XTA     C753882  33.956  -0.109  -0.813
  482XTA     C853883  34.023  -0.148  -0.932
  482XTA     C953884  33.940  -0.186  -1.042
  482XTA    C1053885  33.802  -0.184  -1.025
  482XTA    CN353886  33.548  -0.273  -0.827
  482XTA    C1153887  33.429  -0.274  -0.750
  482XTA    C1253888  33.382  -0.387  -0.684
  482XTA    C1353889  33.453  -0.507  -0.688
  482XTA    C1453890  33.569  -0.515  -0.768
  482XTA    C1553891  33.620  -0.395  -0.833
  482XTA     H153892  33.617   0.065  -0.760
  482XTA     H253893  33.498   0.279  -0.822
  482XTA     H353894  33.240   0.044  -1.076
  482XTA     H453895  33.388  -0.155  -1.036
  482XTA     H553896  33.766  -0.065  -0.705
  482XTA     H653897  34.013  -0.064  -0.733
  482XTA     H753898  33.995  -0.232  -1.127
  482XTA     H853899  33.743  -0.216  -1.108
  482XTA     H953900  33.362  -0.189  -0.738
  482XTA    H1053901  33.289  -0.362  -0.633
  482XTA    H1153902  33.628  -0.598  -0.772
  482XTA    H1253903  33.711  -0.401  -0.896
  482XTA    OA153904  33.296   0.291  -0.954
  482XTA    CO153905  33.267   0.320  -1.097
  482XTA    OA253906  34.158  -0.157  -0.945
  482XTA    CO253907  34.243  -0.161  -0.829
  482XTA    CL153908  34.394  -0.172  -0.873
  482XTA    CL253909  34.489  -0.195  -0.755
  482XTA    CL353910  34.536  -0.065  -0.692
  482XTA    CL453911  34.601  -0.060  -0.553
  482XTA    CO353912  34.671   0.071  -0.524
  482XTA    OA353913  34.567   0.172  -0.511
  482XTA    CO453914  34.617   0.267  -0.412
  482XTA    CT153915  34.556   0.405  -0.443
  482XTA    CL553916  34.610   0.485  -0.323
  482XTA    CL653917  34.530   0.614  -0.303
  482XTA    OA453918  33.398  -0.615  -0.631
  482XTA    CO553919  33.477  -0.723  -0.586
  482XTA    CL753920  33.468  -0.840  -0.689
  482XTA    CL853921  33.569  -0.965  -0.671
  482XTA    CL953922  33.707  -0.934  -0.733
  482XTA   CL1053923  33.794  -1.053  -0.709
  482XTA    CO653924  33.927  -1.034  -0.781
  482XTA    OA553925  33.967  -0.904  -0.753
  482XTA    CO753926  34.080  -0.862  -0.822
  482XTA    CT253927  34.130  -0.720  -0.792
  482XTA   CL1153928  34.264  -0.705  -0.868
  482XTA   CL1253929  34.327  -0.571  -0.865
  482XTA    HL153930  33.211   0.414  -1.090
  482XTA    HL253931  33.352   0.342  -1.161
  482XTA    HL353932  33.201   0.243  -1.142
  482XTA    HL453933  34.235  -0.068  -0.773
  482XTA    HL553934  34.217  -0.245  -0.762
  482XTA    HL653935  34.423  -0.100  -0.944
  482XTA    HL753936  34.389  -0.266  -0.926
  482XTA    HL853937  34.571  -0.245  -0.791
  482XTA    HL953938  34.446  -0.257  -0.684
  482XTA   HL1053939  34.607  -0.015  -0.766
  482XTA   HL1153940  34.448   0.001  -0.699
  482XTA   HL1253941  34.680  -0.133  -0.537
  482XTA   HL1353942  34.536  -0.095  -0.472
  482XTA   HL1453943  34.719   0.049  -0.429
  482XTA   HL1553944  34.746   0.111  -0.590
  482XTA   HL1653945  34.587   0.232  -0.313
  482XTA   HL1753946  34.719   0.258  -0.398
  482XTA   HL1853947  34.710   0.515  -0.320
  482XTA   HL1953948  34.587   0.419  -0.240
  482XTA   HL2053949  34.424   0.588  -0.304
  482XTA   HL2153950  34.547   0.682  -0.383
  482XTA   HL2253951  34.553   0.651  -0.205
  482XTA   HL2353952  33.441  -0.764  -0.492
  482XTA   HL2453953  33.580  -0.679  -0.571
  482XTA   HL2553954  33.364  -0.876  -0.692
  482XTA   HL2653955  33.489  -0.806  -0.790
  482XTA   HL2753956  33.577  -0.998  -0.564
  482XTA   HL2853957  33.532  -1.054  -0.727
  482XTA   HL2953958  33.700  -0.907  -0.834
  482XTA   HL3053959  33.739  -0.834  -0.692
  482XTA   HL3153960  33.811  -1.032  -0.599
  482XTA   HL3253961  33.749  -1.159  -0.722
  482XTA   HL3353962  34.001  -1.099  -0.738
  482XTA   HL3453963  33.926  -1.063  -0.889
  482XTA   HL3553964  34.059  -0.871  -0.926
  482XTA   HL3653965  34.168  -0.924  -0.802
  482XTA   HL3753966  34.241  -0.738  -0.969
  482XTA   HL3853967  34.336  -0.774  -0.822
  482XTA   HL3953968  34.420  -0.558  -0.914
  482XTA   HL4053969  34.332  -0.534  -0.766
  482XTA   HL4153970  34.264  -0.499  -0.907
  482XTA    CO853971  34.406   0.402  -0.467
  482XTA    CO953972  34.622   0.460  -0.567
  482XTA    OA653973  34.596   0.569  -0.584
  482XTA   HL4253974  34.366   0.498  -0.500
  482XTA   HL4353975  34.376   0.300  -0.564
  482XTA   HL4453976  34.203  -0.623  -0.610
  482XTA   HL4553977  34.064  -0.738  -0.583
  482XTA   CO1053978  34.158  -0.721  -0.636
  482XTA   CO1153979  34.014  -0.629  -0.823
  482XTA    OA753980  34.231  -0.808  -0.620
  482XTA   HL4653981  33.898  -0.659  -0.749
  482XTA   HL4753982  34.045  -0.519  -0.803
  482XTA   HL4853983  34.583   0.399  -0.648
  482XTA   HL4953984  34.726   0.439  -0.565
  483XTA     NT53985  28.359  -0.323   3.127
  483XTA    CN153986  28.260  -0.352   3.042
  483XTA     C153987  28.283  -0.425   2.923
  483XTA     C253988  28.181  -0.452   2.829
  483XTA     C353989  28.052  -0.404   2.857
  483XTA     C453990  28.032  -0.331   2.973
  483XTA     C553991  28.133  -0.303   3.071
  483XTA    CN253992  28.457  -0.415   3.146
  483XTA     C653993  28.436  -0.541   3.196
  483XTA     C753994  28.541  -0.631   3.227
  483XTA     C853995  28.674  -0.592   3.199
  483XTA     C953996  28.694  -0.469   3.143
  483XTA    C1053997  28.590  -0.378   3.118
  483XTA    CN353998  28.354  -0.212   3.202
  483XTA    C1153999  28.320  -0.225   3.339
  483XTA    C1254000  28.317  -0.117   3.426
  483XTA    C1354001  28.342   0.009   3.374
  483XTA    C1454002  28.393   0.027   3.243
  483XTA    C1554003  28.393  -0.085   3.155
  483XTA     H154004  28.381  -0.458   2.895
  483XTA     H254005  28.198  -0.530   2.753
  483XTA     H354006  27.926  -0.302   2.999
  483XTA     H454007  28.119  -0.237   3.159
  483XTA     H554008  28.331  -0.567   3.210
  483XTA     H654009  28.510  -0.726   3.267
  483XTA     H754010  28.792  -0.437   3.111
  483XTA     H854011  28.602  -0.276   3.088
  483XTA     H954012  28.282  -0.323   3.376
  483XTA    H1054013  28.311  -0.128   3.534
  483XTA    H1154014  28.418   0.128   3.212
  483XTA    H1254015  28.429  -0.079   3.055
  483XTA    OA154016  27.933  -0.435   2.790
  483XTA    CO154017  27.938  -0.548   2.713
  483XTA    OA254018  28.780  -0.677   3.216
  483XTA    CO254019  28.749  -0.815   3.248
  483XTA    CL154020  28.872  -0.904   3.230
  483XTA    CL254021  28.844  -1.049   3.281
  483XTA    CL354022  28.981  -1.127   3.263
  483XTA    CL454023  28.986  -1.270   3.309
  483XTA    CO354024  29.111  -1.345   3.276
  483XTA    OA354025  29.148  -1.350   3.142
  483XTA    CO454026  29.052  -1.392   3.051
  483XTA    CT154027  29.094  -1.388   2.911
  483XTA    CL554028  29.238  -1.454   2.890
  483XTA    CL654029  29.264  -1.592   2.958
  483XTA    OA454030  28.336   0.127   3.449
  483XTA    CO554031  28.237   0.141   3.555
  483XTA    CL754032  28.313   0.200   3.672
  483XTA    CL854033  28.216   0.270   3.773
  483XTA    CL954034  28.163   0.173   3.890
  483XTA   CL1054035  28.074   0.248   3.989
  483XTA    CO654036  28.034   0.169   4.109
  483XTA    OA554037  28.154   0.127   4.162
  483XTA    CO754038  28.125   0.030   4.260
  483XTA    CT254039  28.241   0.012   4.355
  483XTA   CL1154040  28.280   0.140   4.435
  483XTA   CL1254041  28.157   0.209   4.505
  483XTA    HL154042  27.945  -0.640   2.779
  483XTA    HL254043  27.855  -0.552   2.645
  483XTA    HL354044  28.009  -0.551   2.641
  483XTA    HL454045  28.728  -0.811   3.357
  483XTA    HL554046  28.669  -0.844   3.185
  483XTA    HL654047  28.951  -0.864   3.289
  483XTA    HL754048  28.903  -0.881   3.128
  483XTA    HL854049  28.760  -1.101   3.227
  483XTA    HL954050  28.805  -1.052   3.385
  483XTA   HL1054051  29.011  -1.125   3.161
  483XTA   HL1154052  29.059  -1.084   3.321
  483XTA   HL1254053  28.905  -1.326   3.269
  483XTA   HL1354054  28.975  -1.260   3.418
  483XTA   HL1454055  29.194  -1.304   3.339
  483XTA   HL1554056  29.097  -1.440   3.317
  483XTA   HL1654057  29.008  -1.487   3.077
  483XTA   HL1754058  28.968  -1.323   3.065
  483XTA   HL1854059  29.310  -1.375   2.918
  483XTA   HL1954060  29.250  -1.458   2.781
  483XTA   HL2054061  29.373  -1.622   2.950
  483XTA   HL2154062  29.204  -1.675   2.931
  483XTA   HL2254063  29.231  -1.588   3.063
  483XTA   HL2354064  28.188   0.051   3.578
  483XTA   HL2454065  28.169   0.216   3.518
  483XTA   HL2554066  28.374   0.120   3.708
  483XTA   HL2654067  28.375   0.275   3.633
  483XTA   HL2754068  28.265   0.351   3.825
  483XTA   HL2854069  28.139   0.320   3.727
  483XTA   HL2954070  28.129   0.080   3.844
  483XTA   HL3054071  28.258   0.145   3.929
  483XTA   HL3154072  28.124   0.342   4.029
  483XTA   HL3254073  27.984   0.289   3.947
  483XTA   HL3354074  27.990   0.224   4.185
  483XTA   HL3454075  27.958   0.092   4.083
  483XTA   HL3554076  28.099  -0.070   4.209
  483XTA   HL3654077  28.036   0.057   4.320
  483XTA   HL3754078  28.341   0.206   4.369
  483XTA   HL3854079  28.347   0.123   4.517
  483XTA   HL3954080  28.080   0.238   4.428
  483XTA   HL4054081  28.192   0.302   4.558
  483XTA   HL4154082  28.112   0.148   4.576
  483XTA    CO854083  29.093  -1.242   2.853
  483XTA    CO954084  28.993  -1.467   2.823
  483XTA    OA654085  29.136  -1.250   2.720
  483XTA   HL4254086  29.168  -1.174   2.903
  483XTA   HL4354087  28.997  -1.190   2.861
  483XTA   HL4454088  28.384   0.047   4.206
  483XTA   HL4554089  28.445  -0.034   4.329
  483XTA   CO1054090  28.356  -0.033   4.267
  483XTA   CO1154091  28.217  -0.105   4.464
  483XTA    OA754092  28.341  -0.131   4.232
  483XTA   HL4654093  28.280  -0.065   4.580
  483XTA   HL4754094  28.259  -0.198   4.423
  483XTA   HL4854095  29.027  -1.461   2.716
  483XTA   HL4954096  29.003  -1.570   2.844
  484XTA     NT54097  32.476  -0.156   2.569
  484XTA    CN154098  32.374  -0.244   2.543
  484XTA     C154099  32.316  -0.323   2.650
  484XTA     C254100  32.237  -0.432   2.620
  484XTA     C354101  32.198  -0.460   2.490
  484XTA     C454102  32.244  -0.380   2.385
  484XTA     C554103  32.331  -0.269   2.411
  484XTA    CN254104  32.445  -0.034   2.627
  484XTA     C654105  32.443   0.081   2.545
  484XTA     C754106  32.417   0.206   2.604
  484XTA     C854107  32.419   0.224   2.745
  484XTA     C954108  32.423   0.107   2.821
  484XTA    C1054109  32.441  -0.020   2.762
  484XTA    CN354110  32.605  -0.196   2.538
  484XTA    C1154111  32.646  -0.326   2.577
  484XTA    C1254112  32.781  -0.363   2.555
  484XTA    C1354113  32.874  -0.277   2.501
  484XTA    C1454114  32.832  -0.149   2.457
  484XTA    C1554115  32.693  -0.108   2.477
  484XTA     H154116  32.372  -0.315   2.747
  484XTA     H254117  32.224  -0.500   2.709
  484XTA     H354118  32.220  -0.411   2.286
  484XTA     H454119  32.379  -0.222   2.325
  484XTA     H554120  32.441   0.078   2.436
  484XTA     H654121  32.410   0.290   2.536
  484XTA     H754122  32.441   0.118   2.925
  484XTA     H854123  32.446  -0.105   2.825
  484XTA     H954124  32.579  -0.403   2.625
  484XTA    H1054125  32.820  -0.461   2.566
  484XTA    H1154126  32.898  -0.077   2.405
  484XTA    H1254127  32.666  -0.015   2.438
  484XTA    OA154128  32.133  -0.572   2.459
  484XTA    CO154129  32.066  -0.639   2.561
  484XTA    OA254130  32.413   0.355   2.790
  484XTA    CO254131  32.387   0.374   2.930
  484XTA    CL154132  32.516   0.372   3.012
  484XTA    CL254133  32.476   0.363   3.161
  484XTA    CL354134  32.410   0.234   3.203
  484XTA    CL454135  32.445   0.192   3.344
  484XTA    CO354136  32.589   0.134   3.337
  484XTA    OA354137  32.602   0.029   3.243
  484XTA    CO454138  32.733  -0.018   3.219
  484XTA    CT154139  32.748  -0.134   3.115
  484XTA    CL554140  32.741  -0.077   2.968
  484XTA    CL654141  32.775  -0.183   2.854
  484XTA    OA454142  33.004  -0.318   2.492
  484XTA    CO554143  33.080  -0.275   2.605
  484XTA    CL754144  33.172  -0.380   2.662
  484XTA    CL854145  33.096  -0.500   2.716
  484XTA    CL954146  33.192  -0.607   2.770
  484XTA   CL1054147  33.126  -0.740   2.809
  484XTA    CO654148  33.213  -0.865   2.783
  484XTA    OA554149  33.251  -0.856   2.651
  484XTA    CO754150  33.383  -0.903   2.626
  484XTA    CT254151  33.429  -0.894   2.482
  484XTA   CL1154152  33.569  -0.960   2.474
  484XTA   CL1254153  33.609  -0.992   2.328
  484XTA    HL154154  32.030  -0.730   2.512
  484XTA    HL254155  32.138  -0.681   2.634
  484XTA    HL354156  31.988  -0.584   2.612
  484XTA    HL454157  32.326   0.468   2.941
  484XTA    HL554158  32.313   0.299   2.972
  484XTA    HL654159  32.564   0.461   2.983
  484XTA    HL754160  32.576   0.288   2.980
  484XTA    HL854161  32.420   0.446   3.202
  484XTA    HL954162  32.564   0.378   3.223
  484XTA   HL1054163  32.302   0.243   3.176
  484XTA   HL1154164  32.438   0.154   3.127
  484XTA   HL1254165  32.380   0.118   3.397
  484XTA   HL1354166  32.441   0.281   3.411
  484XTA   HL1454167  32.652   0.215   3.305
  484XTA   HL1554168  32.625   0.093   3.430
  484XTA   HL1654169  32.798   0.061   3.190
  484XTA   HL1754170  32.766  -0.049   3.318
  484XTA   HL1854171  32.817  -0.001   2.962
  484XTA   HL1954172  32.641  -0.028   2.955
  484XTA   HL2054173  32.875  -0.210   2.859
  484XTA   HL2154174  32.766  -0.122   2.761
  484XTA   HL2254175  32.704  -0.260   2.851
  484XTA   HL2354176  33.018  -0.231   2.683
  484XTA   HL2454177  33.140  -0.189   2.576
  484XTA   HL2554178  33.228  -0.425   2.583
  484XTA   HL2654179  33.246  -0.345   2.732
  484XTA   HL2754180  33.044  -0.458   2.797
  484XTA   HL2854181  33.032  -0.533   2.643
  484XTA   HL2954182  33.275  -0.636   2.703
  484XTA   HL3054183  33.233  -0.557   2.855
  484XTA   HL3154184  33.079  -0.742   2.904
  484XTA   HL3254185  33.044  -0.743   2.736
  484XTA   HL3354186  33.300  -0.874   2.855
  484XTA   HL3454187  33.151  -0.944   2.808
  484XTA   HL3554188  33.373  -1.007   2.661
  484XTA   HL3654189  33.449  -0.849   2.689
  484XTA   HL3754190  33.565  -1.051   2.526
  484XTA   HL3854191  33.645  -0.907   2.529
  484XTA   HL3954192  33.526  -1.036   2.274
  484XTA   HL4054193  33.693  -1.056   2.320
  484XTA   HL4154194  33.632  -0.903   2.270
  484XTA    CO854195  32.633  -0.229   3.126
  484XTA    CO954196  32.890  -0.202   3.132
  484XTA    OA654197  32.888  -0.234   3.234
  484XTA   HL4254198  32.606  -0.254   3.226
  484XTA   HL4354199  32.518  -0.162   3.072
  484XTA   HL4454200  33.348  -0.686   2.471
  484XTA   HL4554201  33.524  -0.698   2.486
  484XTA   CO1054202  33.435  -0.745   2.445
  484XTA   CO1154203  33.319  -0.964   2.402
  484XTA    OA754204  33.440  -0.731   2.339
  484XTA   HL4654205  33.347  -0.956   2.261
  484XTA   HL4754206  33.230  -0.911   2.413
  484XTA   HL4854207  32.968  -0.129   3.114
  484XTA   HL4954208  32.908  -0.288   3.068
  485XTA     NT54209  26.527   0.490   6.288
  485XTA    CN154210  26.460   0.490   6.411
  485XTA     C154211  26.361   0.587   6.433
  485XTA     C254212  26.283   0.577   6.554
  485XTA     C354213  26.311   0.485   6.653
  485XTA     C454214  26.416   0.392   6.630
  485XTA     C554215  26.492   0.393   6.509
  485XTA    CN254216  26.467   0.415   6.192
  485XTA     C654217  26.474   0.277   6.198
  485XTA     C754218  26.403   0.201   6.105
  485XTA     C854219  26.339   0.262   5.995
  485XTA     C954220  26.340   0.403   5.988
  485XTA    C1054221  26.395   0.482   6.089
  485XTA    CN354222  26.655   0.528   6.258
  485XTA    C1154223  26.700   0.656   6.283
  485XTA    C1254224  26.836   0.696   6.265
  485XTA    C1354225  26.928   0.607   6.209
  485XTA    C1454226  26.886   0.477   6.175
  485XTA    C1554227  26.751   0.437   6.206
  485XTA     H154228  26.345   0.662   6.352
  485XTA     H254229  26.214   0.658   6.583
  485XTA     H354230  26.431   0.308   6.702
  485XTA     H454231  26.572   0.324   6.492
  485XTA     H554232  26.536   0.233   6.282
  485XTA     H654233  26.411   0.096   6.122
  485XTA     H754234  26.292   0.445   5.903
  485XTA     H854235  26.386   0.594   6.089
  485XTA     H954236  26.626   0.731   6.318
  485XTA    H1054237  26.879   0.792   6.295
  485XTA    H1154238  26.945   0.406   6.115
  485XTA    H1254239  26.725   0.335   6.201
  485XTA    OA154240  26.224   0.478   6.760
  485XTA    CO154241  26.244   0.379   6.859
  485XTA    OA254242  26.265   0.192   5.904
  485XTA    CO254243  26.273   0.056   5.901
  485XTA    CL154244  26.176  -0.011   5.997
  485XTA    CL254245  26.063   0.086   6.041
  485XTA    CL354246  25.968   0.028   6.147
  485XTA    CL454247  25.903   0.139   6.219
  485XTA    CO354248  25.775   0.097   6.283
  485XTA    OA354249  25.660   0.127   6.204
  485XTA    CO454250  25.645   0.072   6.074
  485XTA    CT154251  25.527   0.131   5.998
  485XTA    CL554252  25.488   0.281   6.019
  485XTA    CL654253  25.604   0.383   6.012
  485XTA    OA454254  27.058   0.639   6.182
  485XTA    CO554255  27.101   0.622   6.050
  485XTA    CL754256  27.066   0.740   5.964
  485XTA    CL854257  26.987   0.703   5.838
  485XTA    CL954258  26.949   0.815   5.744
  485XTA   CL1054259  26.817   0.882   5.781
  485XTA    CO654260  26.816   0.957   5.919
  485XTA    OA554261  26.927   1.038   5.925
  485XTA    CO754262  26.962   1.092   6.046
  485XTA    CT254263  27.097   1.172   6.037
  485XTA   CL1154264  27.094   1.286   5.931
  485XTA   CL1254265  26.970   1.375   5.934
  485XTA    HL154266  26.176   0.393   6.946
  485XTA    HL254267  26.231   0.284   6.810
  485XTA    HL354268  26.348   0.382   6.898
  485XTA    HL454269  26.234   0.022   5.807
  485XTA    HL554270  26.380   0.029   5.909
  485XTA    HL654271  26.236  -0.036   6.090
  485XTA    HL754272  26.141  -0.106   5.964
  485XTA    HL854273  26.005   0.114   5.949
  485XTA    HL954274  26.099   0.179   6.075
  485XTA   HL1054275  25.895  -0.038   6.097
  485XTA   HL1154276  26.023  -0.035   6.216
  485XTA   HL1254277  25.882   0.217   6.150
  485XTA   HL1354278  25.975   0.173   6.296
  485XTA   HL1454279  25.783  -0.009   6.298
  485XTA   HL1554280  25.761   0.149   6.375
  485XTA   HL1654281  25.731   0.071   6.008
  485XTA   HL1754282  25.634  -0.036   6.080
  485XTA   HL1854283  25.454   0.275   6.125
  485XTA   HL1954284  25.406   0.318   5.955
  485XTA   HL2054285  25.674   0.370   6.093
  485XTA   HL2154286  25.558   0.483   6.015
  485XTA   HL2254287  25.646   0.363   5.913
  485XTA   HL2354288  27.079   0.530   6.003
  485XTA   HL2454289  27.212   0.620   6.055
  485XTA   HL2554290  27.010   0.796   6.029
  485XTA   HL2654291  27.155   0.799   5.938
  485XTA   HL2754292  27.040   0.636   5.770
  485XTA   HL2854293  26.908   0.643   5.873
  485XTA   HL2954294  27.026   0.891   5.748
  485XTA   HL3054295  26.934   0.781   5.642
  485XTA   HL3154296  26.800   0.962   5.704
  485XTA   HL3254297  26.736   0.809   5.758
  485XTA   HL3354298  26.730   1.026   5.919
  485XTA   HL3454299  26.805   0.902   6.011
  485XTA   HL3554300  26.966   1.012   6.115
  485XTA   HL3654301  26.872   1.152   6.079
  485XTA   HL3754302  27.095   1.241   5.836
  485XTA   HL3854303  27.180   1.347   5.923
  485XTA   HL3954304  26.977   1.472   5.883
  485XTA   HL4054305  26.940   1.393   6.037
  485XTA   HL4154306  26.892   1.316   5.877
  485XTA    CO854307  25.397   0.049   6.036
  485XTA    CO954308  25.541   0.113   5.847
  485XTA    OA654309  25.386   0.059   6.172
  485XTA   HL4254310  25.404  -0.061   6.009
  485XTA   HL4354311  25.313   0.101   5.995
  485XTA   HL4454312  27.224   0.997   6.083
  485XTA   HL4554313  27.166   1.005   5.917
  485XTA   CO1054314  27.207   1.062   5.998
  485XTA   CO1154315  27.134   1.234   6.176
  485XTA    OA754316  27.332   1.127   5.973
  485XTA   HL4654317  27.244   1.233   6.188
  485XTA   HL4754318  27.112   1.344   6.170
  485XTA   HL4854319  25.444   0.132   5.791
  485XTA   HL4954320  25.617   0.179   5.800
  486XTA     NT54321  36.402  -0.570   3.620
  486XTA    CN154322  36.364  -0.449   3.575
  486XTA     C154323  36.397  -0.337   3.650
  486XTA     C254324  36.355  -0.209   3.611
  486XTA     C354325  36.284  -0.188   3.495
  486XTA     C454326  36.245  -0.301   3.423
  486XTA     C554327  36.287  -0.433   3.459
  486XTA    CN254328  36.318  -0.670   3.665
  486XTA     C654329  36.339  -0.803   3.622
  486XTA     C754330  36.261  -0.907   3.675
  486XTA     C854331  36.154  -0.879   3.762
  486XTA     C954332  36.145  -0.745   3.814
  486XTA    C1054333  36.225  -0.640   3.764
  486XTA    CN354334  36.533  -0.590   3.645
  486XTA    C1154335  36.631  -0.573   3.543
  486XTA    C1254336  36.771  -0.588   3.572
  486XTA    C1354337  36.811  -0.621   3.705
  486XTA    C1454338  36.710  -0.635   3.806
  486XTA    C1554339  36.576  -0.613   3.775
  486XTA     H154340  36.462  -0.349   3.734
  486XTA     H254341  36.373  -0.124   3.671
  486XTA     H354342  36.192  -0.291   3.333
  486XTA     H454343  36.269  -0.519   3.397
  486XTA     H554344  36.414  -0.830   3.551
  486XTA     H654345  36.284  -1.006   3.647
  486XTA     H754346  36.076  -0.731   3.885
  486XTA     H854347  36.214  -0.541   3.806
  486XTA     H954348  36.604  -0.542   3.442
  486XTA    H1054349  36.837  -0.586   3.489
  486XTA    H1154350  36.734  -0.678   3.904
  486XTA    H1254351  36.499  -0.635   3.839
  486XTA    OA154352  36.253  -0.061   3.471
  486XTA    CO154353  36.170  -0.027   3.362
  486XTA    OA254354  36.080  -0.985   3.814
  486XTA    CO254355  35.978  -0.957   3.912
  486XTA    CL154356  35.870  -1.069   3.929
  486XTA    CL254357  35.835  -1.117   3.786
  486XTA    CL354358  35.793  -1.004   3.704
  486XTA    CL454359  35.730  -1.067   3.578
  486XTA    CO354360  35.727  -0.983   3.455
  486XTA    OA354361  35.855  -0.924   3.419
  486XTA    CO454362  35.845  -0.823   3.320
  486XTA    CT154363  35.989  -0.759   3.309
  486XTA    CL554364  35.980  -0.646   3.200
  486XTA    CL654365  35.983  -0.703   3.061
  486XTA    OA454366  36.944  -0.646   3.720
  486XTA    CO554367  36.983  -0.654   3.857
  486XTA    CL754368  36.979  -0.807   3.887
  486XTA    CL854369  36.989  -0.860   4.028
  486XTA    CL954370  36.885  -0.800   4.126
  486XTA   CL1054371  36.754  -0.887   4.123
  486XTA    CO654372  36.667  -0.869   4.248
  486XTA    OA554373  36.605  -0.740   4.271
  486XTA    CO754374  36.514  -0.696   4.167
  486XTA    CT254375  36.426  -0.589   4.223
  486XTA   CL1154376  36.319  -0.566   4.117
  486XTA   CL1254377  36.217  -0.455   4.148
  486XTA    HL154378  36.221  -0.060   3.275
  486XTA    HL254379  36.079  -0.081   3.360
  486XTA    HL354380  36.179   0.083   3.348
  486XTA    HL454381  36.026  -0.947   4.008
  486XTA    HL554382  35.931  -0.863   3.881
  486XTA    HL654383  35.783  -1.026   3.976
  486XTA    HL754384  35.903  -1.151   3.993
  486XTA    HL854385  35.754  -1.182   3.796
  486XTA    HL954386  35.913  -1.173   3.742
  486XTA   HL1054387  35.732  -0.931   3.754
  486XTA   HL1154388  35.885  -0.942   3.667
  486XTA   HL1254389  35.626  -1.098   3.607
  486XTA   HL1354390  35.782  -1.151   3.547
  486XTA   HL1454391  35.688  -1.040   3.369
  486XTA   HL1554392  35.647  -0.905   3.474
  486XTA   HL1654393  35.807  -0.869   3.224
  486XTA   HL1754394  35.777  -0.738   3.347
  486XTA   HL1854395  36.069  -0.575   3.215
  486XTA   HL1954396  35.885  -0.588   3.222
  486XTA   HL2054397  35.886  -0.759   3.053
  486XTA   HL2154398  36.065  -0.775   3.038
  486XTA   HL2254399  35.980  -0.622   2.989
  486XTA   HL2354400  36.929  -0.579   3.916
  486XTA   HL2454401  37.094  -0.628   3.858
  486XTA   HL2554402  36.884  -0.847   3.844
  486XTA   HL2654403  37.057  -0.859   3.828
  486XTA   HL2754404  36.988  -0.972   4.035
  486XTA   HL2854405  37.094  -0.836   4.057
  486XTA   HL2954406  36.947  -0.817   4.220
  486XTA   HL3054407  36.872  -0.694   4.111
  486XTA   HL3154408  36.694  -0.862   4.037
  486XTA   HL3254409  36.774  -0.998   4.115
  486XTA   HL3354410  36.575  -0.938   4.235
  486XTA   HL3454411  36.716  -0.911   4.338
  486XTA   HL3554412  36.464  -0.777   4.129
  486XTA   HL3654413  36.578  -0.664   4.082
  486XTA   HL3754414  36.263  -0.655   4.102
  486XTA   HL3854415  36.371  -0.557   4.022
  486XTA   HL3954416  36.263  -0.358   4.114
  486XTA   HL4054417  36.218  -0.449   4.254
  486XTA   HL4154418  36.118  -0.479   4.119
  486XTA    CO854419  36.090  -0.874   3.276
  486XTA    CO954420  36.021  -0.698   3.446
  486XTA    OA654421  36.188  -0.841   3.248
  486XTA   HL4254422  36.051  -0.934   3.191
  486XTA   HL4354423  36.098  -0.936   3.366
  486XTA   HL4454424  36.571  -0.480   4.335
  486XTA   HL4554425  36.427  -0.364   4.328
  486XTA   CO1054426  36.501  -0.457   4.258
  486XTA   CO1154427  36.359  -0.639   4.351
  486XTA    OA754428  36.312  -0.735   4.339
  486XTA   HL4654429  36.436  -0.649   4.432
  486XTA   HL4754430  36.294  -0.562   4.388
  486XTA   HL4854431  36.000  -0.794   3.540
  486XTA   HL4954432  36.125  -0.656   3.458
  487XTA     NT54433  27.217   1.408   3.496
  487XTA    CN154434  27.225   1.278   3.504
  487XTA     C154435  27.195   1.203   3.616
  487XTA     C254436  27.196   1.063   3.616
  487XTA     C354437  27.242   0.993   3.505
  487XTA     C454438  27.277   1.069   3.393
  487XTA     C554439  27.262   1.205   3.390
  487XTA    CN254440  27.118   1.468   3.428
  487XTA     C654441  26.987   1.421   3.446
  487XTA     C754442  26.877   1.474   3.374
  487XTA     C854443  26.894   1.601   3.310
  487XTA     C954444  27.029   1.643   3.280
  487XTA    C1054445  27.139   1.579   3.341
  487XTA    CN354446  27.293   1.485   3.578
  487XTA    C1154447  27.233   1.569   3.671
  487XTA    C1254448  27.306   1.647   3.767
  487XTA    C1354449  27.448   1.634   3.767
  487XTA    C1454450  27.505   1.544   3.674
  487XTA    C1554451  27.434   1.475   3.573
  487XTA     H154452  27.159   1.257   3.701
  487XTA     H254453  27.160   1.008   3.700
  487XTA     H354454  27.293   1.033   3.292
  487XTA     H454455  27.270   1.252   3.293
  487XTA     H554456  26.970   1.341   3.521
  487XTA     H654457  26.780   1.430   3.386
  487XTA     H754458  27.054   1.728   3.221
  487XTA     H854459  27.232   1.633   3.320
  487XTA     H954460  27.125   1.593   3.670
  487XTA    H1054461  27.247   1.696   3.844
  487XTA    H1154462  27.613   1.542   3.665
  487XTA    H1254463  27.496   1.415   3.500
  487XTA    OA154464  27.252   0.857   3.496
  487XTA    CO154465  27.235   0.787   3.618
  487XTA    OA254466  26.792   1.669   3.241
  487XTA    CO254467  26.661   1.663   3.290
  487XTA    CL154468  26.636   1.765   3.398
  487XTA    CL254469  26.632   1.908   3.359
  487XTA    CL354470  26.528   1.955   3.259
  487XTA    CL454471  26.582   2.077   3.182
  487XTA    CO354472  26.580   2.044   3.030
  487XTA    OA354473  26.643   1.921   3.011
  487XTA    CO454474  26.714   1.909   2.888
  487XTA    CT154475  26.828   1.808   2.904
  487XTA    CL554476  26.909   1.820   2.769
  487XTA    CL654477  26.826   1.829   2.640
  487XTA    OA454478  27.532   1.713   3.837
  487XTA    CO554479  27.477   1.795   3.934
  487XTA    CL754480  27.583   1.842   4.035
  487XTA    CL854481  27.637   1.734   4.126
  487XTA    CL954482  27.769   1.760   4.199
  487XTA   CL1054483  27.809   1.643   4.287
  487XTA    CO654484  27.936   1.676   4.370
  487XTA    OA554485  27.945   1.578   4.468
  487XTA    CO754486  27.975   1.443   4.429
  487XTA    CT254487  27.940   1.352   4.551
  487XTA   CL1154488  27.954   1.202   4.518
  487XTA   CL1254489  27.932   1.098   4.626
  487XTA    HL154490  27.258   0.686   3.596
  487XTA    HL254491  27.304   0.823   3.697
  487XTA    HL354492  27.129   0.804   3.654
  487XTA    HL454493  26.600   1.665   3.199
  487XTA    HL554494  26.651   1.559   3.326
  487XTA    HL654495  26.710   1.749   3.481
  487XTA    HL754496  26.537   1.741   3.441
  487XTA    HL854497  26.731   1.931   3.336
  487XTA    HL954498  26.625   1.970   3.450
  487XTA   HL1054499  26.496   1.879   3.190
  487XTA   HL1154500  26.441   1.973   3.320
  487XTA   HL1254501  26.689   2.094   3.210
  487XTA   HL1354502  26.518   2.174   3.204
  487XTA   HL1454503  26.477   2.034   2.996
  487XTA   HL1554504  26.632   2.126   2.975
  487XTA   HL1654505  26.643   1.870   2.816
  487XTA   HL1754506  26.751   2.008   2.856
  487XTA   HL1854507  26.967   1.730   2.763
  487XTA   HL1954508  26.974   1.913   2.768
  487XTA   HL2054509  26.772   1.924   2.627
  487XTA   HL2154510  26.761   1.745   2.619
  487XTA   HL2254511  26.898   1.824   2.558
  487XTA   HL2354512  27.402   1.742   3.994
  487XTA   HL2454513  27.445   1.884   3.888
  487XTA   HL2554514  27.658   1.889   3.969
  487XTA   HL2654515  27.545   1.920   4.098
  487XTA   HL2754516  27.563   1.699   4.203
  487XTA   HL2854517  27.638   1.644   4.068
  487XTA   HL2954518  27.843   1.787   4.129
  487XTA   HL3054519  27.763   1.846   4.264
  487XTA   HL3154520  27.728   1.608   4.356
  487XTA   HL3254521  27.831   1.554   4.234
  487XTA   HL3354522  28.025   1.687   4.308
  487XTA   HL3454523  27.917   1.764   4.426
  487XTA   HL3554524  28.076   1.433   4.405
  487XTA   HL3654525  27.916   1.422   4.337
  487XTA   HL3754526  28.055   1.192   4.477
  487XTA   HL3854527  27.893   1.181   4.431
  487XTA   HL3954528  27.986   1.120   4.718
  487XTA   HL4054529  27.958   0.998   4.593
  487XTA   HL4154530  27.829   1.101   4.653
  487XTA    CO854531  26.775   1.666   2.915
  487XTA    CO954532  26.915   1.845   3.028
  487XTA    OA654533  26.876   1.581   2.953
  487XTA   HL4254534  26.730   1.621   2.824
  487XTA   HL4354535  26.701   1.663   2.998
  487XTA   HL4454536  27.772   1.474   4.599
  487XTA   HL4554537  27.728   1.320   4.554
  487XTA   CO1054538  27.800   1.373   4.610
  487XTA   CO1154539  28.037   1.386   4.662
  487XTA    OA754540  27.798   1.335   4.715
  487XTA   HL4654541  28.000   1.518   4.723
  487XTA   HL4754542  28.024   1.312   4.746
  487XTA   HL4854543  26.852   1.845   3.118
  487XTA   HL4954544  26.992   1.772   3.037
  488XTA     NT54545  33.985   0.321   7.335
  488XTA    CN154546  33.884   0.289   7.247
  488XTA     C154547  33.765   0.364   7.243
  488XTA     C254548  33.657   0.338   7.157
  488XTA     C354549  33.670   0.230   7.064
  488XTA     C454550  33.783   0.149   7.072
  488XTA     C554551  33.896   0.177   7.160
  488XTA    CN254552  34.105   0.365   7.297
  488XTA     C654553  34.221   0.294   7.326
  488XTA     C754554  34.346   0.345   7.288
  488XTA     C854555  34.354   0.472   7.220
  488XTA     C954556  34.238   0.549   7.200
  488XTA    C1054557  34.113   0.494   7.242
  488XTA    CN354558  33.949   0.357   7.462
  488XTA    C1154559  33.931   0.254   7.557
  488XTA    C1254560  33.883   0.292   7.678
  488XTA    C1354561  33.852   0.424   7.707
  488XTA    C1454562  33.888   0.530   7.620
  488XTA    C1554563  33.929   0.492   7.493
  488XTA     H154564  33.754   0.439   7.314
  488XTA     H254565  33.573   0.403   7.154
  488XTA     H354566  33.778   0.060   7.011
  488XTA     H454567  33.984   0.114   7.167
  488XTA     H554568  34.220   0.209   7.398
  488XTA     H654569  34.430   0.294   7.330
  488XTA     H754570  34.246   0.651   7.164
  488XTA     H854571  34.025   0.564   7.227
  488XTA     H954572  33.929   0.151   7.526
  488XTA    H1054573  33.870   0.219   7.762
  488XTA    H1154574  33.858   0.634   7.631
  488XTA    H1254575  33.942   0.568   7.416
  488XTA    OA154576  33.561   0.205   6.982
  488XTA    CO154577  33.529   0.067   6.974
  488XTA    OA254578  34.478   0.519   7.209
  488XTA    CO254579  34.492   0.632   7.121
  488XTA    CL154580  34.638   0.658   7.097
  488XTA    CL254581  34.663   0.773   7.001
  488XTA    CL354582  34.802   0.814   6.988
  488XTA    CL454583  34.892   0.723   6.903
  488XTA    CO354584  35.024   0.708   6.970
  488XTA    OA354585  35.003   0.657   7.105
  488XTA    CO454586  35.095   0.712   7.198
  488XTA    CT154587  35.032   0.692   7.337
  488XTA    CL554588  34.963   0.558   7.350
  488XTA    CL654589  35.046   0.436   7.299
  488XTA    OA454590  33.769   0.445   7.818
  488XTA    CO554591  33.746   0.578   7.858
  488XTA    CL754592  33.634   0.573   7.951
  488XTA    CL854593  33.595   0.722   7.997
  488XTA    CL954594  33.449   0.735   8.042
  488XTA   CL1054595  33.397   0.875   8.058
  488XTA    CO654596  33.249   0.886   8.095
  488XTA    OA554597  33.219   1.022   8.099
  488XTA    CO754598  33.263   1.097   8.212
  488XTA    CT254599  33.265   1.252   8.192
  488XTA   CL1154600  33.346   1.292   8.067
  488XTA   CL1254601  33.344   1.452   8.049
  488XTA    HL154602  33.504   0.015   7.069
  488XTA    HL254603  33.433   0.073   6.917
  488XTA    HL354604  33.601   0.010   6.911
  488XTA    HL454605  34.446   0.621   7.021
  488XTA    HL554606  34.439   0.715   7.171
  488XTA    HL654607  34.679   0.561   7.067
  488XTA    HL754608  34.684   0.673   7.196
  488XTA    HL854609  34.605   0.864   7.015
  488XTA    HL954610  34.633   0.724   6.906
  488XTA   HL1054611  34.798   0.910   6.940
  488XTA   HL1154612  34.844   0.842   7.085
  488XTA   HL1254613  34.911   0.769   6.809
  488XTA   HL1354614  34.840   0.632   6.885
  488XTA   HL1454615  35.103   0.656   6.921
  488XTA   HL1554616  35.061   0.809   6.970
  488XTA   HL1654617  35.190   0.656   7.169
  488XTA   HL1754618  35.104   0.815   7.175
  488XTA   HL1854619  34.872   0.560   7.293
  488XTA   HL1954620  34.935   0.535   7.456
  488XTA   HL2054621  35.068   0.460   7.201
  488XTA   HL2154622  34.978   0.354   7.311
  488XTA   HL2254623  35.137   0.418   7.358
  488XTA   HL2354624  33.724   0.629   7.760
  488XTA   HL2454625  33.826   0.632   7.903
  488XTA   HL2554626  33.558   0.519   7.897
  488XTA   HL2654627  33.680   0.519   8.029
  488XTA   HL2754628  33.662   0.758   8.085
  488XTA   HL2854629  33.618   0.787   7.912
  488XTA   HL2954630  33.404   0.686   7.948
  488XTA   HL3054631  33.445   0.673   8.133
  488XTA   HL3154632  33.460   0.920   8.133
  488XTA   HL3254633  33.411   0.938   7.964
  488XTA   HL3354634  33.189   0.834   8.021
  488XTA   HL3454635  33.231   0.839   8.191
  488XTA   HL3554636  33.361   1.064   8.243
  488XTA   HL3654637  33.188   1.071   8.293
  488XTA   HL3754638  33.293   1.237   7.981
  488XTA   HL3854639  33.448   1.254   8.069
  488XTA   HL3954640  33.240   1.493   8.047
  488XTA   HL4054641  33.402   1.463   7.954
  488XTA   HL4154642  33.396   1.492   8.131
  488XTA    CO854643  34.916   0.794   7.356
  488XTA    CO954644  35.139   0.717   7.445
  488XTA    OA654645  35.206   0.842   7.420
  488XTA   HL4254646  34.836   0.783   7.284
  488XTA   HL4354647  34.967   0.892   7.362
  488XTA   HL4454648  33.336   1.425   8.325
  488XTA   HL4554649  33.278   1.275   8.407
  488XTA   CO1054650  33.329   1.317   8.322
  488XTA   CO1154651  33.119   1.289   8.178
  488XTA    OA754652  33.430   1.277   8.328
  488XTA   HL4654653  33.059   1.274   8.046
  488XTA   HL4754654  33.120   1.397   8.192
  488XTA   HL4854655  35.215   0.636   7.447
  488XTA   HL4954656  35.088   0.719   7.545
  489XTA     NT54657  29.827   2.129   1.376
  489XTA    CN154658  29.754   2.184   1.279
  489XTA     C154659  29.773   2.139   1.150
  489XTA     C254660  29.696   2.202   1.043
  489XTA     C354661  29.606   2.303   1.071
  489XTA     C454662  29.586   2.354   1.200
  489XTA     C554663  29.656   2.285   1.306
  489XTA    CN254664  29.766   2.037   1.455
  489XTA     C654665  29.682   2.076   1.559
  489XTA     C754666  29.620   1.977   1.635
  489XTA     C854667  29.658   1.838   1.620
  489XTA     C954668  29.745   1.801   1.517
  489XTA    C1054669  29.799   1.904   1.438
  489XTA    CN354670  29.942   2.178   1.411
  489XTA    C1154671  30.042   2.182   1.313
  489XTA    C1254672  30.172   2.231   1.354
  489XTA    C1354673  30.198   2.285   1.483
  489XTA    C1454674  30.094   2.283   1.574
  489XTA    C1554675  29.968   2.225   1.545
  489XTA     H154676  29.849   2.068   1.118
  489XTA     H254677  29.727   2.168   0.943
  489XTA     H354678  29.519   2.435   1.219
  489XTA     H454679  29.632   2.313   1.412
  489XTA     H554680  29.663   2.184   1.566
  489XTA     H654681  29.559   2.011   1.718
  489XTA     H754682  29.777   1.700   1.497
  489XTA     H854683  29.872   1.876   1.358
  489XTA     H954684  30.021   2.157   1.207
  489XTA    H1054685  30.252   2.255   1.287
  489XTA    H1154686  30.117   2.313   1.675
  489XTA    H1254687  29.892   2.221   1.618
  489XTA    OA154688  29.546   2.377   0.972
  489XTA    CO154689  29.507   2.301   0.860
  489XTA    OA254690  29.617   1.744   1.712
  489XTA    CO254691  29.475   1.732   1.719
  489XTA    CL154692  29.429   1.634   1.604
  489XTA    CL254693  29.288   1.575   1.618
  489XTA    CL354694  29.236   1.508   1.489
  489XTA    CL454695  29.226   1.598   1.365
  489XTA    CO354696  29.185   1.529   1.241
  489XTA    OA354697  29.195   1.622   1.136
  489XTA    CO454698  29.144   1.577   1.010
  489XTA    CT154699  29.024   1.660   0.957
  489XTA    CL554700  29.081   1.794   0.915
  489XTA    CL654701  28.987   1.908   0.872
  489XTA    OA454702  30.334   2.322   1.508
  489XTA    CO554703  30.371   2.351   1.638
  489XTA    CL754704  30.517   2.402   1.644
  489XTA    CL854705  30.563   2.427   1.792
  489XTA    CL954706  30.689   2.507   1.803
  489XTA   CL1054707  30.671   2.658   1.784
  489XTA    CO654708  30.806   2.728   1.756
  489XTA    OA554709  30.873   2.674   1.645
  489XTA    CO754710  30.847   2.731   1.516
  489XTA    CT254711  30.943   2.671   1.407
  489XTA   CL1154712  31.094   2.684   1.455
  489XTA   CL1254713  31.158   2.819   1.440
  489XTA    HL154714  29.452   2.209   0.881
  489XTA    HL254715  29.438   2.361   0.807
  489XTA    HL354716  29.593   2.259   0.813
  489XTA    HL454717  29.443   1.691   1.818
  489XTA    HL554718  29.428   1.830   1.717
  489XTA    HL654719  29.489   1.540   1.603
  489XTA    HL754720  29.443   1.692   1.511
  489XTA    HL854721  29.222   1.654   1.653
  489XTA    HL954722  29.292   1.503   1.711
  489XTA   HL1054723  29.311   1.434   1.465
  489XTA   HL1154724  29.137   1.469   1.514
  489XTA   HL1254725  29.321   1.646   1.346
  489XTA   HL1354726  29.160   1.683   1.383
  489XTA   HL1454727  29.239   1.436   1.223
  489XTA   HL1554728  29.080   1.491   1.251
  489XTA   HL1654729  29.205   1.585   0.923
  489XTA   HL1754730  29.135   1.468   1.018
  489XTA   HL1854731  29.145   1.776   0.829
  489XTA   HL1954732  29.156   1.835   0.986
  489XTA   HL2054733  28.943   1.876   0.773
  489XTA   HL2154734  29.059   1.986   0.859
  489XTA   HL2254735  28.911   1.931   0.954
  489XTA   HL2354736  30.358   2.269   1.705
  489XTA   HL2454737  30.312   2.435   1.676
  489XTA   HL2554738  30.574   2.322   1.597
  489XTA   HL2654739  30.520   2.491   1.583
  489XTA   HL2754740  30.479   2.481   1.831
  489XTA   HL2854741  30.560   2.323   1.831
  489XTA   HL2954742  30.725   2.495   1.902
  489XTA   HL3054743  30.770   2.477   1.734
  489XTA   HL3154744  30.603   2.669   1.700
  489XTA   HL3254745  30.634   2.699   1.874
  489XTA   HL3354746  30.792   2.838   1.752
  489XTA   HL3454747  30.868   2.722   1.849
  489XTA   HL3554748  30.864   2.839   1.528
  489XTA   HL3654749  30.742   2.718   1.500
  489XTA   HL3754750  31.169   2.623   1.409
  489XTA   HL3854751  31.094   2.653   1.552
  489XTA   HL3954752  31.173   2.863   1.342
  489XTA   HL4054753  31.252   2.809   1.489
  489XTA   HL4154754  31.099   2.884   1.497
  489XTA    CO854755  28.915   1.667   1.066
  489XTA    CO954756  28.969   1.575   0.838
  489XTA    OA654757  28.875   1.615   0.793
  489XTA   HL4254758  28.832   1.725   1.021
  489XTA   HL4354759  28.952   1.737   1.176
  489XTA   HL4454760  30.931   2.845   1.270
  489XTA   HL4554761  30.990   2.696   1.201
  489XTA   CO1054762  30.918   2.735   1.272
  489XTA   CO1154763  30.908   2.520   1.392
  489XTA    OA754764  30.809   2.715   1.240
  489XTA   HL4654765  30.782   2.484   1.454
  489XTA   HL4754766  30.892   2.499   1.287
  489XTA   HL4854767  28.969   1.468   0.874
  489XTA   HL4954768  29.040   1.576   0.756
  490XTA     NT54769  35.141   2.343   2.532
  490XTA    CN154770  35.232   2.410   2.603
  490XTA     C154771  35.359   2.354   2.630
  490XTA     C254772  35.456   2.428   2.694
  490XTA     C354773  35.422   2.554   2.748
  490XTA     C454774  35.300   2.615   2.720
  490XTA     C554775  35.203   2.541   2.647
  490XTA    CN254776  35.173   2.307   2.404
  490XTA     C654777  35.186   2.402   2.298
  490XTA     C754778  35.204   2.362   2.162
  490XTA     C854779  35.200   2.227   2.130
  490XTA     C954780  35.188   2.137   2.235
  490XTA    C1054781  35.185   2.175   2.371
  490XTA    CN354782  35.015   2.337   2.578
  490XTA    C1154783  34.988   2.267   2.697
  490XTA    C1254784  34.850   2.246   2.742
  490XTA    C1354785  34.745   2.291   2.658
  490XTA    C1454786  34.779   2.355   2.535
  490XTA    C1554787  34.910   2.371   2.492
  490XTA     H154788  35.395   2.261   2.585
  490XTA     H254789  35.557   2.390   2.704
  490XTA     H354790  35.276   2.721   2.736
  490XTA     H454791  35.103   2.591   2.632
  490XTA     H554792  35.184   2.510   2.321
  490XTA     H654793  35.220   2.435   2.085
  490XTA     H754794  35.189   2.030   2.218
  490XTA     H854795  35.160   2.086   2.436
  490XTA     H954796  35.067   2.217   2.756
  490XTA    H1054797  34.840   2.191   2.832
  490XTA    H1154798  34.699   2.391   2.469
  490XTA    H1254799  34.930   2.421   2.396
  490XTA    OA154800  35.527   2.625   2.809
  490XTA    CO154801  35.509   2.768   2.809
  490XTA    OA254802  35.212   2.178   2.005
  490XTA    CO254803  35.346   2.198   1.971
  490XTA    CL154804  35.380   2.077   1.881
  490XTA    CL254805  35.389   1.936   1.938
  490XTA    CL354806  35.253   1.878   1.979
  490XTA    CL454807  35.162   1.832   1.859
  490XTA    CO354808  35.013   1.808   1.885
  490XTA    OA354809  34.964   1.768   1.763
  490XTA    CO454810  34.830   1.739   1.771
  490XTA    CT154811  34.776   1.704   1.632
  490XTA    CL554812  34.845   1.573   1.576
  490XTA    CL654813  34.835   1.448   1.664
  490XTA    OA454814  34.615   2.275   2.700
  490XTA    CO554815  34.514   2.332   2.622
  490XTA    CL754816  34.399   2.369   2.709
  490XTA    CL854817  34.422   2.479   2.820
  490XTA    CL954818  34.297   2.558   2.867
  490XTA   CL1054819  34.257   2.664   2.765
  490XTA    CO654820  34.350   2.779   2.742
  490XTA    OA554821  34.334   2.841   2.616
  490XTA    CO754822  34.400   2.766   2.507
  490XTA    CT254823  34.429   2.872   2.396
  490XTA   CL1154824  34.500   2.995   2.448
  490XTA   CL1254825  34.530   3.090   2.335
  490XTA    HL154826  35.596   2.824   2.835
  490XTA    HL254827  35.477   2.791   2.701
  490XTA    HL354828  35.431   2.793   2.880
  490XTA    HL454829  35.355   2.278   1.908
  490XTA    HL554830  35.422   2.198   2.054
  490XTA    HL654831  35.474   2.107   1.848
  490XTA    HL754832  35.315   2.072   1.798
  490XTA    HL854833  35.447   1.938   2.024
  490XTA    HL954834  35.450   1.882   1.869
  490XTA   HL1054835  35.267   1.805   2.055
  490XTA   HL1154836  35.206   1.961   2.028
  490XTA   HL1254837  35.217   1.740   1.828
  490XTA   HL1354838  35.171   1.896   1.774
  490XTA   HL1454839  35.006   1.727   1.957
  490XTA   HL1554840  34.966   1.901   1.925
  490XTA   HL1654841  34.819   1.657   1.836
  490XTA   HL1754842  34.772   1.821   1.807
  490XTA   HL1854843  34.945   1.592   1.546
  490XTA   HL1954844  34.808   1.559   1.475
  490XTA   HL2054845  34.886   1.364   1.621
  490XTA   HL2154846  34.732   1.408   1.678
  490XTA   HL2254847  34.884   1.467   1.759
  490XTA   HL2354848  34.478   2.274   2.537
  490XTA   HL2454849  34.547   2.420   2.578
  490XTA   HL2554850  34.325   2.404   2.639
  490XTA   HL2654851  34.356   2.287   2.759
  490XTA   HL2754852  34.469   2.438   2.899
  490XTA   HL2854853  34.497   2.547   2.783
  490XTA   HL2954854  34.208   2.499   2.888
  490XTA   HL3054855  34.314   2.596   2.968
  490XTA   HL3154856  34.245   2.608   2.675
  490XTA   HL3254857  34.163   2.712   2.791
  490XTA   HL3354858  34.332   2.848   2.824
  490XTA   HL3454859  34.459   2.760   2.753
  490XTA   HL3554860  34.343   2.677   2.472
  490XTA   HL3654861  34.499   2.723   2.540
  490XTA   HL3754862  34.597   2.962   2.488
  490XTA   HL3854863  34.455   3.048   2.534
  490XTA   HL3954864  34.587   3.045   2.254
  490XTA   HL4054865  34.592   3.176   2.367
  490XTA   HL4154866  34.450   3.131   2.277
  490XTA    CO854867  34.792   1.835   1.550
  490XTA    CO954868  34.623   1.679   1.628
  490XTA    OA654869  34.771   1.825   1.447
  490XTA   HL4254870  34.891   1.873   1.564
  490XTA   HL4354871  34.723   1.909   1.596
  490XTA   HL4454872  34.230   2.969   2.401
  490XTA   HL4554873  34.307   2.980   2.249
  490XTA   CO1054874  34.292   2.912   2.330
  490XTA   CO1154875  34.512   2.805   2.283
  490XTA    OA754876  34.229   2.824   2.300
  490XTA   HL4654877  34.508   2.875   2.163
  490XTA   HL4754878  34.474   2.707   2.263
  490XTA   HL4854879  34.589   1.660   1.498
  490XTA   HL4954880  34.601   1.590   1.690
  491XTA     NT54881  26.916   0.255   3.136
  491XTA    CN154882  26.784   0.240   3.091
  491XTA     C154883  26.699   0.348   3.067
  491XTA     C254884  26.567   0.326   3.017
  491XTA     C354885  26.524   0.198   2.983
  491XTA     C454886  26.605   0.092   3.006
  491XTA     C554887  26.736   0.115   3.064
  491XTA    CN254888  27.013   0.167   3.086
  491XTA     C654889  27.071   0.063   3.164
  491XTA     C754890  27.181  -0.014   3.120
  491XTA     C854891  27.234   0.008   2.991
  491XTA     C954892  27.180   0.109   2.914
  491XTA    C1054893  27.075   0.191   2.962
  491XTA    CN354894  26.941   0.321   3.252
  491XTA    C1154895  27.028   0.434   3.265
  491XTA    C1254896  27.041   0.494   3.391
  491XTA    C1354897  26.981   0.452   3.507
  491XTA    C1454898  26.903   0.334   3.499
  491XTA    C1554899  26.887   0.261   3.378
  491XTA     H154900  26.731   0.448   3.080
  491XTA     H254901  26.501   0.416   3.002
  491XTA     H354902  26.562  -0.007   2.998
  491XTA     H454903  26.797   0.028   3.088
  491XTA     H554904  27.027   0.042   3.258
  491XTA     H654905  27.223  -0.084   3.188
  491XTA     H754906  27.229   0.128   2.819
  491XTA     H854907  27.044   0.274   2.897
  491XTA     H954908  27.090   0.470   3.182
  491XTA    H1054909  27.108   0.579   3.406
  491XTA    H1154910  26.867   0.294   3.591
  491XTA    H1254911  26.830   0.169   3.371
  491XTA    OA154912  26.390   0.170   2.938
  491XTA    CO154913  26.309   0.284   2.908
  491XTA    OA254914  27.344  -0.067   2.951
  491XTA    CO254915  27.383  -0.181   3.032
  491XTA    CL154916  27.509  -0.235   2.960
  491XTA    CL254917  27.525  -0.384   2.980
  491XTA    CL354918  27.419  -0.466   2.903
  491XTA    CL454919  27.415  -0.425   2.753
  491XTA    CO354920  27.301  -0.506   2.690
  491XTA    OA354921  27.310  -0.499   2.552
  491XTA    CO454922  27.233  -0.406   2.486
  491XTA    CT154923  27.270  -0.422   2.334
  491XTA    CL554924  27.178  -0.343   2.247
  491XTA    CL654925  27.133  -0.199   2.297
  491XTA    OA454926  27.003   0.514   3.627
  491XTA    CO554927  27.066   0.422   3.713
  491XTA    CL754928  27.212   0.400   3.671
  491XTA    CL854929  27.290   0.324   3.777
  491XTA    CL954930  27.443   0.355   3.757
  491XTA   CL1054931  27.483   0.476   3.839
  491XTA    CO654932  27.634   0.502   3.818
  491XTA    OA554933  27.675   0.515   3.681
  491XTA    CO754934  27.633   0.642   3.626
  491XTA    CT254935  27.673   0.639   3.474
  491XTA   CL1154936  27.596   0.523   3.400
  491XTA   CL1254937  27.445   0.544   3.396
  491XTA    HL154938  26.218   0.252   2.857
  491XTA    HL254939  26.297   0.319   3.004
  491XTA    HL354940  26.354   0.359   2.846
  491XTA    HL454941  27.408  -0.150   3.136
  491XTA    HL554942  27.299  -0.250   3.034
  491XTA    HL654943  27.599  -0.192   2.995
  491XTA    HL754944  27.515  -0.207   2.858
  491XTA    HL854945  27.527  -0.405   3.091
  491XTA    HL954946  27.623  -0.413   2.933
  491XTA   HL1054947  27.442  -0.575   2.902
  491XTA   HL1154948  27.329  -0.461   2.960
  491XTA   HL1254949  27.517  -0.460   2.715
  491XTA   HL1354950  27.402  -0.323   2.727
  491XTA   HL1454951  27.313  -0.610   2.714
  491XTA   HL1554952  27.203  -0.468   2.718
  491XTA   HL1654953  27.121  -0.422   2.503
  491XTA   HL1754954  27.256  -0.305   2.521
  491XTA   HL1854955  27.086  -0.403   2.238
  491XTA   HL1954956  27.211  -0.339   2.146
  491XTA   HL2054957  27.208  -0.129   2.273
  491XTA   HL2154958  27.129  -0.201   2.401
  491XTA   HL2254959  27.028  -0.178   2.268
  491XTA   HL2354960  27.027   0.317   3.729
  491XTA   HL2454961  27.062   0.477   3.811
  491XTA   HL2554962  27.212   0.344   3.578
  491XTA   HL2654963  27.250   0.498   3.650
  491XTA   HL2754964  27.261   0.349   3.881
  491XTA   HL2854965  27.260   0.221   3.765
  491XTA   HL2954966  27.503   0.280   3.804
  491XTA   HL3054967  27.463   0.360   3.650
  491XTA   HL3154968  27.423   0.555   3.797
  491XTA   HL3254969  27.453   0.470   3.942
  491XTA   HL3354970  27.644   0.592   3.873
  491XTA   HL3454971  27.679   0.423   3.871
  491XTA   HL3554972  27.665   0.728   3.679
  491XTA   HL3654973  27.525   0.660   3.622
  491XTA   HL3754974  27.610   0.420   3.434
  491XTA   HL3854975  27.637   0.504   3.304
  491XTA   HL3954976  27.396   0.580   3.486
  491XTA   HL4054977  27.396   0.449   3.369
  491XTA   HL4154978  27.412   0.614   3.326
  491XTA    CO854979  27.260  -0.565   2.279
  491XTA    CO954980  27.419  -0.375   2.319
  491XTA    OA654981  27.459  -0.388   2.185
  491XTA   HL4254982  27.336  -0.628   2.328
  491XTA   HL4354983  27.296  -0.557   2.178
  491XTA   HL4454984  27.873   0.712   3.497
  491XTA   HL4554985  27.860   0.555   3.528
  491XTA   CO1054986  27.827   0.627   3.457
  491XTA   CO1154987  27.636   0.776   3.409
  491XTA    OA754988  27.701   0.878   3.479
  491XTA   HL4654989  27.659   0.775   3.305
  491XTA   HL4754990  27.532   0.803   3.411
  491XTA   HL4854991  27.484  -0.431   2.385
  491XTA   HL4954992  27.428  -0.275   2.349
  492XTH     NT54993  29.353   2.723   1.192
  492XTH    CN154994  29.257   2.658   1.126
  492XTH     C154995  29.262   2.522   1.080
  492XTH     C254996  29.156   2.458   1.003
  492XTH     C354997  29.033   2.528   0.985
  492XTH     C454998  29.024   2.658   1.045
  492XTH     C554999  29.125   2.720   1.116
  492XTH    CN255000  29.355   2.717   1.329
  492XTH     C655001  29.474   2.678   1.383
  492XTH     C755002  29.495   2.676   1.523
  492XTH     C855003  29.390   2.710   1.618
  492XTH     C955004  29.272   2.752   1.558
  492XTH    C1055005  29.253   2.756   1.417
  492XTH    CN355006  29.427   2.819   1.129
  492XTH    C1155007  29.403   2.956   1.138
  492XTH    C1255008  29.470   3.053   1.057
  492XTH    C1355009  29.559   3.000   0.961
  492XTH    C1455010  29.593   2.863   0.962
  492XTH    C1555011  29.524   2.768   1.044
  492XTH     H155012  29.350   2.467   1.106
  492XTH     H255013  29.164   2.353   0.974
  492XTH     H355014  28.939   2.710   1.029
  492XTH     H455015  29.107   2.813   1.167
  492XTH     H555016  29.558   2.656   1.316
  492XTH     H655017  29.588   2.637   1.558
  492XTH     H755018  29.188   2.785   1.620
  492XTH     H855019  29.158   2.783   1.381
  492XTH     H955020  29.328   2.998   1.203
  492XTH    H1055021  29.458   3.160   1.071
  492XTH    H1155022  29.678   2.830   0.906
  492XTH    H1255023  29.541   2.669   1.048
  492XTH    OA155024  28.940   2.466   0.916
  492XTH    CO155025  28.812   2.523   0.915
  492XTH    OA255026  29.421   2.727   1.754
  492XTH    CO255027  29.316   2.724   1.849
  492XTH    CL155028  29.220   2.608   1.844
  492XTH    CL255029  29.127   2.615   1.967
  492XTH    CL355030  29.024   2.732   1.961
  492XTH    CL455031  28.919   2.710   1.845
  492XTH    CO355032  28.824   2.590   1.855
  492XTH    OA355033  28.769   2.619   1.984
  492XTH    CO455034  28.638   2.582   1.995
  492XTH    CT155035  28.613   2.580   2.147
  492XTH    CL555036  28.711   2.686   2.226
  492XTH    CL655037  28.694   2.835   2.185
  492XTH    OA455038  29.636   3.086   0.886
  492XTH    CO555039  29.563   3.183   0.820
  492XTH    CL755040  29.636   3.203   0.678
  492XTH    CL855041  29.671   3.353   0.643
  492XTH    CL955042  29.545   3.443   0.656
  492XTH   CL1055043  29.580   3.577   0.706
  492XTH    CO655044  29.585   3.584   0.857
  492XTH    OA555045  29.685   3.490   0.906
  492XTH    CO755046  29.684   3.506   1.043
  492XTH    CT255047  29.806   3.425   1.101
  492XTH   CL1155048  29.808   3.439   1.256
  492XTH   CL1255049  29.801   3.585   1.312
  492XTH    HL155050  28.814   2.626   0.880
  492XTH    HL255051  28.753   2.470   0.844
  492XTH    HL355052  28.782   2.520   1.021
  492XTH    HL455053  29.358   2.720   1.951
  492XTH    HL555054  29.273   2.821   1.843
  492XTH    HL655055  29.267   2.514   1.819
  492XTH    HL755056  29.162   2.614   1.749
  492XTH    HL855057  29.192   2.627   2.055
  492XTH    HL955058  29.067   2.522   1.984
  492XTH   HL1055059  28.973   2.737   2.055
  492XTH   HL1155060  29.075   2.823   1.933
  492XTH   HL1255061  28.966   2.706   1.740
  492XTH   HL1355062  28.854   2.796   1.844
  492XTH   HL1455063  28.752   2.587   1.774
  492XTH   HL1555064  28.889   2.504   1.855
  492XTH   HL1655065  28.566   2.645   1.947
  492XTH   HL1755066  28.618   2.479   1.959
  492XTH   HL1855067  28.812   2.649   2.219
  492XTH   HL1955068  28.705   2.663   2.329
  492XTH   HL2055069  28.771   2.893   2.243
  492XTH   HL2155070  28.593   2.873   2.208
  492XTH   HL2255071  28.705   2.861   2.080
  492XTH   HL2355072  29.550   3.275   0.874
  492XTH   HL2455073  29.470   3.140   0.792
  492XTH   HL2555074  29.706   3.129   0.657
  492XTH   HL2655075  29.566   3.173   0.600
  492XTH   HL2755076  29.748   3.381   0.712
  492XTH   HL2855077  29.722   3.348   0.543
  492XTH   HL2955078  29.506   3.458   0.553
  492XTH   HL3055079  29.468   3.402   0.721
  492XTH   HL3155080  29.678   3.616   0.666
  492XTH   HL3255081  29.505   3.652   0.682
  492XTH   HL3355082  29.606   3.686   0.887
  492XTH   HL3455083  29.489   3.554   0.906
  492XTH   HL3555084  29.591   3.463   1.092
  492XTH   HL3655085  29.688   3.613   1.061
  492XTH   HL3755086  29.898   3.395   1.290
  492XTH   HL3855087  29.729   3.389   1.307
  492XTH   HL3955088  29.872   3.657   1.271
  492XTH   HL4055089  29.833   3.582   1.412
  492XTH   HL4155090  29.702   3.633   1.293
  492XTH    CO855091  28.636   2.436   2.196
  492XTH    CO955092  28.471   2.605   2.178
  492XTH    OA655093  28.766   2.394   2.175
  492XTH   HL4255094  28.573   2.373   2.131
  492XTH   HL4355095  28.605   2.424   2.302
  492XTH   HL4455096  30.021   3.459   1.093
  492XTH   HL4555097  29.927   3.485   0.937
  492XTH   CO1055098  29.931   3.503   1.045
  492XTH   CO1155099  29.803   3.275   1.061
  492XTH    OA755100  29.923   3.647   1.053
  492XTH   HL4655101  29.811   3.283   0.954
  492XTH   HL4755102  29.700   3.242   1.088
  492XTH   HL4855103  28.443   2.708   2.153
  492XTH   HL4955104  28.399   2.542   2.126
  493XTH     NT55105  29.404  -0.998   3.543
  493XTH    CN155106  29.368  -1.124   3.585
  493XTH     C155107  29.467  -1.224   3.583
  493XTH     C255108  29.425  -1.359   3.590
  493XTH     C355109  29.295  -1.394   3.613
  493XTH     C455110  29.209  -1.291   3.638
  493XTH     C555111  29.240  -1.160   3.626
  493XTH    CN255112  29.464  -0.913   3.630
  493XTH     C655113  29.604  -0.893   3.610
  493XTH     C755114  29.673  -0.801   3.698
  493XTH     C855115  29.606  -0.753   3.810
  493XTH     C955116  29.471  -0.783   3.836
  493XTH    C1055117  29.400  -0.857   3.746
  493XTH    CN355118  29.340  -0.941   3.439
  493XTH    C1155119  29.282  -0.804   3.443
  493XTH    C1255120  29.229  -0.760   3.326
  493XTH    C1355121  29.219  -0.841   3.212
  493XTH    C1455122  29.275  -0.966   3.207
  493XTH    C1555123  29.346  -1.017   3.318
  493XTH     H155124  29.575  -1.199   3.570
  493XTH     H255125  29.505  -1.432   3.573
  493XTH     H355126  29.108  -1.315   3.663
  493XTH     H455127  29.165  -1.086   3.641
  493XTH     H555128  29.654  -0.921   3.519
  493XTH     H655129  29.777  -0.773   3.680
  493XTH     H755130  29.421  -0.744   3.921
  493XTH     H855131  29.295  -0.879   3.766
  493XTH     H955132  29.291  -0.744   3.533
  493XTH    H1055133  29.192  -0.664   3.316
  493XTH    H1155134  29.266  -1.025   3.119
  493XTH    H1255135  29.398  -1.110   3.316
  493XTH    OA155136  29.250  -1.524   3.617
  493XTH    CO155137  29.109  -1.557   3.619
  493XTH    OA255138  29.667  -0.670   3.905
  493XTH    CO255139  29.806  -0.657   3.903
  493XTH    CL155140  29.877  -0.762   3.998
  493XTH    CL255141  29.835  -0.767   4.149
  493XTH    CL355142  29.684  -0.799   4.167
  493XTH    CL455143  29.637  -0.819   4.304
  493XTH    CO355144  29.484  -0.841   4.300
  493XTH    OA355145  29.414  -0.745   4.224
  493XTH    CO455146  29.353  -0.647   4.317
  493XTH    CT155147  29.347  -0.509   4.257
  493XTH    CL555148  29.269  -0.406   4.345
  493XTH    CL655149  29.306  -0.402   4.491
  493XTH    OA455150  29.164  -0.804   3.096
  493XTH    CO555151  29.119  -0.672   3.084
  493XTH    CL755152  29.082  -0.644   2.934
  493XTH    CL855153  29.033  -0.499   2.912
  493XTH    CL955154  29.143  -0.394   2.902
  493XTH   CL1055155  29.177  -0.335   3.034
  493XTH    CO655156  29.313  -0.369   3.082
  493XTH    OA555157  29.315  -0.347   3.220
  493XTH    CO755158  29.411  -0.422   3.288
  493XTH    CT255159  29.422  -0.382   3.434
  493XTH   CL1155160  29.538  -0.473   3.475
  493XTH   CL1255161  29.580  -0.475   3.618
  493XTH    HL155162  29.048  -1.508   3.697
  493XTH    HL255163  29.055  -1.536   3.523
  493XTH    HL355164  29.093  -1.656   3.642
  493XTH    HL455165  29.844  -0.642   3.803
  493XTH    HL555166  29.828  -0.564   3.944
  493XTH    HL655167  29.980  -0.743   3.994
  493XTH    HL755168  29.853  -0.865   3.969
  493XTH    HL855169  29.873  -0.675   4.193
  493XTH    HL955170  29.898  -0.847   4.182
  493XTH   HL1055171  29.629  -0.715   4.121
  493XTH   HL1155172  29.652  -0.893   4.114
  493XTH   HL1255173  29.665  -0.738   4.373
  493XTH   HL1355174  29.681  -0.916   4.327
  493XTH   HL1455175  29.469  -0.932   4.236
  493XTH   HL1555176  29.448  -0.876   4.395
  493XTH   HL1655177  29.257  -0.686   4.350
  493XTH   HL1755178  29.412  -0.639   4.408
  493XTH   HL1855179  29.160  -0.425   4.322
  493XTH   HL1955180  29.292  -0.310   4.304
  493XTH   HL2055181  29.407  -0.366   4.509
  493XTH   HL2155182  29.302  -0.496   4.543
  493XTH   HL2255183  29.233  -0.344   4.547
  493XTH   HL2355184  29.192  -0.605   3.113
  493XTH   HL2455185  29.027  -0.655   3.143
  493XTH   HL2555186  29.184  -0.659   2.886
  493XTH   HL2655187  29.013  -0.709   2.885
  493XTH   HL2755188  28.971  -0.496   2.818
  493XTH   HL2855189  28.952  -0.474   2.989
  493XTH   HL2955190  29.226  -0.436   2.847
  493XTH   HL3055191  29.116  -0.310   2.835
  493XTH   HL3155192  29.169  -0.230   3.039
  493XTH   HL3255193  29.102  -0.371   3.102
  493XTH   HL3355194  29.326  -0.474   3.061
  493XTH   HL3455195  29.378  -0.303   3.025
  493XTH   HL3555196  29.500  -0.393   3.237
  493XTH   HL3655197  29.390  -0.533   3.282
  493XTH   HL3755198  29.620  -0.452   3.404
  493XTH   HL3855199  29.513  -0.578   3.447
  493XTH   HL3955200  29.493  -0.505   3.677
  493XTH   HL4055201  29.610  -0.382   3.661
  493XTH   HL4155202  29.663  -0.549   3.620
  493XTH    CO855203  29.281  -0.530   4.120
  493XTH    CO955204  29.488  -0.457   4.217
  493XTH    OA655205  29.243  -0.407   4.054
  493XTH   HL4255206  29.195  -0.596   4.142
  493XTH   HL4355207  29.345  -0.592   4.053
  493XTH   HL4455208  29.276  -0.515   3.519
  493XTH   HL4555209  29.174  -0.339   3.455
  493XTH   CO1055210  29.293  -0.407   3.515
  493XTH   CO1155211  29.459  -0.233   3.446
  493XTH    OA755212  29.379  -0.177   3.395
  493XTH   HL4655213  29.481  -0.194   3.546
  493XTH   HL4755214  29.552  -0.224   3.380
  493XTH   HL4855215  29.476  -0.373   4.152
  493XTH   HL4955216  29.535  -0.527   4.149
  494XTA     NT55217  33.491   1.903   8.538
  494XTA    CN155218  33.568   1.819   8.617
  494XTA     C155219  33.709   1.802   8.599
  494XTA     C255220  33.775   1.719   8.687
  494XTA     C355221  33.711   1.657   8.791
  494XTA     C455222  33.575   1.678   8.809
  494XTA     C555223  33.501   1.768   8.734
  494XTA    CN255224  33.380   1.861   8.482
  494XTA     C655225  33.249   1.896   8.531
  494XTA     C755226  33.131   1.848   8.474
  494XTA     C855227  33.143   1.765   8.363
  494XTA     C955228  33.267   1.725   8.313
  494XTA    C1055229  33.385   1.776   8.373
  494XTA    CN355230  33.535   2.027   8.505
  494XTA    C1155231  33.505   2.136   8.589
  494XTA    C1255232  33.562   2.264   8.565
  494XTA    C1355233  33.645   2.287   8.449
  494XTA    C1455234  33.656   2.175   8.356
  494XTA    C1555235  33.597   2.052   8.383
  494XTA     H155236  33.761   1.843   8.513
  494XTA     H255237  33.879   1.699   8.666
  494XTA     H355238  33.522   1.632   8.892
  494XTA     H455239  33.399   1.796   8.757
  494XTA     H555240  33.242   1.960   8.622
  494XTA     H655241  33.038   1.885   8.524
  494XTA     H755242  33.271   1.667   8.221
  494XTA     H855243  33.486   1.756   8.344
  494XTA     H955244  33.454   2.126   8.679
  494XTA    H1055245  33.544   2.354   8.629
  494XTA    H1155246  33.708   2.189   8.264
  494XTA    H1255247  33.610   1.967   8.315
  494XTA    OA155248  33.770   1.566   8.873
  494XTA    CO155249  33.898   1.596   8.919
  494XTA    OA255250  33.042   1.690   8.304
  494XTA    CO255251  32.917   1.737   8.328
  494XTA    CL155252  32.812   1.650   8.241
  494XTA    CL255253  32.818   1.691   8.089
  494XTA    CL355254  32.679   1.694   8.017
  494XTA    CL455255  32.673   1.725   7.869
  494XTA    CO355256  32.547   1.666   7.800
  494XTA    OA355257  32.567   1.709   7.665
  494XTA    CO455258  32.449   1.673   7.594
  494XTA    CT155259  32.409   1.776   7.485
  494XTA    CL555260  32.410   1.923   7.546
  494XTA    CL655261  32.285   1.966   7.616
  494XTA    OA455262  33.709   2.412   8.435
  494XTA    CO555263  33.762   2.443   8.310
  494XTA    CL755264  33.746   2.590   8.277
  494XTA    CL855265  33.603   2.623   8.223
  494XTA    CL955266  33.497   2.630   8.335
  494XTA   CL1055267  33.513   2.718   8.455
  494XTA    CO655268  33.558   2.857   8.420
  494XTA    OA555269  33.573   2.917   8.549
  494XTA    CO755270  33.603   3.057   8.550
  494XTA    CT255271  33.694   3.104   8.663
  494XTA   CL1155272  33.684   3.263   8.669
  494XTA   CL1255273  33.748   3.317   8.546
  494XTA    HL155274  33.956   1.618   8.832
  494XTA    HL255275  33.904   1.682   8.982
  494XTA    HL355276  33.935   1.506   8.973
  494XTA    HL455277  32.902   1.738   8.436
  494XTA    HL555278  32.903   1.834   8.296
  494XTA    HL655279  32.718   1.684   8.288
  494XTA    HL755280  32.819   1.544   8.266
  494XTA    HL855281  32.873   1.618   8.032
  494XTA    HL955282  32.878   1.785   8.080
  494XTA   HL1055283  32.629   1.597   8.037
  494XTA   HL1155284  32.605   1.748   8.072
  494XTA   HL1255285  32.764   1.699   7.828
  494XTA   HL1355286  32.669   1.834   7.849
  494XTA   HL1455287  32.557   1.558   7.811
  494XTA   HL1555288  32.460   1.690   7.858
  494XTA   HL1655289  32.481   1.577   7.542
  494XTA   HL1755290  32.373   1.650   7.663
  494XTA   HL1855291  32.430   1.995   7.467
  494XTA   HL1955292  32.497   1.941   7.610
  494XTA   HL2055293  32.214   1.964   7.531
  494XTA   HL2155294  32.291   2.061   7.664
  494XTA   HL2255295  32.251   1.888   7.680
  494XTA   HL2355296  33.712   2.391   8.233
  494XTA   HL2455297  33.862   2.408   8.308
  494XTA   HL2555298  33.766   2.648   8.367
  494XTA   HL2655299  33.817   2.610   8.206
  494XTA   HL2755300  33.616   2.722   8.165
  494XTA   HL2855301  33.576   2.553   8.142
  494XTA   HL2955302  33.401   2.664   8.283
  494XTA   HL3055303  33.485   2.522   8.367
  494XTA   HL3155304  33.412   2.732   8.498
  494XTA   HL3255305  33.592   2.681   8.513
  494XTA   HL3355306  33.641   2.855   8.357
  494XTA   HL3455307  33.481   2.895   8.351
  494XTA   HL3555308  33.513   3.127   8.541
  494XTA   HL3655309  33.646   3.070   8.449
  494XTA   HL3755310  33.740   3.309   8.752
  494XTA   HL3855311  33.584   3.300   8.671
  494XTA   HL3955312  33.690   3.282   8.461
  494XTA   HL4055313  33.845   3.285   8.541
  494XTA   HL4155314  33.749   3.431   8.538
  494XTA    CO855315  32.273   1.743   7.417
  494XTA    CO955316  32.516   1.778   7.381
  494XTA    OA655317  32.522   1.658   7.306
  494XTA   HL4255318  32.286   1.653   7.355
  494XTA   HL4355319  32.232   1.825   7.348
  494XTA   HL4455320  33.886   3.093   8.550
  494XTA   HL4555321  33.901   3.099   8.724
  494XTA   CO1055322  33.842   3.059   8.645
  494XTA   CO1155323  33.636   3.042   8.791
  494XTA    OA755324  33.841   2.921   8.646
  494XTA   HL4655325  33.609   2.938   8.784
  494XTA   HL4755326  33.712   3.048   8.867
  494XTA   HL4855327  32.613   1.804   7.423
  494XTA   HL4955328  32.504   1.845   7.303
  495XTA     NT55329  29.306   0.747   1.597
  495XTA    CN155330  29.270   0.874   1.616
  495XTA     C155331  29.174   0.898   1.715
  495XTA     C255332  29.135   1.031   1.746
  495XTA     C355333  29.179   1.137   1.671
  495XTA     C455334  29.270   1.110   1.571
  495XTA     C555335  29.325   0.983   1.551
  495XTA    CN255336  29.326   0.690   1.469
  495XTA     C655337  29.449   0.650   1.426
  495XTA     C755338  29.470   0.592   1.297
  495XTA     C855339  29.358   0.581   1.212
  495XTA     C955340  29.230   0.614   1.258
  495XTA    C1055341  29.210   0.673   1.383
  495XTA    CN355342  29.350   0.672   1.699
  495XTA    C1155343  29.295   0.545   1.718
  495XTA    C1255344  29.332   0.471   1.831
  495XTA    C1355345  29.434   0.521   1.914
  495XTA    C1455346  29.493   0.646   1.890
  495XTA    C1555347  29.444   0.730   1.789
  495XTA     H155348  29.138   0.813   1.767
  495XTA     H255349  29.058   1.053   1.820
  495XTA     H355350  29.305   1.185   1.512
  495XTA     H455351  29.380   0.970   1.459
  495XTA     H555352  29.534   0.674   1.493
  495XTA     H655353  29.571   0.566   1.259
  495XTA     H755354  29.148   0.610   1.196
  495XTA     H855355  29.110   0.710   1.405
  495XTA     H955356  29.223   0.505   1.646
  495XTA    H1055357  29.292   0.369   1.853
  495XTA    H1155358  29.572   0.688   1.946
  495XTA    H1255359  29.479   0.831   1.761
  495XTA    OA155360  29.124   1.264   1.682
  495XTA    CO155361  29.100   1.315   1.812
  495XTA    OA255362  29.390   0.538   1.090
  495XTA    CO255363  29.290   0.479   1.006
  495XTA    CL155364  29.364   0.443   0.873
  495XTA    CL255365  29.444   0.318   0.891
  495XTA    CL355366  29.576   0.347   0.967
  495XTA    CL455367  29.669   0.227   0.976
  495XTA    CO355368  29.767   0.241   1.092
  495XTA    OA355369  29.878   0.311   1.044
  495XTA    CO455370  29.920   0.396   1.146
  495XTA    CT155371  30.055   0.475   1.127
  495XTA    CL555372  30.173   0.380   1.129
  495XTA    CL655373  30.166   0.269   1.016
  495XTA    OA455374  29.484   0.452   2.017
  495XTA    CO555375  29.449   0.310   2.034
  495XTA    CL755376  29.529   0.233   2.140
  495XTA    CL855377  29.677   0.214   2.092
  495XTA    CL955378  29.762   0.332   2.126
  495XTA   CL1055379  29.880   0.356   2.024
  495XTA    CO655380  29.848   0.443   1.906
  495XTA    OA555381  29.959   0.467   1.820
  495XTA    CO755382  29.924   0.484   1.685
  495XTA    CT255383  30.045   0.532   1.603
  495XTA   CL1155384  30.101   0.656   1.682
  495XTA   CL1255385  30.236   0.699   1.642
  495XTA    HL155386  29.067   1.423   1.800
  495XTA    HL255387  29.017   1.264   1.861
  495XTA    HL355388  29.192   1.312   1.861
  495XTA    HL455389  29.247   0.394   1.058
  495XTA    HL555390  29.214   0.556   0.989
  495XTA    HL655391  29.438   0.512   0.847
  495XTA    HL755392  29.294   0.417   0.798
  495XTA    HL855393  29.469   0.281   0.791
  495XTA    HL955394  29.380   0.245   0.943
  495XTA   HL1055395  29.635   0.432   0.918
  495XTA   HL1155396  29.552   0.376   1.072
  495XTA   HL1255397  29.722   0.210   0.885
  495XTA   HL1355398  29.602   0.147   1.002
  495XTA   HL1455399  29.713   0.281   1.175
  495XTA   HL1555400  29.793   0.141   1.125
  495XTA   HL1655401  29.852   0.480   1.162
  495XTA   HL1755402  29.935   0.344   1.245
  495XTA   HL1855403  30.193   0.330   1.226
  495XTA   HL1955404  30.251   0.441   1.099
  495XTA   HL2055405  30.094   0.185   1.035
  495XTA   HL2155406  30.265   0.226   1.014
  495XTA   HL2255407  30.144   0.310   0.915
  495XTA   HL2355408  29.443   0.252   1.943
  495XTA   HL2455409  29.348   0.310   2.069
  495XTA   HL2555410  29.524   0.271   2.240
  495XTA   HL2655411  29.483   0.133   2.151
  495XTA   HL2755412  29.710   0.121   2.143
  495XTA   HL2855413  29.685   0.190   1.983
  495XTA   HL2955414  29.704   0.427   2.119
  495XTA   HL3055415  29.799   0.314   2.224
  495XTA   HL3155416  29.962   0.409   2.072
  495XTA   HL3255417  29.906   0.253   1.986
  495XTA   HL3355418  29.763   0.400   1.854
  495XTA   HL3455419  29.811   0.539   1.949
  495XTA   HL3555420  29.848   0.563   1.673
  495XTA   HL3655421  29.886   0.400   1.642
  495XTA   HL3755422  30.110   0.628   1.789
  495XTA   HL3855423  30.032   0.742   1.666
  495XTA   HL3955424  30.277   0.777   1.710
  495XTA   HL4055425  30.241   0.731   1.536
  495XTA   HL4155426  30.310   0.620   1.653
  495XTA    CO855427  30.073   0.576   1.244
  495XTA    CO955428  30.029   0.558   1.000
  495XTA    OA655429  30.116   0.609   0.968
  495XTA   HL4255430  30.170   0.630   1.212
  495XTA   HL4355431  29.968   0.666   1.227
  495XTA   HL4455432  29.936   0.485   1.425
  495XTA   HL4555433  29.955   0.657   1.442
  495XTA   CO1055434  30.007   0.562   1.453
  495XTA   CO1155435  30.155   0.426   1.611
  495XTA    OA755436  30.092   0.547   1.381
  495XTA   HL4655437  30.100   0.302   1.574
  495XTA   HL4755438  30.210   0.448   1.525
  495XTA   HL4855439  29.954   0.632   1.019
  495XTA   HL4955440  30.010   0.492   0.918
  496XTA     NT55441  30.768   2.744   7.560
  496XTA    CN155442  30.834   2.775   7.674
  496XTA     C155443  30.773   2.767   7.796
  496XTA     C255444  30.836   2.782   7.920
  496XTA     C355445  30.973   2.821   7.912
  496XTA     C455446  31.040   2.848   7.791
  496XTA     C555447  30.970   2.836   7.669
  496XTA    CN255448  30.815   2.643   7.493
  496XTA     C655449  30.752   2.509   7.511
  496XTA     C755450  30.779   2.397   7.422
  496XTA     C855451  30.875   2.425   7.321
  496XTA     C955452  30.933   2.555   7.307
  496XTA    C1055453  30.916   2.660   7.397
  496XTA    CN355454  30.681   2.829   7.504
  496XTA    C1155455  30.699   2.966   7.506
  496XTA    C1255456  30.592   3.054   7.474
  496XTA    C1355457  30.474   3.000   7.422
  496XTA    C1455458  30.448   2.861   7.428
  496XTA    C1555459  30.549   2.779   7.471
  496XTA     H155460  30.671   2.725   7.796
  496XTA     H255461  30.769   2.756   8.006
  496XTA     H355462  31.136   2.885   7.804
  496XTA     H455463  31.018   2.854   7.572
  496XTA     H555464  30.692   2.497   7.596
  496XTA     H655465  30.734   2.302   7.436
  496XTA     H755466  30.999   2.577   7.224
  496XTA     H855467  30.963   2.750   7.376
  496XTA     H955468  30.790   2.995   7.549
  496XTA    H1055469  30.618   3.160   7.472
  496XTA    H1155470  30.357   2.813   7.398
  496XTA    H1255471  30.532   2.678   7.484
  496XTA    OA155472  31.045   2.844   8.026
  496XTA    CO155473  31.027   2.732   8.121
  496XTA    OA255474  30.912   2.335   7.222
  496XTA    CO255475  30.835   2.217   7.214
  496XTA    CL155476  30.867   2.137   7.084
  496XTA    CL255477  30.831   2.218   6.967
  496XTA    CL355478  30.861   2.150   6.835
  496XTA    CL455479  30.873   2.251   6.724
  496XTA    CO355480  30.947   2.215   6.598
  496XTA    OA355481  30.936   2.317   6.507
  496XTA    CO455482  30.992   2.296   6.384
  496XTA    CT155483  30.947   2.414   6.294
  496XTA    CL555484  30.965   2.549   6.362
  496XTA    CL655485  31.002   2.666   6.273
  496XTA    OA455486  30.378   3.084   7.369
  496XTA    CO555487  30.243   3.047   7.344
  496XTA    CL755488  30.165   3.050   7.468
  496XTA    CL855489  30.144   2.907   7.532
  496XTA    CL955490  30.045   2.927   7.644
  496XTA   CL1055491  29.899   2.945   7.609
  496XTA    CO655492  29.845   2.818   7.535
  496XTA    OA555493  29.701   2.832   7.514
  496XTA    CO755494  29.667   2.938   7.421
  496XTA    CT255495  29.519   2.917   7.378
  496XTA   CL1155496  29.504   2.779   7.312
  496XTA   CL1255497  29.367   2.745   7.254
  496XTA    HL155498  31.026   2.627   8.084
  496XTA    HL255499  31.089   2.733   8.199
  496XTA    HL355500  30.941   2.744   8.176
  496XTA    HL455501  30.830   2.149   7.299
  496XTA    HL555502  30.729   2.247   7.211
  496XTA    HL655503  30.818   2.040   7.062
  496XTA    HL755504  30.980   2.134   7.080
  496XTA    HL855505  30.888   2.307   6.970
  496XTA    HL955506  30.726   2.251   6.963
  496XTA   HL1055507  30.957   2.100   6.846
  496XTA   HL1155508  30.784   2.076   6.804
  496XTA   HL1255509  30.901   2.348   6.765
  496XTA   HL1355510  30.773   2.276   6.691
  496XTA   HL1455511  31.054   2.196   6.626
  496XTA   HL1555512  30.908   2.122   6.560
  496XTA   HL1655513  31.106   2.290   6.397
  496XTA   HL1755514  30.967   2.199   6.347
  496XTA   HL1855515  31.051   2.546   6.432
  496XTA   HL1955516  30.877   2.560   6.429
  496XTA   HL2055517  30.927   2.677   6.196
  496XTA   HL2155518  31.102   2.641   6.225
  496XTA   HL2255519  31.010   2.755   6.331
  496XTA   HL2355520  30.237   2.953   7.284
  496XTA   HL2455521  30.205   3.129   7.279
  496XTA   HL2555522  30.214   3.118   7.537
  496XTA   HL2655523  30.068   3.090   7.446
  496XTA   HL2755524  30.091   2.836   7.467
  496XTA   HL2855525  30.243   2.863   7.553
  496XTA   HL2955526  30.055   2.837   7.708
  496XTA   HL3055527  30.079   3.017   7.695
  496XTA   HL3155528  29.845   2.953   7.704
  496XTA   HL3255529  29.881   3.032   7.559
  496XTA   HL3355530  29.897   2.795   7.443
  496XTA   HL3455531  29.851   2.727   7.594
  496XTA   HL3555532  29.734   2.952   7.341
  496XTA   HL3655533  29.666   3.023   7.482
  496XTA   HL3755534  29.523   2.711   7.384
  496XTA   HL3855535  29.586   2.758   7.239
  496XTA   HL3955536  29.292   2.759   7.335
  496XTA   HL4055537  29.379   2.641   7.230
  496XTA   HL4155538  29.330   2.814   7.177
  496XTA    CO855539  30.796   2.390   6.268
  496XTA    CO955540  31.013   2.402   6.152
  496XTA    OA655541  30.712   2.404   6.384
  496XTA   HL4255542  30.777   2.305   6.215
  496XTA   HL4355543  30.768   2.477   6.206
  496XTA   HL4455544  29.386   3.030   7.265
  496XTA   HL4555545  29.511   3.132   7.346
  496XTA   CO1055546  29.491   3.038   7.294
  496XTA   CO1155547  29.429   2.931   7.504
  496XTA    OA755548  29.580   3.038   7.182
  496XTA   HL4655549  29.325   2.922   7.468
  496XTA   HL4755550  29.424   3.036   7.530
  496XTA   HL4855551  30.963   2.332   6.091
  496XTA   HL4955552  31.015   2.496   6.100
  497XTA     NT55553  31.913   3.625   0.149
  497XTA    CN155554  31.836   3.617   0.034
  497XTA     C155555  31.839   3.725  -0.059
  497XTA     C255556  31.756   3.717  -0.173
  497XTA     C355557  31.678   3.604  -0.198
  497XTA     C455558  31.671   3.497  -0.108
  497XTA     C555559  31.747   3.504   0.015
  497XTA    CN255560  32.021   3.547   0.167
  497XTA     C655561  32.146   3.596   0.142
  497XTA     C755562  32.264   3.526   0.184
  497XTA     C855563  32.251   3.393   0.244
  497XTA     C955564  32.117   3.340   0.259
  497XTA    C1055565  32.003   3.417   0.218
  497XTA    CN355566  31.868   3.688   0.262
  497XTA    C1155567  31.930   3.809   0.300
  497XTA    C1255568  31.888   3.868   0.420
  497XTA    C1355569  31.787   3.813   0.500
  497XTA    C1455570  31.716   3.698   0.453
  497XTA    C1555571  31.755   3.637   0.329
  497XTA     H155572  31.896   3.819  -0.038
  497XTA     H255573  31.749   3.811  -0.230
  497XTA     H355574  31.618   3.409  -0.134
  497XTA     H455575  31.741   3.434   0.093
  497XTA     H555576  32.155   3.682   0.080
  497XTA     H655577  32.357   3.578   0.186
  497XTA     H755578  32.088   3.250   0.308
  497XTA     H855579  31.905   3.378   0.235
  497XTA     H955580  32.008   3.833   0.232
  497XTA    H1055581  31.949   3.950   0.449
  497XTA    H1155582  31.637   3.647   0.509
  497XTA    H1255583  31.699   3.557   0.286
  497XTA    OA155584  31.592   3.611  -0.309
  497XTA    CO155585  31.508   3.494  -0.333
  497XTA    OA255586  32.363   3.330   0.292
  497XTA    CO255587  32.330   3.258   0.406
  497XTA    CL155588  32.456   3.245   0.500
  497XTA    CL255589  32.571   3.184   0.422
  497XTA    CL355590  32.554   3.034   0.412
  497XTA    CL455591  32.680   2.964   0.362
  497XTA    CO355592  32.680   2.824   0.322
  497XTA    OA355593  32.567   2.802   0.235
  497XTA    CO455594  32.559   2.667   0.176
  497XTA    CT155595  32.435   2.671   0.083
  497XTA    CL555596  32.439   2.532   0.015
  497XTA    CL655597  32.332   2.516  -0.097
  497XTA    OA455598  31.769   3.870   0.621
  497XTA    CO555599  31.804   3.779   0.728
  497XTA    CL755600  31.702   3.787   0.841
  497XTA    CL855601  31.702   3.661   0.923
  497XTA    CL955602  31.598   3.665   1.028
  497XTA   CL1055603  31.467   3.705   0.975
  497XTA    CO655604  31.362   3.673   1.081
  497XTA    OA555605  31.362   3.771   1.181
  497XTA    CO755606  31.294   3.894   1.144
  497XTA    CT255607  31.299   4.000   1.256
  497XTA   CL1155608  31.192   3.967   1.376
  497XTA   CL1255609  31.183   3.818   1.393
  497XTA    HL155610  31.435   3.516  -0.413
  497XTA    HL255611  31.583   3.422  -0.360
  497XTA    HL355612  31.458   3.467  -0.240
  497XTA    HL455613  32.246   3.301   0.461
  497XTA    HL555614  32.300   3.159   0.368
  497XTA    HL655615  32.426   3.197   0.586
  497XTA    HL755616  32.482   3.344   0.541
  497XTA    HL855617  32.657   3.204   0.487
  497XTA    HL955618  32.586   3.231   0.323
  497XTA   HL1055619  32.534   3.001   0.516
  497XTA   HL1155620  32.472   3.009   0.349
  497XTA   HL1255621  32.768   2.987   0.428
  497XTA   HL1355622  32.706   3.026   0.279
  497XTA   HL1455623  32.780   2.806   0.278
  497XTA   HL1555624  32.664   2.763   0.411
  497XTA   HL1655625  32.641   2.655   0.101
  497XTA   HL1755626  32.573   2.589   0.255
  497XTA   HL1855627  32.416   2.457   0.091
  497XTA   HL1955628  32.532   2.526  -0.031
  497XTA   HL2055629  32.237   2.514  -0.044
  497XTA   HL2155630  32.329   2.425  -0.149
  497XTA   HL2255631  32.337   2.596  -0.171
  497XTA   HL2355632  31.904   3.795   0.759
  497XTA   HL2455633  31.796   3.681   0.683
  497XTA   HL2555634  31.726   3.871   0.905
  497XTA   HL2655635  31.603   3.810   0.803
  497XTA   HL2755636  31.672   3.581   0.855
  497XTA   HL2855637  31.802   3.640   0.962
  497XTA   HL2955638  31.603   3.570   1.084
  497XTA   HL3055639  31.630   3.740   1.096
  497XTA   HL3155640  31.469   3.813   0.956
  497XTA   HL3255641  31.432   3.649   0.888
  497XTA   HL3355642  31.258   3.663   1.038
  497XTA   HL3455643  31.380   3.576   1.130
  497XTA   HL3555644  31.185   3.875   1.119
  497XTA   HL3655645  31.337   3.940   1.053
  497XTA   HL3755646  31.085   3.996   1.351
  497XTA   HL3855647  31.215   4.002   1.473
  497XTA   HL3955648  31.277   3.769   1.389
  497XTA   HL4055649  31.121   3.766   1.325
  497XTA   HL4155650  31.132   3.806   1.492
  497XTA    CO855651  32.446   2.788  -0.020
  497XTA    CO955652  32.309   2.686   0.165
  497XTA    OA655653  32.213   2.710   0.108
  497XTA   HL4255654  32.457   2.887   0.036
  497XTA   HL4355655  32.335   2.791  -0.106
  497XTA   HL4455656  31.331   4.174   1.150
  497XTA   HL4555657  31.235   4.199   1.297
  497XTA   CO1055658  31.248   4.135   1.206
  497XTA   CO1155659  31.435   4.021   1.331
  497XTA    OA755660  31.546   4.013   1.243
  497XTA   HL4655661  31.446   4.117   1.387
  497XTA   HL4755662  31.448   3.949   1.416
  497XTA   HL4855663  32.330   2.760   0.247
  497XTA   HL4955664  32.293   2.594   0.225
  498XTA     NT55665  26.745   2.503   4.198
  498XTA    CN155666  26.745   2.392   4.274
  498XTA     C155667  26.854   2.304   4.251
  498XTA     C255668  26.861   2.193   4.339
  498XTA     C355669  26.763   2.176   4.443
  498XTA     C455670  26.653   2.260   4.461
  498XTA     C555671  26.651   2.374   4.377
  498XTA    CN255672  26.780   2.627   4.243
  498XTA     C655673  26.686   2.733   4.260
  498XTA     C755674  26.725   2.868   4.286
  498XTA     C855675  26.865   2.899   4.295
  498XTA     C955676  26.952   2.795   4.288
  498XTA    C1055677  26.918   2.659   4.263
  498XTA    CN355678  26.686   2.503   4.075
  498XTA    C1155679  26.763   2.550   3.967
  498XTA    C1255680  26.709   2.537   3.841
  498XTA    C1355681  26.581   2.478   3.818
  498XTA    C1455682  26.507   2.428   3.928
  498XTA    C1555683  26.558   2.443   4.063
  498XTA     H155684  26.931   2.318   4.175
  498XTA     H255685  26.941   2.122   4.331
  498XTA     H355686  26.572   2.249   4.536
  498XTA     H455687  26.568   2.443   4.398
  498XTA     H555688  26.584   2.720   4.237
  498XTA     H655689  26.656   2.950   4.289
  498XTA     H755690  27.051   2.825   4.310
  498XTA     H855691  26.994   2.583   4.261
  498XTA     H955692  26.856   2.604   3.993
  498XTA    H1055693  26.768   2.569   3.758
  498XTA    H1155694  26.404   2.390   3.929
  498XTA    H1255695  26.501   2.414   4.154
  498XTA    OA155696  26.764   2.067   4.523
  498XTA    CO155697  26.869   1.973   4.506
  498XTA    OA255698  26.914   3.028   4.326
  498XTA    CO255699  26.830   3.118   4.393
  498XTA    CL155700  26.881   3.257   4.359
  498XTA    CL255701  26.885   3.304   4.214
  498XTA    CL355702  26.745   3.329   4.163
  498XTA    CL455703  26.681   3.471   4.198
  498XTA    CO355704  26.528   3.479   4.212
  498XTA    OA355705  26.469   3.375   4.295
  498XTA    CO455706  26.488   3.388   4.434
  498XTA    CT155707  26.393   3.282   4.492
  498XTA    CL555708  26.251   3.321   4.456
  498XTA    CL655709  26.215   3.468   4.451
  498XTA    OA455710  26.534   2.460   3.687
  498XTA    CO555711  26.569   2.338   3.631
  498XTA    CL755712  26.462   2.291   3.526
  498XTA    CL855713  26.320   2.261   3.574
  498XTA    CL955714  26.309   2.141   3.668
  498XTA   CL1055715  26.327   2.005   3.587
  498XTA    CO655716  26.322   1.880   3.678
  498XTA    OA555717  26.345   1.760   3.605
  498XTA    CO755718  26.230   1.702   3.555
  498XTA    CT255719  26.254   1.629   3.417
  498XTA   CL1155720  26.345   1.505   3.435
  498XTA   CL1255721  26.330   1.436   3.570
  498XTA    HL155722  26.964   2.004   4.534
  498XTA    HL255723  26.847   1.894   4.571
  498XTA    HL355724  26.867   1.931   4.410
  498XTA    HL455725  26.719   3.103   4.380
  498XTA    HL555726  26.847   3.094   4.495
  498XTA    HL655727  26.983   3.266   4.386
  498XTA    HL755728  26.828   3.329   4.418
  498XTA    HL855729  26.933   3.225   4.153
  498XTA    HL955730  26.941   3.402   4.200
  498XTA   HL1055731  26.750   3.313   4.050
  498XTA   HL1155732  26.681   3.244   4.201
  498XTA   HL1255733  26.713   3.546   4.121
  498XTA   HL1355734  26.725   3.516   4.282
  498XTA   HL1455735  26.494   3.577   4.248
  498XTA   HL1555736  26.488   3.460   4.110
  498XTA   HL1655737  26.592   3.366   4.462
  498XTA   HL1755738  26.451   3.479   4.481
  498XTA   HL1855739  26.194   3.268   4.535
  498XTA   HL1955740  26.228   3.270   4.358
  498XTA   HL2055741  26.115   3.460   4.417
  498XTA   HL2155742  26.278   3.524   4.382
  498XTA   HL2255743  26.223   3.514   4.547
  498XTA   HL2355744  26.554   2.259   3.702
  498XTA   HL2455745  26.672   2.351   3.604
  498XTA   HL2555746  26.461   2.363   3.446
  498XTA   HL2655747  26.492   2.201   3.472
  498XTA   HL2755748  26.286   2.345   3.627
  498XTA   HL2855749  26.254   2.246   3.487
  498XTA   HL2955750  26.378   2.148   3.754
  498XTA   HL3055751  26.212   2.133   3.714
  498XTA   HL3155752  26.235   1.998   3.518
  498XTA   HL3255753  26.424   2.005   3.532
  498XTA   HL3355754  26.391   1.894   3.761
  498XTA   HL3455755  26.218   1.875   3.716
  498XTA   HL3555756  26.148   1.779   3.544
  498XTA   HL3655757  26.178   1.638   3.627
  498XTA   HL3755758  26.452   1.539   3.422
  498XTA   HL3855759  26.311   1.433   3.365
  498XTA   HL3955760  26.390   1.338   3.560
  498XTA   HL4055761  26.234   1.397   3.590
  498XTA   HL4155762  26.372   1.487   3.652
  498XTA    CO855763  26.414   3.278   4.648
  498XTA    CO955764  26.430   3.137   4.460
  498XTA    OA655765  26.331   3.055   4.520
  498XTA   HL4255766  26.376   3.369   4.696
  498XTA   HL4355767  26.350   3.208   4.697
  498XTA   HL4455768  26.276   1.823   3.299
  498XTA   HL4555769  26.362   1.674   3.224
  498XTA   CO1055770  26.280   1.716   3.288
  498XTA   CO1155771  26.121   1.594   3.350
  498XTA    OA755772  26.151   1.679   3.239
  498XTA   HL4655773  26.109   1.492   3.325
  498XTA   HL4755774  26.035   1.623   3.409
  498XTA   HL4855775  26.530   3.108   4.479
  498XTA   HL4955776  26.418   3.126   4.350
  499XTA     NT55777  27.703   4.344   0.329
  499XTA    CN155778  27.755   4.373   0.452
  499XTA     C155779  27.775   4.261   0.537
  499XTA     C255780  27.822   4.287   0.669
  499XTA     C355781  27.821   4.416   0.724
  499XTA     C455782  27.801   4.524   0.636
  499XTA     C555783  27.776   4.506   0.501
  499XTA    CN255784  27.573   4.364   0.304
  499XTA     C655785  27.529   4.467   0.218
  499XTA     C755786  27.394   4.467   0.177
  499XTA     C855787  27.305   4.373   0.218
  499XTA     C955788  27.341   4.277   0.315
  499XTA    C1055789  27.476   4.273   0.358
  499XTA    CN355790  27.787   4.311   0.224
  499XTA    C1155791  27.830   4.177   0.212
  499XTA    C1255792  27.906   4.142   0.100
  499XTA    C1355793  27.947   4.237   0.006
  499XTA    C1455794  27.914   4.372   0.029
  499XTA    C1555795  27.835   4.412   0.138
  499XTA     H155796  27.760   4.156   0.511
  499XTA     H255797  27.835   4.200   0.732
  499XTA     H355798  27.804   4.626   0.668
  499XTA     H455799  27.751   4.594   0.445
  499XTA     H555800  27.592   4.548   0.191
  499XTA     H655801  27.355   4.544   0.105
  499XTA     H755802  27.268   4.214   0.347
  499XTA     H855803  27.516   4.195   0.423
  499XTA     H955804  27.799   4.105   0.282
  499XTA    H1055805  27.935   4.037   0.078
  499XTA    H1155806  27.955   4.452  -0.026
  499XTA    H1255807  27.803   4.511   0.169
  499XTA    OA155808  27.845   4.451   0.856
  499XTA    CO155809  27.796   4.356   0.948
  499XTA    OA255810  27.173   4.378   0.181
  499XTA    CO255811  27.131   4.465   0.088
  499XTA    CL155812  26.985   4.436   0.065
  499XTA    CL255813  26.914   4.516  -0.047
  499XTA    CL355814  26.771   4.461  -0.070
  499XTA    CL455815  26.789   4.332  -0.157
  499XTA    CO355816  26.674   4.229  -0.155
  499XTA    OA355817  26.705   4.175  -0.033
  499XTA    CO455818  26.652   4.044  -0.034
  499XTA    CT155819  26.702   3.964   0.087
  499XTA    CL555820  26.687   3.816   0.058
  499XTA    CL655821  26.545   3.760   0.031
  499XTA    OA455822  28.037   4.193  -0.091
  499XTA    CO555823  28.049   4.271  -0.213
  499XTA    CL755824  28.058   4.166  -0.336
  499XTA    CL855825  27.938   4.072  -0.353
  499XTA    CL955826  27.930   4.012  -0.494
  499XTA   CL1055827  27.811   3.913  -0.501
  499XTA    CO655828  27.676   3.983  -0.545
  499XTA    OA555829  27.573   3.876  -0.556
  499XTA    CO755830  27.500   3.868  -0.435
  499XTA    CT255831  27.365   3.803  -0.466
  499XTA   CL1155832  27.280   3.902  -0.547
  499XTA   CL1255833  27.165   3.833  -0.625
  499XTA    HL155834  27.696   4.325   0.922
  499XTA    HL255835  27.865   4.274   0.952
  499XTA    HL355836  27.801   4.393   1.052
  499XTA    HL455837  27.147   4.569   0.118
  499XTA    HL555838  27.192   4.433  -0.000
  499XTA    HL655839  26.938   4.443   0.162
  499XTA    HL755840  26.982   4.329   0.039
  499XTA    HL855841  26.971   4.525  -0.143
  499XTA    HL955842  26.891   4.622  -0.015
  499XTA   HL1055843  26.727   4.451   0.034
  499XTA   HL1155844  26.711   4.526  -0.139
  499XTA   HL1255845  26.883   4.289  -0.134
  499XTA   HL1355846  26.804   4.369  -0.258
  499XTA   HL1455847  26.581   4.277  -0.168
  499XTA   HL1555848  26.696   4.154  -0.233
  499XTA   HL1655849  26.543   4.049  -0.035
  499XTA   HL1755850  26.677   3.983  -0.113
  499XTA   HL1855851  26.737   3.770   0.139
  499XTA   HL1955852  26.742   3.799  -0.035
  499XTA   HL2055853  26.545   3.678  -0.039
  499XTA   HL2155854  26.473   3.832  -0.004
  499XTA   HL2255855  26.502   3.726   0.127
  499XTA   HL2355856  28.140   4.322  -0.204
  499XTA   HL2455857  27.964   4.334  -0.240
  499XTA   HL2555858  28.082   4.219  -0.429
  499XTA   HL2655859  28.147   4.102  -0.313
  499XTA   HL2755860  27.947   3.996  -0.280
  499XTA   HL2855861  27.846   4.122  -0.319
  499XTA   HL2955862  27.924   4.081  -0.576
  499XTA   HL3055863  28.023   3.954  -0.506
  499XTA   HL3155864  27.834   3.823  -0.549
  499XTA   HL3255865  27.789   3.883  -0.399
  499XTA   HL3355866  27.654   4.052  -0.465
  499XTA   HL3455867  27.687   4.045  -0.638
  499XTA   HL3555868  27.491   3.965  -0.384
  499XTA   HL3655869  27.553   3.802  -0.364
  499XTA   HL3755870  27.348   3.937  -0.622
  499XTA   HL3855871  27.252   3.980  -0.480
  499XTA   HL3955872  27.110   3.919  -0.664
  499XTA   HL4055873  27.104   3.768  -0.563
  499XTA   HL4155874  27.211   3.775  -0.699
  499XTA    CO855875  26.620   4.009   0.213
  499XTA    CO955876  26.852   3.985   0.106
  499XTA    OA655877  26.679   3.979   0.302
  499XTA   HL4255878  26.512   3.979   0.198
  499XTA   HL4355879  26.621   4.116   0.218
  499XTA   HL4455880  27.222   3.700  -0.336
  499XTA   HL4555881  27.381   3.724  -0.265
  499XTA   CO1055882  27.301   3.770  -0.327
  499XTA   CO1155883  27.398   3.675  -0.540
  499XTA    OA755884  27.250   3.886  -0.265
  499XTA   HL4655885  27.484   3.631  -0.487
  499XTA   HL4755886  27.444   3.699  -0.637
  499XTA   HL4855887  26.908   3.905   0.209
  499XTA   HL4955888  26.847   4.079   0.156
  500XTH     NT55889  34.771   0.752   1.240
  500XTH    CN155890  34.638   0.740   1.279
  500XTH     C155891  34.585   0.620   1.323
  500XTH     C255892  34.452   0.610   1.358
  500XTH     C355893  34.370   0.722   1.354
  500XTH     C455894  34.419   0.843   1.294
  500XTH     C555895  34.551   0.855   1.256
  500XTH    CN255896  34.861   0.785   1.334
  500XTH     C655897  34.832   0.880   1.436
  500XTH     C755898  34.936   0.911   1.527
  500XTH     C855899  35.058   0.843   1.525
  500XTH     C955900  35.082   0.744   1.426
  500XTH    C1055901  34.984   0.715   1.330
  500XTH    CN355902  34.803   0.742   1.109
  500XTH    C1155903  34.872   0.851   1.051
  500XTH    C1255904  34.908   0.852   0.921
  500XTH    C1355905  34.865   0.752   0.835
  500XTH    C1455906  34.781   0.655   0.887
  500XTH    C1555907  34.751   0.640   1.021
  500XTH     H155908  34.636   0.525   1.325
  500XTH     H255909  34.403   0.517   1.385
  500XTH     H355910  34.365   0.932   1.271
  500XTH     H455911  34.584   0.944   1.211
  500XTH     H555912  34.737   0.928   1.446
  500XTH     H655913  34.914   0.982   1.605
  500XTH     H755914  35.179   0.694   1.422
  500XTH     H855915  34.999   0.636   1.252
  500XTH     H955916  34.900   0.939   1.101
  500XTH    H1055917  34.956   0.939   0.885
  500XTH    H1155918  34.733   0.588   0.816
  500XTH    H1255919  34.691   0.570   1.078
  500XTH    OA155920  34.239   0.705   1.382
  500XTH    CO155921  34.166   0.813   1.421
  500XTH    OA255922  35.164   0.869   1.603
  500XTH    CO255923  35.145   0.965   1.707
  500XTH    CL155924  35.244   0.941   1.816
  500XTH    CL255925  35.227   1.041   1.925
  500XTH    CL355926  35.113   1.008   2.021
  500XTH    CL455927  35.128   0.885   2.116
  500XTH    CO355928  35.227   0.901   2.223
  500XTH    OA355929  35.196   0.800   2.310
  500XTH    CO455930  35.309   0.736   2.361
  500XTH    CT155931  35.265   0.641   2.474
  500XTH    CL555932  35.177   0.707   2.583
  500XTH    CL655933  35.244   0.828   2.655
  500XTH    OA455934  34.889   0.757   0.706
  500XTH    CO555935  34.973   0.865   0.662
  500XTH    CL755936  34.996   0.854   0.510
  500XTH    CL855937  35.116   0.950   0.481
  500XTH    CL955938  35.257   0.895   0.512
  500XTH   CL1055939  35.342   0.962   0.618
  500XTH    CO655940  35.482   0.900   0.622
  500XTH    OA555941  35.560   0.944   0.730
  500XTH    CO755942  35.652   0.848   0.761
  500XTH    CT255943  35.746   0.902   0.871
  500XTH   CL1155944  35.869   0.809   0.898
  500XTH   CL1255945  35.955   0.783   0.782
  500XTH    HL155946  34.215   0.853   1.507
  500XTH    HL255947  34.167   0.887   1.335
  500XTH    HL355948  34.063   0.786   1.441
  500XTH    HL455949  35.149   1.064   1.674
  500XTH    HL555950  35.052   0.943   1.761
  500XTH    HL655951  35.343   0.971   1.781
  500XTH    HL755952  35.246   0.848   1.863
  500XTH    HL855953  35.212   1.143   1.887
  500XTH    HL955954  35.324   1.043   1.985
  500XTH   HL1055955  35.090   1.096   2.077
  500XTH   HL1155956  35.016   0.994   1.969
  500XTH   HL1255957  35.165   0.805   2.055
  500XTH   HL1355958  35.024   0.853   2.145
  500XTH   HL1455959  35.323   0.894   2.179
  500XTH   HL1555960  35.214   1.001   2.265
  500XTH   HL1655961  35.362   0.685   2.277
  500XTH   HL1755962  35.382   0.808   2.404
  500XTH   HL1855963  35.156   0.632   2.662
  500XTH   HL1955964  35.079   0.740   2.542
  500XTH   HL2055965  35.344   0.791   2.699
  500XTH   HL2155966  35.188   0.859   2.740
  500XTH   HL2255967  35.269   0.915   2.591
  500XTH   HL2355968  35.067   0.846   0.714
  500XTH   HL2455969  34.939   0.966   0.682
  500XTH   HL2555970  35.035   0.760   0.468
  500XTH   HL2655971  34.916   0.888   0.442
  500XTH   HL2755972  35.106   0.980   0.377
  500XTH   HL2855973  35.100   1.048   0.530
  500XTH   HL2955974  35.235   0.790   0.539
  500XTH   HL3055975  35.317   0.886   0.420
  500XTH   HL3155976  35.357   1.070   0.601
  500XTH   HL3255977  35.294   0.958   0.712
  500XTH   HL3355978  35.469   0.793   0.612
  500XTH   HL3455979  35.535   0.935   0.537
  500XTH   HL3555980  35.704   0.808   0.668
  500XTH   HL3655981  35.602   0.753   0.802
  500XTH   HL3755982  35.832   0.701   0.921
  500XTH   HL3855983  35.920   0.856   0.983
  500XTH   HL3955984  35.987   0.875   0.736
  500XTH   HL4055985  35.909   0.723   0.715
  500XTH   HL4155986  36.050   0.727   0.802
  500XTH    CO855987  35.388   0.551   2.529
  500XTH    CO955988  35.172   0.545   2.403
  500XTH    OA655989  35.446   0.607   2.599
  500XTH   HL4255990  35.446   0.511   2.442
  500XTH   HL4355991  35.330   0.469   2.575
  500XTH   HL4455992  35.747   0.929   1.074
  500XTH   HL4555993  35.617   1.005   1.010
  500XTH   CO1055994  35.671   0.917   1.004
  500XTH   CO1155995  35.805   1.043   0.841
  500XTH    OA755996  35.604   0.793   1.030
  500XTH   HL4655997  35.730   1.118   0.862
  500XTH   HL4755998  35.823   1.037   0.731
  500XTH   HL4855999  35.111   0.455   2.492
  500XTH   HL4956000  35.095   0.604   2.357
  501XTA     NT56001  28.311   3.635   4.312
  501XTA    CN156002  28.420   3.649   4.387
  501XTA     C156003  28.415   3.602   4.521
  501XTA     C256004  28.522   3.614   4.609
  501XTA     C356005  28.645   3.652   4.561
  501XTA     C456006  28.650   3.711   4.436
  501XTA     C556007  28.539   3.710   4.347
  501XTA    CN256008  28.256   3.514   4.281
  501XTA     C656009  28.303   3.430   4.176
  501XTA     C756010  28.254   3.294   4.161
  501XTA     C856011  28.156   3.245   4.242
  501XTA     C956012  28.101   3.333   4.341
  501XTA    C1056013  28.153   3.459   4.363
  501XTA    CN356014  28.250   3.740   4.260
  501XTA    C1156015  28.303   3.791   4.137
  501XTA    C1256016  28.255   3.915   4.092
  501XTA    C1356017  28.153   3.985   4.151
  501XTA    C1456018  28.094   3.931   4.266
  501XTA    C1556019  28.145   3.810   4.322
  501XTA     H156020  28.313   3.574   4.558
  501XTA     H256021  28.499   3.582   4.710
  501XTA     H356022  28.743   3.744   4.391
  501XTA     H456023  28.547   3.758   4.248
  501XTA     H556024  28.385   3.469   4.120
  501XTA     H656025  28.295   3.234   4.081
  501XTA     H756026  28.016   3.301   4.397
  501XTA     H856027  28.123   3.518   4.446
  501XTA     H956028  28.386   3.742   4.078
  501XTA    H1056029  28.286   3.961   3.996
  501XTA    H1156030  28.009   3.981   4.317
  501XTA    H1256031  28.090   3.788   4.411
  501XTA    OA156032  28.757   3.665   4.637
  501XTA    CO156033  28.754   3.597   4.761
  501XTA    OA256034  28.110   3.119   4.213
  501XTA    CO256035  27.986   3.077   4.254
  501XTA    CL156036  27.955   2.933   4.200
  501XTA    CL256037  27.823   2.926   4.135
  501XTA    CL356038  27.787   2.782   4.080
  501XTA    CL456039  27.731   2.688   4.187
  501XTA    CO356040  27.610   2.732   4.262
  501XTA    OA356041  27.561   2.632   4.355
  501XTA    CO456042  27.450   2.673   4.436
  501XTA    CT156043  27.362   2.553   4.477
  501XTA    CL556044  27.274   2.519   4.353
  501XTA    CL656045  27.194   2.392   4.351
  501XTA    OA456046  28.123   4.113   4.099
  501XTA    CO556047  28.021   4.193   4.154
  501XTA    CL756048  27.879   4.133   4.117
  501XTA    CL856049  27.766   4.205   4.184
  501XTA    CL956050  27.628   4.140   4.154
  501XTA   CL1056051  27.524   4.252   4.146
  501XTA    CO656052  27.381   4.207   4.104
  501XTA    OA556053  27.288   4.238   4.210
  501XTA    CO756054  27.308   4.171   4.331
  501XTA    CT256055  27.301   4.263   4.447
  501XTA   CL1156056  27.306   4.170   4.576
  501XTA   CL1256057  27.444   4.100   4.604
  501XTA    HL156058  28.858   3.603   4.803
  501XTA    HL256059  28.684   3.640   4.827
  501XTA    HL356060  28.724   3.492   4.751
  501XTA    HL456061  27.977   3.077   4.366
  501XTA    HL556062  27.921   3.152   4.213
  501XTA    HL656063  27.970   2.870   4.286
  501XTA    HL756064  28.025   2.909   4.121
  501XTA    HL856065  27.816   2.985   4.048
  501XTA    HL956066  27.746   2.947   4.206
  501XTA   HL1056067  27.702   2.788   4.003
  501XTA   HL1156068  27.870   2.739   4.024
  501XTA   HL1256069  27.809   2.671   4.259
  501XTA   HL1356070  27.704   2.591   4.149
  501XTA   HL1456071  27.638   2.814   4.330
  501XTA   HL1556072  27.536   2.763   4.192
  501XTA   HL1656073  27.488   2.723   4.525
  501XTA   HL1756074  27.396   2.753   4.388
  501XTA   HL1856075  27.348   2.511   4.273
  501XTA   HL1956076  27.214   2.604   4.322
  501XTA   HL2056077  27.116   2.408   4.421
  501XTA   HL2156078  27.249   2.306   4.384
  501XTA   HL2256079  27.151   2.361   4.256
  501XTA   HL2356080  28.021   4.295   4.114
  501XTA   HL2456081  28.048   4.206   4.262
  501XTA   HL2556082  27.877   4.144   4.011
  501XTA   HL2656083  27.864   4.023   4.129
  501XTA   HL2756084  27.776   4.203   4.287
  501XTA   HL2856085  27.756   4.303   4.148
  501XTA   HL2956086  27.635   4.108   4.046
  501XTA   HL3056087  27.596   4.052   4.215
  501XTA   HL3156088  27.531   4.311   4.234
  501XTA   HL3256089  27.558   4.323   4.064
  501XTA   HL3356090  27.364   4.284   4.022
  501XTA   HL3456091  27.371   4.097   4.076
  501XTA   HL3556092  27.401   4.110   4.334
  501XTA   HL3656093  27.230   4.100   4.336
  501XTA   HL3756094  27.222   4.101   4.578
  501XTA   HL3856095  27.292   4.230   4.663
  501XTA   HL3956096  27.452   4.061   4.707
  501XTA   HL4056097  27.520   4.177   4.590
  501XTA   HL4156098  27.463   4.008   4.544
  501XTA    CO856099  27.266   2.584   4.598
  501XTA    CO956100  27.444   2.426   4.539
  501XTA    OA656101  27.213   2.492   4.639
  501XTA   HL4256102  27.198   2.661   4.570
  501XTA   HL4356103  27.336   2.622   4.671
  501XTA   HL4456104  27.163   4.388   4.550
  501XTA   HL4556105  27.158   4.419   4.373
  501XTA   CO1056106  27.165   4.335   4.449
  501XTA   CO1156107  27.404   4.379   4.445
  501XTA    OA756108  27.080   4.262   4.433
  501XTA   HL4656109  27.397   4.451   4.322
  501XTA   HL4756110  27.503   4.330   4.440
  501XTA   HL4856111  27.518   2.478   4.650
  501XTA   HL4956112  27.378   2.351   4.575
  502XTA     NT56113  28.571   3.350   2.255
  502XTA    CN156114  28.678   3.306   2.190
  502XTA     C156115  28.710   3.357   2.064
  502XTA     C256116  28.818   3.298   1.992
  502XTA     C356117  28.886   3.187   2.041
  502XTA     C456118  28.853   3.130   2.162
  502XTA     C556119  28.759   3.196   2.244
  502XTA    CN256120  28.594   3.456   2.339
  502XTA     C656121  28.540   3.462   2.468
  502XTA     C756122  28.564   3.576   2.554
  502XTA     C856123  28.646   3.680   2.516
  502XTA     C956124  28.701   3.677   2.389
  502XTA    C1056125  28.680   3.564   2.305
  502XTA    CN356126  28.447   3.318   2.211
  502XTA    C1156127  28.373   3.411   2.138
  502XTA    C1256128  28.245   3.376   2.097
  502XTA    C1356129  28.187   3.246   2.115
  502XTA    C1456130  28.265   3.163   2.197
  502XTA    C1556131  28.397   3.194   2.241
  502XTA     H156132  28.656   3.434   2.018
  502XTA     H256133  28.834   3.332   1.892
  502XTA     H356134  28.911   3.052   2.194
  502XTA     H456135  28.730   3.170   2.347
  502XTA     H556136  28.478   3.373   2.500
  502XTA     H656137  28.524   3.574   2.651
  502XTA     H756138  28.759   3.759   2.362
  502XTA     H856139  28.722   3.557   2.206
  502XTA     H956140  28.421   3.501   2.089
  502XTA    H1056141  28.190   3.449   2.044
  502XTA    H1156142  28.219   3.066   2.235
  502XTA    H1256143  28.472   3.127   2.283
  502XTA    OA156144  28.975   3.110   1.966
  502XTA    CO156145  28.990   3.144   1.830
  502XTA    OA256146  28.658   3.781   2.609
  502XTA    CO256147  28.668   3.907   2.549
  502XTA    CL156148  28.647   4.009   2.658
  502XTA    CL256149  28.639   4.152   2.602
  502XTA    CL356150  28.569   4.244   2.698
  502XTA    CL456151  28.633   4.238   2.840
  502XTA    CO356152  28.768   4.311   2.841
  502XTA    OA356153  28.825   4.325   2.970
  502XTA    CO456154  28.877   4.204   3.022
  502XTA    CT156155  28.910   4.220   3.177
  502XTA    CL556156  28.790   4.285   3.249
  502XTA    CL656157  28.646   4.217   3.242
  502XTA    OA456158  28.057   3.217   2.076
  502XTA    CO556159  27.982   3.312   1.994
  502XTA    CL756160  27.846   3.256   1.943
  502XTA    CL856161  27.770   3.364   1.861
  502XTA    CL956162  27.722   3.484   1.939
  502XTA   CL1056163  27.601   3.448   2.024
  502XTA    CO656164  27.478   3.426   1.945
  502XTA    OA556165  27.358   3.445   2.019
  502XTA    CO756166  27.357   3.373   2.143
  502XTA    CT256167  27.208   3.359   2.164
  502XTA   CL1156168  27.187   3.263   2.300
  502XTA   CL1256169  27.238   3.322   2.434
  502XTA    HL156170  28.904   3.115   1.768
  502XTA    HL256171  29.027   3.248   1.808
  502XTA    HL356172  29.071   3.076   1.811
  502XTA    HL456173  28.768   3.932   2.507
  502XTA    HL556174  28.583   3.929   2.474
  502XTA    HL656175  28.718   3.999   2.742
  502XTA    HL756176  28.543   3.986   2.696
  502XTA    HL856177  28.601   4.159   2.501
  502XTA    HL956178  28.737   4.189   2.582
  502XTA   HL1056179  28.578   4.348   2.665
  502XTA   HL1156180  28.462   4.213   2.695
  502XTA   HL1256181  28.646   4.139   2.885
  502XTA   HL1356182  28.570   4.292   2.914
  502XTA   HL1456183  28.842   4.258   2.786
  502XTA   HL1556184  28.765   4.407   2.804
  502XTA   HL1656185  28.807   4.120   3.000
  502XTA   HL1756186  28.976   4.177   2.979
  502XTA   HL1856187  28.772   4.384   3.215
  502XTA   HL1956188  28.807   4.293   3.357
  502XTA   HL2056189  28.657   4.126   3.306
  502XTA   HL2156190  28.610   4.194   3.144
  502XTA   HL2256191  28.574   4.281   3.289
  502XTA   HL2356192  28.043   3.362   1.918
  502XTA   HL2456193  27.970   3.396   2.066
  502XTA   HL2556194  27.869   3.173   1.876
  502XTA   HL2656195  27.786   3.214   2.023
  502XTA   HL2756196  27.840   3.392   1.783
  502XTA   HL2856197  27.684   3.321   1.805
  502XTA   HL2956198  27.805   3.510   2.005
  502XTA   HL3056199  27.698   3.567   1.880
  502XTA   HL3156200  27.618   3.369   2.095
  502XTA   HL3256201  27.578   3.534   2.084
  502XTA   HL3356202  27.478   3.478   1.853
  502XTA   HL3456203  27.481   3.321   1.917
  502XTA   HL3556204  27.415   3.420   2.227
  502XTA   HL3656205  27.409   3.275   2.127
  502XTA   HL3756206  27.226   3.160   2.278
  502XTA   HL3856207  27.078   3.251   2.310
  502XTA   HL3956208  27.181   3.406   2.469
  502XTA   HL4056209  27.341   3.358   2.418
  502XTA   HL4156210  27.239   3.248   2.512
  502XTA    CO856211  29.031   4.322   3.199
  502XTA    CO956212  28.931   4.089   3.258
  502XTA    OA656213  29.043   4.021   3.201
  502XTA   HL4256214  29.070   4.315   3.300
  502XTA   HL4356215  29.110   4.298   3.124
  502XTA   HL4456216  27.036   3.272   2.057
  502XTA   HL4556217  27.142   3.374   1.961
  502XTA   CO1056218  27.137   3.297   2.043
  502XTA   CO1156219  27.149   3.493   2.194
  502XTA    OA756220  27.205   3.172   2.019
  502XTA   HL4656221  27.049   3.478   2.241
  502XTA   HL4756222  27.128   3.548   2.104
  502XTA   HL4856223  28.846   4.018   3.258
  502XTA   HL4956224  28.942   4.113   3.359
  503XTA     NT56225  26.885   3.223   5.430
  503XTA    CN156226  27.010   3.205   5.382
  503XTA     C156227  27.043   3.267   5.260
  503XTA     C256228  27.172   3.269   5.210
  503XTA     C356229  27.270   3.191   5.278
  503XTA     C456230  27.239   3.133   5.402
  503XTA     C556231  27.109   3.143   5.455
  503XTA    CN256232  26.778   3.175   5.363
  503XTA     C656233  26.744   3.037   5.378
  503XTA     C756234  26.635   2.984   5.316
  503XTA     C856235  26.554   3.063   5.232
  503XTA     C956236  26.580   3.204   5.222
  503XTA    C1056237  26.695   3.262   5.290
  503XTA    CN356238  26.865   3.291   5.547
  503XTA    C1156239  26.824   3.208   5.654
  503XTA    C1256240  26.785   3.276   5.769
  503XTA    C1356241  26.794   3.421   5.776
  503XTA    C1456242  26.835   3.502   5.667
  503XTA    C1556243  26.873   3.435   5.551
  503XTA     H156244  26.960   3.321   5.208
  503XTA     H256245  27.199   3.326   5.125
  503XTA     H356246  27.320   3.084   5.459
  503XTA     H456247  27.083   3.099   5.558
  503XTA     H556248  26.804   2.975   5.443
  503XTA     H656249  26.612   2.875   5.322
  503XTA     H756250  26.528   3.264   5.153
  503XTA     H856251  26.705   3.366   5.275
  503XTA     H956252  26.813   3.100   5.649
  503XTA    H1056253  26.755   3.218   5.854
  503XTA    H1156254  26.828   3.612   5.678
  503XTA    H1256255  26.900   3.467   5.453
  503XTA    OA156256  27.405   3.184   5.234
  503XTA    CO156257  27.443   3.257   5.123
  503XTA    OA256258  26.446   3.006   5.171
  503XTA    CO256259  26.457   2.989   5.033
  503XTA    CL156260  26.539   2.865   4.995
  503XTA    CL256261  26.539   2.827   4.844
  503XTA    CL356262  26.630   2.712   4.809
  503XTA    CL456263  26.675   2.709   4.667
  503XTA    CO356264  26.744   2.588   4.617
  503XTA    OA356265  26.862   2.561   4.692
  503XTA    CO456266  26.935   2.452   4.638
  503XTA    CT156267  27.029   2.398   4.755
  503XTA    CL556268  27.075   2.255   4.708
  503XTA    CL656269  27.158   2.193   4.819
  503XTA    OA456270  26.746   3.488   5.885
  503XTA    CO556271  26.691   3.411   5.996
  503XTA    CL756272  26.621   3.509   6.092
  503XTA    CL856273  26.703   3.623   6.137
  503XTA    CL956274  26.758   3.598   6.280
  503XTA   CL1056275  26.646   3.593   6.388
  503XTA    CO656276  26.696   3.594   6.527
  503XTA    OA556277  26.579   3.583   6.615
  503XTA    CO756278  26.620   3.600   6.751
  503XTA    CT256279  26.505   3.592   6.852
  503XTA   CL1156280  26.559   3.603   6.996
  503XTA   CL1256281  26.642   3.732   7.033
  503XTA    HL156282  27.549   3.258   5.116
  503XTA    HL256283  27.398   3.216   5.031
  503XTA    HL356284  27.420   3.365   5.134
  503XTA    HL456285  26.355   2.966   4.999
  503XTA    HL556286  26.485   3.086   4.983
  503XTA    HL656287  26.497   2.782   5.052
  503XTA    HL756288  26.646   2.873   5.027
  503XTA    HL856289  26.571   2.911   4.780
  503XTA    HL956290  26.436   2.803   4.815
  503XTA   HL1056291  26.720   2.726   4.870
  503XTA   HL1156292  26.587   2.615   4.833
  503XTA   HL1256293  26.734   2.795   4.648
  503XTA   HL1356294  26.590   2.730   4.605
  503XTA   HL1456295  26.681   2.499   4.613
  503XTA   HL1556296  26.767   2.622   4.514
  503XTA   HL1656297  26.873   2.370   4.592
  503XTA   HL1756298  26.991   2.502   4.548
  503XTA   HL1856299  27.147   2.273   4.629
  503XTA   HL1956300  27.009   2.181   4.669
  503XTA   HL2056301  27.231   2.255   4.868
  503XTA   HL2156302  27.206   2.108   4.777
  503XTA   HL2256303  27.096   2.152   4.901
  503XTA   HL2356304  26.771   3.356   6.045
  503XTA   HL2456305  26.625   3.340   5.949
  503XTA   HL2556306  26.536   3.543   6.044
  503XTA   HL2656307  26.591   3.448   6.178
  503XTA   HL2756308  26.782   3.631   6.067
  503XTA   HL2856309  26.646   3.717   6.122
  503XTA   HL2956310  26.809   3.503   6.276
  503XTA   HL3056311  26.822   3.682   6.305
  503XTA   HL3156312  26.580   3.683   6.375
  503XTA   HL3256313  26.584   3.500   6.367
  503XTA   HL3356314  26.771   3.521   6.544
  503XTA   HL3456315  26.743   3.690   6.540
  503XTA   HL3556316  26.661   3.699   6.765
  503XTA   HL3656317  26.697   3.534   6.781
  503XTA   HL3756318  26.636   3.535   7.000
  503XTA   HL3856319  26.481   3.573   7.068
  503XTA   HL3956320  26.592   3.829   7.019
  503XTA   HL4056321  26.735   3.733   6.984
  503XTA   HL4156322  26.681   3.727   7.133
  503XTA    CO856323  26.967   2.389   4.899
  503XTA    CO956324  27.143   2.505   4.766
  503XTA    OA656325  26.864   2.292   4.923
  503XTA   HL4256326  26.943   2.490   4.923
  503XTA   HL4356327  27.043   2.372   4.974
  503XTA   HL4456328  26.357   3.440   6.913
  503XTA   HL4556329  26.386   3.453   6.738
  503XTA   CO1056330  26.436   3.448   6.833
  503XTA   CO1156331  26.390   3.687   6.830
  503XTA    OA756332  26.506   3.369   6.839
  503XTA   HL4656333  26.428   3.820   6.851
  503XTA   HL4756334  26.330   3.663   6.922
  503XTA   HL4856335  27.095   2.605   4.774
  503XTA   HL4956336  27.203   2.489   4.854
  504XTA     NT56337  26.668  -0.568   5.168
  504XTA    CN156338  26.728  -0.459   5.213
  504XTA     C156339  26.708  -0.423   5.343
  504XTA     C256340  26.752  -0.301   5.399
  504XTA     C356341  26.840  -0.219   5.321
  504XTA     C456342  26.861  -0.254   5.188
  504XTA     C556343  26.807  -0.376   5.138
  504XTA    CN256344  26.537  -0.559   5.127
  504XTA     C656345  26.514  -0.549   4.989
  504XTA     C756346  26.384  -0.540   4.943
  504XTA     C856347  26.273  -0.552   5.031
  504XTA     C956348  26.300  -0.557   5.170
  504XTA    C1056349  26.431  -0.571   5.220
  504XTA    CN356350  26.751  -0.671   5.136
  504XTA    C1156351  26.780  -0.767   5.235
  504XTA    C1256352  26.858  -0.881   5.210
  504XTA    C1356353  26.913  -0.902   5.083
  504XTA    C1456354  26.888  -0.804   4.986
  504XTA    C1556355  26.800  -0.695   5.008
  504XTA     H156356  26.661  -0.490   5.408
  504XTA     H256357  26.740  -0.290   5.502
  504XTA     H356358  26.931  -0.194   5.127
  504XTA     H456359  26.818  -0.410   5.039
  504XTA     H556360  26.600  -0.534   4.919
  504XTA     H656361  26.372  -0.534   4.840
  504XTA     H756362  26.213  -0.575   5.231
  504XTA     H856363  26.452  -0.575   5.329
  504XTA     H956364  26.743  -0.754   5.339
  504XTA    H1056365  26.867  -0.955   5.286
  504XTA    H1156366  26.941  -0.809   4.893
  504XTA    H1256367  26.775  -0.629   4.930
  504XTA    OA156368  26.896  -0.102   5.359
  504XTA    CO156369  26.871  -0.069   5.494
  504XTA    OA256370  26.143  -0.569   4.993
  504XTA    CO256371  26.113  -0.578   4.855
  504XTA    CL156372  25.958  -0.590   4.838
  504XTA    CL256373  25.923  -0.555   4.695
  504XTA    CL356374  25.780  -0.585   4.657
  504XTA    CL456375  25.675  -0.493   4.720
  504XTA    CO356376  25.627  -0.385   4.632
  504XTA    OA356377  25.530  -0.300   4.691
  504XTA    CO456378  25.496  -0.190   4.615
  504XTA    CT156379  25.398  -0.098   4.692
  504XTA    CL556380  25.285  -0.182   4.748
  504XTA    CL656381  25.206  -0.260   4.642
  504XTA    OA456382  27.004  -1.000   5.062
  504XTA    CO556383  27.108  -1.025   5.157
  504XTA    CL756384  27.215  -0.916   5.128
  504XTA    CL856385  27.305  -0.888   5.248
  504XTA    CL956386  27.237  -0.837   5.378
  504XTA   CL1056387  27.166  -0.704   5.356
  504XTA    CO656388  27.111  -0.647   5.489
  504XTA    OA556389  27.197  -0.646   5.601
  504XTA    CO756390  27.127  -0.606   5.725
  504XTA    CT256391  27.217  -0.617   5.842
  504XTA   CL1156392  27.253  -0.759   5.851
  504XTA   CL1256393  27.357  -0.797   5.955
  504XTA    HL156394  26.925   0.024   5.496
  504XTA    HL256395  26.770  -0.042   5.517
  504XTA    HL356396  26.918  -0.137   5.568
  504XTA    HL456397  26.147  -0.491   4.800
  504XTA    HL556398  26.162  -0.654   4.805
  504XTA    HL656399  25.921  -0.514   4.908
  504XTA    HL756400  25.924  -0.694   4.877
  504XTA    HL856401  25.984  -0.616   4.625
  504XTA    HL956402  25.946  -0.449   4.676
  504XTA   HL1056403  25.764  -0.589   4.549
  504XTA   HL1156404  25.755  -0.683   4.695
  504XTA   HL1256405  25.701  -0.465   4.821
  504XTA   HL1356406  25.587  -0.565   4.739
  504XTA   HL1456407  25.719  -0.328   4.612
  504XTA   HL1556408  25.587  -0.424   4.538
  504XTA   HL1656409  25.586  -0.139   4.578
  504XTA   HL1756410  25.458  -0.223   4.527
  504XTA   HL1856411  25.206  -0.119   4.797
  504XTA   HL1956412  25.326  -0.244   4.824
  504XTA   HL2056413  25.254  -0.342   4.590
  504XTA   HL2156414  25.182  -0.194   4.561
  504XTA   HL2256415  25.112  -0.298   4.683
  504XTA   HL2356416  27.148  -1.127   5.150
  504XTA   HL2456417  27.074  -1.006   5.252
  504XTA   HL2556418  27.269  -0.934   5.033
  504XTA   HL2656419  27.159  -0.823   5.115
  504XTA   HL2756420  27.352  -0.991   5.256
  504XTA   HL2856421  27.379  -0.816   5.223
  504XTA   HL2956422  27.171  -0.907   5.431
  504XTA   HL3056423  27.307  -0.814   5.458
  504XTA   HL3156424  27.240  -0.636   5.323
  504XTA   HL3256425  27.097  -0.724   5.272
  504XTA   HL3356426  27.081  -0.544   5.469
  504XTA   HL3456427  27.021  -0.706   5.506
  504XTA   HL3556428  27.033  -0.659   5.741
  504XTA   HL3656429  27.093  -0.501   5.714
  504XTA   HL3756430  27.294  -0.795   5.755
  504XTA   HL3856431  27.166  -0.822   5.852
  504XTA   HL3956432  27.379  -0.902   5.969
  504XTA   HL4056433  27.338  -0.743   6.042
  504XTA   HL4156434  27.458  -0.779   5.913
  504XTA    CO856435  25.346   0.007   4.590
  504XTA    CO956436  25.468  -0.013   4.804
  504XTA    OA656437  25.495  -0.081   4.931
  504XTA   HL4256438  25.314  -0.039   4.504
  504XTA   HL4356439  25.259   0.053   4.633
  504XTA   HL4456440  27.211  -0.596   6.040
  504XTA   HL4556441  27.121  -0.459   5.964
  504XTA   CO1056442  27.139  -0.569   5.962
  504XTA   CO1156443  27.329  -0.514   5.822
  504XTA    OA756444  27.407  -0.478   5.940
  504XTA   HL4656445  27.391  -0.559   5.744
  504XTA   HL4756446  27.287  -0.415   5.773
  504XTA   HL4856447  25.418   0.085   4.818
  504XTA   HL4956448  25.553   0.034   4.757
  505XTA     NT56449  30.016   0.261  -1.660
  505XTA    CN156450  29.925   0.183  -1.597
  505XTA     C156451  29.879   0.065  -1.655
  505XTA     C256452  29.783  -0.017  -1.586
  505XTA     C356453  29.737   0.027  -1.457
  505XTA     C456454  29.788   0.143  -1.397
  505XTA     C556455  29.878   0.220  -1.469
  505XTA    CN256456  30.127   0.203  -1.717
  505XTA     C656457  30.124   0.174  -1.854
  505XTA     C756458  30.244   0.140  -1.922
  505XTA     C856459  30.345   0.085  -1.842
  505XTA     C956460  30.344   0.108  -1.704
  505XTA    C1056461  30.235   0.172  -1.638
  505XTA    CN356462  29.985   0.391  -1.690
  505XTA    C1156463  30.079   0.499  -1.665
  505XTA    C1256464  30.049   0.629  -1.713
  505XTA    C1356465  29.933   0.649  -1.788
  505XTA    C1456466  29.853   0.539  -1.827
  505XTA    C1556467  29.873   0.413  -1.772
  505XTA     H156468  29.914   0.043  -1.753
  505XTA     H256469  29.742  -0.107  -1.627
  505XTA     H356470  29.755   0.172  -1.302
  505XTA     H456471  29.930   0.297  -1.419
  505XTA     H556472  30.042   0.200  -1.922
  505XTA     H656473  30.235   0.130  -2.030
  505XTA     H756474  30.421   0.067  -1.636
  505XTA     H856475  30.239   0.186  -1.534
  505XTA     H956476  30.167   0.465  -1.610
  505XTA    H1056477  30.109   0.719  -1.703
  505XTA    H1156478  29.769   0.546  -1.887
  505XTA    H1256479  29.800   0.342  -1.805
  505XTA    OA156480  29.646  -0.047  -1.389
  505XTA    CO156481  29.572  -0.141  -1.461
  505XTA    OA256482  30.454   0.014  -1.906
  505XTA    CO256483  30.567  -0.030  -1.828
  505XTA    CL156484  30.509  -0.158  -1.775
  505XTA    CL256485  30.608  -0.221  -1.688
  505XTA    CL356486  30.543  -0.341  -1.607
  505XTA    CL456487  30.652  -0.435  -1.546
  505XTA    CO356488  30.725  -0.361  -1.440
  505XTA    OA356489  30.792  -0.455  -1.357
  505XTA    CO456490  30.864  -0.383  -1.256
  505XTA    CT156491  30.942  -0.479  -1.169
  505XTA    CL556492  30.992  -0.402  -1.040
  505XTA    CL656493  31.067  -0.270  -1.063
  505XTA    OA456494  29.893   0.781  -1.813
  505XTA    CO556495  29.816   0.798  -1.932
  505XTA    CL756496  29.673   0.812  -1.892
  505XTA    CL856497  29.580   0.786  -2.012
  505XTA    CL956498  29.441   0.742  -1.974
  505XTA   CL1056499  29.354   0.834  -1.883
  505XTA    CO656500  29.332   0.967  -1.964
  505XTA    OA556501  29.218   1.037  -1.922
  505XTA    CO756502  29.253   1.158  -1.860
  505XTA    CT256503  29.133   1.245  -1.840
  505XTA   CL1156504  29.173   1.386  -1.784
  505XTA   CL1256505  29.228   1.393  -1.638
  505XTA    HL156506  29.623  -0.222  -1.517
  505XTA    HL256507  29.494  -0.195  -1.393
  505XTA    HL356508  29.521  -0.079  -1.533
  505XTA    HL456509  30.649  -0.046  -1.899
  505XTA    HL556510  30.605   0.033  -1.750
  505XTA    HL656511  30.495  -0.236  -1.852
  505XTA    HL756512  30.414  -0.127  -1.719
  505XTA    HL856513  30.630  -0.152  -1.610
  505XTA    HL956514  30.698  -0.252  -1.739
  505XTA   HL1056515  30.486  -0.291  -1.523
  505XTA   HL1156516  30.483  -0.394  -1.671
  505XTA   HL1256517  30.724  -0.473  -1.616
  505XTA   HL1356518  30.605  -0.518  -1.495
  505XTA   HL1456519  30.797  -0.288  -1.478
  505XTA   HL1556520  30.660  -0.307  -1.374
  505XTA   HL1656521  30.928  -0.320  -1.309
  505XTA   HL1756522  30.796  -0.316  -1.200
  505XTA   HL1856523  31.056  -0.475  -0.992
  505XTA   HL1956524  30.918  -0.388  -0.964
  505XTA   HL2056525  31.152  -0.286  -1.126
  505XTA   HL2156526  31.085  -0.241  -0.959
  505XTA   HL2256527  31.005  -0.206  -1.113
  505XTA   HL2356528  29.831   0.715  -2.002
  505XTA   HL2456529  29.851   0.887  -1.972
  505XTA   HL2556530  29.664   0.747  -1.810
  505XTA   HL2656531  29.660   0.912  -1.845
  505XTA   HL2756532  29.582   0.888  -2.055
  505XTA   HL2856533  29.628   0.719  -2.075
  505XTA   HL2956534  29.373   0.712  -2.058
  505XTA   HL3056535  29.459   0.654  -1.914
  505XTA   HL3156536  29.260   0.786  -1.858
  505XTA   HL3256537  29.414   0.847  -1.791
  505XTA   HL3356538  29.420   1.027  -1.956
  505XTA   HL3456539  29.326   0.954  -2.068
  505XTA   HL3556540  29.315   1.221  -1.925
  505XTA   HL3656541  29.302   1.140  -1.761
  505XTA   HL3756542  29.083   1.450  -1.792
  505XTA   HL3856543  29.252   1.409  -1.852
  505XTA   HL3956544  29.255   1.500  -1.627
  505XTA   HL4056545  29.324   1.346  -1.618
  505XTA   HL4156546  29.154   1.360  -1.556
  505XTA    CO856547  31.054  -0.539  -1.251
  505XTA    CO956548  30.854  -0.600  -1.129
  505XTA    OA656549  31.133  -0.472  -1.292
  505XTA   HL4256550  31.009  -0.567  -1.338
  505XTA   HL4356551  31.101  -0.628  -1.195
  505XTA   HL4456552  28.895   1.240  -1.755
  505XTA   HL4556553  28.994   1.084  -1.811
  505XTA   CO1056554  29.027   1.173  -1.753
  505XTA   CO1156555  29.065   1.265  -1.978
  505XTA    OA756556  29.127   1.338  -2.045
  505XTA   HL4656557  29.055   1.172  -2.032
  505XTA   HL4756558  28.959   1.292  -1.978
  505XTA   HL4856559  30.796  -0.676  -1.232
  505XTA   HL4956560  30.910  -0.670  -1.069
  506XTA     NT56561  33.476   5.388   1.457
  506XTA    CN156562  33.493   5.519   1.479
  506XTA     C156563  33.431   5.603   1.582
  506XTA     C256564  33.457   5.740   1.590
  506XTA     C356565  33.542   5.798   1.498
  506XTA     C456566  33.598   5.717   1.396
  506XTA     C556567  33.577   5.580   1.387
  506XTA    CN256568  33.436   5.338   1.339
  506XTA     C656569  33.536   5.281   1.265
  506XTA     C756570  33.505   5.210   1.148
  506XTA     C856571  33.369   5.193   1.111
  506XTA     C956572  33.273   5.262   1.187
  506XTA    C1056573  33.302   5.339   1.303
  506XTA    CN356574  33.485   5.302   1.562
  506XTA    C1156575  33.605   5.220   1.579
  506XTA    C1256576  33.613   5.121   1.678
  506XTA    C1356577  33.499   5.092   1.764
  506XTA    C1456578  33.385   5.174   1.748
  506XTA    C1556579  33.376   5.280   1.649
  506XTA     H156580  33.379   5.548   1.663
  506XTA     H256581  33.424   5.791   1.679
  506XTA     H356582  33.665   5.773   1.321
  506XTA     H456583  33.621   5.509   1.308
  506XTA     H556584  33.643   5.289   1.301
  506XTA     H656585  33.581   5.158   1.090
  506XTA     H756586  33.170   5.248   1.153
  506XTA     H856587  33.224   5.386   1.360
  506XTA     H956588  33.691   5.229   1.511
  506XTA    H1056589  33.716   5.069   1.704
  506XTA    H1156590  33.305   5.149   1.818
  506XTA    H1256591  33.281   5.332   1.645
  506XTA    OA156592  33.574   5.930   1.522
  506XTA    CO156593  33.705   5.925   1.569
  506XTA    OA256594  33.343   5.097   1.014
  506XTA    CO256595  33.226   5.027   1.032
  506XTA    CL156596  33.247   4.874   1.010
  506XTA    CL256597  33.338   4.816   1.117
  506XTA    CL356598  33.308   4.853   1.259
  506XTA    CL456599  33.427   4.800   1.348
  506XTA    CO356600  33.427   4.859   1.490
  506XTA    OA356601  33.314   4.793   1.534
  506XTA    CO456602  33.254   4.848   1.647
  506XTA    CT156603  33.139   4.755   1.681
  506XTA    CL556604  33.019   4.755   1.575
  506XTA    CL656605  32.987   4.891   1.512
  506XTA    OA456606  33.489   4.994   1.857
  506XTA    CO556607  33.592   4.890   1.844
  506XTA    CL756608  33.542   4.768   1.908
  506XTA    CL856609  33.619   4.639   1.873
  506XTA    CL956610  33.561   4.521   1.958
  506XTA   CL1056611  33.646   4.390   1.940
  506XTA    CO656612  33.598   4.276   2.031
  506XTA    OA556613  33.479   4.226   1.986
  506XTA    CO756614  33.482   4.179   1.848
  506XTA    CT256615  33.377   4.065   1.830
  506XTA   CL1156616  33.436   3.928   1.876
  506XTA   CL1256617  33.439   3.920   2.026
  506XTA    HL156618  33.728   5.847   1.638
  506XTA    HL256619  33.768   5.920   1.480
  506XTA    HL356620  33.743   6.018   1.612
  506XTA    HL456621  33.194   5.032   1.135
  506XTA    HL556622  33.141   5.060   0.971
  506XTA    HL656623  33.294   4.853   0.916
  506XTA    HL756624  33.149   4.819   1.004
  506XTA    HL856625  33.435   4.841   1.082
  506XTA    HL956626  33.336   4.702   1.101
  506XTA   HL1056627  33.304   4.964   1.278
  506XTA   HL1156628  33.217   4.809   1.304
  506XTA   HL1256629  33.521   4.834   1.292
  506XTA   HL1356630  33.428   4.692   1.333
  506XTA   HL1456631  33.521   4.822   1.542
  506XTA   HL1556632  33.419   4.970   1.500
  506XTA   HL1656633  33.333   4.858   1.723
  506XTA   HL1756634  33.208   4.946   1.635
  506XTA   HL1856635  32.926   4.724   1.621
  506XTA   HL1956636  33.039   4.680   1.495
  506XTA   HL2056637  33.068   4.921   1.451
  506XTA   HL2156638  32.969   4.964   1.589
  506XTA   HL2256639  32.891   4.897   1.463
  506XTA   HL2356640  33.685   4.911   1.890
  506XTA   HL2456641  33.601   4.857   1.732
  506XTA   HL2556642  33.524   4.777   2.020
  506XTA   HL2656643  33.446   4.751   1.854
  506XTA   HL2756644  33.610   4.613   1.768
  506XTA   HL2856645  33.728   4.643   1.889
  506XTA   HL2956646  33.585   4.544   2.060
  506XTA   HL3056647  33.452   4.507   1.937
  506XTA   HL3156648  33.650   4.356   1.838
  506XTA   HL3256649  33.742   4.419   1.972
  506XTA   HL3356650  33.667   4.191   2.040
  506XTA   HL3456651  33.570   4.317   2.128
  506XTA   HL3556652  33.587   4.147   1.832
  506XTA   HL3656653  33.461   4.260   1.778
  506XTA   HL3756654  33.527   3.896   1.825
  506XTA   HL3856655  33.372   3.849   1.840
  506XTA   HL3956656  33.475   4.009   2.060
  506XTA   HL4056657  33.502   3.840   2.064
  506XTA   HL4156658  33.338   3.898   2.067
  506XTA    CO856659  33.085   4.800   1.815
  506XTA    CO956660  33.203   4.617   1.683
  506XTA    OA656661  33.161   4.789   1.896
  506XTA   HL4256662  32.991   4.745   1.839
  506XTA   HL4356663  33.058   4.906   1.811
  506XTA   HL4456664  33.339   4.157   1.635
  506XTA   HL4556665  33.257   4.006   1.648
  506XTA   CO1056666  33.346   4.055   1.675
  506XTA   CO1156667  33.246   4.102   1.902
  506XTA    OA756668  33.170   4.189   1.818
  506XTA   HL4656669  33.171   4.023   1.915
  506XTA   HL4756670  33.264   4.142   2.004
  506XTA   HL4856671  33.320   4.619   1.761
  506XTA   HL4956672  33.233   4.581   1.586
  507XTA     NT56673  27.182   5.003  -1.051
  507XTA    CN156674  27.218   5.019  -0.924
  507XTA     C156675  27.124   5.029  -0.808
  507XTA     C256676  27.185   5.037  -0.681
  507XTA     C356677  27.322   5.041  -0.656
  507XTA     C456678  27.403   5.049  -0.768
  507XTA     C556679  27.358   5.031  -0.900
  507XTA    CN256680  27.172   5.111  -1.137
  507XTA     C656681  27.256   5.113  -1.253
  507XTA     C756682  27.244   5.227  -1.345
  507XTA     C856683  27.154   5.331  -1.319
  507XTA     C956684  27.074   5.326  -1.204
  507XTA    C1056685  27.076   5.210  -1.112
  507XTA    CN356686  27.124   4.889  -1.087
  507XTA    C1156687  26.997   4.852  -1.053
  507XTA    C1256688  26.950   4.722  -1.094
  507XTA    C1356689  27.027   4.637  -1.177
  507XTA    C1456690  27.164   4.667  -1.193
  507XTA    C1556691  27.206   4.797  -1.162
  507XTA     H156692  27.014   5.032  -0.823
  507XTA     H256693  27.119   5.037  -0.598
  507XTA     H356694  27.510   5.057  -0.765
  507XTA     H456695  27.417   5.041  -0.985
  507XTA     H556696  27.331   5.042  -1.261
  507XTA     H656697  27.309   5.233  -1.431
  507XTA     H756698  27.006   5.406  -1.180
  507XTA     H856699  27.008   5.197  -1.030
  507XTA     H956700  26.930   4.912  -0.994
  507XTA    H1056701  26.847   4.702  -1.072
  507XTA    H1156702  27.231   4.604  -1.242
  507XTA    H1256703  27.309   4.824  -1.182
  507XTA    OA156704  27.368   5.016  -0.525
  507XTA    CO156705  27.498   4.969  -0.497
  507XTA    OA256706  27.149   5.442  -1.410
  507XTA    CO256707  27.082   5.558  -1.363
  507XTA    CL156708  27.097   5.663  -1.472
  507XTA    CL256709  27.037   5.802  -1.442
  507XTA    CL356710  27.105   5.875  -1.328
  507XTA    CL456711  27.039   6.007  -1.295
  507XTA    CO356712  27.065   6.108  -1.411
  507XTA    OA356713  27.198   6.104  -1.447
  507XTA    CO456714  27.235   6.182  -1.560
  507XTA    CT156715  27.355   6.127  -1.630
  507XTA    CL556716  27.468   6.107  -1.535
  507XTA    CL656717  27.603   6.082  -1.603
  507XTA    OA456718  26.981   4.514  -1.201
  507XTA    CO556719  27.016   4.452  -1.327
  507XTA    CL756720  26.946   4.511  -1.447
  507XTA    CL856721  26.984   4.440  -1.575
  507XTA    CL956722  26.920   4.526  -1.692
  507XTA   CL1056723  26.895   4.440  -1.822
  507XTA    CO656724  27.026   4.407  -1.894
  507XTA    OA556725  27.038   4.281  -1.965
  507XTA    CO756726  27.064   4.177  -1.874
  507XTA    CT256727  27.067   4.036  -1.939
  507XTA   CL1156728  27.108   3.927  -1.837
  507XTA   CL1256729  26.995   3.875  -1.742
  507XTA    HL156730  27.510   4.855  -0.482
  507XTA    HL256731  27.567   5.005  -0.575
  507XTA    HL356732  27.529   5.011  -0.402
  507XTA    HL456733  26.980   5.543  -1.350
  507XTA    HL556734  27.118   5.589  -1.268
  507XTA    HL656735  27.051   5.625  -1.562
  507XTA    HL756736  27.200   5.690  -1.495
  507XTA    HL856737  26.933   5.798  -1.425
  507XTA    HL956738  27.032   5.858  -1.537
  507XTA   HL1056739  27.095   5.817  -1.232
  507XTA   HL1156740  27.215   5.890  -1.353
  507XTA   HL1256741  27.088   6.033  -1.202
  507XTA   HL1356742  26.931   5.988  -1.280
  507XTA   HL1456743  27.003   6.093  -1.495
  507XTA   HL1556744  27.054   6.207  -1.366
  507XTA   HL1656745  27.152   6.167  -1.631
  507XTA   HL1756746  27.253   6.284  -1.530
  507XTA   HL1856747  27.443   6.024  -1.476
  507XTA   HL1956748  27.472   6.200  -1.478
  507XTA   HL2056749  27.596   6.056  -1.707
  507XTA   HL2156750  27.658   5.998  -1.555
  507XTA   HL2256751  27.667   6.162  -1.604
  507XTA   HL2356752  27.000   4.347  -1.314
  507XTA   HL2456753  27.129   4.462  -1.334
  507XTA   HL2556754  26.842   4.491  -1.438
  507XTA   HL2656755  26.953   4.616  -1.450
  507XTA   HL2756756  27.092   4.447  -1.590
  507XTA   HL2856757  26.957   4.336  -1.564
  507XTA   HL2956758  26.821   4.555  -1.652
  507XTA   HL3056759  26.981   4.613  -1.720
  507XTA   HL3156760  26.836   4.359  -1.782
  507XTA   HL3256761  26.838   4.498  -1.890
  507XTA   HL3356762  27.039   4.489  -1.960
  507XTA   HL3456763  27.117   4.412  -1.830
  507XTA   HL3556764  27.000   4.182  -1.782
  507XTA   HL3656765  27.164   4.197  -1.837
  507XTA   HL3756766  27.198   3.959  -1.781
  507XTA   HL3856767  27.132   3.832  -1.891
  507XTA   HL3956768  27.042   3.787  -1.698
  507XTA   HL4056769  26.916   3.841  -1.811
  507XTA   HL4156770  26.946   3.945  -1.671
  507XTA    CO856771  27.392   6.234  -1.744
  507XTA    CO956772  27.320   5.992  -1.698
  507XTA    OA656773  27.314   6.249  -1.821
  507XTA   HL4256774  27.478   6.192  -1.803
  507XTA   HL4356775  27.429   6.323  -1.700
  507XTA   HL4456776  27.140   4.106  -2.129
  507XTA   HL4556777  27.278   4.040  -2.031
  507XTA   CO1056778  27.169   4.028  -2.058
  507XTA   CO1156779  26.931   4.004  -1.998
  507XTA    OA756780  27.154   3.934  -2.116
  507XTA   HL4656781  26.911   4.073  -2.119
  507XTA   HL4756782  26.932   3.898  -2.023
  507XTA   HL4856783  27.274   5.907  -1.595
  507XTA   HL4956784  27.241   6.014  -1.765
  508XTA     NT56785  26.396   1.277   2.911
  508XTA    CN156786  26.370   1.401   2.869
  508XTA     C156787  26.450   1.455   2.765
  508XTA     C256788  26.416   1.578   2.717
  508XTA     C356789  26.318   1.656   2.781
  508XTA     C456790  26.244   1.606   2.889
  508XTA     C556791  26.262   1.476   2.930
  508XTA    CN256792  26.325   1.180   2.845
  508XTA     C656793  26.363   1.129   2.720
  508XTA     C756794  26.284   1.036   2.654
  508XTA     C856795  26.173   0.979   2.718
  508XTA     C956796  26.136   1.032   2.842
  508XTA    C1056797  26.209   1.137   2.903
  508XTA    CN356798  26.473   1.254   3.023
  508XTA    C1156799  26.566   1.145   3.028
  508XTA    C1256800  26.637   1.109   3.141
  508XTA    C1356801  26.598   1.179   3.262
  508XTA    C1456802  26.503   1.281   3.260
  508XTA    C1556803  26.435   1.311   3.140
  508XTA     H156804  26.531   1.392   2.720
  508XTA     H256805  26.488   1.616   2.643
  508XTA     H356806  26.171   1.661   2.941
  508XTA     H456807  26.205   1.439   3.014
  508XTA     H556808  26.454   1.169   2.667
  508XTA     H656809  26.307   1.007   2.555
  508XTA     H756810  26.050   1.005   2.900
  508XTA     H856811  26.181   1.171   2.998
  508XTA     H956812  26.581   1.088   2.938
  508XTA    H1056813  26.698   1.019   3.139
  508XTA    H1156814  26.490   1.338   3.348
  508XTA    H1256815  26.361   1.387   3.143
  508XTA    OA156816  26.313   1.792   2.746
  508XTA    CO156817  26.324   1.875   2.866
  508XTA    OA256818  26.095   0.877   2.662
  508XTA    CO256819  26.149   0.795   2.561
  508XTA    CL156820  26.067   0.666   2.538
  508XTA    CL256821  26.024   0.589   2.662
  508XTA    CL356822  25.917   0.493   2.647
  508XTA    CL456823  25.793   0.552   2.577
  508XTA    CO356824  25.686   0.452   2.554
  508XTA    OA356825  25.707   0.400   2.426
  508XTA    CO456826  25.598   0.388   2.337
  508XTA    CT156827  25.636   0.375   2.187
  508XTA    CL556828  25.751   0.279   2.161
  508XTA    CL656829  25.735   0.136   2.215
  508XTA    OA456830  26.647   1.156   3.382
  508XTA    CO556831  26.754   1.070   3.394
  508XTA    CL756832  26.805   1.068   3.539
  508XTA    CL856833  26.695   1.019   3.630
  508XTA    CL956834  26.731   1.011   3.779
  508XTA   CL1056835  26.806   0.886   3.833
  508XTA    CO656836  26.844   0.897   3.981
  508XTA    OA556837  26.725   0.935   4.055
  508XTA    CO756838  26.757   0.937   4.193
  508XTA    CT256839  26.633   0.930   4.283
  508XTA   CL1156840  26.662   0.938   4.435
  508XTA   CL1256841  26.740   1.067   4.491
  508XTA    HL156842  26.327   1.980   2.826
  508XTA    HL256843  26.247   1.865   2.943
  508XTA    HL356844  26.416   1.846   2.915
  508XTA    HL456845  26.159   0.858   2.471
  508XTA    HL556846  26.247   0.764   2.600
  508XTA    HL656847  26.115   0.595   2.474
  508XTA    HL756848  25.980   0.701   2.482
  508XTA    HL856849  25.999   0.667   2.739
  508XTA    HL956850  26.106   0.539   2.712
  508XTA   HL1056851  25.955   0.408   2.597
  508XTA   HL1156852  25.882   0.469   2.743
  508XTA   HL1256853  25.817   0.588   2.477
  508XTA   HL1356854  25.761   0.643   2.631
  508XTA   HL1456855  25.693   0.368   2.629
  508XTA   HL1556856  25.588   0.504   2.570
  508XTA   HL1656857  25.525   0.312   2.364
  508XTA   HL1756858  25.546   0.490   2.346
  508XTA   HL1856859  25.833   0.324   2.213
  508XTA   HL1956860  25.773   0.270   2.052
  508XTA   HL2056861  25.714   0.131   2.320
  508XTA   HL2156862  25.825   0.077   2.183
  508XTA   HL2256863  25.665   0.077   2.164
  508XTA   HL2356864  26.832   1.095   3.326
  508XTA   HL2456865  26.710   0.975   3.364
  508XTA   HL2556866  26.896   0.998   3.534
  508XTA   HL2656867  26.838   1.165   3.572
  508XTA   HL2756868  26.607   1.083   3.624
  508XTA   HL2856869  26.668   0.916   3.597
  508XTA   HL2956870  26.793   1.095   3.817
  508XTA   HL3056871  26.641   1.036   3.841
  508XTA   HL3156872  26.750   0.797   3.808
  508XTA   HL3256873  26.902   0.859   3.782
  508XTA   HL3356874  26.880   0.799   4.015
  508XTA   HL3456875  26.931   0.962   4.003
  508XTA   HL3556876  26.812   1.027   4.217
  508XTA   HL3656877  26.814   0.854   4.214
  508XTA   HL3756878  26.716   0.844   4.457
  508XTA   HL3856879  26.570   0.934   4.489
  508XTA   HL3956880  26.678   1.153   4.489
  508XTA   HL4056881  26.829   1.086   4.429
  508XTA   HL4156882  26.755   1.052   4.596
  508XTA    CO856883  25.676   0.512   2.129
  508XTA    CO956884  25.516   0.335   2.098
  508XTA    OA656885  25.459   0.260   2.148
  508XTA   HL4256886  25.601   0.584   2.159
  508XTA   HL4356887  25.810   0.557   2.166
  508XTA   HL4456888  26.465   0.809   4.309
  508XTA   HL4556889  26.506   0.815   4.144
  508XTA   CO1056890  26.550   0.814   4.246
  508XTA   CO1156891  26.546   1.054   4.246
  508XTA    OA756892  26.615   0.729   4.261
  508XTA   HL4656893  26.619   1.176   4.237
  508XTA   HL4756894  26.515   1.036   4.144
  508XTA   HL4856895  25.549   0.301   2.001
  508XTA   HL4956896  25.454   0.426   2.084
  509XTA     NT56897  33.685   7.574   3.011
  509XTA    CN156898  33.715   7.572   3.142
  509XTA     C156899  33.671   7.670   3.233
  509XTA     C256900  33.704   7.666   3.365
  509XTA     C356901  33.792   7.572   3.415
  509XTA     C456902  33.835   7.472   3.329
  509XTA     C556903  33.798   7.474   3.194
  509XTA    CN256904  33.675   7.689   2.937
  509XTA     C656905  33.554   7.730   2.879
  509XTA     C756906  33.547   7.859   2.817
  509XTA     C856907  33.660   7.934   2.791
  509XTA     C956908  33.786   7.884   2.842
  509XTA    C1056909  33.791   7.769   2.916
  509XTA    CN356910  33.629   7.464   2.959
  509XTA    C1156911  33.504   7.419   2.994
  509XTA    C1256912  33.456   7.295   2.958
  509XTA    C1356913  33.527   7.223   2.854
  509XTA    C1456914  33.640   7.279   2.797
  509XTA    C1556915  33.691   7.397   2.851
  509XTA     H156916  33.607   7.751   3.202
  509XTA     H256917  33.655   7.737   3.429
  509XTA     H356918  33.901   7.400   3.367
  509XTA     H456919  33.839   7.400   3.133
  509XTA     H556920  33.467   7.659   2.885
  509XTA     H656921  33.450   7.886   2.787
  509XTA     H756922  33.880   7.924   2.819
  509XTA     H856923  33.889   7.743   2.956
  509XTA     H956924  33.454   7.476   3.068
  509XTA    H1056925  33.366   7.253   3.003
  509XTA    H1156926  33.694   7.216   2.727
  509XTA    H1256927  33.782   7.440   2.813
  509XTA    OA156928  33.826   7.569   3.545
  509XTA    CO156929  33.782   7.668   3.637
  509XTA    OA256930  33.645   8.054   2.722
  509XTA    CO256931  33.746   8.155   2.746
  509XTA    CL156932  33.701   8.290   2.691
  509XTA    CL256933  33.779   8.395   2.769
  509XTA    CL356934  33.929   8.398   2.727
  509XTA    CL456935  34.017   8.491   2.807
  509XTA    CO356936  34.085   8.440   2.935
  509XTA    OA356937  33.986   8.392   3.024
  509XTA    CO456938  34.045   8.353   3.150
  509XTA    CT156939  33.938   8.333   3.269
  509XTA    CL556940  34.015   8.355   3.403
  509XTA    CL656941  33.926   8.340   3.523
  509XTA    OA456942  33.477   7.103   2.803
  509XTA    CO556943  33.422   7.008   2.894
  509XTA    CL756944  33.355   6.881   2.822
  509XTA    CL856945  33.459   6.808   2.743
  509XTA    CL956946  33.552   6.724   2.822
  509XTA   CL1056947  33.636   6.624   2.738
  509XTA    CO656948  33.730   6.536   2.826
  509XTA    OA556949  33.831   6.487   2.733
  509XTA    CO756950  33.784   6.376   2.659
  509XTA    CT256951  33.896   6.321   2.571
  509XTA   CL1156952  33.949   6.426   2.467
  509XTA   CL1256953  33.838   6.498   2.389
  509XTA    HL156954  33.686   7.676   3.666
  509XTA    HL256955  33.835   7.662   3.732
  509XTA    HL356956  33.807   7.766   3.605
  509XTA    HL456957  33.756   8.158   2.851
  509XTA    HL556958  33.845   8.126   2.703
  509XTA    HL656959  33.593   8.311   2.708
  509XTA    HL756960  33.713   8.294   2.584
  509XTA    HL856961  33.766   8.364   2.876
  509XTA    HL956962  33.734   8.493   2.750
  509XTA   HL1056963  33.961   8.295   2.742
  509XTA   HL1156964  33.948   8.428   2.621
  509XTA   HL1256965  33.952   8.572   2.829
  509XTA   HL1356966  34.102   8.520   2.741
  509XTA   HL1456967  34.157   8.355   2.909
  509XTA   HL1556968  34.138   8.520   2.983
  509XTA   HL1656969  34.124   8.281   3.154
  509XTA   HL1756970  34.105   8.437   3.185
  509XTA   HL1856971  34.055   8.456   3.410
  509XTA   HL1956972  34.105   8.289   3.407
  509XTA   HL2056973  33.895   8.235   3.529
  509XTA   HL2156974  33.825   8.388   3.510
  509XTA   HL2256975  33.975   8.364   3.615
  509XTA   HL2356976  33.340   7.061   2.942
  509XTA   HL2456977  33.492   6.962   2.971
  509XTA   HL2556978  33.320   6.816   2.904
  509XTA   HL2656979  33.266   6.908   2.762
  509XTA   HL2756980  33.403   6.738   2.673
  509XTA   HL2856981  33.527   6.873   2.683
  509XTA   HL2956982  33.616   6.795   2.873
  509XTA   HL3056983  33.496   6.672   2.901
  509XTA   HL3156984  33.575   6.568   2.664
  509XTA   HL3256985  33.695   6.693   2.671
  509XTA   HL3356986  33.782   6.589   2.903
  509XTA   HL3456987  33.673   6.464   2.879
  509XTA   HL3556988  33.693   6.390   2.600
  509XTA   HL3656989  33.745   6.302   2.734
  509XTA   HL3756990  34.004   6.372   2.391
  509XTA   HL3856991  34.021   6.490   2.510
  509XTA   HL3956992  33.773   6.416   2.349
  509XTA   HL4056993  33.888   6.551   2.305
  509XTA   HL4156994  33.775   6.560   2.451
  509XTA    CO856995  33.883   8.192   3.266
  509XTA    CO956996  33.828   8.447   3.245
  509XTA    OA656997  33.972   8.131   3.284
  509XTA   HL4256998  33.840   8.159   3.172
  509XTA   HL4356999  33.812   8.171   3.345
  509XTA   HL4457000  33.846   6.080   2.558
  509XTA   HL4557001  33.891   6.192   2.400
  509XTA   CO1057002  33.833   6.206   2.491
  509XTA   CO1157003  34.013   6.261   2.666
  509XTA    OA757004  34.103   6.208   2.626
  509XTA   HL4657005  34.052   6.344   2.716
  509XTA   HL4757006  33.962   6.188   2.727
  509XTA   HL4857007  33.781   8.424   3.108
  509XTA   HL4957008  33.891   8.535   3.247
  510XTA     NT57009  26.482   4.690   4.256
  510XTA    CN157010  26.519   4.771   4.360
  510XTA     C157011  26.575   4.724   4.473
  510XTA     C257012  26.616   4.797   4.585
  510XTA     C357013  26.604   4.941   4.577
  510XTA     C457014  26.532   4.994   4.467
  510XTA     C557015  26.492   4.914   4.359
  510XTA    CN257016  26.356   4.656   4.235
  510XTA     C657017  26.285   4.728   4.142
  510XTA     C757018  26.155   4.688   4.114
  510XTA     C857019  26.103   4.573   4.173
  510XTA     C957020  26.178   4.498   4.267
  510XTA    C1057021  26.306   4.538   4.292
  510XTA    CN357022  26.570   4.671   4.161
  510XTA    C1157023  26.629   4.551   4.131
  510XTA    C1257024  26.733   4.542   4.034
  510XTA    C1357025  26.765   4.655   3.956
  510XTA    C1457026  26.691   4.774   3.978
  510XTA    C1557027  26.594   4.777   4.071
  510XTA     H157028  26.607   4.626   4.460
  510XTA     H257029  26.661   4.747   4.667
  510XTA     H357030  26.499   5.099   4.465
  510XTA     H457031  26.427   4.942   4.278
  510XTA     H557032  26.336   4.807   4.078
  510XTA     H657033  26.094   4.760   4.056
  510XTA     H757034  26.140   4.404   4.306
  510XTA     H857035  26.360   4.491   4.370
  510XTA     H957036  26.600   4.463   4.184
  510XTA    H1057037  26.783   4.449   4.023
  510XTA    H1157038  26.714   4.861   3.916
  510XTA    H1257039  26.542   4.867   4.091
  510XTA    OA157040  26.644   5.019   4.682
  510XTA    CO157041  26.736   4.960   4.775
  510XTA    OA257042  25.975   4.546   4.130
  510XTA    CO257043  25.950   4.410   4.094
  510XTA    CL157044  25.855   4.398   3.969
  510XTA    CL257045  25.714   4.452   3.989
  510XTA    CL357046  25.620   4.405   3.885
  510XTA    CL457047  25.632   4.488   3.757
  510XTA    CO357048  25.543   4.610   3.763
  510XTA    OA357049  25.579   4.690   3.649
  510XTA    CO457050  25.483   4.793   3.636
  510XTA    CT157051  25.536   4.891   3.531
  510XTA    CL557052  25.443   5.000   3.502
  510XTA    CL657053  25.413   5.100   3.611
  510XTA    OA457054  26.865   4.644   3.869
  510XTA    CO557055  26.934   4.764   3.838
  510XTA    CL757056  27.078   4.724   3.802
  510XTA    CL857057  27.171   4.841   3.831
  510XTA    CL957058  27.320   4.812   3.816
  510XTA   CL1057059  27.382   4.820   3.674
  510XTA    CO657060  27.521   4.765   3.678
  510XTA    OA557061  27.577   4.778   3.546
  510XTA    CO757062  27.641   4.900   3.538
  510XTA    CT257063  27.688   4.920   3.393
  510XTA   CL1157064  27.759   5.050   3.361
  510XTA   CL1257065  27.880   5.085   3.447
  510XTA    HL157066  26.697   4.869   4.822
  510XTA    HL257067  26.827   4.918   4.724
  510XTA    HL357068  26.759   5.030   4.851
  510XTA    HL457069  26.045   4.356   4.063
  510XTA    HL557070  25.915   4.347   4.174
  510XTA    HL657071  25.855   4.299   3.941
  510XTA    HL757072  25.897   4.453   3.889
  510XTA    HL857073  25.713   4.560   4.004
  510XTA    HL957074  25.663   4.405   4.080
  510XTA   HL1057075  25.651   4.301   3.866
  510XTA   HL1157076  25.523   4.406   3.923
  510XTA   HL1257077  25.592   4.435   3.676
  510XTA   HL1357078  25.736   4.507   3.728
  510XTA   HL1457079  25.435   4.586   3.766
  510XTA   HL1557080  25.582   4.668   3.847
  510XTA   HL1657081  25.377   4.760   3.623
  510XTA   HL1757082  25.472   4.840   3.734
  510XTA   HL1857083  25.350   4.967   3.461
  510XTA   HL1957084  25.494   5.052   3.421
  510XTA   HL2057085  25.376   5.065   3.709
  510XTA   HL2157086  25.343   5.175   3.580
  510XTA   HL2257087  25.500   5.163   3.639
  510XTA   HL2357088  26.946   4.827   3.933
  510XTA   HL2457089  26.884   4.829   3.762
  510XTA   HL2557090  27.114   4.640   3.851
  510XTA   HL2657091  27.085   4.692   3.700
  510XTA   HL2757092  27.146   4.927   3.776
  510XTA   HL2857093  27.150   4.880   3.933
  510XTA   HL2957094  27.367   4.882   3.883
  510XTA   HL3057095  27.343   4.717   3.861
  510XTA   HL3157096  27.328   4.757   3.609
  510XTA   HL3257097  27.371   4.919   3.647
  510XTA   HL3357098  27.573   4.811   3.759
  510XTA   HL3457099  27.512   4.657   3.707
  510XTA   HL3557100  27.724   4.909   3.598
  510XTA   HL3657101  27.573   4.981   3.559
  510XTA   HL3757102  27.686   5.127   3.383
  510XTA   HL3857103  27.778   5.072   3.249
  510XTA   HL3957104  27.897   5.196   3.431
  510XTA   HL4057105  27.973   5.039   3.415
  510XTA   HL4157106  27.871   5.083   3.556
  510XTA    CO857107  25.551   4.812   3.401
  510XTA    CO957108  25.675   4.950   3.556
  510XTA    OA657109  25.683   4.996   3.691
  510XTA   HL4257110  25.447   4.782   3.378
  510XTA   HL4357111  25.611   4.719   3.418
  510XTA   HL4457112  27.527   4.817   3.319
  510XTA   HL4557113  27.638   4.904   3.160
  510XTA   CO1057114  27.570   4.908   3.287
  510XTA   CO1157115  27.785   4.796   3.359
  510XTA    OA757116  27.838   4.814   3.259
  510XTA   HL4657117  27.865   4.790   3.438
  510XTA   HL4757118  27.718   4.713   3.355
  510XTA   HL4857119  25.697   5.030   3.492
  510XTA   HL4957120  25.748   4.872   3.529
  511XTA     NT57121  30.554   4.978   2.206
  511XTA    CN157122  30.450   5.062   2.209
  511XTA     C157123  30.426   5.136   2.323
  511XTA     C257124  30.322   5.225   2.336
  511XTA     C357125  30.238   5.240   2.221
  511XTA     C457126  30.262   5.169   2.100
  511XTA     C557127  30.376   5.085   2.092
  511XTA    CN257128  30.543   4.870   2.293
  511XTA     C657129  30.486   4.751   2.249
  511XTA     C757130  30.483   4.643   2.335
  511XTA     C857131  30.522   4.651   2.468
  511XTA     C957132  30.577   4.774   2.522
  511XTA    C1057133  30.592   4.884   2.425
  511XTA    CN357134  30.673   5.004   2.154
  511XTA    C1157135  30.770   5.074   2.221
  511XTA    C1257136  30.896   5.088   2.168
  511XTA    C1357137  30.924   5.038   2.040
  511XTA    C1457138  30.833   4.955   1.979
  511XTA    C1557139  30.707   4.945   2.032
  511XTA     H157140  30.484   5.126   2.407
  511XTA     H257141  30.311   5.275   2.436
  511XTA     H357142  30.201   5.186   2.011
  511XTA     H457143  30.395   5.028   2.007
  511XTA     H557144  30.455   4.740   2.141
  511XTA     H657145  30.436   4.550   2.299
  511XTA     H757146  30.592   4.784   2.628
  511XTA     H857147  30.635   4.982   2.448
  511XTA     H957148  30.741   5.104   2.322
  511XTA    H1057149  30.965   5.149   2.224
  511XTA    H1157150  30.855   4.908   1.883
  511XTA    H1257151  30.638   4.867   2.004
  511XTA    OA157152  30.125   5.318   2.226
  511XTA    CO157153  30.050   5.323   2.347
  511XTA    OA257154  30.506   4.537   2.547
  511XTA    CO257155  30.440   4.555   2.668
  511XTA    CL157156  30.289   4.574   2.634
  511XTA    CL257157  30.234   4.480   2.525
  511XTA    CL357158  30.135   4.544   2.436
  511XTA    CL457159  30.013   4.603   2.503
  511XTA    CO357160  29.921   4.506   2.583
  511XTA    OA357161  29.995   4.451   2.692
  511XTA    CO457162  29.913   4.372   2.779
  511XTA    CT157163  29.981   4.337   2.916
  511XTA    CL557164  30.083   4.449   2.951
  511XTA    CL657165  30.012   4.585   2.950
  511XTA    OA457166  31.043   5.055   1.973
  511XTA    CO557167  31.133   5.161   2.006
  511XTA    CL757168  31.202   5.218   1.880
  511XTA    CL857169  31.330   5.140   1.839
  511XTA    CL957170  31.434   5.144   1.947
  511XTA   CL1057171  31.573   5.101   1.900
  511XTA    CO657172  31.586   4.953   1.867
  511XTA    OA557173  31.722   4.923   1.883
  511XTA    CO757174  31.757   4.787   1.861
  511XTA    CT257175  31.825   4.757   1.736
  511XTA   CL1157176  31.936   4.859   1.698
  511XTA   CL1257177  32.043   4.894   1.808
  511XTA    HL157178  30.027   5.218   2.367
  511XTA    HL257179  30.117   5.365   2.416
  511XTA    HL357180  29.961   5.392   2.341
  511XTA    HL457181  30.448   4.461   2.725
  511XTA    HL557182  30.482   4.630   2.739
  511XTA    HL657183  30.285   4.673   2.588
  511XTA    HL757184  30.220   4.577   2.718
  511XTA    HL857185  30.183   4.394   2.564
  511XTA    HL957186  30.313   4.433   2.472
  511XTA   HL1057187  30.181   4.619   2.373
  511XTA   HL1157188  30.104   4.470   2.359
  511XTA   HL1257189  29.958   4.645   2.420
  511XTA   HL1357190  30.045   4.687   2.571
  511XTA   HL1457191  29.823   4.553   2.602
  511XTA   HL1557192  29.889   4.427   2.516
  511XTA   HL1657193  29.823   4.436   2.799
  511XTA   HL1757194  29.877   4.282   2.731
  511XTA   HL1857195  30.162   4.443   2.880
  511XTA   HL1957196  30.108   4.427   3.057
  511XTA   HL2057197  29.926   4.594   3.014
  511XTA   HL2157198  29.990   4.613   2.854
  511XTA   HL2257199  30.076   4.668   2.976
  511XTA   HL2357200  31.198   5.129   2.094
  511XTA   HL2457201  31.080   5.248   2.046
  511XTA   HL2557202  31.124   5.222   1.801
  511XTA   HL2657203  31.229   5.327   1.890
  511XTA   HL2757204  31.300   5.036   1.814
  511XTA   HL2857205  31.358   5.193   1.750
  511XTA   HL2957206  31.441   5.245   1.981
  511XTA   HL3057207  31.403   5.083   2.028
  511XTA   HL3157208  31.601   5.157   1.816
  511XTA   HL3257209  31.638   5.123   1.982
  511XTA   HL3357210  31.534   4.889   1.937
  511XTA   HL3457211  31.548   4.937   1.768
  511XTA   HL3557212  31.670   4.727   1.880
  511XTA   HL3657213  31.823   4.761   1.943
  511XTA   HL3757214  31.889   4.959   1.676
  511XTA   HL3857215  31.979   4.827   1.602
  511XTA   HL3957216  32.107   4.814   1.840
  511XTA   HL4057217  31.994   4.926   1.896
  511XTA   HL4157218  32.103   4.975   1.772
  511XTA    CO857219  30.061   4.200   2.899
  511XTA    CO957220  29.864   4.312   3.017
  511XTA    OA657221  30.155   4.205   2.834
  511XTA   HL4257222  29.994   4.122   2.870
  511XTA   HL4357223  30.094   4.169   2.995
  511XTA   HL4457224  31.758   4.690   1.543
  511XTA   HL4557225  31.634   4.695   1.659
  511XTA   CO1057226  31.718   4.749   1.622
  511XTA   CO1157227  31.891   4.624   1.729
  511XTA    OA757228  31.690   4.851   1.584
  511XTA   HL4657229  31.999   4.616   1.822
  511XTA   HL4757230  31.940   4.627   1.634
  511XTA   HL4857231  29.765   4.416   3.016
  511XTA   HL4957232  29.911   4.316   3.114
  512XTA     NT57233  33.979   2.900   3.524
  512XTA    CN157234  33.852   2.944   3.492
  512XTA     C157235  33.826   3.075   3.456
  512XTA     C257236  33.692   3.114   3.427
  512XTA     C357237  33.587   3.024   3.425
  512XTA     C457238  33.614   2.889   3.457
  512XTA     C557239  33.746   2.848   3.488
  512XTA    CN257240  34.037   2.915   3.647
  512XTA     C657241  34.046   3.042   3.715
  512XTA     C757242  34.105   3.047   3.841
  512XTA     C857243  34.174   2.933   3.893
  512XTA     C957244  34.157   2.808   3.826
  512XTA    C1057245  34.095   2.800   3.703
  512XTA    CN357246  34.070   2.874   3.427
  512XTA    C1157247  34.177   2.964   3.410
  512XTA    C1257248  34.274   2.950   3.307
  512XTA    C1357249  34.263   2.838   3.219
  512XTA    C1457250  34.148   2.755   3.226
  512XTA    C1557251  34.050   2.776   3.328
  512XTA     H157252  33.905   3.141   3.449
  512XTA     H257253  33.681   3.219   3.405
  512XTA     H357254  33.528   2.825   3.476
  512XTA     H457255  33.768   2.753   3.522
  512XTA     H557256  34.011   3.130   3.662
  512XTA     H657257  34.118   3.141   3.894
  512XTA     H757258  34.208   2.732   3.875
  512XTA     H857259  34.089   2.700   3.662
  512XTA     H957260  34.188   3.042   3.480
  512XTA    H1057261  34.351   3.022   3.303
  512XTA    H1157262  34.133   2.672   3.157
  512XTA    H1257263  33.960   2.714   3.341
  512XTA    OA157264  33.462   3.075   3.383
  512XTA    CO157265  33.351   2.995   3.395
  512XTA    OA257266  34.264   2.953   3.992
  512XTA    CO257267  34.390   2.908   3.944
  512XTA    CL157268  34.507   2.942   4.044
  512XTA    CL257269  34.636   2.944   3.961
  512XTA    CL357270  34.738   3.030   4.037
  512XTA    CL457271  34.880   3.043   3.977
  512XTA    CO357272  34.881   3.152   3.869
  512XTA    OA357273  35.015   3.170   3.829
  512XTA    CO457274  35.006   3.250   3.716
  512XTA    CT157275  35.142   3.295   3.669
  512XTA    CL557276  35.222   3.358   3.785
  512XTA    CL657277  35.303   3.258   3.869
  512XTA    OA457278  34.356   2.808   3.126
  512XTA    CO557279  34.473   2.737   3.165
  512XTA    CL757280  34.576   2.773   3.058
  512XTA    CL857281  34.583   2.930   3.050
  512XTA    CL957282  34.695   2.973   2.945
  512XTA   CL1057283  34.734   3.122   2.955
  512XTA    CO657284  34.841   3.133   3.062
  512XTA    OA557285  34.857   3.267   3.104
  512XTA    CO757286  34.961   3.278   3.205
  512XTA    CT257287  34.962   3.435   3.244
  512XTA   CL1157288  34.819   3.498   3.270
  512XTA   CL1257289  34.757   3.437   3.397
  512XTA    HL157290  33.352   2.943   3.482
  512XTA    HL257291  33.263   3.056   3.395
  512XTA    HL357292  33.345   2.918   3.315
  512XTA    HL457293  34.397   2.800   3.932
  512XTA    HL557294  34.391   2.945   3.838
  512XTA    HL657295  34.513   2.875   4.123
  512XTA    HL757296  34.484   3.040   4.096
  512XTA    HL857297  34.622   2.981   3.864
  512XTA    HL957298  34.666   2.840   3.944
  512XTA   HL1057299  34.703   3.133   4.068
  512XTA   HL1157300  34.758   2.987   4.140
  512XTA   HL1257301  34.913   2.945   3.948
  512XTA   HL1357302  34.940   3.073   4.066
  512XTA   HL1457303  34.820   3.123   3.784
  512XTA   HL1557304  34.829   3.239   3.914
  512XTA   HL1657305  34.963   3.198   3.633
  512XTA   HL1757306  34.943   3.337   3.724
  512XTA   HL1857307  35.161   3.406   3.857
  512XTA   HL1957308  35.290   3.439   3.746
  512XTA   HL2057309  35.405   3.261   3.831
  512XTA   HL2157310  35.267   3.156   3.860
  512XTA   HL2257311  35.316   3.295   3.972
  512XTA   HL2357312  34.445   2.627   3.175
  512XTA   HL2457313  34.494   2.769   3.272
  512XTA   HL2557314  34.666   2.726   3.084
  512XTA   HL2657315  34.561   2.741   2.955
  512XTA   HL2757316  34.484   2.961   3.014
  512XTA   HL2857317  34.598   2.987   3.143
  512XTA   HL2957318  34.785   2.920   2.961
  512XTA   HL3057319  34.673   2.972   2.836
  512XTA   HL3157320  34.785   3.152   2.861
  512XTA   HL3257321  34.653   3.186   2.982
  512XTA   HL3357322  34.810   3.061   3.140
  512XTA   HL3457323  34.929   3.089   3.023
  512XTA   HL3557324  35.064   3.240   3.182
  512XTA   HL3657325  34.939   3.233   3.302
  512XTA   HL3757326  34.755   3.486   3.181
  512XTA   HL3857327  34.847   3.599   3.292
  512XTA   HL3957328  34.675   3.502   3.430
  512XTA   HL4057329  34.832   3.438   3.480
  512XTA   HL4157330  34.707   3.344   3.377
  512XTA    CO857331  35.122   3.400   3.563
  512XTA    CO957332  35.215   3.178   3.606
  512XTA    OA657333  35.351   3.212   3.563
  512XTA   HL4257334  35.061   3.482   3.596
  512XTA   HL4357335  35.214   3.447   3.538
  512XTA   HL4457336  34.957   3.500   3.043
  512XTA   HL4557337  35.120   3.467   3.111
  512XTA   CO1057338  35.023   3.510   3.133
  512XTA   CO1157339  35.057   3.459   3.361
  512XTA    OA757340  35.050   3.356   3.451
  512XTA   HL4657341  35.160   3.463   3.327
  512XTA   HL4757342  35.023   3.558   3.399
  512XTA   HL4857343  35.158   3.143   3.519
  512XTA   HL4957344  35.224   3.085   3.673
  513PF6     PT57345  32.055   3.846   3.964
  513PF6     F157346  32.136   3.771   3.851
  513PF6     F257347  31.919   3.796   3.894
  513PF6     F357348  32.197   3.890   4.026
  513PF6     F457349  31.972   3.915   4.083
  513PF6     F557350  32.054   3.982   3.878
  513PF6     F657351  32.052   3.713   4.055
  514PF6     PT57352  29.013   3.885  -0.677
  514PF6     F157353  28.955   4.029  -0.615
  514PF6     F257354  28.984   3.805  -0.538
  514PF6     F357355  29.036   3.974  -0.810
  514PF6     F457356  29.036   3.746  -0.748
  514PF6     F557357  29.169   3.887  -0.645
  514PF6     F657358  28.870   3.852  -0.733
  515PF6     PT57359  29.299   4.990   0.056
  515PF6     F157360  29.252   5.142   0.100
  515PF6     F257361  29.278   4.926   0.202
  515PF6     F357362  29.367   5.029  -0.085
  515PF6     F457363  29.339   4.841  -0.004
  515PF6     F557364  29.441   5.029   0.119
  515PF6     F657365  29.148   4.943   0.036
  516PF6     PT57366  30.504  -1.604   5.336
  516PF6     F157367  30.558  -1.627   5.184
  516PF6     F257368  30.402  -1.730   5.325
  516PF6     F357369  30.600  -1.481   5.378
  516PF6     F457370  30.461  -1.598   5.488
  516PF6     F557371  30.382  -1.503   5.300
  516PF6     F657372  30.609  -1.713   5.390
  517PF6     PT57373  32.034  -0.012   7.022
  517PF6     F157374  31.989   0.143   7.035
  517PF6     F257375  32.089   0.003   6.872
  517PF6     F357376  31.986  -0.022   7.175
  517PF6     F457377  32.061  -0.165   7.020
  517PF6     F557378  31.894  -0.022   6.940
  517PF6     F657379  32.193   0.004   7.070
  518PF6     PT57380  31.475   0.343   2.328
  518PF6     F157381  31.328   0.293   2.285
  518PF6     F257382  31.483   0.218   2.426
  518PF6     F357383  31.465   0.456   2.221
  518PF6     F457384  31.626   0.392   2.368
  518PF6     F557385  31.408   0.431   2.441
  518PF6     F657386  31.547   0.251   2.214
  519PF6     PT57387  29.684  -0.773   3.130
  519PF6     F157388  29.754  -0.762   2.998
  519PF6     F257389  29.587  -0.643   3.099
  519PF6     F357390  29.771  -0.898   3.177
  519PF6     F457391  29.618  -0.786   3.282
  519PF6     F557392  29.794  -0.688   3.206
  519PF6     F657393  29.564  -0.863   3.081
  520PF6     PT57394  32.980   1.270   5.536
  520PF6     F157395  33.056   1.305   5.408
  520PF6     F257396  33.061   1.123   5.523
  520PF6     F357397  32.894   1.404   5.536
  520PF6     F457398  32.917   1.222   5.674
  520PF6     F557399  32.844   1.201   5.475
  520PF6     F657400  33.093   1.332   5.628
  521PF6     PT57401  33.103   2.730   4.445
  521PF6     F157402  33.166   2.795   4.573
  521PF6     F257403  33.222   2.763   4.350
  521PF6     F357404  32.967   2.662   4.492
  521PF6     F457405  33.145   2.807   4.584
  521PF6     F557406  33.163   2.586   4.465
  521PF6     F657407  33.014   2.839   4.370
  522PF6     PT57408  27.574   4.763   4.205
  522PF6     F157409  27.453   4.697   4.282
  522PF6     F257410  27.604   4.840   4.345
  522PF6     F357411  27.544   4.687   4.062
  522PF6     F457412  27.686   4.837   4.117
  522PF6     F557413  27.478   4.886   4.154
  522PF6     F657414  27.657   4.636   4.246
  523PF6     PT57415  27.189   3.581   4.786
  523PF6     F157416  27.154   3.544   4.634
  523PF6     F257417  27.219   3.732   4.734
  523PF6     F357418  27.158   3.432   4.840
  523PF6     F457419  27.208   3.615   4.940
  523PF6     F557420  27.346   3.540   4.786
  523PF6     F657421  27.031   3.615   4.791
  524PF6     PT57422  25.110   4.923   7.403
  524PF6     F157423  25.176   4.899   7.261
  524PF6     F257424  25.245   4.893   7.480
  524PF6     F357425  24.990   4.982   7.314
  524PF6     F457426  25.035   4.950   7.536
  524PF6     F557427  25.046   4.777   7.426
  524PF6     F657428  25.169   5.068   7.424
  525PF6     PT57429  27.752   3.949   1.010
  525PF6     F157430  27.718   3.842   0.897
  525PF6     F257431  27.704   4.071   0.911
  525PF6     F357432  27.793   3.827   1.108
  525PF6     F457433  27.791   4.062   1.113
  525PF6     F557434  27.899   3.952   0.940
  525PF6     F657435  27.611   3.942   1.086
  526PF6     PT57436  25.563   3.078  -0.131
  526PF6     F157437  25.510   3.230  -0.099
  526PF6     F257438  25.524   3.083  -0.286
  526PF6     F357439  25.623   3.064   0.015
  526PF6     F457440  25.615   2.931  -0.163
  526PF6     F557441  25.420   3.036  -0.088
  526PF6     F657442  25.704   3.134  -0.181
  527PF6     PT57443  28.689   2.978   0.842
  527PF6     F157444  28.736   3.002   0.994
  527PF6     F257445  28.571   3.090   0.867
  527PF6     F357446  28.816   2.877   0.832
  527PF6     F457447  28.630   2.939   0.699
  527PF6     F557448  28.606   2.850   0.879
  527PF6     F657449  28.784   3.098   0.798
  528PF6     PT57450  28.138   6.477   5.879
  528PF6     F157451  28.295   6.496   5.839
  528PF6     F257452  28.173   6.317   5.864
  528PF6     F357453  28.112   6.638   5.878
  528PF6     F457454  27.992   6.425   5.923
  528PF6     F557455  28.087   6.488   5.725
  528PF6     F657456  28.189   6.479   6.033
  529PF6     PT57457  26.758   6.062  -0.459
  529PF6     F157458  26.892   6.083  -0.548
  529PF6     F257459  26.830   5.937  -0.398
  529PF6     F357460  26.691   6.196  -0.518
  529PF6     F457461  26.622   6.040  -0.376
  529PF6     F557462  26.687   5.971  -0.574
  529PF6     F657463  26.824   6.128  -0.326
  530PF6     PT57464  27.643   6.363   2.873
  530PF6     F157465  27.655   6.506   2.797
  530PF6     F257466  27.801   6.341   2.854
  530PF6     F357467  27.484   6.379   2.888
  530PF6     F457468  27.627   6.226   2.949
  530PF6     F557469  27.618   6.293   2.731
  530PF6     F657470  27.667   6.428   3.015
  531PF6     PT57471  25.788   0.713   4.501
  531PF6     F157472  25.649   0.661   4.579
  531PF6     F257473  25.743   0.636   4.366
  531PF6     F357474  25.811   0.817   4.620
  531PF6     F457475  25.923   0.764   4.439
  531PF6     F557476  25.861   0.595   4.571
  531PF6     F657477  25.703   0.830   4.440
  532PF6     PT57478  25.627  -0.198   4.207
  532PF6     F157479  25.763  -0.258   4.146
  532PF6     F257480  25.666  -0.067   4.134
  532PF6     F357481  25.591  -0.336   4.281
  532PF6     F457482  25.494  -0.130   4.269
  532PF6     F557483  25.715  -0.151   4.331
  532PF6     F657484  25.549  -0.244   4.080
  533PF6     PT57485  28.013   0.211   2.044
  533PF6     F157486  27.971   0.291   2.173
  533PF6     F257487  27.864   0.154   2.029
  533PF6     F357488  28.163   0.259   2.059
  533PF6     F457489  28.033   0.148   1.900
  533PF6     F557490  28.066   0.075   2.111
  533PF6     F657491  27.977   0.347   1.966
  534PF6     PT57492  26.127   1.208   1.547
  534PF6     F157493  26.019   1.210   1.433
  534PF6     F257494  26.034   1.241   1.671
  534PF6     F357495  26.219   1.150   1.430
  534PF6     F457496  26.250   1.203   1.639
  534PF6     F557497  26.151   1.367   1.516
  534PF6     F657498  26.062   1.059   1.566
  535PF6     PT57499  27.955   3.037   5.368
  535PF6     F157500  27.822   3.111   5.426
  535PF6     F257501  27.869   3.013   5.231
  535PF6     F357502  28.017   3.048   5.515
  535PF6     F457503  28.083   2.975   5.296
  535PF6     F557504  27.916   2.890   5.420
  535PF6     F657505  28.019   3.171   5.327
  536PF6     PT57506  28.427   0.937   5.495
  536PF6     F157507  28.480   0.821   5.393
  536PF6     F257508  28.503   0.866   5.619
  536PF6     F357509  28.345   1.005   5.374
  536PF6     F457510  28.377   1.051   5.599
  536PF6     F557511  28.283   0.870   5.518
  536PF6     F657512  28.565   1.017   5.469
  537PF6     PT57513  28.005   1.238   6.898
  537PF6     F157514  27.873   1.304   6.807
  537PF6     F257515  27.907   1.160   7.000
  537PF6     F357516  28.098   1.324   6.805
  537PF6     F457517  28.138   1.170   6.956
  537PF6     F557518  27.996   1.357   7.005
  537PF6     F657519  27.997   1.109   6.809
 8.31968  8.31968  8.31968
