generated by VMD, t= 0.000000
40480
    1XTA     NT    1  -5.817  27.785 -10.954
    1XTA    CN1    2  -5.854  27.738 -10.835
    1XTA     C1    3  -5.859  27.830 -10.728
    1XTA     C2    4  -5.885  27.784 -10.597
    1XTA     C3    5  -5.897  27.648 -10.568
    1XTA     C4    6  -5.905  27.559 -10.676
    1XTA     C5    7  -5.872  27.602 -10.807
    1XTA    CN2    8  -5.687  27.789 -10.989
    1XTA     C6    9  -5.594  27.880 -10.931
    1XTA     C7   10  -5.461  27.890 -10.976
    1XTA     C8   11  -5.412  27.798 -11.074
    1XTA     C9   12  -5.503  27.709 -11.132
    1XTA    C10   13  -5.635  27.710 -11.088
    1XTA    CN3   14  -5.897  27.826 -11.053
    1XTA    C11   15  -5.993  27.733 -11.104
    1XTA    C12   16  -6.082  27.755 -11.205
    1XTA    C13   17  -6.087  27.885 -11.264
    1XTA    C14   18  -5.999  27.985 -11.210
    1XTA    C15   19  -5.906  27.949 -11.113
    1XTA     H1   20  -5.836  27.937 -10.737
    1XTA     H2   21  -5.883  27.866 -10.520
    1XTA     H3   22  -5.927  27.455 -10.656
    1XTA     H4   23  -5.867  27.535 -10.884
    1XTA     H5   24  -5.624  27.944 -10.846
    1XTA     H6   25  -5.386  27.957 -10.927
    1XTA     H7   26  -5.468  27.644 -11.206
    1XTA     H8   27  -5.708  27.637 -11.126
    1XTA     H9   28  -5.981  27.637 -11.068
    1XTA    H10   29  -6.155  27.683 -11.244
    1XTA    H11   30  -5.979  28.082 -11.256
    1XTA    H12   31  -5.834  28.025 -11.091
    1XTA    OA1   32  -5.932  27.602 -10.448
    1XTA    CO1   33  -5.893  27.669 -10.334
    1XTA    OA2   34  -5.283  27.792 -11.117
    1XTA    CO2   35  -5.202  27.903 -11.087
    1XTA    CL1   36  -5.228  28.025 -11.177
    1XTA    CL2   37  -5.129  28.142 -11.163
    1XTA    CL3   38  -5.127  28.233 -11.289
    1XTA    CL4   39  -5.000  28.322 -11.277
    1XTA    CO3   40  -4.981  28.416 -11.390
    1XTA    OA3   41  -4.930  28.337 -11.504
    1XTA    CO4   42  -4.894  28.425 -11.612
    1XTA    CT1   43  -4.826  28.327 -11.720
    1XTA    CL5   44  -4.945  28.265 -11.800
    1XTA    CL6   45  -5.001  28.358 -11.915
    1XTA    OA4   46  -6.166  27.920 -11.376
    1XTA    CO5   47  -6.261  27.826 -11.425
    1XTA    HL1   48  -6.211  27.726 -11.456
    1XTA    HL2   49  -5.955  27.644 -10.248
    1XTA    HL3   50  -5.794  27.626 -10.319
    1XTA    HL4   51  -5.889  27.779 -10.333
    1XTA    HL5   52  -5.202  27.936 -10.977
    1XTA    HL6   53  -5.105  27.853 -11.095
    1XTA    HL7   54  -5.327  28.055 -11.148
    1XTA    HL8   55  -5.229  27.988 -11.280
    1XTA    HL9   56  -5.038  28.086 -11.152
    1XTA   HL10   57  -5.155  28.201 -11.079
    1XTA   HL11   58  -5.119  28.176 -11.376
    1XTA   HL12   59  -5.217  28.289 -11.291
    1XTA   HL13   60  -4.911  28.263 -11.253
    1XTA   HL14   61  -5.002  28.380 -11.187
    1XTA   HL15   62  -5.071  28.466 -11.417
    1XTA   HL16   63  -4.900  28.487 -11.362
    1XTA   HL17   64  -4.977  28.470 -11.658
    1XTA   HL18   65  -4.825  28.510 -11.579
    1XTA   HL19   66  -5.032  28.222 -11.745
    1XTA   HL20   67  -4.900  28.184 -11.849
    1XTA   HL21   68  -5.064  28.293 -11.973
    1XTA   HL22   69  -4.925  28.395 -11.984
    1XTA   HL23   70  -5.075  28.425 -11.873
    1XTA   HL24   71  -6.317  27.867 -11.517
    1XTA   HL25   72  -6.333  27.808 -11.342
    1XTA    CO8   73  -4.738  28.228 -11.641
    1XTA    CO9   74  -4.736  28.413 -11.809
    1XTA    OA6   75  -4.681  28.351 -11.925
    1XTA   HL42   76  -4.805  28.163 -11.578
    1XTA   HL43   77  -4.689  28.157 -11.703
    1XTA   HL48   78  -4.656  28.456 -11.754
    1XTA   HL49   79  -4.792  28.502 -11.854
    1XTA     NT   80  -9.185  25.408 -10.584
    1XTA    CN1   81  -9.186  25.537 -10.630
    1XTA     C1   82  -9.064  25.605 -10.650
    1XTA     C2   83  -9.060  25.739 -10.693
    1XTA     C3   84  -9.184  25.804 -10.711
    1XTA     C4   85  -9.308  25.741 -10.679
    1XTA     C5   86  -9.311  25.605 -10.637
    1XTA    CN2   87  -9.261  25.310 -10.636
    1XTA     C6   88  -9.261  25.290 -10.776
    1XTA     C7   89  -9.318  25.173 -10.833
    1XTA     C8   90  -9.386  25.084 -10.752
    1XTA     C9   91  -9.401  25.110 -10.611
    1XTA    C10   92  -9.339  25.222 -10.562
    1XTA    CN3   93  -9.089  25.371 -10.496
    1XTA    C11   94  -8.969  25.304 -10.537
    1XTA    C12   95  -8.866  25.278 -10.438
    1XTA    C13   96  -8.873  25.326 -10.308
    1XTA    C14   97  -8.988  25.396 -10.272
    1XTA    C15   98  -9.092  25.417 -10.365
    1XTA     H1   99  -8.973  25.558 -10.635
    1XTA     H2  100  -8.969  25.788 -10.703
    1XTA     H3  101  -9.404  25.796 -10.681
    1XTA     H4  102  -9.405  25.554 -10.614
    1XTA     H5  103  -9.215  25.366 -10.836
    1XTA     H6  104  -9.309  25.165 -10.939
    1XTA     H7  105  -9.457  25.043 -10.544
    1XTA     H8  106  -9.333  25.243 -10.452
    1XTA     H9  107  -8.960  25.269 -10.642
    1XTA    H10  108  -8.791  25.205 -10.450
    1XTA    H11  109  -9.002  25.440 -10.168
    1XTA    H12  110  -9.182  25.468 -10.335
    1XTA    OA1  111  -9.188  25.935 -10.752
    1XTA    CO1  112  -9.071  26.005 -10.772
    1XTA    OA2  113  -9.452  24.973 -10.800
    1XTA    CO2  114  -9.434  24.934 -10.943
    1XTA    CL1  115  -9.521  25.023 -11.031
    1XTA    CL2  116  -9.673  24.994 -11.009
    1XTA    CL3  117  -9.762  25.109 -11.067
    1XTA    CL4  118  -9.772  25.096 -11.216
    1XTA    CO3  119  -9.690  25.204 -11.290
    1XTA    OA3  120  -9.744  25.332 -11.265
    1XTA    CO4  121  -9.677  25.437 -11.318
    1XTA    CT1  122  -9.734  25.575 -11.270
    1XTA    CL5  123  -9.745  25.577 -11.118
    1XTA    CL6  124  -9.601  25.574 -11.046
    1XTA    OA4  125  -8.772  25.317 -10.213
    1XTA    CO5  126  -8.650  25.263 -10.265
    1XTA    HL1  127  -8.578  25.285 -10.179
    1XTA    HL2  128  -9.003  25.973 -10.841
    1XTA    HL3  129  -9.094  26.096 -10.832
    1XTA    HL4  130  -9.016  26.032 -10.674
    1XTA    HL5  131  -9.327  24.934 -10.960
    1XTA    HL6  132  -9.466  24.826 -10.939
    1XTA    HL7  133  -9.490  25.016 -11.130
    1XTA    HL8  134  -9.489  25.125 -11.009
    1XTA    HL9  135  -9.703  24.985 -10.901
    1XTA   HL10  136  -9.715  24.901 -11.052
    1XTA   HL11  137  -9.865  25.100 -11.024
    1XTA   HL12  138  -9.729  25.208 -11.039
    1XTA   HL13  139  -9.876  25.082 -11.255
    1XTA   HL14  140  -9.732  24.996 -11.243
    1XTA   HL15  141  -9.584  25.200 -11.263
    1XTA   HL16  142  -9.686  25.184 -11.397
    1XTA   HL17  143  -9.570  25.432 -11.303
    1XTA   HL18  144  -9.691  25.432 -11.427
    1XTA   HL19  145  -9.814  25.497 -11.093
    1XTA   HL20  146  -9.801  25.667 -11.093
    1XTA   HL21  147  -9.544  25.670 -11.056
    1XTA   HL22  148  -9.554  25.490 -11.078
    1XTA   HL23  149  -9.616  25.565 -10.937
    1XTA   HL24  150  -8.613  25.318 -10.354
    1XTA   HL25  151  -8.649  25.159 -10.283
    1XTA    CO8  152  -9.873  25.600 -11.338
    1XTA    CO9  153  -9.641  25.689 -11.317
    1XTA    OA6  154  -9.942  25.514 -11.333
    1XTA   HL42  155  -9.854  25.625 -11.442
    1XTA   HL43  156  -9.923  25.698 -11.305
    1XTA   HL48  157  -9.666  25.703 -11.456
    1XTA   HL49  158  -9.665  25.783 -11.270
    1XTA     NT  159  -3.009  26.649  -7.718
    1XTA    CN1  160  -3.039  26.764  -7.783
    1XTA     C1  161  -3.086  26.754  -7.919
    1XTA     C2  162  -3.111  26.868  -7.988
    1XTA     C3  163  -3.121  26.996  -7.926
    1XTA     C4  164  -3.066  27.007  -7.795
    1XTA     C5  165  -3.018  26.893  -7.726
    1XTA    CN2  166  -2.917  26.561  -7.771
    1XTA     C6  167  -2.931  26.428  -7.768
    1XTA     C7  168  -2.833  26.339  -7.806
    1XTA     C8  169  -2.707  26.392  -7.848
    1XTA     C9  170  -2.691  26.529  -7.868
    1XTA    C10  171  -2.797  26.614  -7.827
    1XTA    CN3  172  -3.057  26.620  -7.600
    1XTA    C11  173  -3.198  26.642  -7.576
    1XTA    C12  174  -3.260  26.616  -7.456
    1XTA    C13  175  -3.181  26.555  -7.353
    1XTA    C14  176  -3.043  26.524  -7.379
    1XTA    C15  177  -2.978  26.562  -7.501
    1XTA     H1  178  -3.103  26.656  -7.952
    1XTA     H2  179  -3.139  26.868  -8.087
    1XTA     H3  180  -3.068  27.097  -7.749
    1XTA     H4  181  -2.972  26.892  -7.626
    1XTA     H5  182  -3.026  26.387  -7.731
    1XTA     H6  183  -2.849  26.237  -7.783
    1XTA     H7  184  -2.604  26.567  -7.911
    1XTA     H8  185  -2.786  26.725  -7.837
    1XTA     H9  186  -3.266  26.678  -7.659
    1XTA    H10  187  -3.367  26.638  -7.449
    1XTA    H11  188  -2.980  26.480  -7.294
    1XTA    H12  189  -2.874  26.541  -7.522
    1XTA    OA1  190  -3.181  27.100  -8.001
    1XTA    CO1  191  -3.200  27.227  -7.933
    1XTA    OA2  192  -2.599  26.306  -7.864
    1XTA    CO2  193  -2.638  26.173  -7.898
    1XTA    CL1  194  -2.512  26.092  -7.951
    1XTA    CL2  195  -2.451  26.153  -8.080
    1XTA    CL3  196  -2.514  26.117  -8.208
    1XTA    CL4  197  -2.419  26.139  -8.328
    1XTA    CO3  198  -2.468  26.136  -8.471
    1XTA    OA3  199  -2.363  26.171  -8.555
    1XTA    CO4  200  -2.410  26.179  -8.685
    1XTA    CT1  201  -2.302  26.190  -8.796
    1XTA    CL5  202  -2.229  26.321  -8.782
    1XTA    CL6  203  -2.136  26.339  -8.658
    1XTA    OA4  204  -3.226  26.524  -7.225
    1XTA    CO5  205  -3.333  26.595  -7.170
    1XTA    HL1  206  -3.342  26.696  -7.200
    1XTA    HL2  207  -3.267  27.202  -7.853
    1XTA    HL3  208  -3.110  27.283  -7.888
    1XTA    HL4  209  -3.256  27.298  -8.004
    1XTA    HL5  210  -2.657  26.116  -7.811
    1XTA    HL6  211  -2.722  26.168  -7.971
    1XTA    HL7  212  -2.536  25.986  -7.964
    1XTA    HL8  213  -2.438  26.098  -7.871
    1XTA    HL9  214  -2.341  26.129  -8.083
    1XTA   HL10  215  -2.444  26.259  -8.060
    1XTA   HL11  216  -2.545  26.012  -8.200
    1XTA   HL12  217  -2.597  26.189  -8.227
    1XTA   HL13  218  -2.340  26.069  -8.327
    1XTA   HL14  219  -2.385  26.242  -8.312
    1XTA   HL15  220  -2.505  26.038  -8.499
    1XTA   HL16  221  -2.554  26.208  -8.476
    1XTA   HL17  222  -2.474  26.093  -8.706
    1XTA   HL18  223  -2.472  26.268  -8.673
    1XTA   HL19  224  -2.303  26.403  -8.777
    1XTA   HL20  225  -2.171  26.330  -8.875
    1XTA   HL21  226  -2.080  26.430  -8.671
    1XTA   HL22  227  -2.077  26.254  -8.658
    1XTA   HL23  228  -2.190  26.347  -8.559
    1XTA   HL24  229  -3.354  26.604  -7.065
    1XTA   HL25  230  -3.413  26.557  -7.225
    1XTA    CO8  231  -2.389  26.198  -8.924
    1XTA    CO9  232  -2.211  26.057  -8.799
    1XTA    OA6  233  -2.275  25.977  -8.760
    1XTA   HL42  234  -2.314  26.237  -9.007
    1XTA   HL43  235  -2.423  26.061  -8.960
    1XTA   HL48  236  -2.129  26.064  -8.727
    1XTA   HL49  237  -2.178  26.036  -8.898
    1XTA     NT  238  -4.121  25.845  -6.771
    1XTA    CN1  239  -4.252  25.866  -6.727
    1XTA     C1  240  -4.324  25.780  -6.641
    1XTA     C2  241  -4.459  25.809  -6.618
    1XTA     C3  242  -4.525  25.919  -6.670
    1XTA     C4  243  -4.455  25.993  -6.766
    1XTA     C5  244  -4.323  25.969  -6.787
    1XTA    CN2  245  -4.098  25.800  -6.896
    1XTA     C6  246  -4.005  25.859  -6.986
    1XTA     C7  247  -3.987  25.812  -7.114
    1XTA     C8  248  -4.065  25.704  -7.164
    1XTA     C9  249  -4.159  25.645  -7.081
    1XTA    C10  250  -4.169  25.683  -6.946
    1XTA    CN3  251  -4.021  25.834  -6.683
    1XTA    C11  252  -3.955  25.947  -6.633
    1XTA    C12  253  -3.840  25.925  -6.552
    1XTA    C13  254  -3.795  25.805  -6.513
    1XTA    C14  255  -3.865  25.688  -6.561
    1XTA    C15  256  -3.983  25.707  -6.642
    1XTA     H1  257  -4.265  25.689  -6.610
    1XTA     H2  258  -4.510  25.727  -6.563
    1XTA     H3  259  -4.497  26.082  -6.824
    1XTA     H4  260  -4.280  26.021  -6.866
    1XTA     H5  261  -3.953  25.941  -6.946
    1XTA     H6  262  -3.909  25.851  -7.178
    1XTA     H7  263  -4.214  25.568  -7.111
    1XTA     H8  264  -4.232  25.619  -6.882
    1XTA     H9  265  -4.001  26.041  -6.644
    1XTA    H10  266  -3.786  26.006  -6.514
    1XTA    H11  267  -3.842  25.584  -6.533
    1XTA    H12  268  -4.035  25.617  -6.685
    1XTA    OA1  269  -4.659  25.930  -6.640
    1XTA    CO1  270  -4.728  26.050  -6.666
    1XTA    OA2  271  -4.055  25.659  -7.299
    1XTA    CO2  272  -3.965  25.716  -7.385
    1XTA    CL1  273  -3.821  25.671  -7.352
    1XTA    CL2  274  -3.799  25.546  -7.273
    1XTA    CL3  275  -3.649  25.541  -7.238
    1XTA    CL4  276  -3.550  25.499  -7.347
    1XTA    CO3  277  -3.404  25.507  -7.314
    1XTA    OA3  278  -3.332  25.493  -7.437
    1XTA    CO4  279  -3.193  25.482  -7.402
    1XTA    CT1  280  -3.107  25.441  -7.531
    1XTA    CL5  281  -3.159  25.309  -7.591
    1XTA    CL6  282  -3.289  25.307  -7.683
    1XTA    OA4  283  -3.682  25.799  -6.432
    1XTA    CO5  284  -3.599  25.687  -6.461
    1XTA    HL1  285  -3.653  25.596  -6.436
    1XTA    HL2  286  -4.837  26.032  -6.668
    1XTA    HL3  287  -4.688  26.119  -6.595
    1XTA    HL4  288  -4.707  26.079  -6.768
    1XTA    HL5  289  -3.996  25.676  -7.478
    1XTA    HL6  290  -3.980  25.826  -7.396
    1XTA    HL7  291  -3.780  25.749  -7.281
    1XTA    HL8  292  -3.757  25.681  -7.439
    1XTA    HL9  293  -3.815  25.469  -7.340
    1XTA   HL10  294  -3.862  25.537  -7.183
    1XTA   HL11  295  -3.620  25.632  -7.191
    1XTA   HL12  296  -3.642  25.468  -7.155
    1XTA   HL13  297  -3.569  25.566  -7.425
    1XTA   HL14  298  -3.580  25.406  -7.394
    1XTA   HL15  299  -3.380  25.604  -7.262
    1XTA   HL16  300  -3.381  25.425  -7.248
    1XTA   HL17  301  -3.158  25.576  -7.378
    1XTA   HL18  302  -3.187  25.407  -7.319
    1XTA   HL19  303  -3.168  25.234  -7.517
    1XTA   HL20  304  -3.068  25.271  -7.640
    1XTA   HL21  305  -3.302  25.204  -7.709
    1XTA   HL22  306  -3.277  25.364  -7.771
    1XTA   HL23  307  -3.368  25.343  -7.621
    1XTA   HL24  308  -3.497  25.671  -6.422
    1XTA   HL25  309  -3.573  25.692  -6.567
    1XTA    CO8  310  -2.957  25.426  -7.481
    1XTA    CO9  311  -3.101  25.550  -7.639
    1XTA    OA6  312  -2.949  25.314  -7.393
    1XTA   HL42  313  -2.929  25.515  -7.427
    1XTA   HL43  314  -2.897  25.417  -7.569
    1XTA   HL48  315  -3.039  25.623  -7.593
    1XTA   HL49  316  -3.041  25.520  -7.727
    1XTA     NT  317  -2.747  25.714 -10.536
    1XTA    CN1  318  -2.737  25.590 -10.488
    1XTA     C1  319  -2.690  25.482 -10.562
    1XTA     C2  320  -2.665  25.354 -10.504
    1XTA     C3  321  -2.696  25.327 -10.373
    1XTA     C4  322  -2.744  25.430 -10.297
    1XTA     C5  323  -2.774  25.557 -10.355
    1XTA    CN2  324  -2.688  25.820 -10.479
    1XTA     C6  325  -2.550  25.845 -10.510
    1XTA     C7  326  -2.484  25.953 -10.447
    1XTA     C8  327  -2.560  26.055 -10.372
    1XTA     C9  328  -2.696  26.037 -10.365
    1XTA    C10  329  -2.758  25.921 -10.413
    1XTA    CN3  330  -2.823  25.743 -10.645
    1XTA    C11  331  -2.764  25.778 -10.765
    1XTA    C12  332  -2.834  25.783 -10.887
    1XTA    C13  333  -2.976  25.763 -10.886
    1XTA    C14  334  -3.040  25.750 -10.765
    1XTA    C15  335  -2.966  25.735 -10.643
    1XTA     H1  336  -2.654  25.502 -10.658
    1XTA     H2  337  -2.621  25.289 -10.576
    1XTA     H3  338  -2.764  25.420 -10.186
    1XTA     H4  339  -2.821  25.630 -10.279
    1XTA     H5  340  -2.496  25.779 -10.578
    1XTA     H6  341  -2.381  25.955 -10.465
    1XTA     H7  342  -2.758  26.109 -10.318
    1XTA     H8  343  -2.869  25.923 -10.391
    1XTA     H9  344  -2.655  25.801 -10.764
    1XTA    H10  345  -2.788  25.806 -10.980
    1XTA    H11  346  -3.143  25.751 -10.762
    1XTA    H12  347  -3.017  25.727 -10.550
    1XTA    OA1  348  -2.675  25.197 -10.337
    1XTA    CO1  349  -2.663  25.178 -10.197
    1XTA    OA2  350  -2.502  26.169 -10.320
    1XTA    CO2  351  -2.367  26.204 -10.353
    1XTA    CL1  352  -2.347  26.331 -10.436
    1XTA    CL2  353  -2.438  26.340 -10.553
    1XTA    CL3  354  -2.471  26.483 -10.582
    1XTA    CL4  355  -2.385  26.544 -10.691
    1XTA    CO3  356  -2.395  26.704 -10.702
    1XTA    OA3  357  -2.362  26.763 -10.578
    1XTA    CO4  358  -2.334  26.902 -10.580
    1XTA    CT1  359  -2.273  26.943 -10.447
    1XTA    CL5  360  -2.122  26.902 -10.438
    1XTA    CL6  361  -2.027  26.967 -10.535
    1XTA    OA4  362  -3.047  25.773 -11.002
    1XTA    CO5  363  -3.004  25.868 -11.095
    1XTA    HL1  364  -2.902  25.850 -11.136
    1XTA    HL2  365  -2.605  25.253 -10.150
    1XTA    HL3  366  -2.763  25.179 -10.164
    1XTA    HL4  367  -2.624  25.077 -10.173
    1XTA    HL5  368  -2.324  26.217 -10.260
    1XTA    HL6  369  -2.306  26.127 -10.398
    1XTA    HL7  370  -2.242  26.337 -10.472
    1XTA    HL8  371  -2.368  26.412 -10.363
    1XTA    HL9  372  -2.531  26.293 -10.527
    1XTA   HL10  373  -2.384  26.296 -10.633
    1XTA   HL11  374  -2.579  26.490 -10.607
    1XTA   HL12  375  -2.460  26.543 -10.492
    1XTA   HL13  376  -2.394  26.490 -10.785
    1XTA   HL14  377  -2.279  26.531 -10.665
    1XTA   HL15  378  -2.310  26.729 -10.771
    1XTA   HL16  379  -2.499  26.731 -10.747
    1XTA   HL17  380  -2.267  26.927 -10.668
    1XTA   HL18  381  -2.417  26.967 -10.599
    1XTA   HL19  382  -2.119  26.787 -10.430
    1XTA   HL20  383  -2.063  26.918 -10.344
    1XTA   HL21  384  -2.070  26.957 -10.636
    1XTA   HL22  385  -1.930  26.914 -10.544
    1XTA   HL23  386  -2.004  27.073 -10.519
    1XTA   HL24  387  -3.001  25.968 -11.056
    1XTA   HL25  388  -3.077  25.875 -11.180
    1XTA    CO8  389  -2.359  26.882 -10.333
    1XTA    CO9  390  -2.282  27.101 -10.423
    1XTA    OA6  391  -2.234  27.179 -10.529
    1XTA   HL42  392  -2.455  26.923 -10.349
    1XTA   HL43  393  -2.351  26.776 -10.349
    1XTA   HL48  394  -2.228  27.133 -10.333
    1XTA   HL49  395  -2.381  27.137 -10.399
    1XTA     NT  396  -6.951  29.511 -11.013
    1XTA    CN1  397  -6.995  29.626 -10.946
    1XTA     C1  398  -6.980  29.643 -10.809
    1XTA     C2  399  -7.015  29.769 -10.752
    1XTA     C3  400  -7.070  29.875 -10.829
    1XTA     C4  401  -7.082  29.864 -10.965
    1XTA     C5  402  -7.038  29.739 -11.021
    1XTA    CN2  403  -7.025  29.450 -11.111
    1XTA     C6  404  -7.152  29.404 -11.082
    1XTA     C7  405  -7.235  29.358 -11.187
    1XTA     C8  406  -7.191  29.366 -11.323
    1XTA     C9  407  -7.065  29.414 -11.358
    1XTA    C10  408  -6.981  29.455 -11.251
    1XTA    CN3  409  -6.826  29.475 -11.011
    1XTA    C11  410  -6.721  29.549 -11.083
    1XTA    C12  411  -6.588  29.498 -11.087
    1XTA    C13  412  -6.552  29.378 -11.016
    1XTA    C14  413  -6.657  29.305 -10.938
    1XTA    C15  414  -6.790  29.352 -10.950
    1XTA     H1  415  -6.942  29.565 -10.742
    1XTA     H2  416  -6.993  29.769 -10.651
    1XTA     H3  417  -7.119  29.952 -11.025
    1XTA     H4  418  -7.050  29.727 -11.130
    1XTA     H5  419  -7.188  29.410 -10.981
    1XTA     H6  420  -7.328  29.323 -11.162
    1XTA     H7  421  -7.033  29.413 -11.460
    1XTA     H8  422  -6.884  29.507 -11.273
    1XTA     H9  423  -6.752  29.642 -11.132
    1XTA    H10  424  -6.514  29.554 -11.139
    1XTA    H11  425  -6.643  29.220 -10.872
    1XTA    H12  426  -6.866  29.282 -10.918
    1XTA    OA1  427  -7.120  29.987 -10.773
    1XTA    CO1  428  -7.033  30.038 -10.676
    1XTA    OA2  429  -7.284  29.337 -11.421
    1XTA    CO2  430  -7.323  29.205 -11.431
    1XTA    CL1  431  -7.467  29.215 -11.492
    1XTA    CL2  432  -7.478  29.235 -11.643
    1XTA    CL3  433  -7.387  29.355 -11.692
    1XTA    CL4  434  -7.403  29.375 -11.841
    1XTA    CO3  435  -7.314  29.490 -11.909
    1XTA    OA3  436  -7.180  29.446 -11.911
    1XTA    CO4  437  -7.084  29.535 -11.952
    1XTA    CT1  438  -6.951  29.477 -11.906
    1XTA    CL5  439  -6.925  29.453 -11.757
    1XTA    CL6  440  -6.980  29.566 -11.674
    1XTA    OA4  441  -6.422  29.338 -11.014
    1XTA    CO5  442  -6.397  29.221 -10.940
    1XTA    HL1  443  -6.446  29.143 -10.992
    1XTA    HL2  444  -6.996  29.969 -10.600
    1XTA    HL3  445  -6.947  30.072 -10.739
    1XTA    HL4  446  -7.065  30.123 -10.618
    1XTA    HL5  447  -7.275  29.138 -11.506
    1XTA    HL6  448  -7.320  29.157 -11.323
    1XTA    HL7  449  -7.528  29.284 -11.434
    1XTA    HL8  450  -7.520  29.121 -11.475
    1XTA    HL9  451  -7.580  29.256 -11.660
    1XTA   HL10  452  -7.451  29.145 -11.691
    1XTA   HL11  453  -7.380  29.438 -11.625
    1XTA   HL12  454  -7.283  29.311 -11.684
    1XTA   HL13  455  -7.508  29.401 -11.852
    1XTA   HL14  456  -7.399  29.277 -11.893
    1XTA   HL15  457  -7.344  29.516 -12.006
    1XTA   HL16  458  -7.332  29.571 -11.848
    1XTA   HL17  459  -7.089  29.542 -12.060
    1XTA   HL18  460  -7.102  29.637 -11.910
    1XTA   HL19  461  -6.814  29.442 -11.746
    1XTA   HL20  462  -6.972  29.356 -11.726
    1XTA   HL21  463  -6.959  29.560 -11.563
    1XTA   HL22  464  -7.087  29.583 -11.691
    1XTA   HL23  465  -6.931  29.663 -11.709
    1XTA   HL24  466  -6.426  29.232 -10.836
    1XTA   HL25  467  -6.289  29.201 -10.953
    1XTA    CO8  468  -6.837  29.523 -11.989
    1XTA    CO9  469  -6.935  29.352 -11.981
    1XTA    OA6  470  -6.851  29.444 -12.072
    1XTA   HL42  471  -6.739  29.506 -11.937
    1XTA   HL43  472  -6.857  29.628 -12.018
    1XTA   HL48  473  -7.037  29.303 -12.058
    1XTA   HL49  474  -6.867  29.277 -11.932
    1XTA     NT  475  -3.897  26.257  -6.180
    1XTA    CN1  476  -3.831  26.147  -6.138
    1XTA     C1  477  -3.858  26.021  -6.186
    1XTA     C2  478  -3.803  25.908  -6.128
    1XTA     C3  479  -3.698  25.919  -6.038
    1XTA     C4  480  -3.660  26.046  -5.990
    1XTA     C5  481  -3.733  26.160  -6.036
    1XTA    CN2  482  -3.967  26.325  -6.086
    1XTA     C6  483  -3.950  26.462  -6.070
    1XTA     C7  484  -4.045  26.531  -5.992
    1XTA     C8  485  -4.144  26.465  -5.915
    1XTA     C9  486  -4.165  26.330  -5.938
    1XTA    C10  487  -4.072  26.257  -6.014
    1XTA    CN3  488  -3.905  26.290  -6.314
    1XTA    C11  489  -4.014  26.369  -6.365
    1XTA    C12  490  -4.016  26.419  -6.495
    1XTA    C13  491  -3.899  26.410  -6.576
    1XTA    C14  492  -3.797  26.325  -6.533
    1XTA    C15  493  -3.793  26.272  -6.402
    1XTA     H1  494  -3.937  26.013  -6.260
    1XTA     H2  495  -3.831  25.810  -6.163
    1XTA     H3  496  -3.586  26.063  -5.915
    1XTA     H4  497  -3.708  26.255  -5.994
    1XTA     H5  498  -3.882  26.513  -6.138
    1XTA     H6  499  -4.048  26.636  -5.997
    1XTA     H7  500  -4.250  26.276  -5.903
    1XTA     H8  501  -4.097  26.162  -6.061
    1XTA     H9  502  -4.101  26.393  -6.305
    1XTA    H10  503  -4.112  26.466  -6.531
    1XTA    H11  504  -3.710  26.320  -6.588
    1XTA    H12  505  -3.706  26.218  -6.379
    1XTA    OA1  506  -3.642  25.802  -5.997
    1XTA    CO1  507  -3.566  25.820  -5.877
    1XTA    OA2  508  -4.228  26.538  -5.835
    1XTA    CO2  509  -4.299  26.470  -5.737
    1XTA    CL1  510  -4.388  26.558  -5.653
    1XTA    CL2  511  -4.438  26.492  -5.521
    1XTA    CL3  512  -4.503  26.360  -5.537
    1XTA    CL4  513  -4.648  26.380  -5.577
    1XTA    CO3  514  -4.728  26.255  -5.599
    1XTA    OA3  515  -4.848  26.297  -5.659
    1XTA    CO4  516  -4.923  26.183  -5.718
    1XTA    CT1  517  -5.070  26.227  -5.727
    1XTA    CL5  518  -5.094  26.341  -5.825
    1XTA    CL6  519  -4.994  26.461  -5.808
    1XTA    OA4  520  -3.877  26.470  -6.703
    1XTA    CO5  521  -3.861  26.617  -6.699
    1XTA    HL1  522  -3.879  26.662  -6.798
    1XTA    HL2  523  -3.621  25.867  -5.797
    1XTA    HL3  524  -3.521  25.727  -5.843
    1XTA    HL4  525  -3.479  25.886  -5.889
    1XTA    HL5  526  -4.366  26.402  -5.789
    1XTA    HL6  527  -4.228  26.408  -5.680
    1XTA    HL7  528  -4.466  26.599  -5.721
    1XTA    HL8  529  -4.323  26.635  -5.625
    1XTA    HL9  530  -4.489  26.570  -5.464
    1XTA   HL10  531  -4.339  26.463  -5.477
    1XTA   HL11  532  -4.453  26.310  -5.620
    1XTA   HL12  533  -4.502  26.302  -5.442
    1XTA   HL13  534  -4.645  26.429  -5.682
    1XTA   HL14  535  -4.705  26.447  -5.511
    1XTA   HL15  536  -4.662  26.184  -5.653
    1XTA   HL16  537  -4.757  26.206  -5.506
    1XTA   HL17  538  -4.881  26.173  -5.818
    1XTA   HL18  539  -4.920  26.093  -5.655
    1XTA   HL19  540  -5.197  26.373  -5.806
    1XTA   HL20  541  -5.084  26.302  -5.930
    1XTA   HL21  542  -4.968  26.492  -5.708
    1XTA   HL22  543  -5.034  26.549  -5.865
    1XTA   HL23  544  -4.901  26.439  -5.851
    1XTA   HL24  545  -3.769  26.653  -6.653
    1XTA   HL25  546  -3.937  26.644  -6.629
    1XTA    CO8  547  -5.108  26.266  -5.580
    1XTA    CO9  548  -5.154  26.109  -5.768
    1XTA    OA6  549  -5.267  26.129  -5.771
    1XTA   HL42  550  -5.051  26.354  -5.537
    1XTA   HL43  551  -5.237  26.314  -5.550
    1XTA   HL48  552  -5.136  26.045  -5.678
    1XTA   HL49  553  -5.114  26.060  -5.861
    1XTA     NT  554  -4.380  31.193 -10.689
    1XTA    CN1  555  -4.512  31.212 -10.713
    1XTA     C1  556  -4.607  31.175 -10.619
    1XTA     C2  557  -4.739  31.219 -10.629
    1XTA     C3  558  -4.777  31.298 -10.736
    1XTA     C4  559  -4.681  31.321 -10.836
    1XTA     C5  560  -4.548  31.289 -10.821
    1XTA    CN2  561  -4.318  31.224 -10.578
    1XTA     C6  562  -4.287  31.356 -10.536
    1XTA     C7  563  -4.214  31.380 -10.418
    1XTA     C8  564  -4.185  31.275 -10.337
    1XTA     C9  565  -4.229  31.147 -10.368
    1XTA    C10  566  -4.290  31.119 -10.489
    1XTA    CN3  567  -4.299  31.130 -10.775
    1XTA    C11  568  -4.331  30.997 -10.808
    1XTA    C12  569  -4.253  30.932 -10.908
    1XTA    C13  570  -4.127  30.985 -10.945
    1XTA    C14  571  -4.090  31.114 -10.906
    1XTA    C15  572  -4.182  31.189 -10.823
    1XTA     H1  573  -4.574  31.117 -10.533
    1XTA     H2  574  -4.803  31.186 -10.547
    1XTA     H3  575  -4.708  31.381 -10.924
    1XTA     H4  576  -4.479  31.330 -10.899
    1XTA     H5  577  -4.320  31.436 -10.595
    1XTA     H6  578  -4.169  31.479 -10.403
    1XTA     H7  579  -4.218  31.054 -10.309
    1XTA     H8  580  -4.316  31.014 -10.515
    1XTA     H9  581  -4.421  30.952 -10.769
    1XTA    H10  582  -4.276  30.826 -10.942
    1XTA    H11  583  -3.999  31.153 -10.933
    1XTA    H12  584  -4.148  31.285 -10.780
    1XTA    OA1  585  -4.900  31.351 -10.739
    1XTA    CO1  586  -4.924  31.453 -10.827
    1XTA    OA2  587  -4.104  31.305 -10.230
    1XTA    CO2  588  -4.070  31.197 -10.147
    1XTA    CL1  589  -4.011  31.252 -10.019
    1XTA    CL2  590  -3.981  31.136  -9.918
    1XTA    CL3  591  -4.105  31.056  -9.881
    1XTA    CL4  592  -4.085  30.899  -9.888
    1XTA    CO3  593  -4.197  30.813  -9.824
    1XTA    OA3  594  -4.171  30.680  -9.795
    1XTA    CO4  595  -4.143  30.608  -9.912
    1XTA    CT1  596  -4.134  30.456  -9.894
    1XTA    CL5  597  -4.270  30.408  -9.840
    1XTA    CL6  598  -4.402  30.427  -9.923
    1XTA    OA4  599  -4.062  30.896 -11.026
    1XTA    CO5  600  -3.927  30.934 -11.063
    1XTA    HL1  601  -3.875  30.961 -10.968
    1XTA    HL2  602  -5.013  31.516 -10.802
    1XTA    HL3  603  -4.833  31.520 -10.831
    1XTA    HL4  604  -4.963  31.415 -10.925
    1XTA    HL5  605  -4.164  31.154 -10.116
    1XTA    HL6  606  -4.011  31.120 -10.205
    1XTA    HL7  607  -4.086  31.317  -9.979
    1XTA    HL8  608  -3.920  31.303 -10.042
    1XTA    HL9  609  -3.934  31.178  -9.834
    1XTA   HL10  610  -3.913  31.066  -9.958
    1XTA   HL11  611  -4.141  31.077  -9.783
    1XTA   HL12  612  -4.193  31.079  -9.943
    1XTA   HL13  613  -3.992  30.885  -9.833
    1XTA   HL14  614  -4.072  30.868  -9.991
    1XTA   HL15  615  -4.218  30.869  -9.730
    1XTA   HL16  616  -4.295  30.812  -9.886
    1XTA   HL17  617  -4.216  30.620  -9.989
    1XTA   HL18  618  -4.051  30.651  -9.949
    1XTA   HL19  619  -4.295  30.458  -9.741
    1XTA   HL20  620  -4.248  30.304  -9.824
    1XTA   HL21  621  -4.413  30.530  -9.959
    1XTA   HL22  622  -4.490  30.398  -9.869
    1XTA   HL23  623  -4.390  30.375 -10.022
    1XTA   HL24  624  -3.916  31.005 -11.140
    1XTA   HL25  625  -3.888  30.838 -11.097
    1XTA    CO8  626  -4.013  30.426  -9.803
    1XTA    CO9  627  -4.111  30.390 -10.031
    1XTA    OA6  628  -4.169  30.450 -10.102
    1XTA   HL42  629  -3.950  30.362  -9.859
    1XTA   HL43  630  -3.939  30.548  -9.787
    1XTA   HL48  631  -4.155  30.287 -10.024
    1XTA   HL49  632  -4.009  30.380 -10.070
    1XTA     NT  633  -4.241  31.501  -9.686
    1XTA    CN1  634  -4.292  31.461  -9.803
    1XTA     C1  635  -4.307  31.547  -9.917
    1XTA     C2  636  -4.349  31.498 -10.044
    1XTA     C3  637  -4.398  31.366 -10.051
    1XTA     C4  638  -4.394  31.283  -9.937
    1XTA     C5  639  -4.343  31.330  -9.815
    1XTA    CN2  640  -4.162  31.421  -9.606
    1XTA     C6  641  -4.225  31.362  -9.494
    1XTA     C7  642  -4.148  31.287  -9.406
    1XTA     C8  643  -4.009  31.281  -9.416
    1XTA     C9  644  -3.946  31.351  -9.519
    1XTA    C10  645  -4.025  31.422  -9.618
    1XTA    CN3  646  -4.312  31.598  -9.625
    1XTA    C11  647  -4.448  31.616  -9.643
    1XTA    C12  648  -4.514  31.734  -9.601
    1XTA    C13  649  -4.447  31.838  -9.534
    1XTA    C14  650  -4.309  31.822  -9.518
    1XTA    C15  651  -4.241  31.705  -9.564
    1XTA     H1  652  -4.270  31.647  -9.918
    1XTA     H2  653  -4.347  31.562 -10.125
    1XTA     H3  654  -4.432  31.176  -9.931
    1XTA     H4  655  -4.344  31.263  -9.731
    1XTA     H5  656  -4.336  31.364  -9.490
    1XTA     H6  657  -4.199  31.226  -9.326
    1XTA     H7  658  -3.842  31.344  -9.538
    1XTA     H8  659  -3.985  31.475  -9.708
    1XTA     H9  660  -4.513  31.557  -9.706
    1XTA    H10  661  -4.621  31.748  -9.607
    1XTA    H11  662  -4.244  31.901  -9.478
    1XTA    H12  663  -4.136  31.696  -9.562
    1XTA    OA1  664  -4.443  31.310 -10.173
    1XTA    CO1  665  -4.538  31.204 -10.171
    1XTA    OA2  666  -3.926  31.217  -9.323
    1XTA    CO2  667  -3.982  31.176  -9.201
    1XTA    CL1  668  -3.876  31.120  -9.111
    1XTA    CL2  669  -3.925  31.038  -8.996
    1XTA    CL3  670  -3.822  30.973  -8.902
    1XTA    CL4  671  -3.718  30.884  -8.965
    1XTA    CO3  672  -3.779  30.742  -9.003
    1XTA    OA3  673  -3.705  30.672  -9.104
    1XTA    CO4  674  -3.736  30.712  -9.233
    1XTA    CT1  675  -3.684  30.631  -9.358
    1XTA    CL5  676  -3.526  30.621  -9.347
    1XTA    CL6  677  -3.470  30.520  -9.239
    1XTA    OA4  678  -4.515  31.957  -9.510
    1XTA    CO5  679  -4.449  32.037  -9.407
    1XTA    HL1  680  -4.357  32.082  -9.437
    1XTA    HL2  681  -4.561  31.178 -10.267
    1XTA    HL3  682  -4.490  31.115 -10.122
    1XTA    HL4  683  -4.625  31.249 -10.117
    1XTA    HL5  684  -4.028  31.262  -9.151
    1XTA    HL6  685  -4.058  31.105  -9.226
    1XTA    HL7  686  -3.822  31.209  -9.068
    1XTA    HL8  687  -3.798  31.067  -9.174
    1XTA    HL9  688  -3.973  30.955  -9.038
    1XTA   HL10  689  -3.983  31.092  -8.931
    1XTA   HL11  690  -3.780  31.043  -8.836
    1XTA   HL12  691  -3.866  30.904  -8.827
    1XTA   HL13  692  -3.632  30.862  -8.894
    1XTA   HL14  693  -3.661  30.922  -9.050
    1XTA   HL15  694  -3.772  30.689  -8.903
    1XTA   HL16  695  -3.880  30.746  -9.032
    1XTA   HL17  696  -3.846  30.711  -9.238
    1XTA   HL18  697  -3.720  30.820  -9.249
    1XTA   HL19  698  -3.482  30.726  -9.325
    1XTA   HL20  699  -3.476  30.594  -9.443
    1XTA   HL21  700  -3.506  30.537  -9.141
    1XTA   HL22  701  -3.359  30.524  -9.227
    1XTA   HL23  702  -3.487  30.417  -9.269
    1XTA   HL24  703  -4.437  31.986  -9.319
    1XTA   HL25  704  -4.523  32.111  -9.379
    1XTA    CO8  705  -3.725  30.704  -9.493
    1XTA    CO9  706  -3.744  30.487  -9.357
    1XTA    OA6  707  -3.844  30.482  -9.388
    1XTA   HL42  708  -3.679  30.651  -9.577
    1XTA   HL43  709  -3.867  30.695  -9.501
    1XTA   HL48  710  -3.735  30.448  -9.254
    1XTA   HL49  711  -3.681  30.432  -9.431
    1XTA     NT  712  -2.181  23.821 -12.347
    1XTA    CN1  713  -2.247  23.837 -12.463
    1XTA     C1  714  -2.353  23.927 -12.474
    1XTA     C2  715  -2.418  23.943 -12.598
    1XTA     C3  716  -2.375  23.873 -12.712
    1XTA     C4  717  -2.265  23.783 -12.701
    1XTA     C5  718  -2.202  23.769 -12.578
    1XTA    CN2  719  -2.243  23.806 -12.230
    1XTA     C6  720  -2.235  23.895 -12.122
    1XTA     C7  721  -2.293  23.863 -12.000
    1XTA     C8  722  -2.371  23.742 -11.983
    1XTA     C9  723  -2.395  23.659 -12.093
    1XTA    C10  724  -2.329  23.695 -12.216
    1XTA    CN3  725  -2.044  23.839 -12.348
    1XTA    C11  726  -1.956  23.737 -12.310
    1XTA    C12  727  -1.819  23.755 -12.314
    1XTA    C13  728  -1.762  23.871 -12.376
    1XTA    C14  729  -1.852  23.966 -12.426
    1XTA    C15  730  -1.989  23.959 -12.402
    1XTA     H1  731  -2.384  23.978 -12.381
    1XTA     H2  732  -2.508  24.010 -12.607
    1XTA     H3  733  -2.228  23.741 -12.792
    1XTA     H4  734  -2.105  23.727 -12.563
    1XTA     H5  735  -2.187  23.989 -12.132
    1XTA     H6  736  -2.291  23.934 -11.920
    1XTA     H7  737  -2.464  23.577 -12.073
    1XTA     H8  738  -2.341  23.635 -12.312
    1XTA     H9  739  -1.987  23.640 -12.270
    1XTA    H10  740  -1.747  23.684 -12.275
    1XTA    H11  741  -1.811  24.059 -12.483
    1XTA    H12  742  -2.048  24.025 -12.454
    1XTA    OA1  743  -2.432  23.879 -12.836
    1XTA    CO1  744  -2.552  23.944 -12.857
    1XTA    OA2  745  -2.424  23.708 -11.861
    1XTA    CO2  746  -2.331  23.708 -11.751
    1XTA    CL1  747  -2.406  23.652 -11.637
    1XTA    CL2  748  -2.306  23.599 -11.529
    1XTA    CL3  749  -2.375  23.583 -11.396
    1XTA    CL4  750  -2.397  23.717 -11.320
    1XTA    CO3  751  -2.462  23.713 -11.178
    1XTA    OA3  752  -2.485  23.848 -11.142
    1XTA    CO4  753  -2.373  23.924 -11.153
    1XTA    CT1  754  -2.358  24.046 -11.047
    1XTA    CL5  755  -2.478  24.138 -11.056
    1XTA    CL6  756  -2.489  24.219 -11.183
    1XTA    OA4  757  -1.626  23.881 -12.383
    1XTA    CO5  758  -1.574  23.966 -12.485
    1XTA    HL1  759  -1.632  23.955 -12.575
    1XTA    HL2  760  -2.632  23.907 -12.798
    1XTA    HL3  761  -2.557  24.050 -12.831
    1XTA    HL4  762  -2.575  23.916 -12.960
    1XTA    HL5  763  -2.246  23.649 -11.777
    1XTA    HL6  764  -2.291  23.807 -11.730
    1XTA    HL7  765  -2.464  23.572 -11.659
    1XTA    HL8  766  -2.464  23.730 -11.595
    1XTA    HL9  767  -2.213  23.658 -11.522
    1XTA   HL10  768  -2.285  23.499 -11.575
    1XTA   HL11  769  -2.471  23.525 -11.403
    1XTA   HL12  770  -2.305  23.519 -11.346
    1XTA   HL13  771  -2.454  23.782 -11.385
    1XTA   HL14  772  -2.310  23.770 -11.333
    1XTA   HL15  773  -2.558  23.650 -11.173
    1XTA   HL16  774  -2.387  23.666 -11.113
    1XTA   HL17  775  -2.286  23.860 -11.136
    1XTA   HL18  776  -2.349  23.976 -11.249
    1XTA   HL19  777  -2.481  24.200 -10.964
    1XTA   HL20  778  -2.572  24.082 -11.038
    1XTA   HL21  779  -2.572  24.282 -11.165
    1XTA   HL22  780  -2.509  24.165 -11.269
    1XTA   HL23  781  -2.399  24.273 -11.209
    1XTA   HL24  782  -1.480  23.913 -12.513
    1XTA   HL25  783  -1.551  24.073 -12.452
    1XTA    CO8  784  -2.235  24.121 -11.074
    1XTA    CO9  785  -2.352  23.991 -10.903
    1XTA    OA6  786  -2.306  23.854 -10.899
    1XTA   HL42  787  -2.140  24.063 -11.060
    1XTA   HL43  788  -2.222  24.147 -11.180
    1XTA   HL48  789  -2.447  23.999 -10.849
    1XTA   HL49  790  -2.277  24.049 -10.850
    1XTA     NT  791  -6.955  26.556  -5.278
    1XTA    CN1  792  -7.080  26.543  -5.312
    1XTA     C1  793  -7.183  26.527  -5.218
    1XTA     C2  794  -7.317  26.520  -5.269
    1XTA     C3  795  -7.345  26.533  -5.408
    1XTA     C4  796  -7.242  26.563  -5.495
    1XTA     C5  797  -7.106  26.566  -5.444
    1XTA    CN2  798  -6.915  26.620  -5.167
    1XTA     C6  799  -6.911  26.759  -5.158
    1XTA     C7  800  -6.853  26.825  -5.046
    1XTA     C8  801  -6.819  26.755  -4.933
    1XTA     C9  802  -6.822  26.612  -4.938
    1XTA    C10  803  -6.872  26.547  -5.055
    1XTA    CN3  804  -6.854  26.490  -5.349
    1XTA    C11  805  -6.752  26.555  -5.424
    1XTA    C12  806  -6.642  26.476  -5.475
    1XTA    C13  807  -6.639  26.342  -5.465
    1XTA    C14  808  -6.750  26.274  -5.412
    1XTA    C15  809  -6.849  26.347  -5.341
    1XTA     H1  810  -7.170  26.533  -5.111
    1XTA     H2  811  -7.398  26.511  -5.201
    1XTA     H3  812  -7.269  26.590  -5.594
    1XTA     H4  813  -7.026  26.595  -5.516
    1XTA     H5  814  -6.934  26.822  -5.241
    1XTA     H6  815  -6.844  26.931  -5.051
    1XTA     H7  816  -6.786  26.549  -4.861
    1XTA     H8  817  -6.862  26.445  -5.069
    1XTA     H9  818  -6.754  26.661  -5.430
    1XTA    H10  819  -6.567  26.527  -5.527
    1XTA    H11  820  -6.761  26.169  -5.420
    1XTA    H12  821  -6.924  26.298  -5.282
    1XTA    OA1  822  -7.470  26.547  -5.462
    1XTA    CO1  823  -7.571  26.498  -5.377
    1XTA    OA2  824  -6.779  26.827  -4.818
    1XTA    CO2  825  -6.727  26.767  -4.699
    1XTA    CL1  826  -6.583  26.716  -4.721
    1XTA    CL2  827  -6.476  26.814  -4.763
    1XTA    CL3  828  -6.342  26.758  -4.787
    1XTA    CL4  829  -6.312  26.710  -4.927
    1XTA    CO3  830  -6.164  26.650  -4.947
    1XTA    OA3  831  -6.138  26.606  -5.076
    1XTA    CO4  832  -6.192  26.477  -5.096
    1XTA    CT1  833  -6.210  26.438  -5.240
    1XTA    CL5  834  -6.299  26.530  -5.316
    1XTA    CL6  835  -6.432  26.579  -5.250
    1XTA    OA4  836  -6.529  26.285  -5.526
    1XTA    CO5  837  -6.511  26.148  -5.525
    1XTA    HL1  838  -6.586  26.088  -5.576
    1XTA    HL2  839  -7.542  26.407  -5.337
    1XTA    HL3  840  -7.582  26.559  -5.289
    1XTA    HL4  841  -7.673  26.501  -5.421
    1XTA    HL5  842  -6.718  26.842  -4.623
    1XTA    HL6  843  -6.793  26.688  -4.666
    1XTA    HL7  844  -6.580  26.630  -4.786
    1XTA    HL8  845  -6.549  26.686  -4.622
    1XTA    HL9  846  -6.460  26.882  -4.677
    1XTA   HL10  847  -6.504  26.870  -4.851
    1XTA   HL11  848  -6.278  26.846  -4.764
    1XTA   HL12  849  -6.327  26.681  -4.706
    1XTA   HL13  850  -6.309  26.801  -4.986
    1XTA   HL14  851  -6.390  26.630  -4.954
    1XTA   HL15  852  -6.110  26.741  -4.936
    1XTA   HL16  853  -6.112  26.602  -4.867
    1XTA   HL17  854  -6.125  26.406  -5.040
    1XTA   HL18  855  -6.287  26.465  -5.049
    1XTA   HL19  856  -6.320  26.478  -5.409
    1XTA   HL20  857  -6.246  26.617  -5.335
    1XTA   HL21  858  -6.418  26.651  -5.166
    1XTA   HL22  859  -6.494  26.494  -5.223
    1XTA   HL23  860  -6.489  26.637  -5.317
    1XTA   HL24  861  -6.490  26.118  -5.420
    1XTA   HL25  862  -6.425  26.120  -5.580
    1XTA    CO8  863  -6.261  26.290  -5.248
    1XTA    CO9  864  -6.068  26.446  -5.313
    1XTA    OA6  865  -5.980  26.340  -5.278
    1XTA   HL42  866  -6.283  26.270  -5.350
    1XTA   HL43  867  -6.189  26.216  -5.222
    1XTA   HL48  868  -6.028  26.542  -5.286
    1XTA   HL49  869  -6.085  26.433  -5.413
    1XTA     NT  870  -9.680  25.053 -10.251
    1XTA    CN1  871  -9.731  25.078 -10.375
    1XTA     C1  872  -9.673  25.176 -10.461
    1XTA     C2  873  -9.718  25.187 -10.597
    1XTA     C3  874  -9.834  25.105 -10.636
    1XTA     C4  875  -9.890  25.016 -10.544
    1XTA     C5  876  -9.838  25.000 -10.418
    1XTA    CN2  877  -9.545  25.035 -10.250
    1XTA     C6  878  -9.467  25.146 -10.209
    1XTA     C7  879  -9.325  25.144 -10.215
    1XTA     C8  880  -9.264  25.023 -10.232
    1XTA     C9  881  -9.337  24.903 -10.259
    1XTA    C10  882  -9.481  24.911 -10.274
    1XTA    CN3  883  -9.746  25.106 -10.143
    1XTA    C11  884  -9.795  25.019 -10.040
    1XTA    C12  885  -9.844  25.077  -9.921
    1XTA    C13  886  -9.854  25.214  -9.908
    1XTA    C14  887  -9.833  25.294 -10.021
    1XTA    C15  888  -9.767  25.246 -10.134
    1XTA     H1  889  -9.594  25.246 -10.428
    1XTA     H2  890  -9.673  25.250 -10.667
    1XTA     H3  891  -9.978  24.959 -10.570
    1XTA     H4  892  -9.888  24.938 -10.355
    1XTA     H5  893  -9.514  25.236 -10.167
    1XTA     H6  894  -9.267  25.229 -10.170
    1XTA     H7  895  -9.281  24.816 -10.283
    1XTA     H8  896  -9.547  24.837 -10.317
    1XTA     H9  897  -9.785  24.911 -10.053
    1XTA    H10  898  -9.846  25.007  -9.838
    1XTA    H11  899  -9.845  25.398 -10.023
    1XTA    H12  900  -9.743  25.319 -10.210
    1XTA    OA1  901  -9.888  25.123 -10.762
    1XTA    CO1  902 -10.000  25.036 -10.783
    1XTA    OA2  903  -9.134  25.027 -10.221
    1XTA    CO2  904  -9.070  24.923 -10.153
    1XTA    CL1  905  -8.951  24.985 -10.086
    1XTA    CL2  906  -8.984  25.072  -9.967
    1XTA    CL3  907  -8.869  25.111  -9.876
    1XTA    CL4  908  -8.863  25.259  -9.864
    1XTA    CO3  909  -8.728  25.310  -9.807
    1XTA    OA3  910  -8.682  25.240  -9.691
    1XTA    CO4  911  -8.703  25.316  -9.575
    1XTA    CT1  912  -8.682  25.238  -9.451
    1XTA    CL5  913  -8.694  25.330  -9.335
    1XTA    CL6  914  -8.578  25.423  -9.317
    1XTA    OA4  915  -9.908  25.269  -9.793
    1XTA    CO5  916  -9.818  25.368  -9.744
    1XTA    HL1  917  -9.833  25.391  -9.638
    1XTA    HL2  918 -10.090  25.068 -10.729
    1XTA    HL3  919 -10.036  25.039 -10.885
    1XTA    HL4  920  -9.967  24.934 -10.764
    1XTA    HL5  921  -9.136  24.861 -10.088
    1XTA    HL6  922  -9.033  24.857 -10.239
    1XTA    HL7  923  -8.889  25.041 -10.154
    1XTA    HL8  924  -8.879  24.902 -10.058
    1XTA    HL9  925  -9.060  25.029  -9.905
    1XTA   HL10  926  -9.043  25.155  -9.998
    1XTA   HL11  927  -8.885  25.074  -9.779
    1XTA   HL12  928  -8.783  25.067  -9.910
    1XTA   HL13  929  -8.944  25.297  -9.800
    1XTA   HL14  930  -8.879  25.291  -9.966
    1XTA   HL15  931  -8.640  25.306  -9.877
    1XTA   HL16  932  -8.733  25.419  -9.783
    1XTA   HL17  933  -8.646  25.409  -9.581
    1XTA   HL18  934  -8.809  25.348  -9.585
    1XTA   HL19  935  -8.714  25.274  -9.244
    1XTA   HL20  936  -8.787  25.383  -9.334
    1XTA   HL21  937  -8.579  25.507  -9.248
    1XTA   HL22  938  -8.556  25.467  -9.410
    1XTA   HL23  939  -8.492  25.370  -9.296
    1XTA   HL24  940  -9.805  25.464  -9.787
    1XTA   HL25  941  -9.716  25.322  -9.729
    1XTA    CO8  942  -8.550  25.169  -9.460
    1XTA    CO9  943  -8.793  25.124  -9.442
    1XTA    OA6  944  -8.538  25.100  -9.368
    1XTA   HL42  945  -8.464  25.236  -9.474
    1XTA   HL43  946  -8.541  25.105  -9.543
    1XTA   HL48  947  -8.737  25.031  -9.352
    1XTA   HL49  948  -8.783  25.080  -9.543
    1XTA     NT  949  -4.248  27.399  -4.529
    1XTA    CN1  950  -4.205  27.417  -4.396
    1XTA     C1  951  -4.120  27.524  -4.359
    1XTA     C2  952  -4.083  27.542  -4.223
    1XTA     C3  953  -4.122  27.448  -4.127
    1XTA     C4  954  -4.201  27.336  -4.169
    1XTA     C5  955  -4.234  27.323  -4.298
    1XTA    CN2  956  -4.218  27.284  -4.592
    1XTA     C6  957  -4.083  27.266  -4.632
    1XTA     C7  958  -4.043  27.151  -4.703
    1XTA     C8  959  -4.139  27.046  -4.726
    1XTA     C9  960  -4.273  27.069  -4.695
    1XTA    C10  961  -4.311  27.185  -4.630
    1XTA    CN3  962  -4.348  27.477  -4.571
    1XTA    C11  963  -4.354  27.529  -4.707
    1XTA    C12  964  -4.458  27.616  -4.742
    1XTA    C13  965  -4.561  27.657  -4.651
    1XTA    C14  966  -4.557  27.606  -4.520
    1XTA    C15  967  -4.450  27.517  -4.482
    1XTA     H1  968  -4.085  27.597  -4.429
    1XTA     H2  969  -4.021  27.627  -4.200
    1XTA     H3  970  -4.226  27.258  -4.103
    1XTA     H4  971  -4.296  27.235  -4.327
    1XTA     H5  972  -4.009  27.339  -4.603
    1XTA     H6  973  -3.937  27.139  -4.734
    1XTA     H7  974  -4.348  26.998  -4.725
    1XTA     H8  975  -4.408  27.206  -4.612
    1XTA     H9  976  -4.287  27.492  -4.783
    1XTA    H10  977  -4.463  27.645  -4.849
    1XTA    H11  978  -4.628  27.624  -4.439
    1XTA    H12  979  -4.452  27.481  -4.383
    1XTA    OA1  980  -4.064  27.461  -4.002
    1XTA    CO1  981  -4.035  27.341  -3.930
    1XTA    OA2  982  -4.097  26.924  -4.777
    1XTA    CO2  983  -4.142  26.811  -4.704
    1XTA    CL1  984  -4.055  26.694  -4.741
    1XTA    CL2  985  -3.909  26.726  -4.702
    1XTA    CL3  986  -3.823  26.616  -4.765
    1XTA    CL4  987  -3.676  26.655  -4.757
    1XTA    CO3  988  -3.608  26.738  -4.872
    1XTA    OA3  989  -3.682  26.860  -4.905
    1XTA    CO4  990  -3.658  26.901  -5.035
    1XTA    CT1  991  -3.766  27.016  -5.066
    1XTA    CL5  992  -3.906  26.972  -5.025
    1XTA    CL6  993  -3.960  26.847  -5.096
    1XTA    OA4  994  -4.655  27.740  -4.695
    1XTA    CO5  995  -4.760  27.769  -4.610
    1XTA    HL1  996  -4.838  27.831  -4.661
    1XTA    HL2  997  -3.965  27.285  -3.984
    1XTA    HL3  998  -3.990  27.342  -3.832
    1XTA    HL4  999  -4.125  27.291  -3.923
    1XTA    HL5 1000  -4.147  26.815  -4.596
    1XTA    HL6 1001  -4.243  26.799  -4.750
    1XTA    HL7 1002  -4.065  26.673  -4.838
    1XTA    HL8 1003  -4.093  26.609  -4.686
    1XTA    HL9 1004  -3.892  26.730  -4.593
    1XTA   HL10 1005  -3.878  26.811  -4.750
    1XTA   HL11 1006  -3.838  26.513  -4.715
    1XTA   HL12 1007  -3.846  26.591  -4.871
    1XTA   HL13 1008  -3.632  26.560  -4.746
    1XTA   HL14 1009  -3.669  26.699  -4.652
    1XTA   HL15 1010  -3.505  26.735  -4.848
    1XTA   HL16 1011  -3.609  26.675  -4.969
    1XTA   HL17 1012  -3.550  26.929  -5.050
    1XTA   HL18 1013  -3.675  26.817  -5.096
    1XTA   HL19 1014  -3.981  27.049  -5.031
    1XTA   HL20 1015  -3.910  26.946  -4.921
    1XTA   HL21 1016  -3.981  26.876  -5.193
    1XTA   HL22 1017  -4.045  26.797  -5.048
    1XTA   HL23 1018  -3.882  26.768  -5.099
    1XTA   HL24 1019  -4.714  27.825  -4.534
    1XTA   HL25 1020  -4.803  27.676  -4.561
    1XTA    CO8 1021  -3.759  27.067  -5.209
    1XTA    CO9 1022  -3.735  27.140  -4.978
    1XTA    OA6 1023  -3.640  27.136  -5.255
    1XTA   HL42 1024  -3.840  27.140  -5.223
    1XTA   HL43 1025  -3.786  26.999  -5.289
    1XTA   HL48 1026  -3.753  27.118  -4.871
    1XTA   HL49 1027  -3.626  27.170  -4.987
    1XTA     NT 1028  -2.662  29.202  -9.691
    1XTA    CN1 1029  -2.635  29.146  -9.571
    1XTA     C1 1030  -2.616  29.232  -9.464
    1XTA     C2 1031  -2.572  29.187  -9.336
    1XTA     C3 1032  -2.562  29.045  -9.317
    1XTA     C4 1033  -2.592  28.955  -9.427
    1XTA     C5 1034  -2.614  29.006  -9.554
    1XTA    CN2 1035  -2.757  29.295  -9.706
    1XTA     C6 1036  -2.723  29.418  -9.764
    1XTA     C7 1037  -2.824  29.517  -9.777
    1XTA     C8 1038  -2.952  29.501  -9.717
    1XTA     C9 1039  -2.991  29.370  -9.675
    1XTA    C10 1040  -2.893  29.269  -9.670
    1XTA    CN3 1041  -2.607  29.162  -9.806
    1XTA    C11 1042  -2.464  29.168  -9.823
    1XTA    C12 1043  -2.413  29.134  -9.951
    1XTA    C13 1044  -2.497  29.089 -10.056
    1XTA    C14 1045  -2.634  29.067 -10.027
    1XTA    C15 1046  -2.691  29.112  -9.907
    1XTA     H1 1047  -2.627  29.337  -9.475
    1XTA     H2 1048  -2.556  29.257  -9.256
    1XTA     H3 1049  -2.596  28.848  -9.407
    1XTA     H4 1050  -2.628  28.943  -9.642
    1XTA     H5 1051  -2.630  29.434  -9.820
    1XTA     H6 1052  -2.806  29.608  -9.836
    1XTA     H7 1053  -3.089  29.358  -9.644
    1XTA     H8 1054  -2.921  29.172  -9.632
    1XTA     H9 1055  -2.395  29.208  -9.753
    1XTA    H10 1056  -2.312  29.145  -9.975
    1XTA    H11 1057  -2.699  29.051 -10.116
    1XTA    H12 1058  -2.807  29.104  -9.900
    1XTA    OA1 1059  -2.517  28.996  -9.200
    1XTA    CO1 1060  -2.533  29.071  -9.076
    1XTA    OA2 1061  -3.037  29.608  -9.713
    1XTA    CO2 1062  -3.178  29.576  -9.710
    1XTA    CL1 1063  -3.262  29.706  -9.714
    1XTA    CL2 1064  -3.272  29.796  -9.593
    1XTA    CL3 1065  -3.355  29.917  -9.625
    1XTA    CL4 1066  -3.471  29.903  -9.717
    1XTA    CO3 1067  -3.583  29.814  -9.676
    1XTA    OA3 1068  -3.666  29.782  -9.789
    1XTA    CO4 1069  -3.799  29.753  -9.743
    1XTA    CT1 1070  -3.888  29.689  -9.855
    1XTA    CL5 1071  -4.019  29.648  -9.776
    1XTA    CL6 1072  -4.047  29.499  -9.754
    1XTA    OA4 1073  -2.455  29.061 -10.182
    1XTA    CO5 1074  -2.323  29.089 -10.216
    1XTA    HL1 1075  -2.293  29.189 -10.207
    1XTA    HL2 1076  -2.474  29.007  -9.001
    1XTA    HL3 1077  -2.483  29.172  -9.072
    1XTA    HL4 1078  -2.633  29.086  -9.050
    1XTA    HL5 1079  -3.203  29.517  -9.788
    1XTA    HL6 1080  -3.194  29.524  -9.616
    1XTA    HL7 1081  -3.360  29.677  -9.747
    1XTA    HL8 1082  -3.226  29.768  -9.796
    1XTA    HL9 1083  -3.177  29.823  -9.541
    1XTA   HL10 1084  -3.332  29.736  -9.521
    1XTA   HL11 1085  -3.388  29.956  -9.531
    1XTA   HL12 1086  -3.288  29.999  -9.667
    1XTA   HL13 1087  -3.425  29.879  -9.812
    1XTA   HL14 1088  -3.516  30.004  -9.729
    1XTA   HL15 1089  -3.561  29.714  -9.636
    1XTA   HL16 1090  -3.643  29.872  -9.606
    1XTA   HL17 1091  -3.780  29.672  -9.671
    1XTA   HL18 1092  -3.849  29.848  -9.700
    1XTA   HL19 1093  -4.106  29.669  -9.842
    1XTA   HL20 1094  -4.043  29.717  -9.691
    1XTA   HL21 1095  -4.011  29.466  -9.656
    1XTA   HL22 1096  -4.017  29.432  -9.838
    1XTA   HL23 1097  -4.156  29.475  -9.756
    1XTA   HL24 1098  -2.303  29.048 -10.322
    1XTA   HL25 1099  -2.262  29.033 -10.150
    1XTA    CO8 1100  -3.819  29.574  -9.928
    1XTA    CO9 1101  -3.911  29.801  -9.959
    1XTA    OA6 1102  -3.786  29.492  -9.852
    1XTA   HL42 1103  -3.735  29.607  -9.987
    1XTA   HL43 1104  -3.875  29.531 -10.008
    1XTA   HL48 1105  -3.779  29.846  -9.998
    1XTA   HL49 1106  -3.941  29.894  -9.917
    1XTA     NT 1107  -2.865  23.532  -3.866
    1XTA    CN1 1108  -2.764  23.450  -3.837
    1XTA     C1 1109  -2.706  23.361  -3.932
    1XTA     C2 1110  -2.592  23.286  -3.899
    1XTA     C3 1111  -2.529  23.299  -3.774
    1XTA     C4 1112  -2.592  23.384  -3.677
    1XTA     C5 1113  -2.709  23.456  -3.707
    1XTA    CN2 1114  -2.988  23.533  -3.797
    1XTA     C6 1115  -3.064  23.418  -3.786
    1XTA     C7 1116  -3.176  23.414  -3.706
    1XTA     C8 1117  -3.220  23.534  -3.640
    1XTA     C9 1118  -3.143  23.648  -3.651
    1XTA    C10 1119  -3.028  23.653  -3.734
    1XTA    CN3 1120  -2.862  23.604  -3.977
    1XTA    C11 1121  -2.948  23.583  -4.084
    1XTA    C12 1122  -2.930  23.650  -4.204
    1XTA    C13 1123  -2.823  23.738  -4.219
    1XTA    C14 1124  -2.731  23.754  -4.111
    1XTA    C15 1125  -2.757  23.689  -3.994
    1XTA     H1 1126  -2.742  23.362  -4.034
    1XTA     H2 1127  -2.552  23.226  -3.986
    1XTA     H3 1128  -2.545  23.397  -3.580
    1XTA     H4 1129  -2.759  23.516  -3.630
    1XTA     H5 1130  -3.020  23.325  -3.835
    1XTA     H6 1131  -3.246  23.328  -3.698
    1XTA     H7 1132  -3.168  23.738  -3.600
    1XTA     H8 1133  -2.968  23.744  -3.751
    1XTA     H9 1134  -3.028  23.516  -4.075
    1XTA    H10 1135  -3.002  23.626  -4.272
    1XTA    H11 1136  -2.648  23.821  -4.134
    1XTA    H12 1137  -2.687  23.707  -3.911
    1XTA    OA1 1138  -2.405  23.244  -3.759
    1XTA    CO1 1139  -2.325  23.284  -3.650
    1XTA    OA2 1140  -3.335  23.525  -3.566
    1XTA    CO2 1141  -3.448  23.518  -3.646
    1XTA    CL1 1142  -3.486  23.664  -3.692
    1XTA    CL2 1143  -3.581  23.662  -3.819
    1XTA    CL3 1144  -3.602  23.801  -3.900
    1XTA    CL4 1145  -3.710  23.771  -4.008
    1XTA    CO3 1146  -3.686  23.856  -4.135
    1XTA    OA3 1147  -3.551  23.851  -4.186
    1XTA    CO4 1148  -3.557  23.827  -4.327
    1XTA    CT1 1149  -3.539  23.676  -4.363
    1XTA    CL5 1150  -3.485  23.587  -4.246
    1XTA    CL6 1151  -3.340  23.618  -4.198
    1XTA    OA4 1152  -2.795  23.796  -4.341
    1XTA    CO5 1153  -2.725  23.922  -4.333
    1XTA    HL1 1154  -2.761  23.981  -4.247
    1XTA    HL2 1155  -2.361  23.272  -3.547
    1XTA    HL3 1156  -2.226  23.235  -3.653
    1XTA    HL4 1157  -2.295  23.397  -3.663
    1XTA    HL5 1158  -3.437  23.444  -3.724
    1XTA    HL6 1159  -3.540  23.486  -3.590
    1XTA    HL7 1160  -3.398  23.725  -3.720
    1XTA    HL8 1161  -3.534  23.725  -3.619
    1XTA    HL9 1162  -3.679  23.630  -3.790
    1XTA   HL10 1163  -3.558  23.582  -3.886
    1XTA   HL11 1164  -3.632  23.882  -3.832
    1XTA   HL12 1165  -3.511  23.823  -3.955
    1XTA   HL13 1166  -3.808  23.806  -3.981
    1XTA   HL14 1167  -3.707  23.671  -4.038
    1XTA   HL15 1168  -3.756  23.822  -4.204
    1XTA   HL16 1169  -3.704  23.957  -4.108
    1XTA   HL17 1170  -3.636  23.873  -4.390
    1XTA   HL18 1171  -3.461  23.875  -4.361
    1XTA   HL19 1172  -3.492  23.491  -4.288
    1XTA   HL20 1173  -3.562  23.588  -4.169
    1XTA   HL21 1174  -3.258  23.576  -4.261
    1XTA   HL22 1175  -3.325  23.562  -4.101
    1XTA   HL23 1176  -3.324  23.721  -4.185
    1XTA   HL24 1177  -2.740  23.988  -4.419
    1XTA   HL25 1178  -2.617  23.904  -4.325
    1XTA    CO8 1179  -3.447  23.677  -4.488
    1XTA    CO9 1180  -3.677  23.621  -4.422
    1XTA    OA6 1181  -3.756  23.618  -4.346
    1XTA   HL42 1182  -3.480  23.760  -4.551
    1XTA   HL43 1183  -3.315  23.709  -4.472
    1XTA   HL48 1184  -3.650  23.515  -4.437
    1XTA   HL49 1185  -3.704  23.676  -4.514
    1XTA     NT 1186  -7.692  28.606  -4.813
    1XTA    CN1 1187  -7.772  28.702  -4.851
    1XTA     C1 1188  -7.794  28.821  -4.772
    1XTA     C2 1189  -7.881  28.922  -4.820
    1XTA     C3 1190  -7.952  28.912  -4.939
    1XTA     C4 1191  -7.939  28.793  -5.011
    1XTA     C5 1192  -7.851  28.692  -4.966
    1XTA    CN2 1193  -7.564  28.642  -4.791
    1XTA     C6 1194  -7.508  28.645  -4.659
    1XTA     C7 1195  -7.367  28.654  -4.641
    1XTA     C8 1196  -7.279  28.664  -4.751
    1XTA     C9 1197  -7.336  28.665  -4.876
    1XTA    C10 1198  -7.475  28.661  -4.897
    1XTA    CN3 1199  -7.721  28.475  -4.794
    1XTA    C11 1200  -7.819  28.433  -4.709
    1XTA    C12 1201  -7.845  28.291  -4.697
    1XTA    C13 1202  -7.775  28.194  -4.767
    1XTA    C14 1203  -7.672  28.236  -4.849
    1XTA    C15 1204  -7.651  28.375  -4.864
    1XTA     H1 1205  -7.751  28.834  -4.674
    1XTA     H2 1206  -7.894  29.013  -4.764
    1XTA     H3 1207  -7.990  28.784  -5.104
    1XTA     H4 1208  -7.844  28.604  -5.022
    1XTA     H5 1209  -7.571  28.623  -4.569
    1XTA     H6 1210  -7.327  28.659  -4.541
    1XTA     H7 1211  -7.273  28.667  -4.964
    1XTA     H8 1212  -7.508  28.662  -4.993
    1XTA     H9 1213  -7.867  28.504  -4.645
    1XTA    H10 1214  -7.929  28.276  -4.632
    1XTA    H11 1215  -7.602  28.167  -4.893
    1XTA    H12 1216  -7.570  28.395  -4.929
    1XTA    OA1 1217  -8.020  29.013  -5.000
    1XTA    CO1 1218  -8.156  29.034  -4.964
    1XTA    OA2 1219  -7.140  28.661  -4.741
    1XTA    CO2 1220  -7.092  28.624  -4.614
    1XTA    CL1 1221  -6.944  28.577  -4.625
    1XTA    CL2 1222  -6.935  28.441  -4.696
    1XTA    CL3 1223  -6.953  28.307  -4.612
    1XTA    CL4 1224  -6.918  28.189  -4.704
    1XTA    CO3 1225  -6.901  28.051  -4.650
    1XTA    OA3 1226  -6.869  27.967  -4.762
    1XTA    CO4 1227  -6.730  27.982  -4.800
    1XTA    CT1 1228  -6.684  27.864  -4.893
    1XTA    CL5 1229  -6.780  27.855  -5.024
    1XTA    CL6 1230  -6.805  27.980  -5.109
    1XTA    OA4 1231  -7.804  28.064  -4.750
    1XTA    CO5 1232  -7.710  27.970  -4.792
    1XTA    HL1 1233  -7.687  27.986  -4.897
    1XTA    HL2 1234  -8.165  29.055  -4.858
    1XTA    HL3 1235  -8.195  29.116  -5.012
    1XTA    HL4 1236  -8.215  28.949  -4.985
    1XTA    HL5 1237  -7.080  28.707  -4.548
    1XTA    HL6 1238  -7.147  28.543  -4.573
    1XTA    HL7 1239  -6.899  28.577  -4.526
    1XTA    HL8 1240  -6.888  28.644  -4.692
    1XTA    HL9 1241  -6.835  28.425  -4.744
    1XTA   HL10 1242  -6.994  28.426  -4.780
    1XTA   HL11 1243  -6.900  28.314  -4.519
    1XTA   HL12 1244  -7.058  28.297  -4.587
    1XTA   HL13 1245  -6.833  28.216  -4.772
    1XTA   HL14 1246  -6.998  28.185  -4.783
    1XTA   HL15 1247  -6.835  28.036  -4.567
    1XTA   HL16 1248  -7.002  28.015  -4.614
    1XTA   HL17 1249  -6.708  28.065  -4.870
    1XTA   HL18 1250  -6.654  27.976  -4.721
    1XTA   HL19 1251  -6.875  27.827  -4.980
    1XTA   HL20 1252  -6.742  27.777  -5.094
    1XTA   HL21 1253  -6.868  28.048  -5.054
    1XTA   HL22 1254  -6.850  27.948  -5.205
    1XTA   HL23 1255  -6.705  28.026  -5.142
    1XTA   HL24 1256  -7.764  27.876  -4.800
    1XTA   HL25 1257  -7.616  27.966  -4.732
    1XTA    CO8 1258  -6.679  27.725  -4.828
    1XTA    CO9 1259  -6.540  27.884  -4.946
    1XTA    OA6 1260  -6.620  27.624  -4.910
    1XTA   HL42 1261  -6.779  27.695  -4.812
    1XTA   HL43 1262  -6.637  27.730  -4.729
    1XTA   HL48 1263  -6.513  27.798  -5.005
    1XTA   HL49 1264  -6.536  27.975  -5.017
    1XTA     NT 1265  -4.154  25.011  -3.744
    1XTA    CN1 1266  -4.187  25.018  -3.612
    1XTA     C1 1267  -4.094  25.041  -3.516
    1XTA     C2 1268  -4.115  25.036  -3.379
    1XTA     C3 1269  -4.245  24.999  -3.336
    1XTA     C4 1270  -4.339  24.967  -3.435
    1XTA     C5 1271  -4.312  24.974  -3.569
    1XTA    CN2 1272  -4.047  24.946  -3.785
    1XTA     C6 1273  -3.958  24.993  -3.892
    1XTA     C7 1274  -3.852  24.915  -3.939
    1XTA     C8 1275  -3.825  24.788  -3.873
    1XTA     C9 1276  -3.913  24.744  -3.774
    1XTA    C10 1277  -4.026  24.820  -3.730
    1XTA    CN3 1278  -4.242  25.064  -3.830
    1XTA    C11 1279  -4.295  24.986  -3.947
    1XTA    C12 1280  -4.409  25.034  -4.025
    1XTA    C13 1281  -4.450  25.164  -4.009
    1XTA    C14 1282  -4.401  25.241  -3.906
    1XTA    C15 1283  -4.298  25.190  -3.817
    1XTA     H1 1284  -3.993  25.059  -3.551
    1XTA     H2 1285  -4.035  25.040  -3.307
    1XTA     H3 1286  -4.437  24.937  -3.405
    1XTA     H4 1287  -4.385  24.954  -3.651
    1XTA     H5 1288  -3.982  25.079  -3.953
    1XTA     H6 1289  -3.805  24.950  -4.027
    1XTA     H7 1290  -3.879  24.652  -3.719
    1XTA     H8 1291  -4.096  24.792  -3.652
    1XTA     H9 1292  -4.273  24.882  -3.957
    1XTA    H10 1293  -4.448  24.977  -4.110
    1XTA    H11 1294  -4.443  25.336  -3.883
    1XTA    H12 1295  -4.258  25.258  -3.743
    1XTA    OA1 1296  -4.269  25.006  -3.200
    1XTA    CO1 1297  -4.381  24.932  -3.150
    1XTA    OA2 1298  -3.719  24.703  -3.903
    1XTA    CO2 1299  -3.653  24.722  -4.020
    1XTA    CL1 1300  -3.548  24.614  -4.040
    1XTA    CL2 1301  -3.437  24.629  -3.937
    1XTA    CL3 1302  -3.335  24.743  -3.962
    1XTA    CL4 1303  -3.231  24.749  -3.853
    1XTA    CO3 1304  -3.113  24.835  -3.885
    1XTA    OA3 1305  -3.146  24.976  -3.872
    1XTA    CO4 1306  -3.032  25.057  -3.887
    1XTA    CT1 1307  -3.071  25.207  -3.898
    1XTA    CL5 1308  -3.176  25.238  -3.795
    1XTA    CL6 1309  -3.230  25.385  -3.795
    1XTA    OA4 1310  -4.544  25.208  -4.095
    1XTA    CO5 1311  -4.650  25.279  -4.036
    1XTA    HL1 1312  -4.726  25.303  -4.110
    1XTA    HL2 1313  -4.475  24.951  -3.201
    1XTA    HL3 1314  -4.363  24.826  -3.163
    1XTA    HL4 1315  -4.391  24.944  -3.043
    1XTA    HL5 1316  -3.718  24.741  -4.105
    1XTA    HL6 1317  -3.604  24.817  -4.016
    1XTA    HL7 1318  -3.499  24.607  -4.138
    1XTA    HL8 1319  -3.599  24.518  -4.027
    1XTA    HL9 1320  -3.385  24.535  -3.931
    1XTA   HL10 1321  -3.473  24.651  -3.838
    1XTA   HL11 1322  -3.285  24.744  -4.062
    1XTA   HL12 1323  -3.384  24.843  -3.957
    1XTA   HL13 1324  -3.191  24.646  -3.855
    1XTA   HL14 1325  -3.271  24.780  -3.761
    1XTA   HL15 1326  -3.030  24.819  -3.807
    1XTA   HL16 1327  -3.066  24.821  -3.983
    1XTA   HL17 1328  -2.955  25.051  -3.807
    1XTA   HL18 1329  -2.993  25.025  -3.981
    1XTA   HL19 1330  -3.141  25.212  -3.698
    1XTA   HL20 1331  -3.250  25.160  -3.806
    1XTA   HL21 1332  -3.152  25.460  -3.774
    1XTA   HL22 1333  -3.287  25.394  -3.700
    1XTA   HL23 1334  -3.285  25.404  -3.889
    1XTA   HL24 1335  -4.637  25.364  -3.964
    1XTA   HL25 1336  -4.706  25.217  -3.974
    1XTA    CO8 1337  -3.115  25.245  -4.044
    1XTA    CO9 1338  -2.946  25.297  -3.877
    1XTA    OA6 1339  -3.215  25.165  -4.094
    1XTA   HL42 1340  -3.030  25.220  -4.112
    1XTA   HL43 1341  -3.144  25.352  -4.054
    1XTA   HL48 1342  -2.978  25.401  -3.909
    1XTA   HL49 1343  -2.945  25.311  -3.765
    1XTA     NT 1344  -6.679  27.879  -9.084
    1XTA    CN1 1345  -6.670  27.884  -8.950
    1XTA     C1 1346  -6.699  27.773  -8.865
    1XTA     C2 1347  -6.675  27.780  -8.729
    1XTA     C3 1348  -6.660  27.910  -8.672
    1XTA     C4 1349  -6.642  28.022  -8.753
    1XTA     C5 1350  -6.640  28.009  -8.891
    1XTA    CN2 1351  -6.754  27.968  -9.146
    1XTA     C6 1352  -6.709  28.040  -9.251
    1XTA     C7 1353  -6.789  28.141  -9.322
    1XTA     C8 1354  -6.924  28.165  -9.276
    1XTA     C9 1355  -6.965  28.093  -9.166
    1XTA    C10 1356  -6.889  27.995  -9.107
    1XTA    CN3 1357  -6.642  27.772  -9.150
    1XTA    C11 1358  -6.521  27.758  -9.213
    1XTA    C12 1359  -6.500  27.642  -9.295
    1XTA    C13 1360  -6.599  27.536  -9.300
    1XTA    C14 1361  -6.717  27.555  -9.235
    1XTA    C15 1362  -6.739  27.671  -9.160
    1XTA     H1 1363  -6.718  27.675  -8.896
    1XTA     H2 1364  -6.693  27.696  -8.664
    1XTA     H3 1365  -6.611  28.116  -8.710
    1XTA     H4 1366  -6.621  28.093  -8.951
    1XTA     H5 1367  -6.600  28.027  -9.277
    1XTA     H6 1368  -6.744  28.192  -9.405
    1XTA     H7 1369  -7.061  28.111  -9.130
    1XTA     H8 1370  -6.927  27.943  -9.023
    1XTA     H9 1371  -6.446  27.834  -9.208
    1XTA    H10 1372  -6.404  27.620  -9.345
    1XTA    H11 1373  -6.802  27.478  -9.242
    1XTA    H12 1374  -6.833  27.689  -9.121
    1XTA    OA1 1375  -6.652  27.917  -8.536
    1XTA    CO1 1376  -6.517  27.876  -8.493
    1XTA    OA2 1377  -6.993  28.256  -9.356
    1XTA    CO2 1378  -7.137  28.246  -9.366
    1XTA    CL1 1379  -7.183  28.333  -9.492
    1XTA    CL2 1380  -7.128  28.317  -9.632
    1XTA    CL3 1381  -7.132  28.168  -9.673
    1XTA    CL4 1382  -7.275  28.120  -9.707
    1XTA    CO3 1383  -7.282  27.970  -9.739
    1XTA    OA3 1384  -7.413  27.937  -9.786
    1XTA    CO4 1385  -7.431  27.801  -9.813
    1XTA    CT1 1386  -7.577  27.764  -9.780
    1XTA    CL5 1387  -7.578  27.617  -9.734
    1XTA    CL6 1388  -7.544  27.509  -9.843
    1XTA    OA4 1389  -6.583  27.420  -9.364
    1XTA    CO5 1390  -6.486  27.407  -9.471
    1XTA    HL1 1391  -6.504  27.485  -9.543
    1XTA    HL2 1392  -6.523  27.864  -8.386
    1XTA    HL3 1393  -6.492  27.785  -8.540
    1XTA    HL4 1394  -6.442  27.954  -8.522
    1XTA    HL5 1395  -7.166  28.145  -9.377
    1XTA    HL6 1396  -7.176  28.285  -9.274
    1XTA    HL7 1397  -7.156  28.434  -9.472
    1XTA    HL8 1398  -7.291  28.332  -9.498
    1XTA    HL9 1399  -7.025  28.360  -9.620
    1XTA   HL10 1400  -7.184  28.370  -9.703
    1XTA   HL11 1401  -7.060  28.152  -9.756
    1XTA   HL12 1402  -7.090  28.111  -9.594
    1XTA   HL13 1403  -7.321  28.176  -9.790
    1XTA   HL14 1404  -7.354  28.121  -9.631
    1XTA   HL15 1405  -7.209  27.938  -9.816
    1XTA   HL16 1406  -7.265  27.906  -9.655
    1XTA   HL17 1407  -7.399  27.781  -9.907
    1XTA   HL18 1408  -7.371  27.734  -9.745
    1XTA   HL19 1409  -7.681  27.602  -9.693
    1XTA   HL20 1410  -7.506  27.606  -9.649
    1XTA   HL21 1411  -7.434  27.523  -9.885
    1XTA   HL22 1412  -7.599  27.516  -9.932
    1XTA   HL23 1413  -7.545  27.406  -9.809
    1XTA   HL24 1414  -6.500  27.307  -9.509
    1XTA   HL25 1415  -6.389  27.428  -9.442
    1XTA    CO8 1416  -7.674  27.799  -9.897
    1XTA    CO9 1417  -7.616  27.854  -9.664
    1XTA    OA6 1418  -7.712  27.830  -9.622
    1XTA   HL42 1419  -7.663  27.729  -9.978
    1XTA   HL43 1420  -7.806  27.770  -9.855
    1XTA   HL48 1421  -7.615  27.961  -9.688
    1XTA   HL49 1422  -7.536  27.846  -9.585
    1XTA     NT 1423  -6.003  29.471 -10.031
    1XTA    CN1 1424  -5.894  29.529  -9.987
    1XTA     C1 1425  -5.892  29.654  -9.926
    1XTA     C2 1426  -5.776  29.711  -9.868
    1XTA     C3 1427  -5.661  29.633  -9.855
    1XTA     C4 1428  -5.652  29.508  -9.925
    1XTA     C5 1429  -5.765  29.460  -9.993
    1XTA    CN2 1430  -6.094  29.524 -10.120
    1XTA     C6 1431  -6.234  29.504 -10.107
    1XTA     C7 1432  -6.315  29.539 -10.218
    1XTA     C8 1433  -6.262  29.591 -10.340
    1XTA     C9 1434  -6.126  29.596 -10.348
    1XTA    C10 1435  -6.038  29.567 -10.242
    1XTA    CN3 1436  -6.022  29.337 -10.010
    1XTA    C11 1437  -6.058  29.299  -9.880
    1XTA    C12 1438  -6.083  29.160  -9.852
    1XTA    C13 1439  -6.085  29.068  -9.959
    1XTA    C14 1440  -6.042  29.102 -10.084
    1XTA    C15 1441  -6.018  29.238 -10.113
    1XTA     H1 1442  -5.975  29.724  -9.918
    1XTA     H2 1443  -5.781  29.804  -9.820
    1XTA     H3 1444  -5.560  29.445  -9.913
    1XTA     H4 1445  -5.761  29.359 -10.032
    1XTA     H5 1446  -6.274  29.467 -10.016
    1XTA     H6 1447  -6.422  29.514 -10.211
    1XTA     H7 1448  -6.081  29.633 -10.437
    1XTA     H8 1449  -5.929  29.581 -10.252
    1XTA     H9 1450  -6.043  29.376  -9.799
    1XTA    H10 1451  -6.105  29.133  -9.743
    1XTA    H11 1452  -6.028  29.024 -10.156
    1XTA    H12 1453  -5.996  29.269 -10.213
    1XTA    OA1 1454  -5.558  29.686  -9.778
    1XTA    CO1 1455  -5.447  29.599  -9.743
    1XTA    OA2 1456  -6.345  29.644 -10.441
    1XTA    CO2 1457  -6.477  29.688 -10.417
    1XTA    CL1 1458  -6.569  29.648 -10.531
    1XTA    CL2 1459  -6.638  29.512 -10.524
    1XTA    CL3 1460  -6.544  29.400 -10.510
    1XTA    CL4 1461  -6.622  29.268 -10.521
    1XTA    CO3 1462  -6.707  29.222 -10.398
    1XTA    OA3 1463  -6.731  29.077 -10.413
    1XTA    CO4 1464  -6.810  29.028 -10.308
    1XTA    CT1 1465  -6.874  28.896 -10.344
    1XTA    CL5 1466  -6.968  28.845 -10.225
    1XTA    CL6 1467  -6.891  28.813 -10.095
    1XTA    OA4 1468  -6.123  28.935  -9.934
    1XTA    CO5 1469  -6.230  28.914  -9.842
    1XTA    HL1 1470  -6.252  28.803  -9.846
    1XTA    HL2 1471  -5.404  29.565  -9.836
    1XTA    HL3 1472  -5.367  29.644  -9.689
    1XTA    HL4 1473  -5.471  29.511  -9.683
    1XTA    HL5 1474  -6.511  29.654 -10.320
    1XTA    HL6 1475  -6.491  29.795 -10.416
    1XTA    HL7 1476  -6.525  29.661 -10.629
    1XTA    HL8 1477  -6.646  29.724 -10.539
    1XTA    HL9 1478  -6.688  29.502 -10.620
    1XTA   HL10 1479  -6.705  29.526 -10.440
    1XTA   HL11 1480  -6.474  29.415 -10.595
    1XTA   HL12 1481  -6.492  29.409 -10.414
    1XTA   HL13 1482  -6.547  29.192 -10.545
    1XTA   HL14 1483  -6.694  29.267 -10.599
    1XTA   HL15 1484  -6.667  29.237 -10.294
    1XTA   HL16 1485  -6.804  29.280 -10.403
    1XTA   HL17 1486  -6.751  29.015 -10.218
    1XTA   HL18 1487  -6.885  29.106 -10.281
    1XTA   HL19 1488  -7.014  28.750 -10.259
    1XTA   HL20 1489  -7.053  28.914 -10.205
    1XTA   HL21 1490  -6.843  28.897 -10.052
    1XTA   HL22 1491  -6.832  28.727 -10.108
    1XTA   HL23 1492  -6.964  28.777 -10.022
    1XTA   HL24 1493  -6.311  28.972  -9.866
    1XTA   HL25 1494  -6.206  28.930  -9.738
    1XTA    CO8 1495  -6.775  28.785 -10.378
    1XTA    CO9 1496  -6.969  28.920 -10.460
    1XTA    OA6 1497  -7.058  28.818 -10.472
    1XTA   HL42 1498  -6.717  28.791 -10.294
    1XTA   HL43 1499  -6.714  28.805 -10.463
    1XTA   HL48 1500  -6.902  28.935 -10.544
    1XTA   HL49 1501  -7.020  29.017 -10.449
    1XTA     NT 1502  -0.612  28.694  -9.377
    1XTA    CN1 1503  -0.482  28.745  -9.399
    1XTA     C1 1504  -0.437  28.771  -9.531
    1XTA     C2 1505  -0.313  28.834  -9.555
    1XTA     C3 1506  -0.223  28.865  -9.452
    1XTA     C4 1507  -0.264  28.835  -9.320
    1XTA     C5 1508  -0.391  28.775  -9.292
    1XTA    CN2 1509  -0.658  28.603  -9.464
    1XTA     C6 1510  -0.621  28.473  -9.445
    1XTA     C7 1511  -0.646  28.374  -9.547
    1XTA     C8 1512  -0.695  28.407  -9.675
    1XTA     C9 1513  -0.739  28.540  -9.684
    1XTA    C10 1514  -0.717  28.640  -9.588
    1XTA    CN3 1515  -0.700  28.755  -9.293
    1XTA    C11 1516  -0.743  28.881  -9.329
    1XTA    C12 1517  -0.844  28.949  -9.261
    1XTA    C13 1518  -0.913  28.882  -9.159
    1XTA    C14 1519  -0.875  28.753  -9.123
    1XTA    C15 1520  -0.765  28.689  -9.191
    1XTA     H1 1521  -0.491  28.730  -9.612
    1XTA     H2 1522  -0.287  28.854  -9.660
    1XTA     H3 1523  -0.200  28.870  -9.237
    1XTA     H4 1524  -0.410  28.775  -9.193
    1XTA     H5 1525  -0.584  28.435  -9.353
    1XTA     H6 1526  -0.630  28.265  -9.527
    1XTA     H7 1527  -0.789  28.574  -9.769
    1XTA     H8 1528  -0.750  28.739  -9.605
    1XTA     H9 1529  -0.700  28.929  -9.414
    1XTA    H10 1530  -0.877  29.048  -9.293
    1XTA    H11 1531  -0.936  28.703  -9.048
    1XTA    H12 1532  -0.733  28.586  -9.166
    1XTA    OA1 1533  -0.106  28.918  -9.490
    1XTA    CO1 1534  -0.007  28.939  -9.388
    1XTA    OA2 1535  -0.724  28.312  -9.771
    1XTA    CO2 1536  -0.826  28.342  -9.866
    1XTA    CL1 1537  -0.837  28.227  -9.967
    1XTA    CL2 1538  -0.941  28.267 -10.073
    1XTA    CL3 1539  -0.985  28.167 -10.174
    1XTA    CL4 1540  -0.868  28.114 -10.266
    1XTA    CO3 1541  -0.917  27.997 -10.345
    1XTA    OA3 1542  -1.014  28.029 -10.435
    1XTA    CO4 1543  -1.064  27.920 -10.509
    1XTA    CT1 1544  -1.172  27.960 -10.615
    1XTA    CL5 1545  -1.124  28.066 -10.715
    1XTA    CL6 1546  -0.976  28.039 -10.773
    1XTA    OA4 1547  -1.021  28.932  -9.096
    1XTA    CO5 1548  -1.038  29.070  -9.095
    1XTA    HL1 1549  -1.132  29.106  -9.060
    1XTA    HL2 1550   0.078  28.992  -9.435
    1XTA    HL3 1551  -0.047  28.994  -9.305
    1XTA    HL4 1552   0.018  28.839  -9.351
    1XTA    HL5 1553  -0.920  28.360  -9.811
    1XTA    HL6 1554  -0.802  28.435  -9.907
    1XTA    HL7 1555  -0.858  28.140  -9.914
    1XTA    HL8 1556  -0.733  28.223 -10.008
    1XTA    HL9 1557  -0.917  28.363 -10.119
    1XTA   HL10 1558  -1.030  28.293 -10.021
    1XTA   HL11 1559  -1.027  28.084 -10.120
    1XTA   HL12 1560  -1.074  28.215 -10.220
    1XTA   HL13 1561  -0.785  28.076 -10.199
    1XTA   HL14 1562  -0.814  28.188 -10.323
    1XTA   HL15 1563  -0.825  27.957 -10.395
    1XTA   HL16 1564  -0.963  27.917 -10.294
    1XTA   HL17 1565  -0.982  27.870 -10.555
    1XTA   HL18 1566  -1.100  27.859 -10.432
    1XTA   HL19 1567  -1.123  28.156 -10.654
    1XTA   HL20 1568  -1.191  28.088 -10.792
    1XTA   HL21 1569  -0.908  28.065 -10.690
    1XTA   HL22 1570  -0.961  28.113 -10.854
    1XTA   HL23 1571  -0.956  27.938 -10.809
    1XTA   HL24 1572  -1.030  29.113  -9.190
    1XTA   HL25 1573  -0.949  29.120  -9.049
    1XTA    CO8 1574  -1.290  28.013 -10.544
    1XTA    CO9 1575  -1.208  27.825 -10.678
    1XTA    OA6 1576  -1.253  28.108 -10.443
    1XTA   HL42 1577  -1.340  27.923 -10.493
    1XTA   HL43 1578  -1.370  28.055 -10.603
    1XTA   HL48 1579  -1.187  27.747 -10.602
    1XTA   HL49 1580  -1.144  27.810 -10.764
    1XTA     NT 1581  -9.647  24.497  -4.485
    1XTA    CN1 1582  -9.573  24.396  -4.518
    1XTA     C1 1583  -9.529  24.301  -4.424
    1XTA     C2 1584  -9.462  24.186  -4.468
    1XTA     C3 1585  -9.443  24.155  -4.606
    1XTA     C4 1586  -9.482  24.258  -4.692
    1XTA     C5 1587  -9.549  24.375  -4.653
    1XTA    CN2 1588  -9.590  24.622  -4.508
    1XTA     C6 1589  -9.460  24.655  -4.448
    1XTA     C7 1590  -9.400  24.781  -4.471
    1XTA     C8 1591  -9.484  24.885  -4.528
    1XTA     C9 1592  -9.606  24.848  -4.587
    1XTA    C10 1593  -9.656  24.718  -4.592
    1XTA    CN3 1594  -9.751  24.482  -4.401
    1XTA    C11 1595  -9.860  24.404  -4.443
    1XTA    C12 1596  -9.972  24.389  -4.362
    1XTA    C13 1597  -9.979  24.460  -4.243
    1XTA    C14 1598  -9.873  24.540  -4.203
    1XTA    C15 1599  -9.753  24.549  -4.277
    1XTA     H1 1600  -9.546  24.307  -4.315
    1XTA     H2 1601  -9.431  24.120  -4.386
    1XTA     H3 1602  -9.465  24.239  -4.803
    1XTA     H4 1603  -9.582  24.438  -4.732
    1XTA     H5 1604  -9.396  24.591  -4.390
    1XTA     H6 1605  -9.300  24.797  -4.430
    1XTA     H7 1606  -9.676  24.925  -4.628
    1XTA     H8 1607  -9.747  24.693  -4.640
    1XTA     H9 1608  -9.847  24.339  -4.530
    1XTA    H10 1609 -10.060  24.323  -4.384
    1XTA    H11 1610  -9.874  24.587  -4.106
    1XTA    H12 1611  -9.664  24.609  -4.252
    1XTA    OA1 1612  -9.396  24.033  -4.648
    1XTA    CO1 1613  -9.383  23.919  -4.559
    1XTA    OA2 1614  -9.436  25.009  -4.510
    1XTA    CO2 1615  -9.538  25.111  -4.515
    1XTA    CL1 1616  -9.478  25.241  -4.483
    1XTA    CL2 1617  -9.591  25.346  -4.471
    1XTA    CL3 1618  -9.545  25.487  -4.425
    1XTA    CL4 1619  -9.496  25.481  -4.282
    1XTA    CO3 1620  -9.437  25.615  -4.237
    1XTA    OA3 1621  -9.388  25.607  -4.102
    1XTA    CO4 1622  -9.316  25.725  -4.070
    1XTA    CT1 1623  -9.296  25.742  -3.917
    1XTA    CL5 1624  -9.203  25.857  -3.876
    1XTA    CL6 1625  -9.247  25.989  -3.932
    1XTA    OA4 1626 -10.093  24.466  -4.166
    1XTA    CO5 1627 -10.059  24.450  -4.026
    1XTA    HL1 1628 -10.022  24.543  -3.985
    1XTA    HL2 1629  -9.387  23.825  -4.615
    1XTA    HL3 1630  -9.289  23.925  -4.502
    1XTA    HL4 1631  -9.460  23.911  -4.482
    1XTA    HL5 1632  -9.594  25.101  -4.611
    1XTA    HL6 1633  -9.603  25.087  -4.436
    1XTA    HL7 1634  -9.407  25.274  -4.552
    1XTA    HL8 1635  -9.422  25.240  -4.394
    1XTA    HL9 1636  -9.667  25.309  -4.401
    1XTA   HL10 1637  -9.639  25.353  -4.571
    1XTA   HL11 1638  -9.471  25.524  -4.501
    1XTA   HL12 1639  -9.626  25.557  -4.436
    1XTA   HL13 1640  -9.420  25.402  -4.266
    1XTA   HL14 1641  -9.576  25.453  -4.210
    1XTA   HL15 1642  -9.363  25.665  -4.304
    1XTA   HL16 1643  -9.527  25.686  -4.242
    1XTA   HL17 1644  -9.216  25.713  -4.114
    1XTA   HL18 1645  -9.354  25.826  -4.102
    1XTA   HL19 1646  -9.097  25.841  -3.901
    1XTA   HL20 1647  -9.203  25.861  -3.769
    1XTA   HL21 1648  -9.182  26.067  -3.883
    1XTA   HL22 1649  -9.346  26.015  -3.894
    1XTA   HL23 1650  -9.251  26.001  -4.041
    1XTA   HL24 1651  -9.978  24.379  -3.999
    1XTA   HL25 1652 -10.154  24.424  -3.982
    1XTA    CO8 1653  -9.240  25.608  -3.856
    1XTA    CO9 1654  -9.436  25.769  -3.860
    1XTA    OA6 1655  -9.497  25.678  -3.857
    1XTA   HL42 1656  -9.190  25.633  -3.759
    1XTA   HL43 1657  -9.334  25.500  -3.856
    1XTA   HL48 1658  -9.483  25.843  -3.913
    1XTA   HL49 1659  -9.424  25.808  -3.763
    1XTA     NT 1660  -7.697  26.612  -6.795
    1XTA    CN1 1661  -7.743  26.728  -6.841
    1XTA     C1 1662  -7.825  26.797  -6.754
    1XTA     C2 1663  -7.872  26.928  -6.791
    1XTA     C3 1664  -7.827  26.987  -6.914
    1XTA     C4 1665  -7.746  26.908  -7.002
    1XTA     C5 1666  -7.710  26.777  -6.963
    1XTA    CN2 1667  -7.627  26.599  -6.679
    1XTA     C6 1668  -7.673  26.511  -6.582
    1XTA     C7 1669  -7.593  26.483  -6.466
    1XTA     C8 1670  -7.479  26.566  -6.439
    1XTA     C9 1671  -7.439  26.657  -6.534
    1XTA    C10 1672  -7.510  26.677  -6.655
    1XTA    CN3 1673  -7.710  26.495  -6.869
    1XTA    C11 1674  -7.838  26.443  -6.898
    1XTA    C12 1675  -7.843  26.323  -6.966
    1XTA    C13 1676  -7.732  26.256  -7.018
    1XTA    C14 1677  -7.609  26.321  -7.003
    1XTA    C15 1678  -7.600  26.432  -6.918
    1XTA     H1 1679  -7.859  26.774  -6.657
    1XTA     H2 1680  -7.941  26.983  -6.729
    1XTA     H3 1681  -7.718  26.942  -7.105
    1XTA     H4 1682  -7.663  26.718  -7.041
    1XTA     H5 1683  -7.767  26.455  -6.607
    1XTA     H6 1684  -7.608  26.408  -6.395
    1XTA     H7 1685  -7.339  26.708  -6.527
    1XTA     H8 1686  -7.476  26.752  -6.727
    1XTA     H9 1687  -7.922  26.502  -6.866
    1XTA    H10 1688  -7.931  26.273  -6.982
    1XTA    H11 1689  -7.513  26.281  -7.035
    1XTA    H12 1690  -7.502  26.479  -6.891
    1XTA    OA1 1691  -7.868  27.111  -6.941
    1XTA    CO1 1692  -7.841  27.161  -7.068
    1XTA    OA2 1693  -7.406  26.544  -6.328
    1XTA    CO2 1694  -7.360  26.663  -6.267
    1XTA    CL1 1695  -7.295  26.619  -6.132
    1XTA    CL2 1696  -7.261  26.744  -6.052
    1XTA    CL3 1697  -7.191  26.710  -5.920
    1XTA    CL4 1698  -7.056  26.630  -5.938
    1XTA    CO3 1699  -7.016  26.542  -5.814
    1XTA    OA3 1700  -7.111  26.439  -5.793
    1XTA    CO4 1701  -7.085  26.326  -5.874
    1XTA    CT1 1702  -7.045  26.206  -5.787
    1XTA    CL5 1703  -6.912  26.228  -5.707
    1XTA    CL6 1704  -6.802  26.241  -5.801
    1XTA    OA4 1705  -7.755  26.132  -7.086
    1XTA    CO5 1706  -7.645  26.055  -7.131
    1XTA    HL1 1707  -7.602  26.009  -7.048
    1XTA    HL2 1708  -7.883  27.260  -7.085
    1XTA    HL3 1709  -7.734  27.174  -7.085
    1XTA    HL4 1710  -7.883  27.099  -7.141
    1XTA    HL5 1711  -7.295  26.724  -6.331
    1XTA    HL6 1712  -7.442  26.728  -6.245
    1XTA    HL7 1713  -7.217  26.545  -6.152
    1XTA    HL8 1714  -7.369  26.572  -6.063
    1XTA    HL9 1715  -7.331  26.825  -6.035
    1XTA   HL10 1716  -7.178  26.797  -6.106
    1XTA   HL11 1717  -7.174  26.807  -5.863
    1XTA   HL12 1718  -7.272  26.655  -5.868
    1XTA   HL13 1719  -6.977  26.703  -5.955
    1XTA   HL14 1720  -7.060  26.562  -6.026
    1XTA   HL15 1721  -6.914  26.501  -5.822
    1XTA   HL16 1722  -7.016  26.605  -5.723
    1XTA   HL17 1723  -7.183  26.311  -5.932
    1XTA   HL18 1724  -7.016  26.351  -5.954
    1XTA   HL19 1725  -6.888  26.146  -5.635
    1XTA   HL20 1726  -6.931  26.320  -5.651
    1XTA   HL21 1727  -6.802  26.338  -5.853
    1XTA   HL22 1728  -6.816  26.159  -5.878
    1XTA   HL23 1729  -6.711  26.234  -5.744
    1XTA   HL24 1730  -7.579  26.117  -7.182
    1XTA   HL25 1731  -7.685  25.989  -7.209
    1XTA    CO8 1732  -7.046  26.086  -5.868
    1XTA    CO9 1733  -7.155  26.142  -5.712
    1XTA    OA6 1734  -7.148  26.048  -5.834
    1XTA   HL42 1735  -6.970  26.017  -5.834
    1XTA   HL43 1736  -7.050  26.097  -5.979
    1XTA   HL48 1737  -7.279  26.199  -5.726
    1XTA   HL49 1738  -7.133  26.085  -5.619
    1XTA     NT 1739  -2.831  23.715  -6.025
    1XTA    CN1 1740  -2.859  23.819  -6.107
    1XTA     C1 1741  -2.924  23.786  -6.231
    1XTA     C2 1742  -2.945  23.885  -6.324
    1XTA     C3 1743  -2.922  24.020  -6.293
    1XTA     C4 1744  -2.865  24.057  -6.169
    1XTA     C5 1745  -2.837  23.953  -6.076
    1XTA    CN2 1746  -2.864  23.724  -5.891
    1XTA     C6 1747  -2.993  23.768  -5.853
    1XTA     C7 1748  -3.026  23.761  -5.716
    1XTA     C8 1749  -2.935  23.719  -5.618
    1XTA     C9 1750  -2.804  23.699  -5.653
    1XTA    C10 1751  -2.769  23.693  -5.789
    1XTA    CN3 1752  -2.772  23.603  -6.070
    1XTA    C11 1753  -2.821  23.473  -6.040
    1XTA    C12 1754  -2.741  23.363  -6.078
    1XTA    C13 1755  -2.615  23.384  -6.141
    1XTA    C14 1756  -2.572  23.515  -6.173
    1XTA    C15 1757  -2.647  23.623  -6.130
    1XTA     H1 1758  -2.967  23.689  -6.250
    1XTA     H2 1759  -2.997  23.860  -6.415
    1XTA     H3 1760  -2.850  24.161  -6.141
    1XTA     H4 1761  -2.795  23.972  -5.975
    1XTA     H5 1762  -3.064  23.792  -5.931
    1XTA     H6 1763  -3.124  23.787  -5.685
    1XTA     H7 1764  -2.728  23.683  -5.579
    1XTA     H8 1765  -2.661  23.672  -5.816
    1XTA     H9 1766  -2.922  23.464  -6.000
    1XTA    H10 1767  -2.775  23.259  -6.071
    1XTA    H11 1768  -2.473  23.553  -6.211
    1XTA    H12 1769  -2.611  23.728  -6.146
    1XTA    OA1 1770  -2.961  24.110  -6.387
    1XTA    CO1 1771  -2.932  24.239  -6.365
    1XTA    OA2 1772  -2.964  23.723  -5.483
    1XTA    CO2 1773  -3.100  23.731  -5.446
    1XTA    CL1 1774  -3.109  23.655  -5.321
    1XTA    CL2 1775  -3.240  23.678  -5.253
    1XTA    CL3 1776  -3.244  23.629  -5.112
    1XTA    CL4 1777  -3.228  23.473  -5.113
    1XTA    CO3 1778  -3.178  23.422  -4.977
    1XTA    OA3 1779  -3.282  23.437  -4.885
    1XTA    CO4 1780  -3.268  23.362  -4.770
    1XTA    CT1 1781  -3.390  23.397  -4.681
    1XTA    CL5 1782  -3.521  23.420  -4.774
    1XTA    CL6 1783  -3.538  23.309  -4.880
    1XTA    OA4 1784  -2.542  23.279  -6.177
    1XTA    CO5 1785  -2.598  23.145  -6.145
    1XTA    HL1 1786  -2.507  23.086  -6.143
    1XTA    HL2 1787  -2.981  24.273  -6.273
    1XTA    HL3 1788  -2.823  24.257  -6.364
    1XTA    HL4 1789  -2.975  24.288  -6.446
    1XTA    HL5 1790  -3.124  23.835  -5.434
    1XTA    HL6 1791  -3.160  23.681  -5.519
    1XTA    HL7 1792  -3.029  23.684  -5.260
    1XTA    HL8 1793  -3.102  23.553  -5.352
    1XTA    HL9 1794  -3.324  23.645  -5.308
    1XTA   HL10 1795  -3.257  23.791  -5.241
    1XTA   HL11 1796  -3.164  23.676  -5.051
    1XTA   HL12 1797  -3.335  23.647  -5.051
    1XTA   HL13 1798  -3.149  23.465  -5.181
    1XTA   HL14 1799  -3.320  23.428  -5.151
    1XTA   HL15 1800  -3.164  23.318  -4.986
    1XTA   HL16 1801  -3.078  23.466  -4.955
    1XTA   HL17 1802  -3.265  23.257  -4.796
    1XTA   HL18 1803  -3.176  23.381  -4.715
    1XTA   HL19 1804  -3.502  23.518  -4.816
    1XTA   HL20 1805  -3.597  23.425  -4.694
    1XTA   HL21 1806  -3.637  23.335  -4.928
    1XTA   HL22 1807  -3.534  23.224  -4.816
    1XTA   HL23 1808  -3.469  23.313  -4.968
    1XTA   HL24 1809  -2.646  23.087  -6.224
    1XTA   HL25 1810  -2.646  23.128  -6.052
    1XTA    CO8 1811  -3.364  23.526  -4.612
    1XTA    CO9 1812  -3.413  23.282  -4.579
    1XTA    OA6 1813  -3.455  23.557  -4.563
    1XTA   HL42 1814  -3.341  23.599  -4.691
    1XTA   HL43 1815  -3.267  23.515  -4.554
    1XTA   HL48 1816  -3.524  23.308  -4.499
    1XTA   HL49 1817  -3.437  23.194  -4.632
    1XTA     NT 1818  -1.970  26.899  -7.601
    1XTA    CN1 1819  -2.103  26.871  -7.626
    1XTA     C1 1820  -2.174  26.958  -7.712
    1XTA     C2 1821  -2.311  26.926  -7.736
    1XTA     C3 1822  -2.376  26.819  -7.673
    1XTA     C4 1823  -2.300  26.731  -7.590
    1XTA     C5 1824  -2.162  26.755  -7.570
    1XTA    CN2 1825  -1.946  27.020  -7.550
    1XTA     C6 1826  -1.829  27.092  -7.582
    1XTA     C7 1827  -1.799  27.216  -7.532
    1XTA     C8 1828  -1.897  27.279  -7.453
    1XTA     C9 1829  -2.009  27.206  -7.408
    1XTA    C10 1830  -2.030  27.078  -7.452
    1XTA    CN3 1831  -1.877  26.801  -7.597
    1XTA    C11 1832  -1.788  26.795  -7.488
    1XTA    C12 1833  -1.673  26.726  -7.499
    1XTA    C13 1834  -1.651  26.637  -7.603
    1XTA    C14 1835  -1.749  26.624  -7.706
    1XTA    C15 1836  -1.858  26.713  -7.708
    1XTA     H1 1837  -2.117  27.035  -7.767
    1XTA     H2 1838  -2.363  26.998  -7.802
    1XTA     H3 1839  -2.346  26.645  -7.536
    1XTA     H4 1840  -2.117  26.698  -7.497
    1XTA     H5 1841  -1.774  27.050  -7.668
    1XTA     H6 1842  -1.707  27.269  -7.556
    1XTA     H7 1843  -2.069  27.244  -7.331
    1XTA     H8 1844  -2.114  27.017  -7.416
    1XTA     H9 1845  -1.805  26.864  -7.408
    1XTA    H10 1846  -1.601  26.745  -7.423
    1XTA    H11 1847  -1.747  26.562  -7.791
    1XTA    H12 1848  -1.918  26.709  -7.797
    1XTA    OA1 1849  -2.507  26.798  -7.699
    1XTA    CO1 1850  -2.584  26.911  -7.721
    1XTA    OA2 1851  -1.862  27.399  -7.404
    1XTA    CO2 1852  -1.959  27.485  -7.371
    1XTA    CL1 1853  -1.942  27.538  -7.230
    1XTA    CL2 1854  -2.040  27.648  -7.197
    1XTA    CL3 1855  -2.116  27.610  -7.070
    1XTA    CL4 1856  -2.220  27.720  -7.041
    1XTA    CO3 1857  -2.312  27.673  -6.933
    1XTA    OA3 1858  -2.395  27.776  -6.896
    1XTA    CO4 1859  -2.501  27.795  -6.988
    1XTA    CT1 1860  -2.612  27.894  -6.955
    1XTA    CL5 1861  -2.723  27.885  -7.062
    1XTA    CL6 1862  -2.847  27.965  -7.021
    1XTA    OA4 1863  -1.545  26.557  -7.604
    1XTA    CO5 1864  -1.456  26.557  -7.495
    1XTA    HL1 1865  -1.517  26.524  -7.412
    1XTA    HL2 1866  -2.566  26.957  -7.822
    1XTA    HL3 1867  -2.688  26.879  -7.725
    1XTA    HL4 1868  -2.568  26.983  -7.637
    1XTA    HL5 1869  -1.958  27.582  -7.420
    1XTA    HL6 1870  -2.060  27.441  -7.376
    1XTA    HL7 1871  -1.838  27.578  -7.218
    1XTA    HL8 1872  -1.935  27.457  -7.167
    1XTA    HL9 1873  -2.108  27.668  -7.278
    1XTA   HL10 1874  -1.990  27.744  -7.190
    1XTA   HL11 1875  -2.160  27.513  -7.074
    1XTA   HL12 1876  -2.047  27.616  -6.984
    1XTA   HL13 1877  -2.281  27.751  -7.126
    1XTA   HL14 1878  -2.170  27.810  -7.013
    1XTA   HL15 1879  -2.359  27.572  -6.945
    1XTA   HL16 1880  -2.243  27.666  -6.861
    1XTA   HL17 1881  -2.466  27.834  -7.090
    1XTA   HL18 1882  -2.546  27.699  -7.020
    1XTA   HL19 1883  -2.737  27.778  -7.075
    1XTA   HL20 1884  -2.690  27.937  -7.150
    1XTA   HL21 1885  -2.928  27.940  -7.083
    1XTA   HL22 1886  -2.834  28.072  -7.035
    1XTA   HL23 1887  -2.881  27.940  -6.917
    1XTA   HL24 1888  -1.406  26.656  -7.464
    1XTA   HL25 1889  -1.377  26.486  -7.529
    1XTA    CO8 1890  -2.557  28.040  -6.956
    1XTA    CO9 1891  -2.663  27.857  -6.818
    1XTA    OA6 1892  -2.503  28.097  -7.067
    1XTA   HL42 1893  -2.490  28.050  -6.872
    1XTA   HL43 1894  -2.634  28.113  -6.930
    1XTA   HL48 1895  -2.738  27.933  -6.784
    1XTA   HL49 1896  -2.588  27.864  -6.740
    1XTA     NT 1897  -2.256  29.903  -6.275
    1XTA    CN1 1898  -2.295  29.768  -6.287
    1XTA     C1 1899  -2.418  29.741  -6.216
    1XTA     C2 1900  -2.471  29.609  -6.231
    1XTA     C3 1901  -2.404  29.504  -6.294
    1XTA     C4 1902  -2.282  29.530  -6.355
    1XTA     C5 1903  -2.225  29.663  -6.344
    1XTA    CN2 1904  -2.264  29.973  -6.393
    1XTA     C6 1905  -2.383  29.977  -6.473
    1XTA     C7 1906  -2.382  30.048  -6.591
    1XTA     C8 1907  -2.269  30.116  -6.634
    1XTA     C9 1908  -2.150  30.102  -6.558
    1XTA    C10 1909  -2.146  30.035  -6.441
    1XTA    CN3 1910  -2.243  29.957  -6.150
    1XTA    C11 1911  -2.319  30.065  -6.105
    1XTA    C12 1912  -2.301  30.116  -5.974
    1XTA    C13 1913  -2.201  30.067  -5.890
    1XTA    C14 1914  -2.118  29.963  -5.941
    1XTA    C15 1915  -2.145  29.905  -6.065
    1XTA     H1 1916  -2.465  29.824  -6.168
    1XTA     H2 1917  -2.566  29.593  -6.180
    1XTA     H3 1918  -2.232  29.450  -6.411
    1XTA     H4 1919  -2.135  29.690  -6.399
    1XTA     H5 1920  -2.473  29.931  -6.432
    1XTA     H6 1921  -2.472  30.049  -6.656
    1XTA     H7 1922  -2.062  30.151  -6.590
    1XTA     H8 1923  -2.054  30.031  -6.388
    1XTA     H9 1924  -2.405  30.094  -6.158
    1XTA    H10 1925  -2.371  30.188  -5.945
    1XTA    H11 1926  -2.040  29.931  -5.867
    1XTA    H12 1927  -2.082  29.824  -6.095
    1XTA    OA1 1928  -2.468  29.381  -6.299
    1XTA    CO1 1929  -2.431  29.290  -6.401
    1XTA    OA2 1930  -2.260  30.181  -6.757
    1XTA    CO2 1931  -2.381  30.221  -6.817
    1XTA    CL1 1932  -2.474  30.307  -6.724
    1XTA    CL2 1933  -2.604  30.355  -6.793
    1XTA    CL3 1934  -2.714  30.395  -6.683
    1XTA    CL4 1935  -2.820  30.280  -6.661
    1XTA    CO3 1936  -2.874  30.280  -6.520
    1XTA    OA3 1937  -2.949  30.400  -6.490
    1XTA    CO4 1938  -2.991  30.390  -6.355
    1XTA    CT1 1939  -3.078  30.514  -6.308
    1XTA    CL5 1940  -2.993  30.644  -6.283
    1XTA    CL6 1941  -3.067  30.767  -6.208
    1XTA    OA4 1942  -2.191  30.105  -5.759
    1XTA    CO5 1943  -2.277  30.208  -5.708
    1XTA    HL1 1944  -2.253  30.232  -5.604
    1XTA    HL2 1945  -2.498  29.210  -6.417
    1XTA    HL3 1946  -2.423  29.338  -6.498
    1XTA    HL4 1947  -2.336  29.241  -6.381
    1XTA    HL5 1948  -2.358  30.264  -6.913
    1XTA    HL6 1949  -2.441  30.134  -6.844
    1XTA    HL7 1950  -2.428  30.401  -6.694
    1XTA    HL8 1951  -2.511  30.256  -6.638
    1XTA    HL9 1952  -2.645  30.292  -6.864
    1XTA   HL10 1953  -2.571  30.445  -6.848
    1XTA   HL11 1954  -2.660  30.425  -6.593
    1XTA   HL12 1955  -2.767  30.485  -6.709
    1XTA   HL13 1956  -2.782  30.180  -6.686
    1XTA   HL14 1957  -2.903  30.307  -6.738
    1XTA   HL15 1958  -2.932  30.188  -6.517
    1XTA   HL16 1959  -2.794  30.274  -6.441
    1XTA   HL17 1960  -3.034  30.290  -6.349
    1XTA   HL18 1961  -2.912  30.389  -6.277
    1XTA   HL19 1962  -2.940  30.688  -6.368
    1XTA   HL20 1963  -2.911  30.613  -6.218
    1XTA   HL21 1964  -3.162  30.795  -6.256
    1XTA   HL22 1965  -3.002  30.852  -6.202
    1XTA   HL23 1966  -3.085  30.748  -6.106
    1XTA   HL24 1967  -2.382  30.189  -5.720
    1XTA   HL25 1968  -2.278  30.298  -5.765
    1XTA    CO8 1969  -3.159  30.457  -6.179
    1XTA    CO9 1970  -3.204  30.549  -6.403
    1XTA    OA6 1971  -3.088  30.426  -6.103
    1XTA   HL42 1972  -3.220  30.374  -6.215
    1XTA   HL43 1973  -3.226  30.536  -6.141
    1XTA   HL48 1974  -3.295  30.440  -6.399
    1XTA   HL49 1975  -3.252  30.636  -6.345
    1XTA     NT 1976  -4.843  31.065  -8.990
    1XTA    CN1 1977  -4.947  31.144  -8.964
    1XTA     C1 1978  -5.063  31.137  -9.044
    1XTA     C2 1979  -5.170  31.220  -9.017
    1XTA     C3 1980  -5.173  31.316  -8.916
    1XTA     C4 1981  -5.049  31.339  -8.849
    1XTA     C5 1982  -4.936  31.255  -8.873
    1XTA    CN2 1983  -4.804  31.058  -9.121
    1XTA     C6 1984  -4.749  31.177  -9.177
    1XTA     C7 1985  -4.679  31.159  -9.301
    1XTA     C8 1986  -4.667  31.027  -9.365
    1XTA     C9 1987  -4.738  30.918  -9.312
    1XTA    C10 1988  -4.806  30.929  -9.188
    1XTA    CN3 1989  -4.790  30.986  -8.898
    1XTA    C11 1990  -4.868  30.886  -8.842
    1XTA    C12 1991  -4.827  30.802  -8.739
    1XTA    C13 1992  -4.695  30.819  -8.694
    1XTA    C14 1993  -4.606  30.914  -8.752
    1XTA    C15 1994  -4.656  31.001  -8.849
    1XTA     H1 1995  -5.082  31.063  -9.117
    1XTA     H2 1996  -5.265  31.214  -9.068
    1XTA     H3 1997  -5.034  31.416  -8.769
    1XTA     H4 1998  -4.842  31.271  -8.815
    1XTA     H5 1999  -4.748  31.272  -9.130
    1XTA     H6 2000  -4.646  31.242  -9.353
    1XTA     H7 2001  -4.740  30.821  -9.357
    1XTA     H8 2002  -4.856  30.848  -9.138
    1XTA     H9 2003  -4.970  30.873  -8.880
    1XTA    H10 2004  -4.888  30.720  -8.708
    1XTA    H11 2005  -4.506  30.914  -8.714
    1XTA    H12 2006  -4.587  31.071  -8.905
    1XTA    OA1 2007  -5.280  31.402  -8.900
    1XTA    CO1 2008  -5.272  31.491  -8.794
    1XTA    OA2 2009  -4.583  30.996  -9.471
    1XTA    CO2 2010  -4.497  31.095  -9.521
    1XTA    CL1 2011  -4.371  31.021  -9.555
    1XTA    CL2 2012  -4.310  30.973  -9.419
    1XTA    CL3 2013  -4.184  30.900  -9.449
    1XTA    CL4 2014  -4.134  30.855  -9.308
    1XTA    CO3 2015  -4.164  30.706  -9.255
    1XTA    OA3 2016  -4.090  30.619  -9.342
    1XTA    CO4 2017  -4.128  30.488  -9.329
    1XTA    CT1 2018  -4.071  30.391  -9.434
    1XTA    CL5 2019  -4.153  30.263  -9.438
    1XTA    CL6 2020  -4.300  30.284  -9.466
    1XTA    OA4 2021  -4.640  30.750  -8.593
    1XTA    CO5 2022  -4.718  30.739  -8.476
    1XTA    HL1 2023  -4.825  30.711  -8.486
    1XTA    HL2 2024  -5.264  31.427  -8.703
    1XTA    HL3 2025  -5.188  31.562  -8.802
    1XTA    HL4 2026  -5.362  31.549  -8.779
    1XTA    HL5 2027  -4.530  31.149  -9.608
    1XTA    HL6 2028  -4.478  31.174  -9.445
    1XTA    HL7 2029  -4.309  31.092  -9.608
    1XTA    HL8 2030  -4.377  30.945  -9.628
    1XTA    HL9 2031  -4.387  30.915  -9.365
    1XTA   HL10 2032  -4.287  31.056  -9.352
    1XTA   HL11 2033  -4.205  30.809  -9.509
    1XTA   HL12 2034  -4.109  30.959  -9.499
    1XTA   HL13 2035  -4.169  30.926  -9.236
    1XTA   HL14 2036  -4.025  30.872  -9.315
    1XTA   HL15 2037  -4.131  30.705  -9.155
    1XTA   HL16 2038  -4.278  30.690  -9.251
    1XTA   HL17 2039  -4.087  30.458  -9.228
    1XTA   HL18 2040  -4.234  30.482  -9.312
    1XTA   HL19 2041  -4.146  30.217  -9.340
    1XTA   HL20 2042  -4.116  30.190  -9.508
    1XTA   HL21 2043  -4.323  30.359  -9.544
    1XTA   HL22 2044  -4.345  30.325  -9.378
    1XTA   HL23 2045  -4.339  30.188  -9.484
    1XTA   HL24 2046  -4.715  30.844  -8.445
    1XTA   HL25 2047  -4.667  30.687  -8.399
    1XTA    CO8 2048  -3.924  30.361  -9.401
    1XTA    CO9 2049  -4.074  30.459  -9.574
    1XTA    OA6 2050  -4.036  30.369  -9.675
    1XTA   HL42 2051  -3.934  30.313  -9.297
    1XTA   HL43 2052  -3.893  30.292  -9.483
    1XTA   HL48 2053  -4.004  30.540  -9.594
    1XTA   HL49 2054  -4.171  30.514  -9.579
    1XTA     NT 2055  -6.440  28.304  -9.547
    1XTA    CN1 2056  -6.345  28.226  -9.605
    1XTA     C1 2057  -6.367  28.121  -9.695
    1XTA     C2 2058  -6.265  28.058  -9.762
    1XTA     C3 2059  -6.129  28.089  -9.741
    1XTA     C4 2060  -6.106  28.197  -9.654
    1XTA     C5 2061  -6.211  28.251  -9.579
    1XTA    CN2 2062  -6.537  28.342  -9.629
    1XTA     C6 2063  -6.522  28.461  -9.704
    1XTA     C7 2064  -6.630  28.493  -9.794
    1XTA     C8 2065  -6.744  28.410  -9.805
    1XTA     C9 2066  -6.750  28.294  -9.726
    1XTA    C10 2067  -6.650  28.261  -9.641
    1XTA    CN3 2068  -6.441  28.325  -9.416
    1XTA    C11 2069  -6.426  28.213  -9.330
    1XTA    C12 2070  -6.437  28.231  -9.190
    1XTA    C13 2071  -6.454  28.359  -9.138
    1XTA    C14 2072  -6.449  28.473  -9.218
    1XTA    C15 2073  -6.446  28.450  -9.355
    1XTA     H1 2074  -6.467  28.097  -9.718
    1XTA     H2 2075  -6.289  27.989  -9.835
    1XTA     H3 2076  -6.007  28.219  -9.631
    1XTA     H4 2077  -6.196  28.321  -9.497
    1XTA     H5 2078  -6.426  28.515  -9.690
    1XTA     H6 2079  -6.643  28.578  -9.858
    1XTA     H7 2080  -6.839  28.238  -9.734
    1XTA     H8 2081  -6.651  28.167  -9.591
    1XTA     H9 2082  -6.427  28.109  -9.361
    1XTA    H10 2083  -6.423  28.142  -9.131
    1XTA    H11 2084  -6.450  28.572  -9.174
    1XTA    H12 2085  -6.454  28.541  -9.418
    1XTA    OA1 2086  -6.026  28.034  -9.818
    1XTA    CO1 2087  -6.066  27.952  -9.916
    1XTA    OA2 2088  -6.846  28.447  -9.892
    1XTA    CO2 2089  -6.918  28.341  -9.954
    1XTA    CL1 2090  -7.034  28.394 -10.043
    1XTA    CL2 2091  -7.130  28.278 -10.081
    1XTA    CL3 2092  -7.251  28.317 -10.156
    1XTA    CL4 2093  -7.328  28.193 -10.219
    1XTA    CO3 2094  -7.469  28.234 -10.272
    1XTA    OA3 2095  -7.563  28.256 -10.174
    1XTA    CO4 2096  -7.605  28.132 -10.114
    1XTA    CT1 2097  -7.699  28.157  -9.992
    1XTA    CL5 2098  -7.807  28.260 -10.035
    1XTA    CL6 2099  -7.881  28.233 -10.171
    1XTA    OA4 2100  -6.471  28.364  -9.004
    1XTA    CO5 2101  -6.534  28.482  -8.948
    1XTA    HL1 2102  -6.623  28.494  -9.012
    1XTA    HL2 2103  -6.117  27.861  -9.876
    1XTA    HL3 2104  -6.133  28.010  -9.974
    1XTA    HL4 2105  -5.979  27.925  -9.974
    1XTA    HL5 2106  -6.859  28.271 -10.012
    1XTA    HL6 2107  -6.980  28.283  -9.882
    1XTA    HL7 2108  -6.994  28.438 -10.137
    1XTA    HL8 2109  -7.086  28.474  -9.991
    1XTA    HL9 2110  -7.169  28.223  -9.993
    1XTA   HL10 2111  -7.070  28.210 -10.138
    1XTA   HL11 2112  -7.308  28.373 -10.090
    1XTA   HL12 2113  -7.227  28.389 -10.231
    1XTA   HL13 2114  -7.332  28.110 -10.149
    1XTA   HL14 2115  -7.267  28.159 -10.304
    1XTA   HL15 2116  -7.463  28.329 -10.332
    1XTA   HL16 2117  -7.504  28.155 -10.338
    1XTA   HL17 2118  -7.658  28.077 -10.180
    1XTA   HL18 2119  -7.523  28.072 -10.078
    1XTA   HL19 2120  -7.771  28.363 -10.046
    1XTA   HL20 2121  -7.887  28.271  -9.956
    1XTA   HL21 2122  -7.934  28.318 -10.204
    1XTA   HL22 2123  -7.948  28.153 -10.166
    1XTA   HL23 2124  -7.812  28.203 -10.243
    1XTA   HL24 2125  -6.476  28.568  -8.941
    1XTA   HL25 2126  -6.562  28.464  -8.847
    1XTA    CO8 2127  -7.622  28.201  -9.859
    1XTA    CO9 2128  -7.765  28.020  -9.960
    1XTA    OA6 2129  -7.656  27.934  -9.936
    1XTA   HL42 2130  -7.689  28.216  -9.772
    1XTA   HL43 2131  -7.536  28.130  -9.856
    1XTA   HL48 2132  -7.817  27.987 -10.048
    1XTA   HL49 2133  -7.835  28.020  -9.871
    1XTA     NT 2134  -5.270  29.440 -11.248
    1XTA    CN1 2135  -5.307  29.570 -11.239
    1XTA     C1 2136  -5.442  29.609 -11.248
    1XTA     C2 2137  -5.475  29.752 -11.241
    1XTA     C3 2138  -5.378  29.852 -11.223
    1XTA     C4 2139  -5.244  29.809 -11.198
    1XTA     C5 2140  -5.212  29.670 -11.209
    1XTA    CN2 2141  -5.272  29.374 -11.132
    1XTA     C6 2142  -5.392  29.352 -11.057
    1XTA     C7 2143  -5.396  29.262 -10.951
    1XTA     C8 2144  -5.274  29.203 -10.905
    1XTA     C9 2145  -5.153  29.231 -10.967
    1XTA    C10 2146  -5.155  29.315 -11.083
    1XTA    CN3 2147  -5.265  29.373 -11.366
    1XTA    C11 2148  -5.145  29.334 -11.426
    1XTA    C12 2149  -5.143  29.273 -11.552
    1XTA    C13 2150  -5.259  29.252 -11.632
    1XTA    C14 2151  -5.379  29.283 -11.570
    1XTA    C15 2152  -5.383  29.348 -11.443
    1XTA     H1 2153  -5.511  29.531 -11.274
    1XTA     H2 2154  -5.578  29.788 -11.252
    1XTA     H3 2155  -5.166  29.880 -11.179
    1XTA     H4 2156  -5.106  29.637 -11.205
    1XTA     H5 2157  -5.488  29.396 -11.073
    1XTA     H6 2158  -5.486  29.239 -10.904
    1XTA     H7 2159  -5.060  29.194 -10.929
    1XTA     H8 2160  -5.060  29.330 -11.131
    1XTA     H9 2161  -5.053  29.368 -11.378
    1XTA    H10 2162  -5.044  29.241 -11.584
    1XTA    H11 2163  -5.467  29.260 -11.624
    1XTA    H12 2164  -5.478  29.377 -11.401
    1XTA    OA1 2165  -5.420  29.977 -11.199
    1XTA    CO1 2166  -5.369  30.049 -11.090
    1XTA    OA2 2167  -5.285  29.131 -10.791
    1XTA    CO2 2168  -5.211  29.014 -10.787
    1XTA    CL1 2169  -5.277  28.923 -10.691
    1XTA    CL2 2170  -5.420  28.891 -10.741
    1XTA    CL3 2171  -5.470  28.769 -10.650
    1XTA    CL4 2172  -5.625  28.732 -10.678
    1XTA    CO3 2173  -5.718  28.846 -10.643
    1XTA    OA3 2174  -5.850  28.798 -10.671
    1XTA    CO4 2175  -5.916  28.717 -10.564
    1XTA    CT1 2176  -6.064  28.695 -10.606
    1XTA    CL5 2177  -6.130  28.840 -10.612
    1XTA    CL6 2178  -6.285  28.836 -10.652
    1XTA    OA4 2179  -5.253  29.192 -11.758
    1XTA    CO5 2180  -5.143  29.118 -11.792
    1XTA    HL1 2181  -5.127  29.038 -11.728
    1XTA    HL2 2182  -5.407  30.146 -11.073
    1XTA    HL3 2183  -5.379  29.989 -10.993
    1XTA    HL4 2184  -5.268  30.076 -11.102
    1XTA    HL5 2185  -5.216  28.962 -10.883
    1XTA    HL6 2186  -5.103  29.036 -10.765
    1XTA    HL7 2187  -5.280  28.966 -10.589
    1XTA    HL8 2188  -5.229  28.828 -10.676
    1XTA    HL9 2189  -5.419  28.869 -10.847
    1XTA   HL10 2190  -5.480  28.982 -10.732
    1XTA   HL11 2191  -5.402  28.684 -10.680
    1XTA   HL12 2192  -5.435  28.770 -10.544
    1XTA   HL13 2193  -5.628  28.644 -10.612
    1XTA   HL14 2194  -5.631  28.703 -10.783
    1XTA   HL15 2195  -5.702  28.880 -10.544
    1XTA   HL16 2196  -5.697  28.936 -10.705
    1XTA   HL17 2197  -5.872  28.617 -10.542
    1XTA   HL18 2198  -5.901  28.773 -10.464
    1XTA   HL19 2199  -6.073  28.910 -10.674
    1XTA   HL20 2200  -6.118  28.892 -10.516
    1XTA   HL21 2201  -6.337  28.789 -10.578
    1XTA   HL22 2202  -6.314  28.788 -10.752
    1XTA   HL23 2203  -6.339  28.932 -10.646
    1XTA   HL24 2204  -5.056  29.181 -11.821
    1XTA   HL25 2205  -5.167  29.075 -11.889
    1XTA    CO8 2206  -6.123  28.611 -10.486
    1XTA    CO9 2207  -6.070  28.631 -10.746
    1XTA    OA6 2208  -6.067  28.481 -10.453
    1XTA   HL42 2209  -6.225  28.598 -10.516
    1XTA   HL43 2210  -6.112  28.665 -10.394
    1XTA   HL48 2211  -6.174  28.606 -10.761
    1XTA   HL49 2212  -6.059  28.713 -10.812
    1XTA     NT 2213  -9.726  28.153  -4.953
    1XTA    CN1 2214  -9.591  28.131  -4.950
    1XTA     C1 2215  -9.535  28.008  -4.982
    1XTA     C2 2216  -9.396  27.993  -4.995
    1XTA     C3 2217  -9.312  28.105  -4.980
    1XTA     C4 2218  -9.371  28.230  -4.962
    1XTA     C5 2219  -9.508  28.241  -4.942
    1XTA    CN2 2220  -9.788  28.199  -4.846
    1XTA     C6 2221  -9.841  28.331  -4.850
    1XTA     C7 2222  -9.920  28.377  -4.742
    1XTA     C8 2223  -9.940  28.280  -4.634
    1XTA     C9 2224  -9.886  28.150  -4.632
    1XTA    C10 2225  -9.801  28.112  -4.736
    1XTA    CN3 2226  -9.792  28.130  -5.070
    1XTA    C11 2227  -9.919  28.078  -5.070
    1XTA    C12 2228  -9.984  28.047  -5.190
    1XTA    C13 2229  -9.924  28.074  -5.313
    1XTA    C14 2230  -9.799  28.140  -5.311
    1XTA    C15 2231  -9.730  28.165  -5.190
    1XTA     H1 2232  -9.601  27.926  -4.999
    1XTA     H2 2233  -9.348  27.909  -5.026
    1XTA     H3 2234  -9.309  28.317  -4.952
    1XTA     H4 2235  -9.550  28.339  -4.930
    1XTA     H5 2236  -9.831  28.398  -4.932
    1XTA     H6 2237  -9.960  28.472  -4.755
    1XTA     H7 2238  -9.907  28.088  -4.545
    1XTA     H8 2239  -9.765  28.009  -4.740
    1XTA     H9 2240  -9.967  28.058  -4.975
    1XTA    H10 2241 -10.080  28.002  -5.188
    1XTA    H11 2242  -9.745  28.158  -5.403
    1XTA    H12 2243  -9.632  28.210  -5.206
    1XTA    OA1 2244  -9.182  28.090  -5.012
    1XTA    CO1 2245  -9.083  28.175  -4.954
    1XTA    OA2 2246 -10.021  28.310  -4.522
    1XTA    CO2 2247 -10.011  28.446  -4.478
    1XTA    CL1 2248 -10.074  28.458  -4.335
    1XTA    CL2 2249 -10.010  28.362  -4.234
    1XTA    CL3 2250 -10.092  28.338  -4.103
    1XTA    CL4 2251 -10.072  28.450  -3.999
    1XTA    CO3 2252 -10.110  28.408  -3.851
    1XTA    OA3 2253 -10.053  28.503  -3.766
    1XTA    CO4 2254 -10.052  28.473  -3.628
    1XTA    CT1 2255 -10.042  28.595  -3.537
    1XTA    CL5 2256 -10.135  28.710  -3.571
    1XTA    CL6 2257 -10.279  28.675  -3.628
    1XTA    OA4 2258  -9.989  28.022  -5.427
    1XTA    CO5 2259  -9.888  27.990  -5.534
    1XTA    HL1 2260  -9.798  27.946  -5.493
    1XTA    HL2 2261  -9.085  28.181  -4.846
    1XTA    HL3 2262  -8.988  28.139  -4.965
    1XTA    HL4 2263  -9.081  28.275  -4.986
    1XTA    HL5 2264  -9.902  28.474  -4.471
    1XTA    HL6 2265 -10.072  28.506  -4.538
    1XTA    HL7 2266 -10.177  28.445  -4.344
    1XTA    HL8 2267 -10.056  28.561  -4.304
    1XTA    HL9 2268  -9.908  28.385  -4.212
    1XTA   HL10 2269 -10.005  28.265  -4.293
    1XTA   HL11 2270 -10.192  28.335  -4.125
    1XTA   HL12 2271 -10.067  28.239  -4.056
    1XTA   HL13 2272 -10.131  28.537  -4.025
    1XTA   HL14 2273  -9.974  28.491  -3.999
    1XTA   HL15 2274 -10.221  28.401  -3.849
    1XTA   HL16 2275 -10.071  28.306  -3.825
    1XTA   HL17 2276 -10.139  28.417  -3.586
    1XTA   HL18 2277  -9.967  28.397  -3.601
    1XTA   HL19 2278 -10.095  28.776  -3.649
    1XTA   HL20 2279 -10.147  28.760  -3.474
    1XTA   HL21 2280 -10.273  28.633  -3.730
    1XTA   HL22 2281 -10.332  28.766  -3.643
    1XTA   HL23 2282 -10.327  28.599  -3.562
    1XTA   HL24 2283  -9.863  28.087  -5.583
    1XTA   HL25 2284  -9.924  27.926  -5.612
    1XTA    CO8 2285  -9.899  28.645  -3.539
    1XTA    CO9 2286 -10.067  28.552  -3.390
    1XTA    OA6 2287  -9.878  28.744  -3.489
    1XTA   HL42 2288  -9.871  28.651  -3.643
    1XTA   HL43 2289  -9.841  28.569  -3.499
    1XTA   HL48 2290 -10.066  28.668  -3.303
    1XTA   HL49 2291 -10.178  28.530  -3.385
    1XTA     NT 2292  -2.932  25.979  -5.121
    1XTA    CN1 2293  -2.822  26.018  -5.192
    1XTA     C1 2294  -2.842  26.083  -5.310
    1XTA     C2 2295  -2.732  26.117  -5.388
    1XTA     C3 2296  -2.602  26.088  -5.350
    1XTA     C4 2297  -2.581  26.023  -5.224
    1XTA     C5 2298  -2.692  25.989  -5.145
    1XTA    CN2 2299  -2.956  25.845  -5.115
    1XTA     C6 2300  -2.995  25.773  -5.233
    1XTA     C7 2301  -3.027  25.639  -5.220
    1XTA     C8 2302  -3.001  25.564  -5.092
    1XTA     C9 2303  -2.964  25.642  -4.980
    1XTA    C10 2304  -2.941  25.783  -4.989
    1XTA    CN3 2305  -3.022  26.070  -5.097
    1XTA    C11 2306  -2.980  26.166  -5.010
    1XTA    C12 2307  -3.068  26.269  -4.968
    1XTA    C13 2308  -3.205  26.269  -5.007
    1XTA    C14 2309  -3.251  26.179  -5.103
    1XTA    C15 2310  -3.156  26.076  -5.147
    1XTA     H1 2311  -2.948  26.095  -5.347
    1XTA     H2 2312  -2.748  26.152  -5.485
    1XTA     H3 2313  -2.481  25.997  -5.187
    1XTA     H4 2314  -2.688  25.931  -5.057
    1XTA     H5 2315  -2.991  25.824  -5.331
    1XTA     H6 2316  -3.063  25.578  -5.308
    1XTA     H7 2317  -2.948  25.590  -4.886
    1XTA     H8 2318  -2.914  25.833  -4.898
    1XTA     H9 2319  -2.884  26.153  -4.954
    1XTA    H10 2320  -3.041  26.353  -4.900
    1XTA    H11 2321  -3.349  26.176  -5.152
    1XTA    H12 2322  -3.199  25.991  -5.208
    1XTA    OA1 2323  -2.493  26.119  -5.428
    1XTA    CO1 2324  -2.381  26.030  -5.416
    1XTA    OA2 2325  -3.021  25.427  -5.082
    1XTA    CO2 2326  -3.113  25.372  -5.176
    1XTA    CL1 2327  -3.143  25.231  -5.138
    1XTA    CL2 2328  -3.225  25.226  -5.010
    1XTA    CL3 2329  -3.129  25.193  -4.892
    1XTA    CL4 2330  -3.208  25.210  -4.763
    1XTA    CO3 2331  -3.111  25.218  -4.642
    1XTA    OA3 2332  -3.173  25.217  -4.519
    1XTA    CO4 2333  -3.222  25.086  -4.477
    1XTA    CT1 2334  -3.198  25.052  -4.330
    1XTA    CL5 2335  -3.053  25.011  -4.304
    1XTA    CL6 2336  -2.948  25.118  -4.349
    1XTA    OA4 2337  -3.263  26.380  -4.950
    1XTA    CO5 2338  -3.394  26.397  -5.000
    1XTA    HL1 2339  -3.403  26.425  -5.101
    1XTA    HL2 2340  -2.422  25.932  -5.406
    1XTA    HL3 2341  -2.309  26.052  -5.505
    1XTA    HL4 2342  -2.323  26.043  -5.324
    1XTA    HL5 2343  -3.203  25.427  -5.186
    1XTA    HL6 2344  -3.073  25.374  -5.278
    1XTA    HL7 2345  -3.046  25.188  -5.123
    1XTA    HL8 2346  -3.204  25.179  -5.218
    1XTA    HL9 2347  -3.314  25.161  -5.022
    1XTA   HL10 2348  -3.279  25.317  -4.995
    1XTA   HL11 2349  -3.087  25.092  -4.902
    1XTA   HL12 2350  -3.053  25.269  -4.883
    1XTA   HL13 2351  -3.273  25.114  -4.764
    1XTA   HL14 2352  -3.271  25.295  -4.764
    1XTA   HL15 2353  -3.047  25.136  -4.634
    1XTA   HL16 2354  -3.052  25.305  -4.665
    1XTA   HL17 2355  -3.327  25.092  -4.497
    1XTA   HL18 2356  -3.184  25.009  -4.539
    1XTA   HL19 2357  -3.032  24.915  -4.343
    1XTA   HL20 2358  -3.039  25.000  -4.197
    1XTA   HL21 2359  -2.958  25.219  -4.314
    1XTA   HL22 2360  -2.944  25.124  -4.458
    1XTA   HL23 2361  -2.848  25.089  -4.323
    1XTA   HL24 2362  -3.446  26.474  -4.947
    1XTA   HL25 2363  -3.449  26.303  -4.984
    1XTA    CO8 2364  -3.296  24.935  -4.287
    1XTA    CO9 2365  -3.241  25.172  -4.236
    1XTA    OA6 2366  -3.276  24.832  -4.381
    1XTA   HL42 2367  -3.400  24.974  -4.291
    1XTA   HL43 2368  -3.279  24.915  -4.179
    1XTA   HL48 2369  -3.200  25.262  -4.274
    1XTA   HL49 2370  -3.350  25.186  -4.256
    1XTA     NT 2371  -4.368  29.437  -7.629
    1XTA    CN1 2372  -4.493  29.476  -7.654
    1XTA     C1 2373  -4.534  29.507  -7.781
    1XTA     C2 2374  -4.673  29.524  -7.808
    1XTA     C3 2375  -4.769  29.513  -7.711
    1XTA     C4 2376  -4.723  29.493  -7.581
    1XTA     C5 2377  -4.589  29.477  -7.553
    1XTA    CN2 2378  -4.322  29.321  -7.664
    1XTA     C6 2379  -4.316  29.214  -7.570
    1XTA     C7 2380  -4.283  29.086  -7.612
    1XTA     C8 2381  -4.248  29.054  -7.743
    1XTA     C9 2382  -4.252  29.158  -7.836
    1XTA    C10 2383  -4.290  29.288  -7.800
    1XTA    CN3 2384  -4.284  29.517  -7.562
    1XTA    C11 2385  -4.268  29.503  -7.424
    1XTA    C12 2386  -4.174  29.586  -7.356
    1XTA    C13 2387  -4.088  29.669  -7.427
    1XTA    C14 2388  -4.094  29.675  -7.566
    1XTA    C15 2389  -4.194  29.597  -7.629
    1XTA     H1 2390  -4.463  29.506  -7.858
    1XTA     H2 2391  -4.698  29.523  -7.914
    1XTA     H3 2392  -4.795  29.499  -7.506
    1XTA     H4 2393  -4.563  29.452  -7.446
    1XTA     H5 2394  -4.346  29.232  -7.466
    1XTA     H6 2395  -4.291  29.007  -7.542
    1XTA     H7 2396  -4.240  29.139  -7.948
    1XTA     H8 2397  -4.293  29.369  -7.879
    1XTA     H9 2398  -4.336  29.436  -7.373
    1XTA    H10 2399  -4.157  29.571  -7.253
    1XTA    H11 2400  -4.021  29.733  -7.630
    1XTA    H12 2401  -4.201  29.625  -7.729
    1XTA    OA1 2402  -4.899  29.532  -7.744
    1XTA    CO1 2403  -4.977  29.416  -7.735
    1XTA    OA2 2404  -4.211  28.924  -7.775
    1XTA    CO2 2405  -4.111  28.909  -7.872
    1XTA    CL1 2406  -4.045  28.770  -7.856
    1XTA    CL2 2407  -3.921  28.743  -7.937
    1XTA    CL3 2408  -3.867  28.604  -7.918
    1XTA    CL4 2409  -3.741  28.600  -7.825
    1XTA    CO3 2410  -3.784  28.617  -7.677
    1XTA    OA3 2411  -3.669  28.655  -7.596
    1XTA    CO4 2412  -3.689  28.683  -7.459
    1XTA    CT1 2413  -3.608  28.807  -7.408
    1XTA    CL5 2414  -3.459  28.769  -7.391
    1XTA    CL6 2415  -3.368  28.891  -7.376
    1XTA    OA4 2416  -3.976  29.733  -7.373
    1XTA    CO5 2417  -3.947  29.711  -7.234
    1XTA    HL1 2418  -3.839  29.730  -7.204
    1XTA    HL2 2419  -4.958  29.357  -7.642
    1XTA    HL3 2420  -5.086  29.436  -7.745
    1XTA    HL4 2421  -4.933  29.350  -7.807
    1XTA    HL5 2422  -4.142  28.920  -7.973
    1XTA    HL6 2423  -4.040  28.985  -7.845
    1XTA    HL7 2424  -4.119  28.688  -7.871
    1XTA    HL8 2425  -4.039  28.748  -7.743
    1XTA    HL9 2426  -3.844  28.813  -7.909
    1XTA   HL10 2427  -3.926  28.752  -8.049
    1XTA   HL11 2428  -3.935  28.533  -7.874
    1XTA   HL12 2429  -3.840  28.561  -8.020
    1XTA   HL13 2430  -3.665  28.673  -7.851
    1XTA   HL14 2431  -3.697  28.496  -7.832
    1XTA   HL15 2432  -3.841  28.710  -7.649
    1XTA   HL16 2433  -3.833  28.529  -7.635
    1XTA   HL17 2434  -3.787  28.720  -7.441
    1XTA   HL18 2435  -3.675  28.592  -7.397
    1XTA   HL19 2436  -3.417  28.704  -7.470
    1XTA   HL20 2437  -3.455  28.701  -7.300
    1XTA   HL21 2438  -3.265  28.852  -7.378
    1XTA   HL22 2439  -3.384  28.953  -7.294
    1XTA   HL23 2440  -3.370  28.955  -7.459
    1XTA   HL24 2441  -3.958  29.607  -7.193
    1XTA   HL25 2442  -3.999  29.780  -7.170
    1XTA    CO8 2443  -3.667  28.855  -7.275
    1XTA    CO9 2444  -3.643  28.923  -7.506
    1XTA    OA6 2445  -3.746  28.959  -7.511
    1XTA   HL42 2446  -3.611  28.949  -7.242
    1XTA   HL43 2447  -3.805  28.886  -7.284
    1XTA   HL48 2448  -3.608  28.889  -7.606
    1XTA   HL49 2449  -3.590  29.014  -7.476
    1XTA     NT 2450  -6.576  30.001  -8.406
    1XTA    CN1 2451  -6.575  30.134  -8.431
    1XTA     C1 2452  -6.495  30.213  -8.354
    1XTA     C2 2453  -6.482  30.355  -8.369
    1XTA     C3 2454  -6.558  30.420  -8.467
    1XTA     C4 2455  -6.649  30.344  -8.538
    1XTA     C5 2456  -6.665  30.202  -8.519
    1XTA    CN2 2457  -6.516  29.914  -8.483
    1XTA     C6 2458  -6.375  29.893  -8.470
    1XTA     C7 2459  -6.308  29.794  -8.545
    1XTA     C8 2460  -6.383  29.715  -8.638
    1XTA     C9 2461  -6.521  29.743  -8.660
    1XTA    C10 2462  -6.584  29.843  -8.583
    1XTA    CN3 2463  -6.646  29.963  -8.298
    1XTA    C11 2464  -6.584  29.916  -8.179
    1XTA    C12 2465  -6.661  29.878  -8.066
    1XTA    C13 2466  -6.800  29.891  -8.074
    1XTA    C14 2467  -6.860  29.952  -8.183
    1XTA    C15 2468  -6.785  29.980  -8.297
    1XTA     H1 2469  -6.422  30.169  -8.283
    1XTA     H2 2470  -6.412  30.406  -8.305
    1XTA     H3 2471  -6.719  30.393  -8.609
    1XTA     H4 2472  -6.737  30.143  -8.573
    1XTA     H5 2473  -6.326  29.940  -8.385
    1XTA     H6 2474  -6.204  29.777  -8.521
    1XTA     H7 2475  -6.567  29.695  -8.742
    1XTA     H8 2476  -6.685  29.869  -8.600
    1XTA     H9 2477  -6.472  29.900  -8.183
    1XTA    H10 2478  -6.616  29.818  -7.991
    1XTA    H11 2479  -6.971  29.968  -8.184
    1XTA    H12 2480  -6.823  30.020  -8.392
    1XTA    OA1 2481  -6.548  30.556  -8.472
    1XTA    CO1 2482  -6.644  30.619  -8.551
    1XTA    OA2 2483  -6.324  29.606  -8.706
    1XTA    CO2 2484  -6.202  29.554  -8.666
    1XTA    CL1 2485  -6.102  29.629  -8.752
    1XTA    CL2 2486  -5.964  29.640  -8.688
    1XTA    CL3 2487  -5.859  29.686  -8.796
    1XTA    CL4 2488  -5.722  29.666  -8.730
    1XTA    CO3 2489  -5.612  29.676  -8.842
    1XTA    OA3 2490  -5.494  29.607  -8.807
    1XTA    CO4 2491  -5.374  29.635  -8.880
    1XTA    CT1 2492  -5.249  29.593  -8.802
    1XTA    CL5 2493  -5.123  29.637  -8.884
    1XTA    CL6 2494  -4.985  29.620  -8.819
    1XTA    OA4 2495  -6.874  29.846  -7.966
    1XTA    CO5 2496  -7.009  29.825  -7.995
    1XTA    HL1 2497  -7.064  29.773  -7.912
    1XTA    HL2 2498  -6.746  30.590  -8.512
    1XTA    HL3 2499  -6.636  30.728  -8.551
    1XTA    HL4 2500  -6.638  30.583  -8.656
    1XTA    HL5 2501  -6.178  29.559  -8.560
    1XTA    HL6 2502  -6.192  29.445  -8.695
    1XTA    HL7 2503  -6.141  29.732  -8.793
    1XTA    HL8 2504  -6.111  29.563  -8.842
    1XTA    HL9 2505  -5.947  29.544  -8.648
    1XTA   HL10 2506  -5.968  29.714  -8.604
    1XTA   HL11 2507  -5.872  29.622  -8.890
    1XTA   HL12 2508  -5.883  29.789  -8.827
    1XTA   HL13 2509  -5.726  29.566  -8.683
    1XTA   HL14 2510  -5.690  29.737  -8.655
    1XTA   HL15 2511  -5.656  29.627  -8.925
    1XTA   HL16 2512  -5.590  29.778  -8.869
    1XTA   HL17 2513  -5.376  29.579  -8.978
    1XTA   HL18 2514  -5.371  29.741  -8.906
    1XTA   HL19 2515  -5.134  29.743  -8.914
    1XTA   HL20 2516  -5.119  29.583  -8.981
    1XTA   HL21 2517  -4.961  29.704  -8.758
    1XTA   HL22 2518  -4.921  29.605  -8.900
    1XTA   HL23 2519  -4.974  29.523  -8.771
    1XTA   HL24 2520  -7.025  29.770  -8.082
    1XTA   HL25 2521  -7.071  29.911  -8.018
    1XTA    CO8 2522  -5.262  29.440  -8.784
    1XTA    CO9 2523  -5.249  29.649  -8.655
    1XTA    OA6 2524  -5.240  29.761  -8.661
    1XTA   HL42 2525  -5.372  29.408  -8.768
    1XTA   HL43 2526  -5.188  29.396  -8.674
    1XTA   HL48 2527  -5.162  29.618  -8.601
    1XTA   HL49 2528  -5.345  29.629  -8.606
    1XTA     NT 2529  -6.015  27.698  -6.482
    1XTA    CN1 2530  -5.982  27.827  -6.482
    1XTA     C1 2531  -6.063  27.911  -6.560
    1XTA     C2 2532  -6.035  28.052  -6.570
    1XTA     C3 2533  -5.927  28.112  -6.494
    1XTA     C4 2534  -5.849  28.028  -6.419
    1XTA     C5 2535  -5.871  27.891  -6.419
    1XTA    CN2 2536  -5.917  27.606  -6.500
    1XTA     C6 2537  -5.922  27.483  -6.430
    1XTA     C7 2538  -5.816  27.396  -6.449
    1XTA     C8 2539  -5.706  27.421  -6.536
    1XTA     C9 2540  -5.707  27.541  -6.609
    1XTA    C10 2541  -5.815  27.630  -6.594
    1XTA    CN3 2542  -6.142  27.657  -6.463
    1XTA    C11 2543  -6.211  27.694  -6.342
    1XTA    C12 2544  -6.344  27.649  -6.326
    1XTA    C13 2545  -6.410  27.575  -6.423
    1XTA    C14 2546  -6.343  27.538  -6.542
    1XTA    C15 2547  -6.206  27.576  -6.562
    1XTA     H1 2548  -6.151  27.872  -6.607
    1XTA     H2 2549  -6.102  28.102  -6.631
    1XTA     H3 2550  -5.761  28.076  -6.369
    1XTA     H4 2551  -5.802  27.820  -6.370
    1XTA     H5 2552  -6.009  27.462  -6.361
    1XTA     H6 2553  -5.825  27.306  -6.383
    1XTA     H7 2554  -5.636  27.563  -6.692
    1XTA     H8 2555  -5.804  27.720  -6.647
    1XTA     H9 2556  -6.159  27.752  -6.264
    1XTA    H10 2557  -6.391  27.687  -6.237
    1XTA    H11 2558  -6.394  27.481  -6.621
    1XTA    H12 2559  -6.152  27.549  -6.646
    1XTA    OA1 2560  -5.896  28.243  -6.486
    1XTA    CO1 2561  -5.958  28.335  -6.577
    1XTA    OA2 2562  -5.607  27.326  -6.544
    1XTA    CO2 2563  -5.496  27.353  -6.621
    1XTA    CL1 2564  -5.403  27.230  -6.608
    1XTA    CL2 2565  -5.267  27.246  -6.673
    1XTA    CL3 2566  -5.263  27.272  -6.825
    1XTA    CL4 2567  -5.286  27.158  -6.927
    1XTA    CO3 2568  -5.255  27.201  -7.068
    1XTA    OA3 2569  -5.259  27.094  -7.160
    1XTA    CO4 2570  -5.207  27.115  -7.284
    1XTA    CT1 2571  -5.309  27.082  -7.398
    1XTA    CL5 2572  -5.403  26.966  -7.361
    1XTA    CL6 2573  -5.494  26.929  -7.476
    1XTA    OA4 2574  -6.536  27.551  -6.396
    1XTA    CO5 2575  -6.588  27.424  -6.444
    1XTA    HL1 2576  -6.693  27.432  -6.416
    1XTA    HL2 2577  -5.932  28.439  -6.546
    1XTA    HL3 2578  -5.911  28.327  -6.678
    1XTA    HL4 2579  -6.064  28.314  -6.598
    1XTA    HL5 2580  -5.514  27.370  -6.727
    1XTA    HL6 2581  -5.431  27.435  -6.585
    1XTA    HL7 2582  -5.448  27.135  -6.657
    1XTA    HL8 2583  -5.390  27.215  -6.500
    1XTA    HL9 2584  -5.200  27.168  -6.655
    1XTA   HL10 2585  -5.213  27.333  -6.640
    1XTA   HL11 2586  -5.341  27.335  -6.856
    1XTA   HL12 2587  -5.166  27.327  -6.850
    1XTA   HL13 2588  -5.387  27.126  -6.918
    1XTA   HL14 2589  -5.224  27.074  -6.896
    1XTA   HL15 2590  -5.330  27.277  -7.092
    1XTA   HL16 2591  -5.149  27.235  -7.059
    1XTA   HL17 2592  -5.171  27.217  -7.298
    1XTA   HL18 2593  -5.121  27.053  -7.267
    1XTA   HL19 2594  -5.459  26.991  -7.273
    1XTA   HL20 2595  -5.343  26.881  -7.321
    1XTA   HL21 2596  -5.572  26.859  -7.439
    1XTA   HL22 2597  -5.435  26.876  -7.547
    1XTA   HL23 2598  -5.550  27.013  -7.528
    1XTA   HL24 2599  -6.531  27.340  -6.395
    1XTA   HL25 2600  -6.590  27.419  -6.555
    1XTA    CO8 2601  -5.217  27.045  -7.525
    1XTA    CO9 2602  -5.387  27.210  -7.425
    1XTA    OA6 2603  -5.186  26.941  -7.511
    1XTA   HL42 2604  -5.132  27.116  -7.552
    1XTA   HL43 2605  -5.284  27.052  -7.611
    1XTA   HL48 2606  -5.451  27.248  -7.300
    1XTA   HL49 2607  -5.463  27.190  -7.507
    1XTA     NT 2608  -6.047  26.409  -8.572
    1XTA    CN1 2609  -6.140  26.341  -8.644
    1XTA     C1 2610  -6.266  26.346  -8.590
    1XTA     C2 2611  -6.377  26.298  -8.656
    1XTA     C3 2612  -6.366  26.248  -8.789
    1XTA     C4 2613  -6.238  26.249  -8.847
    1XTA     C5 2614  -6.125  26.295  -8.773
    1XTA    CN2 2615  -5.954  26.478  -8.631
    1XTA     C6 2616  -5.828  26.424  -8.677
    1XTA     C7 2617  -5.731  26.504  -8.744
    1XTA     C8 2618  -5.760  26.639  -8.779
    1XTA     C9 2619  -5.876  26.697  -8.720
    1XTA    C10 2620  -5.970  26.621  -8.648
    1XTA    CN3 2621  -6.014  26.366  -8.445
    1XTA    C11 2622  -5.977  26.236  -8.422
    1XTA    C12 2623  -5.963  26.186  -8.288
    1XTA    C13 2624  -5.980  26.273  -8.180
    1XTA    C14 2625  -6.010  26.407  -8.204
    1XTA    C15 2626  -6.019  26.456  -8.335
    1XTA     H1 2627  -6.279  26.395  -8.494
    1XTA     H2 2628  -6.470  26.300  -8.603
    1XTA     H3 2629  -6.215  26.226  -8.945
    1XTA     H4 2630  -6.030  26.288  -8.804
    1XTA     H5 2631  -5.801  26.321  -8.666
    1XTA     H6 2632  -5.636  26.466  -8.782
    1XTA     H7 2633  -5.880  26.803  -8.737
    1XTA     H8 2634  -6.068  26.662  -8.620
    1XTA     H9 2635  -5.960  26.163  -8.502
    1XTA    H10 2636  -5.940  26.087  -8.275
    1XTA    H11 2637  -6.023  26.466  -8.120
    1XTA    H12 2638  -6.064  26.555  -8.355
    1XTA    OA1 2639  -6.481  26.202  -8.845
    1XTA    CO1 2640  -6.474  26.129  -8.962
    1XTA    OA2 2641  -5.673  26.711  -8.861
    1XTA    CO2 2642  -5.591  26.634  -8.949
    1XTA    CL1 2643  -5.523  26.719  -9.057
    1XTA    CL2 2644  -5.442  26.841  -9.013
    1XTA    CL3 2645  -5.315  26.812  -8.928
    1XTA    CL4 2646  -5.252  26.932  -8.855
    1XTA    CO3 2647  -5.307  26.956  -8.710
    1XTA    OA3 2648  -5.401  27.075  -8.700
    1XTA    CO4 2649  -5.525  27.055  -8.765
    1XTA    CT1 2650  -5.645  27.133  -8.699
    1XTA    CL5 2651  -5.766  27.132  -8.794
    1XTA    CL6 2652  -5.737  27.178  -8.939
    1XTA    OA4 2653  -5.969  26.209  -8.063
    1XTA    CO5 2654  -5.969  26.289  -7.946
    1XTA    HL1 2655  -5.877  26.351  -7.943
    1XTA    HL2 2656  -6.570  26.077  -8.986
    1XTA    HL3 2657  -6.444  26.183  -9.047
    1XTA    HL4 2658  -6.403  26.050  -8.946
    1XTA    HL5 2659  -5.510  26.602  -8.878
    1XTA    HL6 2660  -5.642  26.540  -8.993
    1XTA    HL7 2661  -5.602  26.744  -9.121
    1XTA    HL8 2662  -5.455  26.657  -9.114
    1XTA    HL9 2663  -5.505  26.901  -8.949
    1XTA   HL10 2664  -5.406  26.908  -9.088
    1XTA   HL11 2665  -5.335  26.727  -8.858
    1XTA   HL12 2666  -5.239  26.777  -8.999
    1XTA   HL13 2667  -5.257  27.018  -8.922
    1XTA   HL14 2668  -5.145  26.905  -8.849
    1XTA   HL15 2669  -5.350  26.869  -8.668
    1XTA   HL16 2670  -5.227  26.978  -8.642
    1XTA   HL17 2671  -5.514  27.079  -8.871
    1XTA   HL18 2672  -5.540  26.945  -8.766
    1XTA   HL19 2673  -5.847  27.194  -8.760
    1XTA   HL20 2674  -5.817  27.039  -8.778
    1XTA   HL21 2675  -5.838  27.198  -8.985
    1XTA   HL22 2676  -5.674  27.113  -8.997
    1XTA   HL23 2677  -5.690  27.274  -8.928
    1XTA   HL24 2678  -5.960  26.213  -7.876
    1XTA   HL25 2679  -6.070  26.337  -7.945
    1XTA    CO8 2680  -5.593  27.278  -8.661
    1XTA    CO9 2681  -5.677  27.065  -8.565
    1XTA    OA6 2682  -5.812  27.082  -8.517
    1XTA   HL42 2683  -5.500  27.247  -8.615
    1XTA   HL43 2684  -5.647  27.320  -8.572
    1XTA   HL48 2685  -5.606  27.082  -8.487
    1XTA   HL49 2686  -5.666  26.957  -8.579
    1XTA     NT 2687  -6.253  31.310 -11.022
    1XTA    CN1 2688  -6.282  31.426 -11.097
    1XTA     C1 2689  -6.406  31.478 -11.077
    1XTA     C2 2690  -6.448  31.590 -11.147
    1XTA     C3 2691  -6.364  31.657 -11.240
    1XTA     C4 2692  -6.229  31.611 -11.254
    1XTA     C5 2693  -6.190  31.494 -11.182
    1XTA    CN2 2694  -6.235  31.325 -10.884
    1XTA     C6 2695  -6.311  31.256 -10.786
    1XTA     C7 2696  -6.280  31.261 -10.652
    1XTA     C8 2697  -6.182  31.360 -10.606
    1XTA     C9 2698  -6.103  31.428 -10.700
    1XTA    C10 2699  -6.133  31.417 -10.838
    1XTA    CN3 2700  -6.266  31.189 -11.087
    1XTA    C11 2701  -6.392  31.134 -11.117
    1XTA    C12 2702  -6.407  31.001 -11.170
    1XTA    C13 2703  -6.288  30.927 -11.175
    1XTA    C14 2704  -6.161  30.983 -11.151
    1XTA    C15 2705  -6.150  31.114 -11.099
    1XTA     H1 2706  -6.480  31.424 -11.015
    1XTA     H2 2707  -6.553  31.625 -11.123
    1XTA     H3 2708  -6.163  31.655 -11.319
    1XTA     H4 2709  -6.093  31.455 -11.198
    1XTA     H5 2710  -6.395  31.193 -10.819
    1XTA     H6 2711  -6.340  31.204 -10.587
    1XTA     H7 2712  -6.027  31.497 -10.665
    1XTA     H8 2713  -6.073  31.470 -10.906
    1XTA     H9 2714  -6.480  31.201 -11.103
    1XTA    H10 2715  -6.503  30.957 -11.183
    1XTA    H11 2716  -6.072  30.927 -11.171
    1XTA    H12 2717  -6.057  31.158 -11.067
    1XTA    OA1 2718  -6.419  31.764 -11.311
    1XTA    CO1 2719  -6.324  31.857 -11.368
    1XTA    OA2 2720  -6.151  31.378 -10.469
    1XTA    CO2 2721  -6.207  31.291 -10.367
    1XTA    CL1 2722  -6.135  31.321 -10.228
    1XTA    CL2 2723  -5.977  31.289 -10.218
    1XTA    CL3 2724  -5.939  31.146 -10.247
    1XTA    CL4 2725  -5.795  31.128 -10.205
    1XTA    CO3 2726  -5.750  30.997 -10.249
    1XTA    OA3 2727  -5.752  30.996 -10.391
    1XTA    CO4 2728  -5.855  30.913 -10.449
    1XTA    CT1 2729  -5.875  30.926 -10.605
    1XTA    CL5 2730  -5.998  31.027 -10.625
    1XTA    CL6 2731  -6.016  31.057 -10.773
    1XTA    OA4 2732  -6.304  30.792 -11.211
    1XTA    CO5 2733  -6.228  30.752 -11.324
    1XTA    HL1 2734  -6.120  30.739 -11.311
    1XTA    HL2 2735  -6.239  31.871 -11.302
    1XTA    HL3 2736  -6.296  31.816 -11.463
    1XTA    HL4 2737  -6.364  31.948 -11.395
    1XTA    HL5 2738  -6.314  31.311 -10.365
    1XTA    HL6 2739  -6.190  31.188 -10.394
    1XTA    HL7 2740  -6.185  31.262 -10.154
    1XTA    HL8 2741  -6.157  31.432 -10.214
    1XTA    HL9 2742  -5.938  31.316 -10.115
    1XTA   HL10 2743  -5.932  31.363 -10.283
    1XTA   HL11 2744  -6.001  31.072 -10.197
    1XTA   HL12 2745  -5.960  31.134 -10.355
    1XTA   HL13 2746  -5.788  31.135 -10.096
    1XTA   HL14 2747  -5.740  31.207 -10.249
    1XTA   HL15 2748  -5.653  30.980 -10.205
    1XTA   HL16 2749  -5.812  30.923 -10.203
    1XTA   HL17 2750  -5.826  30.802 -10.427
    1XTA   HL18 2751  -5.951  30.926 -10.406
    1XTA   HL19 2752  -5.971  31.123 -10.578
    1XTA   HL20 2753  -6.084  30.984 -10.567
    1XTA   HL21 2754  -6.040  30.969 -10.829
    1XTA   HL22 2755  -5.933  31.113 -10.814
    1XTA   HL23 2756  -6.102  31.119 -10.782
    1XTA   HL24 2757  -6.236  30.830 -11.403
    1XTA   HL25 2758  -6.267  30.659 -11.367
    1XTA    CO8 2759  -5.907  30.786 -10.668
    1XTA    CO9 2760  -5.743  30.982 -10.671
    1XTA    OA6 2761  -5.981  30.725 -10.617
    1XTA   HL42 2762  -5.822  30.720 -10.669
    1XTA   HL43 2763  -5.931  30.809 -10.770
    1XTA   HL48 2764  -5.630  30.895 -10.635
    1XTA   HL49 2765  -5.752  30.977 -10.779
    1XTA     NT 2766  -7.355  27.205  -7.457
    1XTA    CN1 2767  -7.307  27.317  -7.392
    1XTA     C1 2768  -7.345  27.442  -7.445
    1XTA     C2 2769  -7.280  27.551  -7.403
    1XTA     C3 2770  -7.181  27.546  -7.302
    1XTA     C4 2771  -7.152  27.423  -7.247
    1XTA     C5 2772  -7.210  27.303  -7.291
    1XTA    CN2 2773  -7.480  27.159  -7.425
    1XTA     C6 2774  -7.599  27.228  -7.454
    1XTA     C7 2775  -7.728  27.171  -7.420
    1XTA     C8 2776  -7.730  27.043  -7.358
    1XTA     C9 2777  -7.611  26.980  -7.312
    1XTA    C10 2778  -7.490  27.042  -7.344
    1XTA    CN3 2779  -7.283  27.172  -7.567
    1XTA    C11 2780  -7.323  27.209  -7.699
    1XTA    C12 2781  -7.264  27.149  -7.807
    1XTA    C13 2782  -7.142  27.071  -7.787
    1XTA    C14 2783  -7.096  27.041  -7.659
    1XTA    C15 2784  -7.173  27.079  -7.549
    1XTA     H1 2785  -7.420  27.447  -7.527
    1XTA     H2 2786  -7.304  27.645  -7.451
    1XTA     H3 2787  -7.080  27.413  -7.168
    1XTA     H4 2788  -7.186  27.206  -7.251
    1XTA     H5 2789  -7.595  27.322  -7.502
    1XTA     H6 2790  -7.813  27.235  -7.439
    1XTA     H7 2791  -7.608  26.876  -7.279
    1XTA     H8 2792  -7.397  26.998  -7.317
    1XTA     H9 2793  -7.417  27.261  -7.712
    1XTA    H10 2794  -7.295  27.174  -7.901
    1XTA    H11 2795  -7.013  26.970  -7.640
    1XTA    H12 2796  -7.140  27.045  -7.452
    1XTA    OA1 2797  -7.119  27.652  -7.254
    1XTA    CO1 2798  -7.212  27.743  -7.192
    1XTA    OA2 2799  -7.842  26.972  -7.322
    1XTA    CO2 2800  -7.959  26.992  -7.404
    1XTA    CL1 2801  -8.054  27.082  -7.333
    1XTA    CL2 2802  -8.202  27.084  -7.381
    1XTA    CL3 2803  -8.213  27.136  -7.521
    1XTA    CL4 2804  -8.352  27.158  -7.580
    1XTA    CO3 2805  -8.431  27.026  -7.609
    1XTA    OA3 2806  -8.568  27.054  -7.623
    1XTA    CO4 2807  -8.616  27.155  -7.717
    1XTA    CT1 2808  -8.767  27.152  -7.717
    1XTA    CL5 2809  -8.812  27.014  -7.786
    1XTA    CL6 2810  -8.789  26.873  -7.713
    1XTA    OA4 2811  -7.079  27.027  -7.904
    1XTA    CO5 2812  -6.983  26.921  -7.891
    1XTA    HL1 2813  -6.964  26.893  -7.993
    1XTA    HL2 2814  -7.150  27.829  -7.172
    1XTA    HL3 2815  -7.296  27.779  -7.257
    1XTA    HL4 2816  -7.264  27.696  -7.107
    1XTA    HL5 2817  -7.929  27.035  -7.505
    1XTA    HL6 2818  -8.000  26.890  -7.417
    1XTA    HL7 2819  -8.012  27.183  -7.335
    1XTA    HL8 2820  -8.058  27.062  -7.230
    1XTA    HL9 2821  -8.257  27.152  -7.315
    1XTA   HL10 2822  -8.232  26.985  -7.364
    1XTA   HL11 2823  -8.155  27.228  -7.517
    1XTA   HL12 2824  -8.167  27.064  -7.585
    1XTA   HL13 2825  -8.353  27.229  -7.670
    1XTA   HL14 2826  -8.396  27.215  -7.500
    1XTA   HL15 2827  -8.388  26.985  -7.698
    1XTA   HL16 2828  -8.425  26.959  -7.531
    1XTA   HL17 2829  -8.586  27.259  -7.686
    1XTA   HL18 2830  -8.577  27.141  -7.820
    1XTA   HL19 2831  -8.755  27.013  -7.881
    1XTA   HL20 2832  -8.912  27.029  -7.817
    1XTA   HL21 2833  -8.844  26.814  -7.781
    1XTA   HL22 2834  -8.842  26.859  -7.617
    1XTA   HL23 2835  -8.687  26.831  -7.708
    1XTA   HL24 2836  -7.016  26.842  -7.819
    1XTA   HL25 2837  -6.893  26.952  -7.843
    1XTA    CO8 2838  -8.807  27.275  -7.797
    1XTA    CO9 2839  -8.831  27.163  -7.579
    1XTA    OA6 2840  -8.813  27.294  -7.525
    1XTA   HL42 2841  -8.776  27.369  -7.749
    1XTA   HL43 2842  -8.913  27.286  -7.776
    1XTA   HL48 2843  -8.777  27.091  -7.514
    1XTA   HL49 2844  -8.937  27.143  -7.580
    1XTA     NT 2845  -7.588  28.195 -10.822
    1XTA    CN1 2846  -7.689  28.130 -10.877
    1XTA     C1 2847  -7.729  28.169 -11.006
    1XTA     C2 2848  -7.849  28.114 -11.067
    1XTA     C3 2849  -7.930  28.027 -10.988
    1XTA     C4 2850  -7.885  27.985 -10.863
    1XTA     C5 2851  -7.761  28.028 -10.809
    1XTA    CN2 2852  -7.464  28.136 -10.818
    1XTA     C6 2853  -7.399  28.117 -10.941
    1XTA     C7 2854  -7.259  28.084 -10.940
    1XTA     C8 2855  -7.197  28.048 -10.817
    1XTA     C9 2856  -7.276  28.047 -10.702
    1XTA    C10 2857  -7.410  28.083 -10.702
    1XTA    CN3 2858  -7.610  28.308 -10.752
    1XTA    C11 2859  -7.630  28.312 -10.611
    1XTA    C12 2860  -7.653  28.439 -10.543
    1XTA    C13 2861  -7.650  28.560 -10.619
    1XTA    C14 2862  -7.623  28.553 -10.765
    1XTA    C15 2863  -7.617  28.427 -10.828
    1XTA     H1 2864  -7.663  28.231 -11.061
    1XTA     H2 2865  -7.864  28.132 -11.168
    1XTA     H3 2866  -7.950  27.923 -10.796
    1XTA     H4 2867  -7.731  27.993 -10.708
    1XTA     H5 2868  -7.440  28.157 -11.033
    1XTA     H6 2869  -7.211  28.093 -11.031
    1XTA     H7 2870  -7.234  28.030 -10.605
    1XTA     H8 2871  -7.468  28.070 -10.615
    1XTA     H9 2872  -7.624  28.217 -10.559
    1XTA    H10 2873  -7.672  28.431 -10.438
    1XTA    H11 2874  -7.638  28.636 -10.825
    1XTA    H12 2875  -7.599  28.427 -10.932
    1XTA    OA1 2876  -8.053  27.979 -11.027
    1XTA    CO1 2877  -8.123  28.055 -11.127
    1XTA    OA2 2878  -7.071  28.005 -10.814
    1XTA    CO2 2879  -6.977  28.044 -10.910
    1XTA    CL1 2880  -6.924  28.190 -10.884
    1XTA    CL2 2881  -6.982  28.311 -10.963
    1XTA    CL3 2882  -7.085  28.390 -10.892
    1XTA    CL4 2883  -7.177  28.475 -10.986
    1XTA    CO3 2884  -7.272  28.560 -10.908
    1XTA    OA3 2885  -7.203  28.632 -10.809
    1XTA    CO4 2886  -7.277  28.725 -10.742
    1XTA    CT1 2887  -7.231  28.739 -10.593
    1XTA    CL5 2888  -7.216  28.598 -10.531
    1XTA    CL6 2889  -7.337  28.510 -10.531
    1XTA    OA4 2890  -7.666  28.689 -10.557
    1XTA    CO5 2891  -7.743  28.693 -10.439
    1XTA    HL1 2892  -7.843  28.650 -10.478
    1XTA    HL2 2893  -8.101  28.011 -11.218
    1XTA    HL3 2894  -8.231  28.030 -11.128
    1XTA    HL4 2895  -8.115  28.164 -11.135
    1XTA    HL5 2896  -6.889  27.970 -10.910
    1XTA    HL6 2897  -7.017  28.040 -11.010
    1XTA    HL7 2898  -6.821  28.184 -10.907
    1XTA    HL8 2899  -6.914  28.217 -10.778
    1XTA    HL9 2900  -7.042  28.274 -11.044
    1XTA   HL10 2901  -6.900  28.366 -11.012
    1XTA   HL11 2902  -7.144  28.328 -10.821
    1XTA   HL12 2903  -7.032  28.454 -10.829
    1XTA   HL13 2904  -7.225  28.404 -11.050
    1XTA   HL14 2905  -7.103  28.532 -11.049
    1XTA   HL15 2906  -7.315  28.638 -10.971
    1XTA   HL16 2907  -7.346  28.497 -10.864
    1XTA   HL17 2908  -7.266  28.827 -10.785
    1XTA   HL18 2909  -7.378  28.688 -10.750
    1XTA   HL19 2910  -7.169  28.595 -10.428
    1XTA   HL20 2911  -7.143  28.542 -10.598
    1XTA   HL21 2912  -7.381  28.513 -10.631
    1XTA   HL22 2913  -7.417  28.549 -10.471
    1XTA   HL23 2914  -7.319  28.408 -10.510
    1XTA   HL24 2915  -7.756  28.799 -10.412
    1XTA   HL25 2916  -7.702  28.640 -10.361
    1XTA    CO8 2917  -7.338  28.831 -10.523
    1XTA    CO9 2918  -7.104  28.815 -10.597
    1XTA    OA6 2919  -7.334  28.826 -10.382
    1XTA   HL42 2920  -7.433  28.798 -10.546
    1XTA   HL43 2921  -7.339  28.937 -10.569
    1XTA   HL48 2922  -7.036  28.760 -10.659
    1XTA   HL49 2923  -7.114  28.920 -10.636
    1XTA     NT 2924  -5.346  28.230  -6.929
    1XTA    CN1 2925  -5.368  28.140  -6.826
    1XTA     C1 2926  -5.261  28.068  -6.763
    1XTA     C2 2927  -5.296  27.977  -6.662
    1XTA     C3 2928  -5.426  27.962  -6.609
    1XTA     C4 2929  -5.533  28.040  -6.663
    1XTA     C5 2930  -5.499  28.129  -6.770
    1XTA    CN2 2931  -5.376  28.203  -7.060
    1XTA     C6 2932  -5.307  28.098  -7.131
    1XTA     C7 2933  -5.308  28.086  -7.272
    1XTA     C8 2934  -5.397  28.171  -7.346
    1XTA     C9 2935  -5.475  28.271  -7.282
    1XTA    C10 2936  -5.462  28.285  -7.140
    1XTA    CN3 2937  -5.307  28.353  -6.897
    1XTA    C11 2938  -5.190  28.410  -6.955
    1XTA    C12 2939  -5.161  28.544  -6.925
    1XTA    C13 2940  -5.232  28.619  -6.828
    1XTA    C14 2941  -5.350  28.564  -6.775
    1XTA    C15 2942  -5.391  28.437  -6.815
    1XTA     H1 2943  -5.157  28.086  -6.795
    1XTA     H2 2944  -5.209  27.915  -6.630
    1XTA     H3 2945  -5.630  28.020  -6.618
    1XTA     H4 2946  -5.584  28.184  -6.806
    1XTA     H5 2947  -5.236  28.035  -7.070
    1XTA     H6 2948  -5.244  28.012  -7.327
    1XTA     H7 2949  -5.536  28.328  -7.344
    1XTA     H8 2950  -5.520  28.362  -7.102
    1XTA     H9 2951  -5.139  28.347  -7.021
    1XTA    H10 2952  -5.083  28.591  -6.982
    1XTA    H11 2953  -5.412  28.613  -6.698
    1XTA    H12 2954  -5.487  28.403  -6.771
    1XTA    OA1 2955  -5.455  27.872  -6.509
    1XTA    CO1 2956  -5.366  27.758  -6.495
    1XTA    OA2 2957  -5.398  28.151  -7.479
    1XTA    CO2 2958  -5.442  28.261  -7.561
    1XTA    CL1 2959  -5.591  28.249  -7.585
    1XTA    CL2 2960  -5.640  28.360  -7.677
    1XTA    CL3 2961  -5.636  28.491  -7.598
    1XTA    CL4 2962  -5.727  28.592  -7.664
    1XTA    CO3 2963  -5.699  28.740  -7.625
    1XTA    OA3 2964  -5.805  28.816  -7.656
    1XTA    CO4 2965  -5.786  28.953  -7.618
    1XTA    CT1 2966  -5.893  29.034  -7.684
    1XTA    CL5 2967  -5.853  29.190  -7.665
    1XTA    CL6 2968  -5.821  29.237  -7.525
    1XTA    OA4 2969  -5.200  28.748  -6.800
    1XTA    CO5 2970  -5.061  28.773  -6.814
    1XTA    HL1 2971  -5.001  28.685  -6.779
    1XTA    HL2 2972  -5.330  27.727  -6.595
    1XTA    HL3 2973  -5.281  27.793  -6.441
    1XTA    HL4 2974  -5.423  27.676  -6.440
    1XTA    HL5 2975  -5.415  28.353  -7.514
    1XTA    HL6 2976  -5.392  28.270  -7.655
    1XTA    HL7 2977  -5.653  28.242  -7.490
    1XTA    HL8 2978  -5.599  28.154  -7.641
    1XTA    HL9 2979  -5.742  28.348  -7.698
    1XTA   HL10 2980  -5.577  28.375  -7.766
    1XTA   HL11 2981  -5.683  28.484  -7.500
    1XTA   HL12 2982  -5.528  28.519  -7.585
    1XTA   HL13 2983  -5.826  28.566  -7.643
    1XTA   HL14 2984  -5.716  28.581  -7.773
    1XTA   HL15 2985  -5.667  28.742  -7.520
    1XTA   HL16 2986  -5.611  28.774  -7.684
    1XTA   HL17 2987  -5.783  28.968  -7.505
    1XTA   HL18 2988  -5.691  28.982  -7.663
    1XTA   HL19 2989  -5.941  29.251  -7.680
    1XTA   HL20 2990  -5.782  29.222  -7.740
    1XTA   HL21 2991  -5.834  29.342  -7.530
    1XTA   HL22 2992  -5.721  29.209  -7.481
    1XTA   HL23 2993  -5.902  29.201  -7.462
    1XTA   HL24 2994  -5.025  28.859  -6.760
    1XTA   HL25 2995  -5.027  28.791  -6.916
    1XTA    CO8 2996  -6.031  29.004  -7.625
    1XTA    CO9 2997  -5.903  28.995  -7.839
    1XTA    OA6 2998  -5.956  29.091  -7.923
    1XTA   HL42 2999  -6.045  29.073  -7.548
    1XTA   HL43 3000  -6.096  29.048  -7.697
    1XTA   HL48 3001  -5.946  28.897  -7.857
    1XTA   HL49 3002  -5.801  28.995  -7.865
    1XTA     NT 3003  -8.679  30.013  -6.373
    1XTA    CN1 3004  -8.733  30.061  -6.487
    1XTA     C1 3005  -8.868  30.111  -6.506
    1XTA     C2 3006  -8.921  30.136  -6.633
    1XTA     C3 3007  -8.841  30.127  -6.742
    1XTA     C4 3008  -8.711  30.097  -6.725
    1XTA     C5 3009  -8.654  30.067  -6.602
    1XTA    CN2 3010  -8.694  29.880  -6.351
    1XTA     C6 3011  -8.631  29.774  -6.421
    1XTA     C7 3012  -8.653  29.639  -6.396
    1XTA     C8 3013  -8.740  29.607  -6.299
    1XTA     C9 3014  -8.809  29.709  -6.222
    1XTA    C10 3015  -8.781  29.844  -6.246
    1XTA    CN3 3016  -8.636  30.092  -6.275
    1XTA    C11 3017  -8.729  30.180  -6.209
    1XTA    C12 3018  -8.691  30.274  -6.118
    1XTA    C13 3019  -8.555  30.285  -6.081
    1XTA    C14 3020  -8.457  30.215  -6.159
    1XTA    C15 3021  -8.498  30.116  -6.255
    1XTA     H1 3022  -8.929  30.134  -6.420
    1XTA     H2 3023  -9.019  30.180  -6.648
    1XTA     H3 3024  -8.639  30.091  -6.806
    1XTA     H4 3025  -8.549  30.052  -6.603
    1XTA     H5 3026  -8.564  29.794  -6.503
    1XTA     H6 3027  -8.613  29.559  -6.460
    1XTA     H7 3028  -8.878  29.684  -6.146
    1XTA     H8 3029  -8.841  29.912  -6.183
    1XTA     H9 3030  -8.830  30.156  -6.217
    1XTA    H10 3031  -8.769  30.331  -6.068
    1XTA    H11 3032  -8.356  30.224  -6.145
    1XTA    H12 3033  -8.419  30.065  -6.305
    1XTA    OA1 3034  -8.890  30.176  -6.858
    1XTA    CO1 3035  -8.828  30.127  -6.974
    1XTA    OA2 3036  -8.778  29.470  -6.287
    1XTA    CO2 3037  -8.835  29.430  -6.162
    1XTA    CL1 3038  -8.834  29.274  -6.168
    1XTA    CL2 3039  -8.886  29.193  -6.041
    1XTA    CL3 3040  -8.805  29.222  -5.912
    1XTA    CL4 3041  -8.849  29.343  -5.824
    1XTA    CO3 3042  -8.736  29.447  -5.798
    1XTA    OA3 3043  -8.600  29.404  -5.788
    1XTA    CO4 3044  -8.502  29.501  -5.807
    1XTA    CT1 3045  -8.358  29.434  -5.796
    1XTA    CL5 3046  -8.339  29.363  -5.659
    1XTA    CL6 3047  -8.372  29.444  -5.536
    1XTA    OA4 3048  -8.534  30.363  -5.972
    1XTA    CO5 3049  -8.402  30.385  -5.935
    1XTA    HL1 3050  -8.381  30.301  -5.863
    1XTA    HL2 3051  -8.806  30.023  -6.967
    1XTA    HL3 3052  -8.894  30.153  -7.062
    1XTA    HL4 3053  -8.727  30.170  -6.995
    1XTA    HL5 3054  -8.786  29.483  -6.077
    1XTA    HL6 3055  -8.941  29.461  -6.153
    1XTA    HL7 3056  -8.735  29.234  -6.193
    1XTA    HL8 3057  -8.901  29.233  -6.247
    1XTA    HL9 3058  -8.865  29.087  -6.061
    1XTA   HL10 3059  -8.990  29.214  -6.026
    1XTA   HL11 3060  -8.798  29.140  -5.845
    1XTA   HL12 3061  -8.706  29.248  -5.948
    1XTA   HL13 3062  -8.877  29.293  -5.734
    1XTA   HL14 3063  -8.946  29.384  -5.847
    1XTA   HL15 3064  -8.737  29.527  -5.877
    1XTA   HL16 3065  -8.757  29.503  -5.707
    1XTA   HL17 3066  -8.514  29.535  -5.912
    1XTA   HL18 3067  -8.518  29.585  -5.747
    1XTA   HL19 3068  -8.234  29.324  -5.657
    1XTA   HL20 3069  -8.397  29.271  -5.661
    1XTA   HL21 3070  -8.320  29.398  -5.451
    1XTA   HL22 3071  -8.479  29.457  -5.518
    1XTA   HL23 3072  -8.339  29.546  -5.528
    1XTA   HL24 3073  -8.400  30.483  -5.878
    1XTA   HL25 3074  -8.333  30.394  -6.018
    1XTA    CO8 3075  -8.244  29.543  -5.817
    1XTA    CO9 3076  -8.352  29.343  -5.922
    1XTA    OA6 3077  -8.255  29.288  -5.927
    1XTA   HL42 3078  -8.251  29.614  -5.732
    1XTA   HL43 3079  -8.117  29.480  -5.814
    1XTA   HL48 3080  -8.359  29.416  -6.004
    1XTA   HL49 3081  -8.439  29.279  -5.926
    1XTA     NT 3082  -6.814  26.729  -6.522
    1XTA    CN1 3083  -6.907  26.631  -6.555
    1XTA     C1 3084  -6.873  26.547  -6.664
    1XTA     C2 3085  -6.957  26.436  -6.694
    1XTA     C3 3086  -7.074  26.401  -6.617
    1XTA     C4 3087  -7.109  26.490  -6.513
    1XTA     C5 3088  -7.021  26.601  -6.483
    1XTA    CN2 3089  -6.729  26.705  -6.428
    1XTA     C6 3090  -6.623  26.611  -6.454
    1XTA     C7 3091  -6.534  26.580  -6.354
    1XTA     C8 3092  -6.537  26.634  -6.225
    1XTA     C9 3093  -6.637  26.732  -6.199
    1XTA    C10 3094  -6.730  26.762  -6.296
    1XTA    CN3 3095  -6.821  26.854  -6.575
    1XTA    C11 3096  -6.945  26.926  -6.576
    1XTA    C12 3097  -6.948  27.063  -6.615
    1XTA    C13 3098  -6.839  27.124  -6.676
    1XTA    C14 3099  -6.716  27.054  -6.679
    1XTA    C15 3100  -6.708  26.919  -6.630
    1XTA     H1 3101  -6.783  26.566  -6.718
    1XTA     H2 3102  -6.937  26.370  -6.781
    1XTA     H3 3103  -7.208  26.481  -6.470
    1XTA     H4 3104  -7.047  26.657  -6.399
    1XTA     H5 3105  -6.607  26.561  -6.551
    1XTA     H6 3106  -6.452  26.509  -6.382
    1XTA     H7 3107  -6.641  26.786  -6.106
    1XTA     H8 3108  -6.806  26.836  -6.263
    1XTA     H9 3109  -7.030  26.865  -6.541
    1XTA    H10 3110  -7.044  27.113  -6.615
    1XTA    H11 3111  -6.623  27.095  -6.715
    1XTA    H12 3112  -6.618  26.863  -6.623
    1XTA    OA1 3113  -7.147  26.297  -6.656
    1XTA    CO1 3114  -7.245  26.253  -6.562
    1XTA    OA2 3115  -6.445  26.604  -6.127
    1XTA    CO2 3116  -6.429  26.464  -6.117
    1XTA    CL1 3117  -6.409  26.428  -5.969
    1XTA    CL2 3118  -6.506  26.476  -5.872
    1XTA    CL3 3119  -6.487  26.620  -5.818
    1XTA    CL4 3120  -6.614  26.680  -5.759
    1XTA    CO3 3121  -6.587  26.778  -5.643
    1XTA    OA3 3122  -6.709  26.817  -5.587
    1XTA    CO4 3123  -6.701  26.940  -5.512
    1XTA    CT1 3124  -6.768  27.057  -5.587
    1XTA    CL5 3125  -6.918  27.026  -5.618
    1XTA    CL6 3126  -6.956  26.926  -5.730
    1XTA    OA4 3127  -6.853  27.252  -6.718
    1XTA    CO5 3128  -6.748  27.294  -6.803
    1XTA    HL1 3129  -6.774  27.398  -6.845
    1XTA    HL2 3130  -7.288  26.163  -6.614
    1XTA    HL3 3131  -7.192  26.204  -6.471
    1XTA    HL4 3132  -7.319  26.321  -6.529
    1XTA    HL5 3133  -6.519  26.406  -6.147
    1XTA    HL6 3134  -6.337  26.439  -6.181
    1XTA    HL7 3135  -6.314  26.471  -5.936
    1XTA    HL8 3136  -6.403  26.322  -5.957
    1XTA    HL9 3137  -6.523  26.407  -5.786
    1XTA   HL10 3138  -6.606  26.468  -5.925
    1XTA   HL11 3139  -6.407  26.617  -5.747
    1XTA   HL12 3140  -6.456  26.689  -5.902
    1XTA   HL13 3141  -6.674  26.604  -5.706
    1XTA   HL14 3142  -6.684  26.718  -5.839
    1XTA   HL15 3143  -6.529  26.727  -5.569
    1XTA   HL16 3144  -6.534  26.872  -5.658
    1XTA   HL17 3145  -6.753  26.915  -5.416
    1XTA   HL18 3146  -6.594  26.957  -5.483
    1XTA   HL19 3147  -6.970  27.120  -5.643
    1XTA   HL20 3148  -6.954  26.991  -5.526
    1XTA   HL21 3149  -6.912  26.828  -5.707
    1XTA   HL22 3150  -6.917  26.967  -5.818
    1XTA   HL23 3151  -7.066  26.926  -5.737
    1XTA   HL24 3152  -6.753  27.226  -6.888
    1XTA   HL25 3153  -6.655  27.298  -6.744
    1XTA    CO8 3154  -6.679  27.093  -5.707
    1XTA    CO9 3155  -6.744  27.182  -5.499
    1XTA    OA6 3156  -6.711  27.185  -5.761
    1XTA   HL42 3157  -6.696  27.000  -5.774
    1XTA   HL43 3158  -6.571  27.095  -5.678
    1XTA   HL48 3159  -6.769  27.306  -5.569
    1XTA   HL49 3160  -6.638  27.187  -5.470
    1XTA     NT 3161  -3.484  32.324  -7.753
    1XTA    CN1 3162  -3.358  32.367  -7.777
    1XTA     C1 3163  -3.319  32.430  -7.897
    1XTA     C2 3164  -3.185  32.472  -7.921
    1XTA     C3 3165  -3.088  32.455  -7.821
    1XTA     C4 3166  -3.129  32.403  -7.696
    1XTA     C5 3167  -3.256  32.351  -7.680
    1XTA    CN2 3168  -3.518  32.199  -7.792
    1XTA     C6 3169  -3.614  32.183  -7.890
    1XTA     C7 3170  -3.645  32.056  -7.944
    1XTA     C8 3171  -3.574  31.942  -7.897
    1XTA     C9 3172  -3.474  31.952  -7.799
    1XTA    C10 3173  -3.442  32.082  -7.753
    1XTA    CN3 3174  -3.553  32.379  -7.653
    1XTA    C11 3175  -3.573  32.520  -7.660
    1XTA    C12 3176  -3.618  32.588  -7.549
    1XTA    C13 3177  -3.654  32.524  -7.430
    1XTA    C14 3178  -3.641  32.385  -7.418
    1XTA    C15 3179  -3.586  32.318  -7.529
    1XTA     H1 3180  -3.393  32.449  -7.978
    1XTA     H2 3181  -3.168  32.515  -8.020
    1XTA     H3 3182  -3.058  32.384  -7.615
    1XTA     H4 3183  -3.287  32.321  -7.580
    1XTA     H5 3184  -3.662  32.270  -7.927
    1XTA     H6 3185  -3.717  32.045  -8.024
    1XTA     H7 3186  -3.417  31.865  -7.759
    1XTA     H8 3187  -3.384  32.104  -7.664
    1XTA     H9 3188  -3.540  32.580  -7.747
    1XTA    H10 3189  -3.627  32.689  -7.563
    1XTA    H11 3190  -3.657  32.332  -7.324
    1XTA    H12 3191  -3.574  32.212  -7.510
    1XTA    OA1 3192  -2.961  32.499  -7.819
    1XTA    CO1 3193  -2.906  32.500  -7.948
    1XTA    OA2 3194  -3.612  31.820  -7.951
    1XTA    CO2 3195  -3.612  31.710  -7.862
    1XTA    CL1 3196  -3.533  31.597  -7.920
    1XTA    CL2 3197  -3.383  31.623  -7.927
    1XTA    CL3 3198  -3.312  31.498  -7.966
    1XTA    CL4 3199  -3.300  31.398  -7.854
    1XTA    CO3 3200  -3.227  31.268  -7.899
    1XTA    OA3 3201  -3.223  31.177  -7.791
    1XTA    CO4 3202  -3.153  31.065  -7.857
    1XTA    CT1 3203  -3.196  30.929  -7.802
    1XTA    CL5 3204  -3.327  30.874  -7.861
    1XTA    CL6 3205  -3.448  30.966  -7.844
    1XTA    OA4 3206  -3.705  32.603  -7.333
    1XTA    CO5 3207  -3.820  32.549  -7.274
    1XTA    HL1 3208  -3.856  32.614  -7.198
    1XTA    HL2 3209  -2.919  32.413  -8.012
    1XTA    HL3 3210  -2.938  32.579  -8.013
    1XTA    HL4 3211  -2.795  32.497  -7.940
    1XTA    HL5 3212  -3.577  31.728  -7.759
    1XTA    HL6 3213  -3.712  31.684  -7.857
    1XTA    HL7 3214  -3.585  31.563  -8.010
    1XTA    HL8 3215  -3.538  31.523  -7.835
    1XTA    HL9 3216  -3.336  31.656  -7.835
    1XTA   HL10 3217  -3.367  31.710  -7.996
    1XTA   HL11 3218  -3.352  31.451  -8.059
    1XTA   HL12 3219  -3.203  31.520  -7.986
    1XTA   HL13 3220  -3.397  31.360  -7.815
    1XTA   HL14 3221  -3.252  31.454  -7.772
    1XTA   HL15 3222  -3.282  31.216  -7.977
    1XTA   HL16 3223  -3.134  31.298  -7.936
    1XTA   HL17 3224  -3.147  31.066  -7.966
    1XTA   HL18 3225  -3.053  31.076  -7.817
    1XTA   HL19 3226  -3.349  30.775  -7.820
    1XTA   HL20 3227  -3.310  30.864  -7.969
    1XTA   HL21 3228  -3.428  31.057  -7.900
    1XTA   HL22 3229  -3.455  30.992  -7.741
    1XTA   HL23 3230  -3.540  30.921  -7.889
    1XTA   HL24 3231  -3.811  32.455  -7.220
    1XTA   HL25 3232  -3.916  32.545  -7.340
    1XTA    CO8 3233  -3.201  30.925  -7.652
    1XTA    CO9 3234  -3.084  30.832  -7.836
    1XTA    OA6 3235  -3.096  30.725  -7.804
    1XTA   HL42 3236  -3.268  30.999  -7.625
    1XTA   HL43 3237  -3.273  30.811  -7.610
    1XTA   HL48 3238  -2.992  30.871  -7.789
    1XTA   HL49 3239  -3.082  30.843  -7.940
    1XTA     NT 3240  -6.905  25.140 -10.014
    1XTA    CN1 3241  -6.805  25.113 -10.093
    1XTA     C1 3242  -6.799  25.159 -10.224
    1XTA     C2 3243  -6.690  25.127 -10.311
    1XTA     C3 3244  -6.587  25.042 -10.260
    1XTA     C4 3245  -6.594  24.992 -10.127
    1XTA     C5 3246  -6.704  25.024 -10.041
    1XTA    CN2 3247  -6.893  25.241  -9.921
    1XTA     C6 3248  -6.817  25.214  -9.807
    1XTA     C7 3249  -6.794  25.310  -9.710
    1XTA     C8 3250  -6.859  25.439  -9.718
    1XTA     C9 3251  -6.930  25.468  -9.834
    1XTA    C10 3252  -6.943  25.370  -9.938
    1XTA    CN3 3253  -7.010  25.050 -10.005
    1XTA    C11 3254  -7.122  25.076 -10.087
    1XTA    C12 3255  -7.229  24.988 -10.092
    1XTA    C13 3256  -7.221  24.863 -10.021
    1XTA    C14 3257  -7.093  24.828  -9.961
    1XTA    C15 3258  -6.994  24.925  -9.946
    1XTA     H1 3259  -6.891  25.209 -10.267
    1XTA     H2 3260  -6.683  25.177 -10.402
    1XTA     H3 3261  -6.510  24.936 -10.083
    1XTA     H4 3262  -6.689  24.994  -9.939
    1XTA     H5 3263  -6.784  25.111  -9.789
    1XTA     H6 3264  -6.738  25.271  -9.630
    1XTA     H7 3265  -6.980  25.563  -9.853
    1XTA     H8 3266  -6.982  25.395 -10.035
    1XTA     H9 3267  -7.119  25.170 -10.154
    1XTA    H10 3268  -7.311  25.006 -10.157
    1XTA    H11 3269  -7.079  24.730  -9.918
    1XTA    H12 3270  -6.897  24.911  -9.905
    1XTA    OA1 3271  -6.480  25.002 -10.340
    1XTA    CO1 3272  -6.487  25.044 -10.478
    1XTA    OA2 3273  -6.837  25.537  -9.620
    1XTA    CO2 3274  -6.769  25.507  -9.503
    1XTA    CL1 3275  -6.623  25.522  -9.531
    1XTA    CL2 3276  -6.528  25.423  -9.449
    1XTA    CL3 3277  -6.540  25.456  -9.302
    1XTA    CL4 3278  -6.501  25.347  -9.214
    1XTA    CO3 3279  -6.537  25.377  -9.064
    1XTA    OA3 3280  -6.665  25.422  -9.055
    1XTA    CO4 3281  -6.705  25.450  -8.922
    1XTA    CT1 3282  -6.857  25.433  -8.917
    1XTA    CL5 3283  -6.913  25.505  -8.798
    1XTA    CL6 3284  -6.821  25.502  -8.670
    1XTA    OA4 3285  -7.326  24.775 -10.041
    1XTA    CO5 3286  -7.340  24.667  -9.950
    1XTA    HL1 3287  -7.379  24.698  -9.855
    1XTA    HL2 3288  -6.567  24.995 -10.542
    1XTA    HL3 3289  -6.501  25.148 -10.482
    1XTA    HL4 3290  -6.398  25.014 -10.536
    1XTA    HL5 3291  -6.800  25.576  -9.425
    1XTA    HL6 3292  -6.793  25.398  -9.463
    1XTA    HL7 3293  -6.589  25.623  -9.518
    1XTA    HL8 3294  -6.607  25.500  -9.642
    1XTA    HL9 3295  -6.422  25.433  -9.490
    1XTA   HL10 3296  -6.566  25.321  -9.468
    1XTA   HL11 3297  -6.492  25.546  -9.263
    1XTA   HL12 3298  -6.645  25.470  -9.283
    1XTA   HL13 3299  -6.396  25.325  -9.219
    1XTA   HL14 3300  -6.549  25.256  -9.248
    1XTA   HL15 3301  -6.529  25.283  -9.006
    1XTA   HL16 3302  -6.464  25.455  -9.027
    1XTA   HL17 3303  -6.664  25.379  -8.856
    1XTA   HL18 3304  -6.672  25.554  -8.895
    1XTA   HL19 3305  -7.002  25.448  -8.767
    1XTA   HL20 3306  -6.935  25.609  -8.822
    1XTA   HL21 3307  -6.830  25.599  -8.614
    1XTA   HL22 3308  -6.718  25.498  -8.697
    1XTA   HL23 3309  -6.850  25.422  -8.601
    1XTA   HL24 3310  -7.253  24.608  -9.926
    1XTA   HL25 3311  -7.423  24.615  -9.991
    1XTA    CO8 3312  -6.897  25.285  -8.917
    1XTA    CO9 3313  -6.918  25.487  -9.049
    1XTA    OA6 3314  -7.027  25.499  -9.045
    1XTA   HL42 3315  -7.005  25.265  -8.931
    1XTA   HL43 3316  -6.832  25.218  -9.028
    1XTA   HL48 3317  -6.886  25.423  -9.131
    1XTA   HL49 3318  -6.884  25.590  -9.056
    1XTA     NT 3319  -8.956  29.986  -4.453
    1XTA    CN1 3320  -9.044  29.880  -4.455
    1XTA     C1 3321  -9.111  29.841  -4.573
    1XTA     C2 3322  -9.209  29.745  -4.564
    1XTA     C3 3323  -9.232  29.674  -4.443
    1XTA     C4 3324  -9.167  29.716  -4.325
    1XTA     C5 3325  -9.073  29.814  -4.333
    1XTA    CN2 3326  -8.856  29.989  -4.556
    1XTA     C6 3327  -8.890  30.044  -4.681
    1XTA     C7 3328  -8.797  30.037  -4.785
    1XTA     C8 3329  -8.682  29.956  -4.770
    1XTA     C9 3330  -8.645  29.907  -4.642
    1XTA    C10 3331  -8.733  29.927  -4.536
    1XTA    CN3 3332  -8.984  30.095  -4.375
    1XTA    C11 3333  -9.117  30.146  -4.357
    1XTA    C12 3334  -9.132  30.272  -4.302
    1XTA    C13 3335  -9.025  30.330  -4.230
    1XTA    C14 3336  -8.894  30.271  -4.237
    1XTA    C15 3337  -8.879  30.155  -4.309
    1XTA     H1 3338  -9.100  29.897  -4.668
    1XTA     H2 3339  -9.247  29.705  -4.655
    1XTA     H3 3340  -9.193  29.676  -4.231
    1XTA     H4 3341  -9.015  29.840  -4.248
    1XTA     H5 3342  -8.985  30.088  -4.711
    1XTA     H6 3343  -8.823  30.086  -4.879
    1XTA     H7 3344  -8.551  29.860  -4.631
    1XTA     H8 3345  -8.708  29.881  -4.439
    1XTA     H9 3346  -9.202  30.097  -4.400
    1XTA    H10 3347  -9.230  30.310  -4.308
    1XTA    H11 3348  -8.812  30.317  -4.184
    1XTA    H12 3349  -8.780  30.108  -4.344
    1XTA    OA1 3350  -9.322  29.570  -4.433
    1XTA    CO1 3351  -9.317  29.483  -4.320
    1XTA    OA2 3352  -8.597  29.972  -4.881
    1XTA    CO2 3353  -8.457  29.951  -4.856
    1XTA    CL1 3354  -8.424  29.804  -4.885
    1XTA    CL2 3355  -8.277  29.766  -4.854
    1XTA    CL3 3356  -8.187  29.845  -4.947
    1XTA    CL4 3357  -8.213  29.850  -5.096
    1XTA    CO3 3358  -8.115  29.945  -5.170
    1XTA    OA3 3359  -8.180  30.065  -5.199
    1XTA    CO4 3360  -8.091  30.173  -5.216
    1XTA    CT1 3361  -8.165  30.308  -5.215
    1XTA    CL5 3362  -8.273  30.307  -5.327
    1XTA    CL6 3363  -8.356  30.432  -5.349
    1XTA    OA4 3364  -9.051  30.445  -4.155
    1XTA    CO5 3365  -8.932  30.514  -4.107
    1XTA    HL1 3366  -8.857  30.523  -4.190
    1XTA    HL2 3367  -9.226  29.426  -4.334
    1XTA    HL3 3368  -9.324  29.523  -4.220
    1XTA    HL4 3369  -9.400  29.406  -4.334
    1XTA    HL5 3370  -8.410  30.010  -4.931
    1XTA    HL6 3371  -8.426  29.994  -4.760
    1XTA    HL7 3372  -8.435  29.780  -4.993
    1XTA    HL8 3373  -8.503  29.743  -4.837
    1XTA    HL9 3374  -8.266  29.658  -4.869
    1XTA   HL10 3375  -8.256  29.784  -4.749
    1XTA   HL11 3376  -8.172  29.945  -4.908
    1XTA   HL12 3377  -8.085  29.806  -4.930
    1XTA   HL13 3378  -8.313  29.894  -5.120
    1XTA   HL14 3379  -8.209  29.747  -5.139
    1XTA   HL15 3380  -8.024  29.964  -5.111
    1XTA   HL16 3381  -8.071  29.896  -5.262
    1XTA   HL17 3382  -8.017  30.175  -5.141
    1XTA   HL18 3383  -8.033  30.166  -5.315
    1XTA   HL19 3384  -8.334  30.217  -5.326
    1XTA   HL20 3385  -8.216  30.296  -5.420
    1XTA   HL21 3386  -8.456  30.408  -5.389
    1XTA   HL22 3387  -8.310  30.487  -5.427
    1XTA   HL23 3388  -8.367  30.494  -5.256
    1XTA   HL24 3389  -8.893  30.465  -4.013
    1XTA   HL25 3390  -8.959  30.616  -4.075
    1XTA    CO8 3391  -8.072  30.434  -5.227
    1XTA    CO9 3392  -8.229  30.327  -5.074
    1XTA    OA6 3393  -8.002  30.430  -5.313
    1XTA   HL42 3394  -8.013  30.449  -5.134
    1XTA   HL43 3395  -8.132  30.523  -5.236
    1XTA   HL48 3396  -8.307  30.220  -5.033
    1XTA   HL49 3397  -8.293  30.414  -5.081
    1XTA     NT 3398  -5.374  24.310  -4.656
    1XTA    CN1 3399  -5.403  24.301  -4.521
    1XTA     C1 3400  -5.488  24.204  -4.461
    1XTA     C2 3401  -5.513  24.211  -4.325
    1XTA     C3 3402  -5.463  24.317  -4.247
    1XTA     C4 3403  -5.374  24.407  -4.298
    1XTA     C5 3404  -5.354  24.407  -4.435
    1XTA    CN2 3405  -5.276  24.231  -4.704
    1XTA     C6 3406  -5.141  24.258  -4.676
    1XTA     C7 3407  -5.043  24.175  -4.724
    1XTA     C8 3408  -5.071  24.067  -4.809
    1XTA     C9 3409  -5.207  24.048  -4.843
    1XTA    C10 3410  -5.314  24.140  -4.806
    1XTA    CN3 3411  -5.436  24.401  -4.736
    1XTA    C11 3412  -5.571  24.436  -4.722
    1XTA    C12 3413  -5.638  24.515  -4.813
    1XTA    C13 3414  -5.574  24.544  -4.932
    1XTA    C14 3415  -5.436  24.526  -4.945
    1XTA    C15 3416  -5.366  24.459  -4.842
    1XTA     H1 3417  -5.529  24.127  -4.519
    1XTA     H2 3418  -5.577  24.135  -4.280
    1XTA     H3 3419  -5.337  24.488  -4.239
    1XTA     H4 3420  -5.298  24.483  -4.481
    1XTA     H5 3421  -5.107  24.340  -4.612
    1XTA     H6 3422  -4.937  24.186  -4.714
    1XTA     H7 3423  -5.232  23.965  -4.915
    1XTA     H8 3424  -5.414  24.126  -4.845
    1XTA     H9 3425  -5.620  24.401  -4.634
    1XTA    H10 3426  -5.742  24.541  -4.786
    1XTA    H11 3427  -5.385  24.568  -5.028
    1XTA    H12 3428  -5.261  24.432  -4.860
    1XTA    OA1 3429  -5.498  24.325  -4.116
    1XTA    CO1 3430  -5.509  24.451  -4.055
    1XTA    OA2 3431  -4.973  23.981  -4.855
    1XTA    CO2 3432  -5.009  23.893  -4.964
    1XTA    CL1 3433  -4.884  23.855  -5.044
    1XTA    CL2 3434  -4.928  23.759  -5.148
    1XTA    CL3 3435  -4.833  23.714  -5.254
    1XTA    CL4 3436  -4.701  23.660  -5.193
    1XTA    CO3 3437  -4.589  23.772  -5.179
    1XTA    OA3 3438  -4.472  23.717  -5.115
    1XTA    CO4 3439  -4.352  23.789  -5.128
    1XTA    CT1 3440  -4.245  23.739  -5.030
    1XTA    CL5 3441  -4.281  23.788  -4.890
    1XTA    CL6 3442  -4.188  23.751  -4.773
    1XTA    OA4 3443  -5.642  24.609  -5.031
    1XTA    CO5 3444  -5.786  24.636  -5.022
    1XTA    HL1 3445  -5.843  24.550  -5.040
    1XTA    HL2 3446  -5.566  24.443  -3.964
    1XTA    HL3 3447  -5.406  24.480  -4.027
    1XTA    HL4 3448  -5.542  24.528  -4.124
    1XTA    HL5 3449  -5.050  23.806  -4.911
    1XTA    HL6 3450  -5.067  23.940  -5.037
    1XTA    HL7 3451  -4.809  23.800  -4.996
    1XTA    HL8 3452  -4.841  23.943  -5.084
    1XTA    HL9 3453  -5.015  23.796  -5.210
    1XTA   HL10 3454  -4.969  23.677  -5.094
    1XTA   HL11 3455  -4.882  23.648  -5.326
    1XTA   HL12 3456  -4.807  23.802  -5.309
    1XTA   HL13 3457  -4.665  23.582  -5.259
    1XTA   HL14 3458  -4.715  23.607  -5.098
    1XTA   HL15 3459  -4.558  23.811  -5.276
    1XTA   HL16 3460  -4.607  23.854  -5.116
    1XTA   HL17 3461  -4.316  23.784  -5.237
    1XTA   HL18 3462  -4.379  23.892  -5.105
    1XTA   HL19 3463  -4.371  23.742  -4.877
    1XTA   HL20 3464  -4.302  23.898  -4.894
    1XTA   HL21 3465  -4.148  23.653  -4.774
    1XTA   HL22 3466  -4.241  23.766  -4.672
    1XTA   HL23 3467  -4.107  23.810  -4.772
    1XTA   HL24 3468  -5.821  24.690  -5.102
    1XTA   HL25 3469  -5.804  24.693  -4.928
    1XTA    CO8 3470  -4.106  23.791  -5.076
    1XTA    CO9 3471  -4.240  23.577  -5.032
    1XTA    OA6 3472  -4.105  23.898  -5.097
    1XTA   HL42 3473  -4.064  23.733  -5.153
    1XTA   HL43 3474  -4.039  23.784  -4.992
    1XTA   HL48 3475  -4.111  23.544  -5.000
    1XTA   HL49 3476  -4.266  23.550  -5.131
    1XTA     NT 3477  -3.748  27.632  -7.778
    1XTA    CN1 3478  -3.858  27.574  -7.723
    1XTA     C1 3479  -3.978  27.578  -7.791
    1XTA     C2 3480  -4.093  27.527  -7.728
    1XTA     C3 3481  -4.093  27.477  -7.600
    1XTA     C4 3482  -3.970  27.469  -7.534
    1XTA     C5 3483  -3.851  27.523  -7.589
    1XTA    CN2 3484  -3.630  27.565  -7.752
    1XTA     C6 3485  -3.539  27.610  -7.660
    1XTA     C7 3486  -3.426  27.531  -7.632
    1XTA     C8 3487  -3.412  27.403  -7.690
    1XTA     C9 3488  -3.506  27.363  -7.784
    1XTA    C10 3489  -3.612  27.441  -7.811
    1XTA    CN3 3490  -3.743  27.756  -7.828
    1XTA    C11 3491  -3.817  27.862  -7.774
    1XTA    C12 3492  -3.807  27.997  -7.822
    1XTA    C13 3493  -3.720  28.032  -7.930
    1XTA    C14 3494  -3.639  27.926  -7.986
    1XTA    C15 3495  -3.653  27.792  -7.934
    1XTA     H1 3496  -3.988  27.619  -7.890
    1XTA     H2 3497  -4.195  27.534  -7.768
    1XTA     H3 3498  -3.955  27.420  -7.441
    1XTA     H4 3499  -3.763  27.509  -7.535
    1XTA     H5 3500  -3.553  27.699  -7.609
    1XTA     H6 3501  -3.365  27.576  -7.557
    1XTA     H7 3502  -3.477  27.279  -7.843
    1XTA     H8 3503  -3.693  27.399  -7.878
    1XTA     H9 3504  -3.875  27.839  -7.686
    1XTA    H10 3505  -3.854  28.078  -7.790
    1XTA    H11 3506  -3.571  27.943  -8.065
    1XTA    H12 3507  -3.589  27.715  -7.979
    1XTA    OA1 3508  -4.217  27.431  -7.557
    1XTA    CO1 3509  -4.219  27.375  -7.417
    1XTA    OA2 3510  -3.307  27.320  -7.662
    1XTA    CO2 3511  -3.213  27.374  -7.569
    1XTA    CL1 3512  -3.094  27.283  -7.544
    1XTA    CL2 3513  -2.986  27.355  -7.449
    1XTA    CL3 3514  -3.046  27.389  -7.306
    1XTA    CL4 3515  -2.951  27.465  -7.219
    1XTA    CO3 3516  -2.977  27.470  -7.068
    1XTA    OA3 3517  -2.857  27.491  -6.995
    1XTA    CO4 3518  -2.890  27.489  -6.857
    1XTA    CT1 3519  -2.756  27.494  -6.777
    1XTA    CL5 3520  -2.781  27.394  -6.663
    1XTA    CL6 3521  -2.661  27.348  -6.580
    1XTA    OA4 3522  -3.712  28.162  -7.986
    1XTA    CO5 3523  -3.828  28.252  -7.949
    1XTA    HL1 3524  -3.919  28.215  -7.991
    1XTA    HL2 3525  -4.312  27.319  -7.399
    1XTA    HL3 3526  -4.136  27.306  -7.399
    1XTA    HL4 3527  -4.217  27.450  -7.342
    1XTA    HL5 3528  -3.181  27.473  -7.603
    1XTA    HL6 3529  -3.268  27.394  -7.484
    1XTA    HL7 3530  -3.038  27.241  -7.630
    1XTA    HL8 3531  -3.131  27.200  -7.490
    1XTA    HL9 3532  -2.933  27.437  -7.513
    1XTA   HL10 3533  -2.899  27.292  -7.426
    1XTA   HL11 3534  -3.136  27.447  -7.324
    1XTA   HL12 3535  -3.078  27.297  -7.253
    1XTA   HL13 3536  -2.937  27.567  -7.261
    1XTA   HL14 3537  -2.856  27.406  -7.235
    1XTA   HL15 3538  -3.027  27.564  -7.044
    1XTA   HL16 3539  -3.036  27.384  -7.029
    1XTA   HL17 3540  -2.956  27.578  -6.848
    1XTA   HL18 3541  -2.946  27.405  -6.833
    1XTA   HL19 3542  -2.824  27.300  -6.693
    1XTA   HL20 3543  -2.852  27.440  -6.590
    1XTA   HL21 3544  -2.578  27.305  -6.642
    1XTA   HL22 3545  -2.693  27.267  -6.516
    1XTA   HL23 3546  -2.611  27.430  -6.516
    1XTA   HL24 3547  -3.821  28.345  -7.996
    1XTA   HL25 3548  -3.844  28.277  -7.846
    1XTA    CO8 3549  -2.741  27.638  -6.731
    1XTA    CO9 3550  -2.634  27.462  -6.864
    1XTA    OA6 3551  -2.714  27.724  -6.844
    1XTA   HL42 3552  -2.650  27.641  -6.658
    1XTA   HL43 3553  -2.826  27.663  -6.673
    1XTA   HL48 3554  -2.637  27.534  -6.940
    1XTA   HL49 3555  -2.544  27.485  -6.805
    1XTA     NT 3556  -8.130  27.627  -5.627
    1XTA    CN1 3557  -8.097  27.576  -5.505
    1XTA     C1 3558  -8.161  27.624  -5.386
    1XTA     C2 3559  -8.120  27.573  -5.264
    1XTA     C3 3560  -8.025  27.480  -5.248
    1XTA     C4 3561  -7.962  27.424  -5.365
    1XTA     C5 3562  -7.995  27.480  -5.490
    1XTA    CN2 3563  -8.099  27.754  -5.664
    1XTA     C6 3564  -8.140  27.865  -5.589
    1XTA     C7 3565  -8.107  27.996  -5.624
    1XTA     C8 3566  -8.015  28.027  -5.725
    1XTA     C9 3567  -7.963  27.913  -5.790
    1XTA    C10 3568  -8.010  27.780  -5.767
    1XTA    CN3 3569  -8.197  27.544  -5.710
    1XTA    C11 3570  -8.126  27.479  -5.813
    1XTA    C12 3571  -8.194  27.398  -5.909
    1XTA    C13 3572  -8.337  27.372  -5.894
    1XTA    C14 3573  -8.401  27.431  -5.783
    1XTA    C15 3574  -8.337  27.516  -5.695
    1XTA     H1 3575  -8.240  27.698  -5.390
    1XTA     H2 3576  -8.150  27.609  -5.164
    1XTA     H3 3577  -7.892  27.345  -5.355
    1XTA     H4 3578  -7.940  27.441  -5.576
    1XTA     H5 3579  -8.212  27.844  -5.509
    1XTA     H6 3580  -8.146  28.072  -5.565
    1XTA     H7 3581  -7.902  27.930  -5.879
    1XTA     H8 3582  -7.967  27.706  -5.831
    1XTA     H9 3583  -8.022  27.486  -5.824
    1XTA    H10 3584  -8.143  27.346  -5.985
    1XTA    H11 3585  -8.511  27.413  -5.777
    1XTA    H12 3586  -8.386  27.552  -5.609
    1XTA    OA1 3587  -7.995  27.451  -5.116
    1XTA    CO1 3588  -7.920  27.337  -5.098
    1XTA    OA2 3589  -7.978  28.158  -5.744
    1XTA    CO2 3590  -7.986  28.188  -5.876
    1XTA    CL1 3591  -7.951  28.341  -5.888
    1XTA    CL2 3592  -8.038  28.415  -5.984
    1XTA    CL3 3593  -8.021  28.563  -5.965
    1XTA    CL4 3594  -8.121  28.652  -6.036
    1XTA    CO3 3595  -8.122  28.792  -5.986
    1XTA    OA3 3596  -8.185  28.872  -6.089
    1XTA    CO4 3597  -8.189  29.003  -6.034
    1XTA    CT1 3598  -8.242  29.122  -6.131
    1XTA    CL5 3599  -8.394  29.103  -6.163
    1XTA    CL6 3600  -8.485  29.030  -6.058
    1XTA    OA4 3601  -8.408  27.288  -5.967
    1XTA    CO5 3602  -8.342  27.230  -6.074
    1XTA    HL1 3603  -8.273  27.290  -6.134
    1XTA    HL2 3604  -7.810  27.354  -5.114
    1XTA    HL3 3605  -7.920  27.301  -4.995
    1XTA    HL4 3606  -7.960  27.251  -5.155
    1XTA    HL5 3607  -7.918  28.129  -5.931
    1XTA    HL6 3608  -8.088  28.181  -5.915
    1XTA    HL7 3609  -7.845  28.357  -5.930
    1XTA    HL8 3610  -7.966  28.388  -5.796
    1XTA    HL9 3611  -8.135  28.376  -5.961
    1XTA   HL10 3612  -8.004  28.394  -6.089
    1XTA   HL11 3613  -8.023  28.583  -5.851
    1XTA   HL12 3614  -7.923  28.596  -5.996
    1XTA   HL13 3615  -8.221  28.620  -6.035
    1XTA   HL14 3616  -8.088  28.644  -6.141
    1XTA   HL15 3617  -8.189  28.803  -5.895
    1XTA   HL16 3618  -8.025  28.830  -5.964
    1XTA   HL17 3619  -8.262  28.985  -5.956
    1XTA   HL18 3620  -8.088  29.033  -5.993
    1XTA   HL19 3621  -8.416  29.055  -6.253
    1XTA   HL20 3622  -8.444  29.196  -6.189
    1XTA   HL21 3623  -8.584  29.013  -6.104
    1XTA   HL22 3624  -8.502  29.095  -5.973
    1XTA   HL23 3625  -8.445  28.936  -6.019
    1XTA   HL24 3626  -8.423  27.191  -6.128
    1XTA   HL25 3627  -8.273  27.152  -6.035
    1XTA    CO8 3628  -8.162  29.124  -6.265
    1XTA    CO9 3629  -8.214  29.247  -6.051
    1XTA    OA6 3630  -8.055  29.109  -6.238
    1XTA   HL42 3631  -8.168  29.222  -6.320
    1XTA   HL43 3632  -8.204  29.054  -6.327
    1XTA   HL48 3633  -8.247  29.352  -6.141
    1XTA   HL49 3634  -8.107  29.245  -6.045
    1XTA     NT 3635  -2.934  24.237  -7.816
    1XTA    CN1 3636  -2.966  24.207  -7.941
    1XTA     C1 3637  -2.949  24.076  -7.987
    1XTA     C2 3638  -2.980  24.038  -8.118
    1XTA     C3 3639  -3.026  24.132  -8.214
    1XTA     C4 3640  -3.027  24.269  -8.176
    1XTA     C5 3641  -3.000  24.307  -8.042
    1XTA    CN2 3642  -3.033  24.295  -7.749
    1XTA     C6 3643  -3.117  24.208  -7.675
    1XTA     C7 3644  -3.208  24.267  -7.585
    1XTA     C8 3645  -3.208  24.407  -7.560
    1XTA     C9 3646  -3.132  24.487  -7.644
    1XTA    C10 3647  -3.044  24.434  -7.740
    1XTA    CN3 3648  -2.808  24.266  -7.784
    1XTA    C11 3649  -2.735  24.358  -7.859
    1XTA    C12 3650  -2.597  24.386  -7.821
    1XTA    C13 3651  -2.537  24.315  -7.715
    1XTA    C14 3652  -2.619  24.225  -7.638
    1XTA    C15 3653  -2.752  24.202  -7.678
    1XTA     H1 3654  -2.924  24.001  -7.911
    1XTA     H2 3655  -2.977  23.940  -8.157
    1XTA     H3 3656  -3.045  24.348  -8.249
    1XTA     H4 3657  -3.012  24.408  -8.011
    1XTA     H5 3658  -3.101  24.106  -7.649
    1XTA     H6 3659  -3.268  24.211  -7.517
    1XTA     H7 3660  -3.120  24.592  -7.627
    1XTA     H8 3661  -2.980  24.508  -7.792
    1XTA     H9 3662  -2.777  24.413  -7.938
    1XTA    H10 3663  -2.543  24.462  -7.877
    1XTA    H11 3664  -2.574  24.161  -7.551
    1XTA    H12 3665  -2.824  24.132  -7.632
    1XTA    OA1 3666  -3.041  24.096  -8.346
    1XTA    CO1 3667  -3.151  24.154  -8.417
    1XTA    OA2 3668  -3.271  24.445  -7.447
    1XTA    CO2 3669  -3.310  24.578  -7.420
    1XTA    CL1 3670  -3.320  24.601  -7.270
    1XTA    CL2 3671  -3.350  24.743  -7.236
    1XTA    CL3 3672  -3.250  24.810  -7.147
    1XTA    CL4 3673  -3.125  24.845  -7.222
    1XTA    CO3 3674  -3.029  24.915  -7.123
    1XTA    OA3 3675  -2.904  24.950  -7.187
    1XTA    CO4 3676  -2.919  25.061  -7.273
    1XTA    CT1 3677  -2.789  25.138  -7.309
    1XTA    CL5 3678  -2.687  25.043  -7.363
    1XTA    CL6 3679  -2.640  24.924  -7.271
    1XTA    OA4 3680  -2.405  24.337  -7.688
    1XTA    CO5 3681  -2.366  24.321  -7.552
    1XTA    HL1 3682  -2.259  24.337  -7.535
    1XTA    HL2 3683  -3.246  24.128  -8.356
    1XTA    HL3 3684  -3.151  24.268  -8.424
    1XTA    HL4 3685  -3.168  24.117  -8.519
    1XTA    HL5 3686  -3.233  24.635  -7.459
    1XTA    HL6 3687  -3.403  24.599  -7.466
    1XTA    HL7 3688  -3.218  24.579  -7.230
    1XTA    HL8 3689  -3.369  24.515  -7.223
    1XTA    HL9 3690  -3.445  24.755  -7.193
    1XTA   HL10 3691  -3.366  24.804  -7.326
    1XTA   HL11 3692  -3.289  24.909  -7.112
    1XTA   HL12 3693  -3.233  24.752  -7.050
    1XTA   HL13 3694  -3.147  24.913  -7.302
    1XTA   HL14 3695  -3.074  24.761  -7.259
    1XTA   HL15 3696  -3.075  25.001  -7.078
    1XTA   HL16 3697  -3.006  24.839  -7.042
    1XTA   HL17 3698  -2.972  25.030  -7.363
    1XTA   HL18 3699  -2.986  25.144  -7.234
    1XTA   HL19 3700  -2.599  25.101  -7.389
    1XTA   HL20 3701  -2.723  24.998  -7.457
    1XTA   HL21 3702  -2.720  24.850  -7.263
    1XTA   HL22 3703  -2.620  24.960  -7.175
    1XTA   HL23 3704  -2.558  24.862  -7.302
    1XTA   HL24 3705  -2.380  24.226  -7.517
    1XTA   HL25 3706  -2.422  24.373  -7.480
    1XTA    CO8 3707  -2.738  25.205  -7.179
    1XTA    CO9 3708  -2.829  25.242  -7.417
    1XTA    OA6 3709  -2.802  25.287  -7.154
    1XTA   HL42 3710  -2.630  25.237  -7.185
    1XTA   HL43 3711  -2.757  25.137  -7.088
    1XTA   HL48 3712  -2.726  25.338  -7.433
    1XTA   HL49 3713  -2.834  25.187  -7.505
    1XTA     NT 3714  -3.222  27.497  -5.379
    1XTA    CN1 3715  -3.251  27.410  -5.283
    1XTA     C1 3716  -3.162  27.308  -5.240
    1XTA     C2 3717  -3.190  27.229  -5.126
    1XTA     C3 3718  -3.320  27.232  -5.069
    1XTA     C4 3719  -3.403  27.337  -5.116
    1XTA     C5 3720  -3.377  27.423  -5.221
    1XTA    CN2 3721  -3.135  27.594  -5.338
    1XTA     C6 3722  -2.997  27.584  -5.362
    1XTA     C7 3723  -2.914  27.665  -5.292
    1XTA     C8 3724  -2.960  27.765  -5.200
    1XTA     C9 3725  -3.101  27.772  -5.177
    1XTA    C10 3726  -3.189  27.688  -5.246
    1XTA    CN3 3727  -3.278  27.497  -5.501
    1XTA    C11 3728  -3.389  27.578  -5.529
    1XTA    C12 3729  -3.438  27.584  -5.662
    1XTA    C13 3730  -3.376  27.513  -5.764
    1XTA    C14 3731  -3.277  27.421  -5.729
    1XTA    C15 3732  -3.216  27.422  -5.599
    1XTA     H1 3733  -3.063  27.291  -5.276
    1XTA     H2 3734  -3.107  27.167  -5.087
    1XTA     H3 3735  -3.501  27.336  -5.070
    1XTA     H4 3736  -3.442  27.505  -5.249
    1XTA     H5 3737  -2.970  27.515  -5.431
    1XTA     H6 3738  -2.809  27.647  -5.302
    1XTA     H7 3739  -3.133  27.850  -5.104
    1XTA     H8 3740  -3.294  27.695  -5.234
    1XTA     H9 3741  -3.434  27.637  -5.457
    1XTA    H10 3742  -3.517  27.648  -5.687
    1XTA    H11 3743  -3.242  27.357  -5.802
    1XTA    H12 3744  -3.125  27.363  -5.582
    1XTA    OA1 3745  -3.360  27.156  -4.958
    1XTA    CO1 3746  -3.286  27.037  -4.943
    1XTA    OA2 3747  -2.863  27.839  -5.140
    1XTA    CO2 3748  -2.900  27.899  -5.012
    1XTA    CL1 3749  -2.773  27.930  -4.927
    1XTA    CL2 3750  -2.711  27.798  -4.884
    1XTA    CL3 3751  -2.598  27.820  -4.786
    1XTA    CL4 3752  -2.536  27.688  -4.756
    1XTA    CO3 3753  -2.405  27.697  -4.680
    1XTA    OA3 3754  -2.302  27.751  -4.770
    1XTA    CO4 3755  -2.165  27.745  -4.740
    1XTA    CT1 3756  -2.095  27.617  -4.792
    1XTA    CL5 3757  -1.946  27.642  -4.814
    1XTA    CL6 3758  -1.867  27.670  -4.693
    1XTA    OA4 3759  -3.422  27.522  -5.893
    1XTA    CO5 3760  -3.540  27.596  -5.918
    1XTA    HL1 3761  -3.523  27.702  -5.887
    1XTA    HL2 3762  -3.184  27.047  -4.921
    1XTA    HL3 3763  -3.333  26.993  -4.855
    1XTA    HL4 3764  -3.305  26.969  -5.028
    1XTA    HL5 3765  -2.952  27.991  -5.047
    1XTA    HL6 3766  -2.969  27.827  -4.960
    1XTA    HL7 3767  -2.805  27.995  -4.849
    1XTA    HL8 3768  -2.709  27.993  -4.988
    1XTA    HL9 3769  -2.660  27.763  -4.975
    1XTA   HL10 3770  -2.787  27.732  -4.844
    1XTA   HL11 3771  -2.533  27.886  -4.838
    1XTA   HL12 3772  -2.642  27.868  -4.698
    1XTA   HL13 3773  -2.510  27.625  -4.844
    1XTA   HL14 3774  -2.609  27.626  -4.705
    1XTA   HL15 3775  -2.417  27.755  -4.581
    1XTA   HL16 3776  -2.386  27.600  -4.653
    1XTA   HL17 3777  -2.123  27.834  -4.787
    1XTA   HL18 3778  -2.148  27.768  -4.637
    1XTA   HL19 3779  -1.935  27.734  -4.870
    1XTA   HL20 3780  -1.892  27.572  -4.877
    1XTA   HL21 3781  -1.758  27.703  -4.708
    1XTA   HL22 3782  -1.862  27.587  -4.621
    1XTA   HL23 3783  -1.924  27.748  -4.641
    1XTA   HL24 3784  -3.626  27.552  -5.872
    1XTA   HL25 3785  -3.542  27.588  -6.028
    1XTA    CO8 3786  -2.160  27.583  -4.933
    1XTA    CO9 3787  -2.105  27.496  -4.702
    1XTA    OA6 3788  -2.102  27.467  -4.993
    1XTA   HL42 3789  -2.143  27.671  -4.996
    1XTA   HL43 3790  -2.265  27.561  -4.914
    1XTA   HL48 3791  -2.052  27.412  -4.745
    1XTA   HL49 3792  -2.213  27.470  -4.712
    1XTA     NT 3793  -9.328  31.050  -8.114
    1XTA    CN1 3794  -9.429  31.033  -8.031
    1XTA     C1 3795  -9.409  31.058  -7.891
    1XTA     C2 3796  -9.520  31.031  -7.801
    1XTA     C3 3797  -9.643  30.979  -7.850
    1XTA     C4 3798  -9.655  30.952  -7.991
    1XTA     C5 3799  -9.551  30.984  -8.078
    1XTA    CN2 3800  -9.325  31.160  -8.196
    1XTA     C6 3801  -9.275  31.148  -8.326
    1XTA     C7 3802  -9.245  31.271  -8.395
    1XTA     C8 3803  -9.263  31.401  -8.345
    1XTA     C9 3804  -9.315  31.410  -8.211
    1XTA    C10 3805  -9.339  31.292  -8.140
    1XTA    CN3 3806  -9.214  30.971  -8.110
    1XTA    C11 3807  -9.222  30.848  -8.177
    1XTA    C12 3808  -9.103  30.767  -8.174
    1XTA    C13 3809  -8.991  30.801  -8.105
    1XTA    C14 3810  -8.981  30.933  -8.053
    1XTA    C15 3811  -9.095  31.016  -8.053
    1XTA     H1 3812  -9.311  31.089  -7.849
    1XTA     H2 3813  -9.511  31.053  -7.694
    1XTA     H3 3814  -9.754  30.921  -8.028
    1XTA     H4 3815  -9.566  30.967  -8.186
    1XTA     H5 3816  -9.244  31.050  -8.364
    1XTA     H6 3817  -9.213  31.261  -8.497
    1XTA     H7 3818  -9.325  31.504  -8.156
    1XTA     H8 3819  -9.378  31.297  -8.040
    1XTA     H9 3820  -9.325  30.823  -8.212
    1XTA    H10 3821  -9.106  30.668  -8.223
    1XTA    H11 3822  -8.888  30.964  -8.014
    1XTA    H12 3823  -9.095  31.117  -8.007
    1XTA    OA1 3824  -9.757  30.950  -7.779
    1XTA    CO1 3825  -9.765  31.018  -7.656
    1XTA    OA2 3826  -9.209  31.509  -8.410
    1XTA    CO2 3827  -9.121  31.592  -8.325
    1XTA    CL1 3828  -9.069  31.727  -8.383
    1XTA    CL2 3829  -8.964  31.785  -8.292
    1XTA    CL3 3830  -8.896  31.914  -8.351
    1XTA    CL4 3831  -8.794  31.957  -8.245
    1XTA    CO3 3832  -8.663  31.866  -8.243
    1XTA    OA3 3833  -8.556  31.927  -8.182
    1XTA    CO4 3834  -8.443  31.839  -8.172
    1XTA    CT1 3835  -8.400  31.832  -8.021
    1XTA    CL5 3836  -8.307  31.953  -7.974
    1XTA    CL6 3837  -8.355  32.096  -8.001
    1XTA    OA4 3838  -8.878  30.722  -8.112
    1XTA    CO5 3839  -8.815  30.708  -7.988
    1XTA    HL1 3840  -8.779  30.798  -7.946
    1XTA    HL2 3841  -9.688  30.977  -7.588
    1XTA    HL3 3842  -9.751  31.126  -7.668
    1XTA    HL4 3843  -9.859  31.012  -7.598
    1XTA    HL5 3844  -9.164  31.618  -8.231
    1XTA    HL6 3845  -9.030  31.536  -8.313
    1XTA    HL7 3846  -9.158  31.791  -8.398
    1XTA    HL8 3847  -9.030  31.702  -8.479
    1XTA    HL9 3848  -8.889  31.708  -8.275
    1XTA   HL10 3849  -9.013  31.813  -8.201
    1XTA   HL11 3850  -8.840  31.899  -8.442
    1XTA   HL12 3851  -8.970  31.992  -8.375
    1XTA   HL13 3852  -8.837  31.971  -8.144
    1XTA   HL14 3853  -8.767  32.055  -8.284
    1XTA   HL15 3854  -8.674  31.769  -8.191
    1XTA   HL16 3855  -8.628  31.844  -8.353
    1XTA   HL17 3856  -8.469  31.737  -8.213
    1XTA   HL18 3857  -8.353  31.872  -8.228
    1XTA   HL19 3858  -8.205  31.948  -8.019
    1XTA   HL20 3859  -8.288  31.943  -7.872
    1XTA   HL21 3860  -8.300  32.169  -7.945
    1XTA   HL22 3861  -8.456  32.127  -7.978
    1XTA   HL23 3862  -8.335  32.110  -8.106
    1XTA   HL24 3863  -8.719  30.646  -7.999
    1XTA   HL25 3864  -8.884  30.654  -7.925
    1XTA    CO8 3865  -8.326  31.696  -7.991
    1XTA    CO9 3866  -8.519  31.827  -7.930
    1XTA    OA6 3867  -8.205  31.679  -8.071
    1XTA   HL42 3868  -8.403  31.621  -7.997
    1XTA   HL43 3869  -8.299  31.692  -7.888
    1XTA   HL48 3870  -8.586  31.746  -7.960
    1XTA   HL49 3871  -8.591  31.909  -7.950
    1XTA     NT 3872  -6.474  31.686  -7.374
    1XTA    CN1 3873  -6.543  31.620  -7.466
    1XTA     C1 3874  -6.688  31.617  -7.464
    1XTA     C2 3875  -6.751  31.532  -7.553
    1XTA     C3 3876  -6.685  31.461  -7.653
    1XTA     C4 3877  -6.541  31.475  -7.663
    1XTA     C5 3878  -6.475  31.548  -7.565
    1XTA    CN2 3879  -6.431  31.620  -7.261
    1XTA     C6 3880  -6.535  31.576  -7.176
    1XTA     C7 3881  -6.510  31.518  -7.054
    1XTA     C8 3882  -6.376  31.508  -7.009
    1XTA     C9 3883  -6.270  31.541  -7.097
    1XTA    C10 3884  -6.300  31.584  -7.227
    1XTA    CN3 3885  -6.467  31.819  -7.384
    1XTA    C11 3886  -6.564  31.900  -7.328
    1XTA    C12 3887  -6.562  32.034  -7.356
    1XTA    C13 3888  -6.451  32.102  -7.416
    1XTA    C14 3889  -6.348  32.020  -7.465
    1XTA    C15 3890  -6.355  31.880  -7.445
    1XTA     H1 3891  -6.736  31.677  -7.397
    1XTA     H2 3892  -6.859  31.535  -7.548
    1XTA     H3 3893  -6.486  31.435  -7.744
    1XTA     H4 3894  -6.371  31.548  -7.560
    1XTA     H5 3895  -6.635  31.576  -7.218
    1XTA     H6 3896  -6.592  31.497  -6.990
    1XTA     H7 3897  -6.166  31.523  -7.068
    1XTA     H8 3898  -6.224  31.618  -7.296
    1XTA     H9 3899  -6.645  31.859  -7.270
    1XTA    H10 3900  -6.648  32.097  -7.332
    1XTA    H11 3901  -6.270  32.057  -7.522
    1XTA    H12 3902  -6.281  31.824  -7.486
    1XTA    OA1 3903  -6.740  31.375  -7.749
    1XTA    CO1 3904  -6.883  31.359  -7.740
    1XTA    OA2 3905  -6.363  31.448  -6.889
    1XTA    CO2 3906  -6.230  31.442  -6.837
    1XTA    CL1 3907  -6.244  31.379  -6.700
    1XTA    CL2 3908  -6.308  31.247  -6.700
    1XTA    CL3 3909  -6.282  31.168  -6.569
    1XTA    CL4 3910  -6.365  31.040  -6.556
    1XTA    CO3 3911  -6.343  30.977  -6.410
    1XTA    OA3 3912  -6.208  30.943  -6.382
    1XTA    CO4 3913  -6.200  30.852  -6.272
    1XTA    CT1 3914  -6.046  30.837  -6.229
    1XTA    CL5 3915  -5.962  30.796  -6.355
    1XTA    CL6 3916  -5.813  30.789  -6.346
    1XTA    OA4 3917  -6.449  32.236  -7.437
    1XTA    CO5 3918  -6.550  32.313  -7.379
    1XTA    HL1 3919  -6.522  32.413  -7.377
    1XTA    HL2 3920  -6.930  31.457  -7.750
    1XTA    HL3 3921  -6.919  31.295  -7.825
    1XTA    HL4 3922  -6.916  31.308  -7.651
    1XTA    HL5 3923  -6.168  31.376  -6.891
    1XTA    HL6 3924  -6.183  31.538  -6.809
    1XTA    HL7 3925  -6.289  31.446  -6.635
    1XTA    HL8 3926  -6.143  31.363  -6.658
    1XTA    HL9 3927  -6.275  31.194  -6.786
    1XTA   HL10 3928  -6.414  31.251  -6.711
    1XTA   HL11 3929  -6.174  31.154  -6.559
    1XTA   HL12 3930  -6.307  31.230  -6.488
    1XTA   HL13 3931  -6.314  30.976  -6.631
    1XTA   HL14 3932  -6.472  31.053  -6.568
    1XTA   HL15 3933  -6.393  31.040  -6.339
    1XTA   HL16 3934  -6.403  30.885  -6.412
    1XTA   HL17 3935  -6.259  30.888  -6.188
    1XTA   HL18 3936  -6.240  30.750  -6.294
    1XTA   HL19 3937  -5.985  30.863  -6.439
    1XTA   HL20 3938  -5.991  30.694  -6.392
    1XTA   HL21 3939  -5.766  30.885  -6.324
    1XTA   HL22 3940  -5.772  30.743  -6.435
    1XTA   HL23 3941  -5.791  30.718  -6.267
    1XTA   HL24 3942  -6.556  32.288  -7.270
    1XTA   HL25 3943  -6.640  32.301  -7.434
    1XTA    CO8 3944  -6.031  30.725  -6.128
    1XTA    CO9 3945  -5.985  30.970  -6.164
    1XTA    OA6 3946  -6.062  31.012  -6.052
    1XTA   HL42 3947  -6.086  30.750  -6.040
    1XTA   HL43 3948  -5.932  30.713  -6.087
    1XTA   HL48 3949  -5.975  31.056  -6.230
    1XTA   HL49 3950  -5.881  30.942  -6.133
    1XTA     NT 3951  -6.768  27.856  -7.552
    1XTA    CN1 3952  -6.783  27.747  -7.625
    1XTA     C1 3953  -6.756  27.737  -7.755
    1XTA     C2 3954  -6.787  27.620  -7.827
    1XTA     C3 3955  -6.830  27.504  -7.761
    1XTA     C4 3956  -6.835  27.512  -7.621
    1XTA     C5 3957  -6.822  27.629  -7.555
    1XTA    CN2 3958  -6.870  27.951  -7.549
    1XTA     C6 3959  -6.835  28.080  -7.603
    1XTA     C7 3960  -6.930  28.169  -7.610
    1XTA     C8 3961  -7.061  28.150  -7.551
    1XTA     C9 3962  -7.090  28.032  -7.490
    1XTA    C10 3963  -6.998  27.929  -7.502
    1XTA    CN3 3964  -6.652  27.869  -7.477
    1XTA    C11 3965  -6.534  27.935  -7.534
    1XTA    C12 3966  -6.417  27.939  -7.457
    1XTA    C13 3967  -6.412  27.896  -7.323
    1XTA    C14 3968  -6.527  27.829  -7.270
    1XTA    C15 3969  -6.644  27.820  -7.343
    1XTA     H1 3970  -6.727  27.820  -7.814
    1XTA     H2 3971  -6.758  27.625  -7.932
    1XTA     H3 3972  -6.877  27.430  -7.563
    1XTA     H4 3973  -6.843  27.640  -7.454
    1XTA     H5 3974  -6.730  28.099  -7.629
    1XTA     H6 3975  -6.898  28.263  -7.659
    1XTA     H7 3976  -7.179  28.019  -7.436
    1XTA     H8 3977  -7.015  27.834  -7.454
    1XTA     H9 3978  -6.541  27.976  -7.628
    1XTA    H10 3979  -6.327  27.981  -7.502
    1XTA    H11 3980  -6.513  27.788  -7.175
    1XTA    H12 3981  -6.732  27.780  -7.292
    1XTA    OA1 3982  -6.836  27.391  -7.830
    1XTA    CO1 3983  -6.842  27.273  -7.758
    1XTA    OA2 3984  -7.153  28.254  -7.555
    1XTA    CO2 3985  -7.283  28.233  -7.525
    1XTA    CL1 3986  -7.345  28.372  -7.546
    1XTA    CL2 3987  -7.496  28.369  -7.549
    1XTA    CL3 3988  -7.551  28.508  -7.597
    1XTA    CL4 3989  -7.686  28.533  -7.546
    1XTA    CO3 3990  -7.791  28.457  -7.624
    1XTA    OA3 3991  -7.786  28.324  -7.584
    1XTA    CO4 3992  -7.891  28.245  -7.639
    1XTA    CT1 3993  -7.875  28.100  -7.598
    1XTA    CL5 3994  -7.885  28.073  -7.448
    1XTA    CL6 3995  -8.016  28.124  -7.380
    1XTA    OA4 3996  -6.304  27.911  -7.241
    1XTA    CO5 3997  -6.180  27.955  -7.303
    1XTA    HL1 3998  -6.139  27.886  -7.368
    1XTA    HL2 3999  -6.937  27.274  -7.704
    1XTA    HL3 4000  -6.827  27.186  -7.824
    1XTA    HL4 4001  -6.770  27.258  -7.687
    1XTA    HL5 4002  -7.314  28.142  -7.591
    1XTA    HL6 4003  -7.303  28.206  -7.419
    1XTA    HL7 4004  -7.305  28.399  -7.642
    1XTA    HL8 4005  -7.312  28.448  -7.468
    1XTA    HL9 4006  -7.532  28.343  -7.449
    1XTA   HL10 4007  -7.547  28.295  -7.609
    1XTA   HL11 4008  -7.488  28.591  -7.558
    1XTA   HL12 4009  -7.547  28.507  -7.705
    1XTA   HL13 4010  -7.710  28.631  -7.569
    1XTA   HL14 4011  -7.686  28.511  -7.437
    1XTA   HL15 4012  -7.883  28.500  -7.587
    1XTA   HL16 4013  -7.791  28.472  -7.731
    1XTA   HL17 4014  -7.988  28.279  -7.601
    1XTA   HL18 4015  -7.883  28.261  -7.741
    1XTA   HL19 4016  -7.792  28.112  -7.405
    1XTA   HL20 4017  -7.898  27.965  -7.430
    1XTA   HL21 4018  -8.008  28.108  -7.270
    1XTA   HL22 4019  -8.100  28.058  -7.396
    1XTA   HL23 4020  -8.046  28.223  -7.390
    1XTA   HL24 4021  -6.100  27.966  -7.229
    1XTA   HL25 4022  -6.182  28.050  -7.358
    1XTA    CO8 4023  -7.736  28.064  -7.654
    1XTA    CO9 4024  -7.984  28.011  -7.661
    1XTA    OA6 4025  -7.740  28.059  -7.797
    1XTA   HL42 4026  -7.691  27.977  -7.611
    1XTA   HL43 4027  -7.666  28.144  -7.629
    1XTA   HL48 4028  -7.934  27.929  -7.712
    1XTA   HL49 4029  -8.040  27.958  -7.586
    1XTA     NT 4030  -8.107  29.915  -7.123
    1XTA    CN1 4031  -8.223  29.848  -7.109
    1XTA     C1 4032  -8.312  29.836  -7.218
    1XTA     C2 4033  -8.439  29.773  -7.206
    1XTA     C3 4034  -8.490  29.733  -7.082
    1XTA     C4 4035  -8.405  29.753  -6.966
    1XTA     C5 4036  -8.268  29.803  -6.982
    1XTA    CN2 4037  -8.082  30.029  -7.054
    1XTA     C6 4038  -8.038  30.031  -6.920
    1XTA     C7 4039  -8.021  30.150  -6.850
    1XTA     C8 4040  -8.057  30.272  -6.908
    1XTA     C9 4041  -8.080  30.278  -7.051
    1XTA    C10 4042  -8.096  30.157  -7.119
    1XTA    CN3 4043  -8.015  29.880  -7.212
    1XTA    C11 4044  -7.897  29.812  -7.174
    1XTA    C12 4045  -7.812  29.753  -7.276
    1XTA    C13 4046  -7.855  29.758  -7.412
    1XTA    C14 4047  -7.958  29.848  -7.445
    1XTA    C15 4048  -8.037  29.911  -7.347
    1XTA     H1 4049  -8.276  29.875  -7.307
    1XTA     H2 4050  -8.496  29.763  -7.294
    1XTA     H3 4051  -8.440  29.718  -6.868
    1XTA     H4 4052  -8.205  29.806  -6.897
    1XTA     H5 4053  -8.019  29.941  -6.871
    1XTA     H6 4054  -7.978  30.145  -6.748
    1XTA     H7 4055  -8.089  30.385  -7.080
    1XTA     H8 4056  -8.123  30.163  -7.221
    1XTA     H9 4057  -7.873  29.806  -7.068
    1XTA    H10 4058  -7.727  29.707  -7.240
    1XTA    H11 4059  -7.990  29.867  -7.546
    1XTA    H12 4060  -8.120  29.977  -7.372
    1XTA    OA1 4061  -8.623  29.686  -7.071
    1XTA    CO1 4062  -8.686  29.649  -7.188
    1XTA    OA2 4063  -8.043  30.378  -6.823
    1XTA    CO2 4064  -8.159  30.460  -6.809
    1XTA    CL1 4065  -8.129  30.611  -6.815
    1XTA    CL2 4066  -8.136  30.663  -6.961
    1XTA    CL3 4067  -8.275  30.669  -7.023
    1XTA    CL4 4068  -8.274  30.769  -7.146
    1XTA    CO3 4069  -8.179  30.750  -7.266
    1XTA    OA3 4070  -8.050  30.789  -7.221
    1XTA    CO4 4071  -7.961  30.820  -7.334
    1XTA    CT1 4072  -7.813  30.802  -7.298
    1XTA    CL5 4073  -7.790  30.661  -7.247
    1XTA    CL6 4074  -7.799  30.544  -7.347
    1XTA    OA4 4075  -7.774  29.689  -7.500
    1XTA    CO5 4076  -7.848  29.660  -7.620
    1XTA    HL1 4077  -7.920  29.584  -7.601
    1XTA    HL2 4078  -8.698  29.729  -7.261
    1XTA    HL3 4079  -8.619  29.573  -7.230
    1XTA    HL4 4080  -8.784  29.605  -7.157
    1XTA    HL5 4081  -8.236  30.445  -6.892
    1XTA    HL6 4082  -8.214  30.425  -6.723
    1XTA    HL7 4083  -8.027  30.617  -6.780
    1XTA    HL8 4084  -8.190  30.662  -6.745
    1XTA    HL9 4085  -8.063  30.604  -7.022
    1XTA   HL10 4086  -8.096  30.769  -6.958
    1XTA   HL11 4087  -8.312  30.573  -7.050
    1XTA   HL12 4088  -8.345  30.705  -6.947
    1XTA   HL13 4089  -8.265  30.865  -7.099
    1XTA   HL14 4090  -8.373  30.758  -7.186
    1XTA   HL15 4091  -8.184  30.648  -7.304
    1XTA   HL16 4092  -8.202  30.813  -7.351
    1XTA   HL17 4093  -7.986  30.747  -7.408
    1XTA   HL18 4094  -7.965  30.918  -7.365
    1XTA   HL19 4095  -7.866  30.636  -7.173
    1XTA   HL20 4096  -7.693  30.648  -7.196
    1XTA   HL21 4097  -7.697  30.541  -7.394
    1XTA   HL22 4098  -7.887  30.542  -7.421
    1XTA   HL23 4099  -7.802  30.448  -7.291
    1XTA   HL24 4100  -7.776  29.625  -7.701
    1XTA   HL25 4101  -7.880  29.749  -7.673
    1XTA    CO8 4102  -7.790  30.916  -7.188
    1XTA    CO9 4103  -7.727  30.836  -7.424
    1XTA    OA6 4104  -7.652  30.940  -7.141
    1XTA   HL42 4105  -7.847  30.879  -7.103
    1XTA   HL43 4106  -7.827  31.013  -7.215
    1XTA   HL48 4107  -7.758  30.934  -7.458
    1XTA   HL49 4108  -7.745  30.758  -7.505
    1XTA     NT 4109  -7.727  31.758  -8.992
    1XTA    CN1 4110  -7.728  31.787  -9.125
    1XTA     C1 4111  -7.805  31.719  -9.220
    1XTA     C2 4112  -7.791  31.754  -9.359
    1XTA     C3 4113  -7.700  31.851  -9.401
    1XTA     C4 4114  -7.636  31.925  -9.300
    1XTA     C5 4115  -7.647  31.892  -9.164
    1XTA    CN2 4116  -7.633  31.688  -8.936
    1XTA     C6 4117  -7.626  31.550  -8.954
    1XTA     C7 4118  -7.541  31.475  -8.877
    1XTA     C8 4119  -7.459  31.543  -8.783
    1XTA     C9 4120  -7.459  31.681  -8.770
    1XTA    C10 4121  -7.546  31.758  -8.850
    1XTA    CN3 4122  -7.833  31.794  -8.920
    1XTA    C11 4123  -7.941  31.705  -8.904
    1XTA    C12 4124  -8.046  31.738  -8.822
    1XTA    C13 4125  -8.055  31.862  -8.747
    1XTA    C14 4126  -7.951  31.953  -8.777
    1XTA    C15 4127  -7.834  31.917  -8.853
    1XTA     H1 4128  -7.885  31.661  -9.177
    1XTA     H2 4129  -7.843  31.697  -9.434
    1XTA     H3 4130  -7.566  32.003  -9.335
    1XTA     H4 4131  -7.590  31.940  -9.089
    1XTA     H5 4132  -7.687  31.493  -9.022
    1XTA     H6 4133  -7.549  31.369  -8.894
    1XTA     H7 4134  -7.398  31.721  -8.690
    1XTA     H8 4135  -7.552  31.866  -8.849
    1XTA     H9 4136  -7.938  31.601  -8.942
    1XTA    H10 4137  -8.120  31.659  -8.809
    1XTA    H11 4138  -7.949  32.047  -8.723
    1XTA    H12 4139  -7.758  31.988  -8.870
    1XTA    OA1 4140  -7.678  31.888  -9.533
    1XTA    CO1 4141  -7.701  31.782  -9.626
    1XTA    OA2 4142  -7.363  31.476  -8.705
    1XTA    CO2 4143  -7.375  31.335  -8.689
    1XTA    CL1 4144  -7.319  31.264  -8.811
    1XTA    CL2 4145  -7.352  31.111  -8.830
    1XTA    CL3 4146  -7.386  31.080  -8.972
    1XTA    CL4 4147  -7.257  31.054  -9.053
    1XTA    CO3 4148  -7.285  31.068  -9.194
    1XTA    OA3 4149  -7.157  31.045  -9.248
    1XTA    CO4 4150  -7.153  31.044  -9.393
    1XTA    CT1 4151  -7.018  30.974  -9.436
    1XTA    CL5 4152  -6.909  31.032  -9.352
    1XTA    CL6 4153  -6.896  31.186  -9.350
    1XTA    OA4 4154  -8.158  31.911  -8.682
    1XTA    CO5 4155  -8.284  31.835  -8.673
    1XTA    HL1 4156  -8.274  31.742  -8.721
    1XTA    HL2 4157  -7.804  31.748  -9.624
    1XTA    HL3 4158  -7.684  31.815  -9.726
    1XTA    HL4 4159  -7.631  31.698  -9.606
    1XTA    HL5 4160  -7.319  31.313  -8.598
    1XTA    HL6 4161  -7.478  31.297  -8.664
    1XTA    HL7 4162  -7.213  31.273  -8.813
    1XTA    HL8 4163  -7.334  31.316  -8.906
    1XTA    HL9 4164  -7.435  31.084  -8.766
    1XTA   HL10 4165  -7.268  31.051  -8.795
    1XTA   HL11 4166  -7.448  30.988  -8.982
    1XTA   HL12 4167  -7.447  31.166  -9.025
    1XTA   HL13 4168  -7.204  30.960  -9.025
    1XTA   HL14 4169  -7.188  31.136  -9.033
    1XTA   HL15 4170  -7.361  30.992  -9.218
    1XTA   HL16 4171  -7.317  31.166  -9.240
    1XTA   HL17 4172  -7.240  30.990  -9.439
    1XTA   HL18 4173  -7.156  31.152  -9.412
    1XTA   HL19 4174  -6.815  30.989  -9.388
    1XTA   HL20 4175  -6.921  30.998  -9.245
    1XTA   HL21 4176  -6.923  31.232  -9.442
    1XTA   HL22 4177  -6.800  31.226  -9.312
    1XTA   HL23 4178  -6.974  31.215  -9.278
    1XTA   HL24 4179  -8.359  31.894  -8.715
    1XTA   HL25 4180  -8.310  31.821  -8.568
    1XTA    CO8 4181  -6.982  30.987  -9.588
    1XTA    CO9 4182  -7.042  30.827  -9.417
    1XTA    OA6 4183  -6.997  30.761  -9.492
    1XTA   HL42 4184  -6.966  31.090  -9.614
    1XTA   HL43 4185  -6.846  30.942  -9.613
    1XTA   HL48 4186  -7.155  30.805  -9.417
    1XTA   HL49 4187  -7.012  30.801  -9.310
    1XTA     NT 4188  -6.320  28.294  -4.271
    1XTA    CN1 4189  -6.368  28.400  -4.202
    1XTA     C1 4190  -6.402  28.383  -4.068
    1XTA     C2 4191  -6.469  28.487  -3.995
    1XTA     C3 4192  -6.486  28.608  -4.057
    1XTA     C4 4193  -6.433  28.631  -4.186
    1XTA     C5 4194  -6.384  28.525  -4.262
    1XTA    CN2 4195  -6.408  28.201  -4.308
    1XTA     C6 4196  -6.513  28.234  -4.401
    1XTA     C7 4197  -6.609  28.129  -4.435
    1XTA     C8 4198  -6.588  27.996  -4.390
    1XTA     C9 4199  -6.478  27.970  -4.310
    1XTA    C10 4200  -6.394  28.068  -4.264
    1XTA    CN3 4201  -6.193  28.297  -4.318
    1XTA    C11 4202  -6.160  28.323  -4.452
    1XTA    C12 4203  -6.023  28.322  -4.493
    1XTA    C13 4204  -5.924  28.266  -4.404
    1XTA    C14 4205  -5.965  28.226  -4.277
    1XTA    C15 4206  -6.095  28.241  -4.236
    1XTA     H1 4207  -6.385  28.292  -4.014
    1XTA     H2 4208  -6.497  28.464  -3.895
    1XTA     H3 4209  -6.434  28.726  -4.228
    1XTA     H4 4210  -6.343  28.546  -4.361
    1XTA     H5 4211  -6.536  28.335  -4.443
    1XTA     H6 4212  -6.692  28.158  -4.493
    1XTA     H7 4213  -6.461  27.869  -4.284
    1XTA     H8 4214  -6.301  28.046  -4.203
    1XTA     H9 4215  -6.240  28.361  -4.521
    1XTA    H10 4216  -6.019  28.358  -4.596
    1XTA    H11 4217  -5.891  28.184  -4.209
    1XTA    H12 4218  -6.123  28.214  -4.136
    1XTA    OA1 4219  -6.551  28.717  -4.008
    1XTA    CO1 4220  -6.650  28.689  -3.912
    1XTA    OA2 4221  -6.677  27.908  -4.438
    1XTA    CO2 4222  -6.692  27.786  -4.366
    1XTA    CL1 4223  -6.822  27.725  -4.424
    1XTA    CL2 4224  -6.855  27.581  -4.376
    1XTA    CL3 4225  -6.911  27.584  -4.230
    1XTA    CL4 4226  -6.915  27.449  -4.167
    1XTA    CO3 4227  -6.927  27.445  -4.013
    1XTA    OA3 4228  -7.039  27.513  -3.979
    1XTA    CO4 4229  -7.054  27.527  -3.832
    1XTA    CT1 4230  -7.197  27.494  -3.778
    1XTA    CL5 4231  -7.212  27.525  -3.631
    1XTA    CL6 4232  -7.162  27.660  -3.576
    1XTA    OA4 4233  -5.790  28.263  -4.433
    1XTA    CO5 4234  -5.756  28.224  -4.570
    1XTA    HL1 4235  -5.807  28.130  -4.606
    1XTA    HL2 4236  -6.711  28.605  -3.945
    1XTA    HL3 4237  -6.599  28.658  -3.818
    1XTA    HL4 4238  -6.716  28.773  -3.876
    1XTA    HL5 4239  -6.598  27.723  -4.367
    1XTA    HL6 4240  -6.706  27.805  -4.262
    1XTA    HL7 4241  -6.805  27.708  -4.523
    1XTA    HL8 4242  -6.905  27.789  -4.400
    1XTA    HL9 4243  -6.757  27.527  -4.378
    1XTA   HL10 4244  -6.927  27.527  -4.435
    1XTA   HL11 4245  -6.835  27.652  -4.173
    1XTA   HL12 4246  -7.015  27.617  -4.213
    1XTA   HL13 4247  -6.820  27.400  -4.199
    1XTA   HL14 4248  -6.992  27.377  -4.206
    1XTA   HL15 4249  -6.938  27.342  -3.990
    1XTA   HL16 4250  -6.835  27.475  -3.962
    1XTA   HL17 4251  -6.989  27.460  -3.772
    1XTA   HL18 4252  -7.016  27.627  -3.808
    1XTA   HL19 4253  -7.162  27.444  -3.577
    1XTA   HL20 4254  -7.317  27.522  -3.614
    1XTA   HL21 4255  -7.210  27.750  -3.619
    1XTA   HL22 4256  -7.055  27.673  -3.594
    1XTA   HL23 4257  -7.171  27.665  -3.473
    1XTA   HL24 4258  -5.647  28.218  -4.583
    1XTA   HL25 4259  -5.776  28.306  -4.640
    1XTA    CO8 4260  -7.248  27.354  -3.804
    1XTA    CO9 4261  -7.289  27.591  -3.859
    1XTA    OA6 4262  -7.195  27.284  -3.738
    1XTA   HL42 4263  -7.230  27.339  -3.910
    1XTA   HL43 4264  -7.355  27.348  -3.786
    1XTA   HL48 4265  -7.410  27.590  -3.798
    1XTA   HL49 4266  -7.316  27.534  -3.947
    1XTA     NT 4267  -9.260  31.897  -9.964
    1XTA    CN1 4268  -9.325  32.016  -9.962
    1XTA     C1 4269  -9.265  32.137  -9.940
    1XTA     C2 4270  -9.342  32.255  -9.930
    1XTA     C3 4271  -9.479  32.253  -9.961
    1XTA     C4 4272  -9.538  32.136 -10.008
    1XTA     C5 4273  -9.464  32.014 -10.001
    1XTA    CN2 4274  -9.236  31.836  -9.850
    1XTA     C6 4275  -9.105  31.822  -9.799
    1XTA     C7 4276  -9.085  31.757  -9.678
    1XTA     C8 4277  -9.186  31.693  -9.606
    1XTA     C9 4278  -9.315  31.701  -9.662
    1XTA    C10 4279  -9.338  31.783  -9.775
    1XTA    CN3 4280  -9.201  31.859 -10.076
    1XTA    C11 4281  -9.244  31.743 -10.146
    1XTA    C12 4282  -9.192  31.709 -10.269
    1XTA    C13 4283  -9.096  31.792 -10.340
    1XTA    C14 4284  -9.042  31.904 -10.265
    1XTA    C15 4285  -9.096  31.933 -10.135
    1XTA     H1 4286  -9.160  32.145  -9.915
    1XTA     H2 4287  -9.285  32.338  -9.898
    1XTA     H3 4288  -9.639  32.147 -10.032
    1XTA     H4 4289  -9.493  31.916 -10.032
    1XTA     H5 4290  -9.031  31.892  -9.826
    1XTA     H6 4291  -8.987  31.748  -9.638
    1XTA     H7 4292  -9.398  31.646  -9.618
    1XTA     H8 4293  -9.425  31.788  -9.823
    1XTA     H9 4294  -9.333  31.688 -10.112
    1XTA    H10 4295  -9.222  31.620 -10.324
    1XTA    H11 4296  -8.964  31.959 -10.317
    1XTA    H12 4297  -9.056  32.022 -10.085
    1XTA    OA1 4298  -9.560  32.360  -9.941
    1XTA    CO1 4299  -9.500  32.476  -9.883
    1XTA    OA2 4300  -9.174  31.614  -9.494
    1XTA    CO2 4301  -9.043  31.563  -9.474
    1XTA    CL1 4302  -8.986  31.475  -9.586
    1XTA    CL2 4303  -9.082  31.377  -9.659
    1XTA    CL3 4304  -9.030  31.293  -9.777
    1XTA    CL4 4305  -9.050  31.356  -9.915
    1XTA    CO3 4306  -8.977  31.492  -9.940
    1XTA    OA3 4307  -8.846  31.468  -9.885
    1XTA    CO4 4308  -8.777  31.598  -9.885
    1XTA    CT1 4309  -8.630  31.591  -9.852
    1XTA    CL5 4310  -8.616  31.545  -9.701
    1XTA    CL6 4311  -8.467  31.515  -9.653
    1XTA    OA4 4312  -9.050  31.775 -10.464
    1XTA    CO5 4313  -9.117  31.666 -10.535
    1XTA    HL1 4314  -9.101  31.572 -10.475
    1XTA    HL2 4315  -9.399  32.494  -9.919
    1XTA    HL3 4316  -9.562  32.575  -9.898
    1XTA    HL4 4317  -9.491  32.451  -9.774
    1XTA    HL5 4318  -8.981  31.645  -9.449
    1XTA    HL6 4319  -9.044  31.505  -9.383
    1XTA    HL7 4320  -8.895  31.430  -9.544
    1XTA    HL8 4321  -8.941  31.540  -9.657
    1XTA    HL9 4322  -9.175  31.418  -9.684
    1XTA   HL10 4323  -9.111  31.302  -9.585
    1XTA   HL11 4324  -8.921  31.277  -9.763
    1XTA   HL12 4325  -9.077  31.194  -9.770
    1XTA   HL13 4326  -9.156  31.370  -9.925
    1XTA   HL14 4327  -9.035  31.282  -9.993
    1XTA   HL15 4328  -8.984  31.520 -10.050
    1XTA   HL16 4329  -9.029  31.581  -9.898
    1XTA   HL17 4330  -8.801  31.638  -9.984
    1XTA   HL18 4331  -8.816  31.671  -9.813
    1XTA   HL19 4332  -8.674  31.458  -9.686
    1XTA   HL20 4333  -8.664  31.620  -9.634
    1XTA   HL21 4334  -8.391  31.591  -9.686
    1XTA   HL22 4335  -8.440  31.421  -9.693
    1XTA   HL23 4336  -8.463  31.508  -9.546
    1XTA   HL24 4337  -9.060  31.650 -10.621
    1XTA   HL25 4338  -9.221  31.673 -10.547
    1XTA    CO8 4339  -8.555  31.725  -9.877
    1XTA    CO9 4340  -8.570  31.497  -9.952
    1XTA    OA6 4341  -8.593  31.526 -10.083
    1XTA   HL42 4342  -8.441  31.713  -9.884
    1XTA   HL43 4343  -8.570  31.774  -9.971
    1XTA   HL48 4344  -8.595  31.393  -9.932
    1XTA   HL49 4345  -8.468  31.499  -9.930
    1XTA     NT 4346  -5.572  26.795 -11.295
    1XTA    CN1 4347  -5.595  26.670 -11.354
    1XTA     C1 4348  -5.649  26.676 -11.484
    1XTA     C2 4349  -5.698  26.559 -11.548
    1XTA     C3 4350  -5.704  26.438 -11.477
    1XTA     C4 4351  -5.656  26.433 -11.348
    1XTA     C5 4352  -5.595  26.546 -11.287
    1XTA    CN2 4353  -5.673  26.845 -11.218
    1XTA     C6 4354  -5.683  26.828 -11.078
    1XTA     C7 4355  -5.791  26.887 -11.007
    1XTA     C8 4356  -5.898  26.940 -11.084
    1XTA     C9 4357  -5.882  26.955 -11.225
    1XTA    C10 4358  -5.771  26.907 -11.287
    1XTA    CN3 4359  -5.462  26.869 -11.330
    1XTA    C11 4360  -5.449  26.999 -11.281
    1XTA    C12 4361  -5.351  27.082 -11.333
    1XTA    C13 4362  -5.252  27.042 -11.425
    1XTA    C14 4363  -5.263  26.905 -11.465
    1XTA    C15 4364  -5.375  26.825 -11.426
    1XTA     H1 4365  -5.658  26.774 -11.536
    1XTA     H2 4366  -5.737  26.553 -11.644
    1XTA     H3 4367  -5.670  26.346 -11.281
    1XTA     H4 4368  -5.550  26.541 -11.185
    1XTA     H5 4369  -5.601  26.786 -11.033
    1XTA     H6 4370  -5.808  26.886 -10.907
    1XTA     H7 4371  -5.959  27.007 -11.279
    1XTA     H8 4372  -5.761  26.933 -11.396
    1XTA     H9 4373  -5.516  27.038 -11.213
    1XTA    H10 4374  -5.352  27.185 -11.304
    1XTA    H11 4375  -5.191  26.866 -11.533
    1XTA    H12 4376  -5.391  26.734 -11.474
    1XTA    OA1 4377  -5.762  26.328 -11.533
    1XTA    CO1 4378  -5.866  26.351 -11.630
    1XTA    OA2 4379  -6.007  26.981 -11.012
    1XTA    CO2 4380  -6.129  26.992 -11.090
    1XTA    CL1 4381  -6.237  26.960 -10.998
    1XTA    CL2 4382  -6.231  26.817 -10.943
    1XTA    CL3 4383  -6.334  26.792 -10.830
    1XTA    CL4 4384  -6.303  26.868 -10.698
    1XTA    CO3 4385  -6.375  26.805 -10.570
    1XTA    OA3 4386  -6.519  26.801 -10.575
    1XTA    CO4 4387  -6.583  26.677 -10.608
    1XTA    CT1 4388  -6.733  26.704 -10.625
    1XTA    CL5 4389  -6.746  26.831 -10.715
    1XTA    CL6 4390  -6.888  26.875 -10.751
    1XTA    OA4 4391  -5.162  27.133 -11.470
    1XTA    CO5 4392  -5.039  27.083 -11.526
    1XTA    HL1 4393  -4.983  27.037 -11.441
    1XTA    HL2 4394  -5.819  26.380 -11.727
    1XTA    HL3 4395  -5.910  26.256 -11.646
    1XTA    HL4 4396  -5.949  26.417 -11.614
    1XTA    HL5 4397  -6.132  27.101 -11.118
    1XTA    HL6 4398  -6.144  26.929 -11.176
    1XTA    HL7 4399  -6.337  26.979 -11.046
    1XTA    HL8 4400  -6.216  27.033 -10.916
    1XTA    HL9 4401  -6.135  26.795 -10.893
    1XTA   HL10 4402  -6.250  26.738 -11.012
    1XTA   HL11 4403  -6.434  26.819 -10.859
    1XTA   HL12 4404  -6.327  26.689 -10.805
    1XTA   HL13 4405  -6.344  26.968 -10.716
    1XTA   HL14 4406  -6.197  26.892 -10.684
    1XTA   HL15 4407  -6.344  26.691 -10.556
    1XTA   HL16 4408  -6.336  26.857 -10.476
    1XTA   HL17 4409  -6.542  26.641 -10.699
    1XTA   HL18 4410  -6.561  26.607 -10.534
    1XTA   HL19 4411  -6.693  26.812 -10.813
    1XTA   HL20 4412  -6.698  26.916 -10.673
    1XTA   HL21 4413  -6.940  26.917 -10.667
    1XTA   HL22 4414  -6.944  26.792 -10.790
    1XTA   HL23 4415  -6.877  26.949 -10.829
    1XTA   HL24 4416  -4.982  27.165 -11.564
    1XTA   HL25 4417  -5.046  27.007 -11.608
    1XTA    CO8 4418  -6.797  26.729 -10.491
    1XTA    CO9 4419  -6.808  26.578 -10.678
    1XTA    OA6 4420  -6.746  26.544 -10.798
    1XTA   HL42 4421  -6.756  26.832 -10.463
    1XTA   HL43 4422  -6.748  26.666 -10.415
    1XTA   HL48 4423  -6.905  26.610 -10.704
    1XTA   HL49 4424  -6.813  26.491 -10.613
    1XTA     NT 4425  -6.136  24.400 -12.257
    1XTA    CN1 4426  -6.138  24.312 -12.361
    1XTA     C1 4427  -6.251  24.250 -12.410
    1XTA     C2 4428  -6.248  24.169 -12.521
    1XTA     C3 4429  -6.127  24.135 -12.576
    1XTA     C4 4430  -6.004  24.185 -12.524
    1XTA     C5 4431  -6.011  24.278 -12.420
    1XTA    CN2 4432  -6.108  24.531 -12.266
    1XTA     C6 4433  -6.005  24.605 -12.200
    1XTA     C7 4434  -5.989  24.744 -12.219
    1XTA     C8 4435  -6.069  24.810 -12.313
    1XTA     C9 4436  -6.172  24.740 -12.376
    1XTA    C10 4437  -6.194  24.603 -12.356
    1XTA    CN3 4438  -6.165  24.357 -12.131
    1XTA    C11 4439  -6.062  24.302 -12.053
    1XTA    C12 4440  -6.089  24.268 -11.923
    1XTA    C13 4441  -6.211  24.297 -11.864
    1XTA    C14 4442  -6.312  24.355 -11.940
    1XTA    C15 4443  -6.291  24.389 -12.073
    1XTA     H1 4444  -6.343  24.274 -12.360
    1XTA     H2 4445  -6.341  24.123 -12.560
    1XTA     H3 4446  -5.907  24.154 -12.562
    1XTA     H4 4447  -5.924  24.329 -12.379
    1XTA     H5 4448  -5.951  24.561 -12.119
    1XTA     H6 4449  -5.914  24.795 -12.167
    1XTA     H7 4450  -6.234  24.786 -12.460
    1XTA     H8 4451  -6.263  24.546 -12.415
    1XTA     H9 4452  -5.964  24.275 -12.102
    1XTA    H10 4453  -5.999  24.231 -11.872
    1XTA    H11 4454  -6.403  24.380 -11.894
    1XTA    H12 4455  -6.369  24.430 -12.137
    1XTA    OA1 4456  -6.134  24.045 -12.675
    1XTA    CO1 4457  -6.018  24.038 -12.773
    1XTA    OA2 4458  -6.053  24.945 -12.332
    1XTA    CO2 4459  -6.158  25.011 -12.408
    1XTA    CL1 4460  -6.135  25.156 -12.397
    1XTA    CL2 4461  -6.122  25.183 -12.245
    1XTA    CL3 4462  -6.262  25.216 -12.193
    1XTA    CL4 4463  -6.284  25.172 -12.040
    1XTA    CO3 4464  -6.203  25.264 -11.948
    1XTA    OA3 4465  -6.221  25.253 -11.804
    1XTA    CO4 4466  -6.195  25.118 -11.751
    1XTA    CT1 4467  -6.232  25.109 -11.605
    1XTA    CL5 4468  -6.257  24.966 -11.566
    1XTA    CL6 4469  -6.367  24.890 -11.637
    1XTA    OA4 4470  -6.238  24.285 -11.733
    1XTA    CO5 4471  -6.150  24.222 -11.645
    1XTA    HL1 4472  -6.148  24.115 -11.668
    1XTA    HL2 4473  -6.048  23.975 -12.859
    1XTA    HL3 4474  -5.998  24.136 -12.814
    1XTA    HL4 4475  -5.929  23.994 -12.732
    1XTA    HL5 4476  -6.157  24.984 -12.514
    1XTA    HL6 4477  -6.264  24.989 -12.377
    1XTA    HL7 4478  -6.217  25.207 -12.440
    1XTA    HL8 4479  -6.049  25.197 -12.454
    1XTA    HL9 4480  -6.046  25.266 -12.236
    1XTA   HL10 4481  -6.069  25.108 -12.186
    1XTA   HL11 4482  -6.287  25.323 -12.183
    1XTA   HL12 4483  -6.336  25.170 -12.260
    1XTA   HL13 4484  -6.263  25.064 -12.041
    1XTA   HL14 4485  -6.386  25.185 -12.023
    1XTA   HL15 4486  -6.098  25.246 -11.965
    1XTA   HL16 4487  -6.232  25.369 -11.974
    1XTA   HL17 4488  -6.262  25.048 -11.798
    1XTA   HL18 4489  -6.090  25.094 -11.761
    1XTA   HL19 4490  -6.290  24.961 -11.460
    1XTA   HL20 4491  -6.163  24.903 -11.575
    1XTA   HL21 4492  -6.459  24.948 -11.650
    1XTA   HL22 4493  -6.389  24.793 -11.592
    1XTA   HL23 4494  -6.345  24.861 -11.741
    1XTA   HL24 4495  -6.179  24.232 -11.536
    1XTA   HL25 4496  -6.050  24.260 -11.651
    1XTA    CO8 4497  -6.361  25.194 -11.584
    1XTA    CO9 4498  -6.114  25.174 -11.522
    1XTA    OA6 4499  -6.396  25.201 -11.480
    1XTA   HL42 4500  -6.448  25.163 -11.638
    1XTA   HL43 4501  -6.349  25.299 -11.624
    1XTA   HL48 4502  -6.155  25.200 -11.393
    1XTA   HL49 4503  -6.104  25.272 -11.572
    1XTA     NT 4504  -7.771  24.399  -7.131
    1XTA    CN1 4505  -7.801  24.493  -7.217
    1XTA     C1 4506  -7.778  24.629  -7.194
    1XTA     C2 4507  -7.813  24.719  -7.294
    1XTA     C3 4508  -7.872  24.687  -7.413
    1XTA     C4 4509  -7.899  24.553  -7.432
    1XTA     C5 4510  -7.869  24.455  -7.335
    1XTA    CN2 4511  -7.852  24.378  -7.023
    1XTA     C6 4512  -7.833  24.455  -6.909
    1XTA     C7 4513  -7.910  24.435  -6.798
    1XTA     C8 4514  -8.004  24.331  -6.794
    1XTA     C9 4515  -8.028  24.253  -6.910
    1XTA    C10 4516  -7.952  24.278  -7.029
    1XTA    CN3 4517  -7.669  24.313  -7.162
    1XTA    C11 4518  -7.688  24.204  -7.242
    1XTA    C12 4519  -7.578  24.123  -7.273
    1XTA    C13 4520  -7.454  24.148  -7.219
    1XTA    C14 4521  -7.445  24.245  -7.121
    1XTA    C15 4522  -7.544  24.341  -7.105
    1XTA     H1 4523  -7.724  24.652  -7.106
    1XTA     H2 4524  -7.793  24.820  -7.285
    1XTA     H3 4525  -7.942  24.514  -7.526
    1XTA     H4 4526  -7.897  24.355  -7.361
    1XTA     H5 4527  -7.751  24.531  -6.914
    1XTA     H6 4528  -7.881  24.494  -6.708
    1XTA     H7 4529  -8.106  24.186  -6.914
    1XTA     H8 4530  -7.961  24.222  -7.120
    1XTA     H9 4531  -7.784  24.185  -7.290
    1XTA    H10 4532  -7.605  24.042  -7.327
    1XTA    H11 4533  -7.350  24.258  -7.069
    1XTA    H12 4534  -7.535  24.410  -7.026
    1XTA    OA1 4535  -7.888  24.784  -7.508
    1XTA    CO1 4536  -7.940  24.737  -7.632
    1XTA    OA2 4537  -8.066  24.292  -6.678
    1XTA    CO2 4538  -8.043  24.374  -6.563
    1XTA    CL1 4539  -8.144  24.328  -6.460
    1XTA    CL2 4540  -8.181  24.440  -6.370
    1XTA    CL3 4541  -8.291  24.396  -6.266
    1XTA    CL4 4542  -8.426  24.461  -6.296
    1XTA    CO3 4543  -8.528  24.411  -6.199
    1XTA    OA3 4544  -8.656  24.451  -6.241
    1XTA    CO4 4545  -8.762  24.424  -6.144
    1XTA    CT1 4546  -8.891  24.470  -6.214
    1XTA    CL5 4547  -9.019  24.447  -6.133
    1XTA    CL6 4548  -9.042  24.294  -6.095
    1XTA    OA4 4549  -7.353  24.053  -7.233
    1XTA    CO5 4550  -7.271  24.023  -7.121
    1XTA    HL1 4551  -7.336  24.016  -7.030
    1XTA    HL2 4552  -7.956  24.816  -7.703
    1XTA    HL3 4553  -7.851  24.683  -7.684
    1XTA    HL4 4554  -8.030  24.681  -7.617
    1XTA    HL5 4555  -7.933  24.367  -6.535
    1XTA    HL6 4556  -8.067  24.478  -6.581
    1XTA    HL7 4557  -8.099  24.251  -6.394
    1XTA    HL8 4558  -8.236  24.285  -6.514
    1XTA    HL9 4559  -8.211  24.531  -6.421
    1XTA   HL10 4560  -8.092  24.475  -6.309
    1XTA   HL11 4561  -8.307  24.285  -6.269
    1XTA   HL12 4562  -8.264  24.427  -6.160
    1XTA   HL13 4563  -8.459  24.428  -6.395
    1XTA   HL14 4564  -8.416  24.571  -6.284
    1XTA   HL15 4565  -8.535  24.300  -6.200
    1XTA   HL16 4566  -8.499  24.441  -6.100
    1XTA   HL17 4567  -8.759  24.314  -6.144
    1XTA   HL18 4568  -8.759  24.458  -6.039
    1XTA   HL19 4569  -9.104  24.466  -6.203
    1XTA   HL20 4570  -9.020  24.509  -6.044
    1XTA   HL21 4571  -8.958  24.246  -6.051
    1XTA   HL22 4572  -9.051  24.245  -6.188
    1XTA   HL23 4573  -9.131  24.279  -6.038
    1XTA   HL24 4574  -7.207  24.115  -7.119
    1XTA   HL25 4575  -7.207  23.936  -7.126
    1XTA    CO8 4576  -8.917  24.407  -6.348
    1XTA    CO9 4577  -8.892  24.607  -6.274
    1XTA    OA6 4578  -8.953  24.545  -6.384
    1XTA   HL42 4579  -8.992  24.327  -6.359
    1XTA   HL43 4580  -8.819  24.374  -6.383
    1XTA   HL48 4581  -8.795  24.649  -6.272
    1XTA   HL49 4582  -8.966  24.675  -6.227
    1XTA     NT 4583  -6.395  31.063 -11.640
    1XTA    CN1 4584  -6.281  31.001 -11.680
    1XTA     C1 4585  -6.166  31.015 -11.601
    1XTA     C2 4586  -6.043  30.942 -11.623
    1XTA     C3 4587  -6.039  30.864 -11.742
    1XTA     C4 4588  -6.152  30.848 -11.822
    1XTA     C5 4589  -6.273  30.911 -11.793
    1XTA    CN2 4590  -6.403  31.197 -11.638
    1XTA     C6 4591  -6.390  31.277 -11.518
    1XTA     C7 4592  -6.414  31.414 -11.522
    1XTA     C8 4593  -6.433  31.474 -11.653
    1XTA     C9 4594  -6.432  31.396 -11.768
    1XTA    C10 4595  -6.427  31.256 -11.762
    1XTA    CN3 4596  -6.501  30.992 -11.584
    1XTA    C11 4597  -6.626  30.990 -11.652
    1XTA    C12 4598  -6.744  30.934 -11.602
    1XTA    C13 4599  -6.734  30.853 -11.487
    1XTA    C14 4600  -6.607  30.852 -11.420
    1XTA    C15 4601  -6.492  30.918 -11.467
    1XTA     H1 4602  -6.169  31.095 -11.525
    1XTA     H2 4603  -5.953  30.953 -11.555
    1XTA     H3 4604  -6.159  30.779 -11.902
    1XTA     H4 4605  -6.356  30.903 -11.861
    1XTA     H5 4606  -6.377  31.227 -11.420
    1XTA     H6 4607  -6.428  31.472 -11.430
    1XTA     H7 4608  -6.442  31.442 -11.864
    1XTA     H8 4609  -6.433  31.200 -11.856
    1XTA     H9 4610  -6.646  31.059 -11.735
    1XTA    H10 4611  -6.843  30.948 -11.637
    1XTA    H11 4612  -6.597  30.802 -11.322
    1XTA    H12 4613  -6.400  30.932 -11.417
    1XTA    OA1 4614  -5.917  30.819 -11.785
    1XTA    CO1 4615  -5.915  30.754 -11.911
    1XTA    OA2 4616  -6.466  31.611 -11.659
    1XTA    CO2 4617  -6.610  31.638 -11.675
    1XTA    CL1 4618  -6.626  31.755 -11.770
    1XTA    CL2 4619  -6.773  31.800 -11.782
    1XTA    CL3 4620  -6.843  31.848 -11.650
    1XTA    CL4 4621  -6.988  31.878 -11.679
    1XTA    CO3 4622  -7.058  31.966 -11.577
    1XTA    OA3 4623  -7.134  31.881 -11.489
    1XTA    CO4 4624  -7.217  31.936 -11.395
    1XTA    CT1 4625  -7.299  31.818 -11.328
    1XTA    CL5 4626  -7.395  31.755 -11.428
    1XTA    CL6 4627  -7.335  31.677 -11.545
    1XTA    OA4 4628  -6.840  30.784 -11.429
    1XTA    CO5 4629  -6.959  30.785 -11.503
    1XTA    HL1 4630  -6.940  30.736 -11.597
    1XTA    HL2 4631  -5.812  30.717 -11.937
    1XTA    HL3 4632  -5.976  30.664 -11.900
    1XTA    HL4 4633  -5.955  30.810 -12.005
    1XTA    HL5 4634  -6.660  31.546 -11.713
    1XTA    HL6 4635  -6.647  31.652 -11.575
    1XTA    HL7 4636  -6.581  31.727 -11.866
    1XTA    HL8 4637  -6.567  31.838 -11.723
    1XTA    HL9 4638  -6.814  31.707 -11.821
    1XTA   HL10 4639  -6.784  31.876 -11.859
    1XTA   HL11 4640  -6.834  31.763 -11.590
    1XTA   HL12 4641  -6.800  31.928 -11.594
    1XTA   HL13 4642  -7.044  31.784 -11.701
    1XTA   HL14 4643  -6.999  31.929 -11.774
    1XTA   HL15 4644  -6.982  32.023 -11.528
    1XTA   HL16 4645  -7.111  32.040 -11.636
    1XTA   HL17 4646  -7.159  31.990 -11.320
    1XTA   HL18 4647  -7.276  32.007 -11.453
    1XTA   HL19 4648  -7.452  31.833 -11.469
    1XTA   HL20 4649  -7.479  31.709 -11.374
    1XTA   HL21 4650  -7.284  31.741 -11.613
    1XTA   HL22 4651  -7.403  31.635 -11.613
    1XTA   HL23 4652  -7.275  31.587 -11.509
    1XTA   HL24 4653  -6.998  30.882 -11.521
    1XTA   HL25 4654  -7.031  30.721 -11.459
    1XTA    CO8 4655  -7.382  31.885 -11.209
    1XTA    CO9 4656  -7.203  31.706 -11.263
    1XTA    OA6 4657  -7.259  31.625 -11.217
    1XTA   HL42 4658  -7.329  31.857 -11.114
    1XTA   HL43 4659  -7.495  31.813 -11.188
    1XTA   HL48 4660  -7.134  31.761 -11.204
    1XTA   HL49 4661  -7.139  31.654 -11.344
    1XTA     NT 4662  -3.557  30.380  -7.190
    1XTA    CN1 4663  -3.658  30.324  -7.265
    1XTA     C1 4664  -3.769  30.406  -7.308
    1XTA     C2 4665  -3.874  30.345  -7.380
    1XTA     C3 4666  -3.867  30.213  -7.415
    1XTA     C4 4667  -3.768  30.132  -7.365
    1XTA     C5 4668  -3.660  30.185  -7.296
    1XTA    CN2 4669  -3.579  30.386  -7.059
    1XTA     C6 4670  -3.578  30.274  -6.973
    1XTA     C7 4671  -3.593  30.283  -6.829
    1XTA     C8 4672  -3.614  30.412  -6.776
    1XTA     C9 4673  -3.624  30.524  -6.859
    1XTA    C10 4674  -3.610  30.510  -6.996
    1XTA    CN3 4675  -3.432  30.373  -7.240
    1XTA    C11 4676  -3.342  30.271  -7.206
    1XTA    C12 4677  -3.208  30.266  -7.258
    1XTA    C13 4678  -3.160  30.369  -7.338
    1XTA    C14 4679  -3.251  30.473  -7.373
    1XTA    C15 4680  -3.385  30.480  -7.325
    1XTA     H1 4681  -3.776  30.511  -7.290
    1XTA     H2 4682  -3.945  30.402  -7.427
    1XTA     H3 4683  -3.769  30.024  -7.373
    1XTA     H4 4684  -3.582  30.121  -7.260
    1XTA     H5 4685  -3.537  30.178  -7.011
    1XTA     H6 4686  -3.582  30.202  -6.768
    1XTA     H7 4687  -3.637  30.625  -6.823
    1XTA     H8 4688  -3.618  30.603  -7.058
    1XTA     H9 4689  -3.379  30.184  -7.142
    1XTA    H10 4690  -3.141  30.185  -7.230
    1XTA    H11 4691  -3.207  30.557  -7.425
    1XTA    H12 4692  -3.450  30.556  -7.348
    1XTA    OA1 4693  -3.972  30.166  -7.499
    1XTA    CO1 4694  -3.994  30.023  -7.515
    1XTA    OA2 4695  -3.625  30.432  -6.638
    1XTA    CO2 4696  -3.666  30.562  -6.591
    1XTA    CL1 4697  -3.653  30.549  -6.435
    1XTA    CL2 4698  -3.738  30.662  -6.374
    1XTA    CL3 4699  -3.665  30.794  -6.361
    1XTA    CL4 4700  -3.723  30.890  -6.255
    1XTA    CO3 4701  -3.650  30.879  -6.117
    1XTA    OA3 4702  -3.701  30.767  -6.051
    1XTA    CO4 4703  -3.664  30.754  -5.917
    1XTA    CT1 4704  -3.650  30.605  -5.865
    1XTA    CL5 4705  -3.514  30.532  -5.895
    1XTA    CL6 4706  -3.486  30.512  -6.041
    1XTA    OA4 4707  -3.034  30.379  -7.400
    1XTA    CO5 4708  -2.950  30.266  -7.404
    1XTA    HL1 4709  -2.898  30.270  -7.305
    1XTA    HL2 4710  -3.919  29.969  -7.580
    1XTA    HL3 4711  -3.996  29.971  -7.420
    1XTA    HL4 4712  -4.087  30.012  -7.559
    1XTA    HL5 4713  -3.597  30.639  -6.622
    1XTA    HL6 4714  -3.763  30.588  -6.635
    1XTA    HL7 4715  -3.551  30.552  -6.397
    1XTA    HL8 4716  -3.691  30.455  -6.403
    1XTA    HL9 4717  -3.765  30.631  -6.270
    1XTA   HL10 4718  -3.831  30.686  -6.429
    1XTA   HL11 4719  -3.565  30.789  -6.337
    1XTA   HL12 4720  -3.666  30.842  -6.463
    1XTA   HL13 4721  -3.824  30.868  -6.245
    1XTA   HL14 4722  -3.720  30.993  -6.285
    1XTA   HL15 4723  -3.543  30.883  -6.137
    1XTA   HL16 4724  -3.679  30.962  -6.057
    1XTA   HL17 4725  -3.573  30.802  -5.888
    1XTA   HL18 4726  -3.746  30.801  -5.871
    1XTA   HL19 4727  -3.514  30.426  -5.853
    1XTA   HL20 4728  -3.439  30.595  -5.851
    1XTA   HL21 4729  -3.554  30.560  -6.109
    1XTA   HL22 4730  -3.464  30.412  -6.069
    1XTA   HL23 4731  -3.390  30.568  -6.056
    1XTA   HL24 4732  -2.873  30.279  -7.479
    1XTA   HL25 4733  -3.005  30.174  -7.415
    1XTA    CO8 4734  -3.771  30.520  -5.920
    1XTA    CO9 4735  -3.668  30.604  -5.712
    1XTA    OA6 4736  -3.779  30.427  -5.869
    1XTA   HL42 4737  -3.750  30.496  -6.026
    1XTA   HL43 4738  -3.860  30.580  -5.915
    1XTA   HL48 4739  -3.789  30.669  -5.685
    1XTA   HL49 4740  -3.665  30.503  -5.679
    1XTA     NT 4741  -5.209  24.658 -12.723
    1XTA    CN1 4742  -5.212  24.527 -12.692
    1XTA     C1 4743  -5.116  24.480 -12.604
    1XTA     C2 4744  -5.105  24.343 -12.577
    1XTA     C3 4745  -5.192  24.251 -12.635
    1XTA     C4 4746  -5.288  24.295 -12.730
    1XTA     C5 4747  -5.300  24.437 -12.758
    1XTA    CN2 4748  -5.286  24.741 -12.654
    1XTA     C6 4749  -5.419  24.768 -12.688
    1XTA     C7 4750  -5.502  24.857 -12.614
    1XTA     C8 4751  -5.444  24.921 -12.502
    1XTA     C9 4752  -5.311  24.894 -12.466
    1XTA    C10 4753  -5.226  24.809 -12.547
    1XTA    CN3 4754  -5.143  24.708 -12.832
    1XTA    C11 4755  -5.027  24.785 -12.812
    1XTA    C12 4756  -4.957  24.833 -12.929
    1XTA    C13 4757  -4.999  24.805 -13.062
    1XTA    C14 4758  -5.110  24.717 -13.077
    1XTA    C15 4759  -5.180  24.669 -12.963
    1XTA     H1 4760  -5.041  24.553 -12.565
    1XTA     H2 4761  -5.035  24.306 -12.512
    1XTA     H3 4762  -5.342  24.217 -12.794
    1XTA     H4 4763  -5.379  24.476 -12.819
    1XTA     H5 4764  -5.449  24.708 -12.772
    1XTA     H6 4765  -5.611  24.863 -12.637
    1XTA     H7 4766  -5.255  24.950 -12.386
    1XTA     H8 4767  -5.123  24.784 -12.529
    1XTA     H9 4768  -4.991  24.818 -12.721
    1XTA    H10 4769  -4.870  24.899 -12.918
    1XTA    H11 4770  -5.154  24.686 -13.169
    1XTA    H12 4771  -5.283  24.625 -12.982
    1XTA    OA1 4772  -5.161  24.120 -12.622
    1XTA    CO1 4773  -5.250  24.018 -12.677
    1XTA    OA2 4774  -5.528  25.001 -12.428
    1XTA    CO2 4775  -5.516  24.980 -12.288
    1XTA    CL1 4776  -5.627  25.070 -12.233
    1XTA    CL2 4777  -5.649  25.064 -12.081
    1XTA    CL3 4778  -5.522  25.082 -11.991
    1XTA    CL4 4779  -5.555  25.123 -11.849
    1XTA    CO3 4780  -5.630  25.011 -11.776
    1XTA    OA3 4781  -5.681  25.063 -11.651
    1XTA    CO4 4782  -5.748  24.963 -11.583
    1XTA    CT1 4783  -5.794  25.029 -11.451
    1XTA    CL5 4784  -5.854  24.916 -11.368
    1XTA    CL6 4785  -5.917  24.955 -11.236
    1XTA    OA4 4786  -4.932  24.856 -13.177
    1XTA    CO5 4787  -4.991  24.835 -13.299
    1XTA    HL1 4788  -5.087  24.864 -13.314
    1XTA    HL2 4789  -5.350  24.014 -12.632
    1XTA    HL3 4790  -5.256  24.035 -12.784
    1XTA    HL4 4791  -5.206  23.914 -12.668
    1XTA    HL5 4792  -5.540  24.883 -12.260
    1XTA    HL6 4793  -5.420  24.984 -12.230
    1XTA    HL7 4794  -5.717  25.051 -12.297
    1XTA    HL8 4795  -5.592  25.162 -12.255
    1XTA    HL9 4796  -5.714  24.983 -12.062
    1XTA   HL10 4797  -5.714  25.146 -12.061
    1XTA   HL11 4798  -5.473  24.987 -11.993
    1XTA   HL12 4799  -5.450  25.153 -12.033
    1XTA   HL13 4800  -5.615  25.218 -11.848
    1XTA   HL14 4801  -5.462  25.143 -11.795
    1XTA   HL15 4802  -5.718  24.979 -11.847
    1XTA   HL16 4803  -5.560  24.930 -11.762
    1XTA   HL17 4804  -5.836  24.924 -11.637
    1XTA   HL18 4805  -5.692  24.876 -11.571
    1XTA   HL19 4806  -5.779  24.839 -11.352
    1XTA   HL20 4807  -5.935  24.869 -11.420
    1XTA   HL21 4808  -6.013  25.003 -11.258
    1XTA   HL22 4809  -5.859  25.024 -11.182
    1XTA   HL23 4810  -5.937  24.865 -11.176
    1XTA   HL24 4811  -4.986  24.725 -13.316
    1XTA   HL25 4812  -4.926  24.878 -13.373
    1XTA    CO8 4813  -5.908  25.140 -11.483
    1XTA    CO9 4814  -5.676  25.094 -11.376
    1XTA    OA6 4815  -5.995  25.089 -11.529
    1XTA   HL42 4816  -5.867  25.208 -11.555
    1XTA   HL43 4817  -5.921  25.204 -11.394
    1XTA   HL48 4818  -5.582  25.155 -11.461
    1XTA   HL49 4819  -5.715  25.162 -11.297
    1XTA     NT 4820  -8.294  30.924  -9.799
    1XTA    CN1 4821  -8.415  30.973  -9.764
    1XTA     C1 4822  -8.521  30.884  -9.745
    1XTA     C2 4823  -8.651  30.923  -9.706
    1XTA     C3 4824  -8.677  31.060  -9.677
    1XTA     C4 4825  -8.563  31.147  -9.692
    1XTA     C5 4826  -8.435  31.106  -9.732
    1XTA    CN2 4827  -8.201  30.896  -9.703
    1XTA     C6 4828  -8.114  30.788  -9.713
    1XTA     C7 4829  -8.022  30.760  -9.616
    1XTA     C8 4830  -8.012  30.841  -9.503
    1XTA     C9 4831  -8.093  30.959  -9.499
    1XTA    C10 4832  -8.180  30.988  -9.597
    1XTA    CN3 4833  -8.260  30.952  -9.927
    1XTA    C11 4834  -8.145  31.030  -9.959
    1XTA    C12 4835  -8.110  31.057 -10.094
    1XTA    C13 4836  -8.185  31.014 -10.200
    1XTA    C14 4837  -8.308  30.945 -10.175
    1XTA    C15 4838  -8.342  30.917 -10.039
    1XTA     H1 4839  -8.503  30.781  -9.768
    1XTA     H2 4840  -8.727  30.846  -9.692
    1XTA     H3 4841  -8.566  31.254  -9.664
    1XTA     H4 4842  -8.359  31.174  -9.743
    1XTA     H5 4843  -8.121  30.729  -9.801
    1XTA     H6 4844  -7.962  30.667  -9.620
    1XTA     H7 4845  -8.094  31.034  -9.420
    1XTA     H8 4846  -8.236  31.077  -9.576
    1XTA     H9 4847  -8.095  31.077  -9.878
    1XTA    H10 4848  -8.012  31.112 -10.108
    1XTA    H11 4849  -8.371  30.924 -10.257
    1XTA    H12 4850  -8.435  30.864 -10.023
    1XTA    OA1 4851  -8.794  31.118  -9.630
    1XTA    CO1 4852  -8.901  31.033  -9.624
    1XTA    OA2 4853  -7.929  30.804  -9.399
    1XTA    CO2 4854  -7.937  30.879  -9.281
    1XTA    CL1 4855  -7.814  30.842  -9.195
    1XTA    CL2 4856  -7.673  30.898  -9.241
    1XTA    CL3 4857  -7.605  30.808  -9.346
    1XTA    CL4 4858  -7.510  30.895  -9.432
    1XTA    CO3 4859  -7.485  30.829  -9.570
    1XTA    OA3 4860  -7.395  30.911  -9.643
    1XTA    CO4 4861  -7.343  30.850  -9.757
    1XTA    CT1 4862  -7.258  30.953  -9.837
    1XTA    CL5 4863  -7.162  30.886  -9.938
    1XTA    CL6 4864  -7.226  30.796 -10.042
    1XTA    OA4 4865  -8.146  31.055 -10.320
    1XTA    CO5 4866  -8.212  31.010 -10.436
    1XTA    HL1 4867  -8.207  30.906 -10.438
    1XTA    HL2 4868  -8.911  30.991  -9.721
    1XTA    HL3 4869  -8.862  30.969  -9.552
    1XTA    HL4 4870  -8.998  31.080  -9.606
    1XTA    HL5 4871  -7.935  30.981  -9.310
    1XTA    HL6 4872  -8.032  30.849  -9.235
    1XTA    HL7 4873  -7.809  30.737  -9.184
    1XTA    HL8 4874  -7.829  30.894  -9.104
    1XTA    HL9 4875  -7.618  30.920  -9.154
    1XTA   HL10 4876  -7.701  30.996  -9.288
    1XTA   HL11 4877  -7.557  30.719  -9.300
    1XTA   HL12 4878  -7.678  30.764  -9.414
    1XTA   HL13 4879  -7.410  30.888  -9.384
    1XTA   HL14 4880  -7.542  30.997  -9.439
    1XTA   HL15 4881  -7.439  30.733  -9.549
    1XTA   HL16 4882  -7.581  30.815  -9.617
    1XTA   HL17 4883  -7.280  30.771  -9.726
    1XTA   HL18 4884  -7.414  30.804  -9.819
    1XTA   HL19 4885  -7.086  30.830  -9.890
    1XTA   HL20 4886  -7.113  30.967  -9.998
    1XTA   HL21 4887  -7.304  30.844 -10.099
    1XTA   HL22 4888  -7.258  30.708  -9.992
    1XTA   HL23 4889  -7.155  30.761 -10.112
    1XTA   HL24 4890  -8.162  31.044 -10.532
    1XTA   HL25 4891  -8.318  31.047 -10.444
    1XTA    CO8 4892  -7.165  31.033  -9.741
    1XTA    CO9 4893  -7.351  31.057  -9.907
    1XTA    OA6 4894  -7.067  30.940  -9.690
    1XTA   HL42 4895  -7.221  31.073  -9.656
    1XTA   HL43 4896  -7.115  31.118  -9.794
    1XTA   HL48 4897  -7.440  31.009  -9.953
    1XTA   HL49 4898  -7.391  31.133  -9.840
    1XTA     NT 4899  -3.885  29.835  -4.612
    1XTA    CN1 4900  -3.805  29.739  -4.558
    1XTA     C1 4901  -3.734  29.650  -4.637
    1XTA     C2 4902  -3.653  29.549  -4.586
    1XTA     C3 4903  -3.640  29.531  -4.443
    1XTA     C4 4904  -3.707  29.616  -4.359
    1XTA     C5 4905  -3.788  29.722  -4.414
    1XTA    CN2 4906  -4.019  29.817  -4.621
    1XTA     C6 4907  -4.103  29.802  -4.509
    1XTA     C7 4908  -4.238  29.773  -4.519
    1XTA     C8 4909  -4.294  29.767  -4.650
    1XTA     C9 4910  -4.219  29.801  -4.759
    1XTA    C10 4911  -4.081  29.826  -4.748
    1XTA    CN3 4912  -3.829  29.954  -4.642
    1XTA    C11 4913  -3.809  30.051  -4.541
    1XTA    C12 4914  -3.760  30.181  -4.582
    1XTA    C13 4915  -3.738  30.214  -4.718
    1XTA    C14 4916  -3.751  30.108  -4.810
    1XTA    C15 4917  -3.805  29.987  -4.777
    1XTA     H1 4918  -3.749  29.665  -4.746
    1XTA     H2 4919  -3.588  29.485  -4.650
    1XTA     H3 4920  -3.698  29.602  -4.257
    1XTA     H4 4921  -3.841  29.781  -4.340
    1XTA     H5 4922  -4.060  29.802  -4.409
    1XTA     H6 4923  -4.299  29.765  -4.437
    1XTA     H7 4924  -4.260  29.809  -4.857
    1XTA     H8 4925  -4.018  29.848  -4.836
    1XTA     H9 4926  -3.843  30.025  -4.438
    1XTA    H10 4927  -3.759  30.264  -4.499
    1XTA    H11 4928  -3.727  30.138  -4.907
    1XTA    H12 4929  -3.824  29.911  -4.852
    1XTA    OA1 4930  -3.565  29.432  -4.384
    1XTA    CO1 4931  -3.497  29.341  -4.472
    1XTA    OA2 4932  -4.430  29.742  -4.664
    1XTA    CO2 4933  -4.484  29.789  -4.788
    1XTA    CL1 4934  -4.470  29.690  -4.910
    1XTA    CL2 4935  -4.574  29.729  -5.020
    1XTA    CL3 4936  -4.539  29.861  -5.099
    1XTA    CL4 4937  -4.409  29.832  -5.176
    1XTA    CO3 4938  -4.386  29.944  -5.283
    1XTA    OA3 4939  -4.478  29.931  -5.391
    1XTA    CO4 4940  -4.451  30.022  -5.497
    1XTA    CT1 4941  -4.535  30.001  -5.621
    1XTA    CL5 4942  -4.526  29.843  -5.649
    1XTA    CL6 4943  -4.603  29.785  -5.760
    1XTA    OA4 4944  -3.696  30.336  -4.767
    1XTA    CO5 4945  -3.593  30.335  -4.862
    1XTA    HL1 4946  -3.628  30.286  -4.955
    1XTA    HL2 4947  -3.433  29.397  -4.546
    1XTA    HL3 4948  -3.436  29.273  -4.410
    1XTA    HL4 4949  -3.574  29.295  -4.542
    1XTA    HL5 4950  -4.586  29.811  -4.757
    1XTA    HL6 4951  -4.444  29.889  -4.813
    1XTA    HL7 4952  -4.494  29.591  -4.867
    1XTA    HL8 4953  -4.364  29.672  -4.940
    1XTA    HL9 4954  -4.661  29.750  -4.958
    1XTA   HL10 4955  -4.585  29.644  -5.079
    1XTA   HL11 4956  -4.622  29.877  -5.165
    1XTA   HL12 4957  -4.537  29.945  -5.031
    1XTA   HL13 4958  -4.410  29.734  -5.227
    1XTA   HL14 4959  -4.335  29.832  -5.100
    1XTA   HL15 4960  -4.386  30.048  -5.244
    1XTA   HL16 4961  -4.288  29.913  -5.323
    1XTA   HL17 4962  -4.468  30.123  -5.458
    1XTA   HL18 4963  -4.344  30.015  -5.516
    1XTA   HL19 4964  -4.559  29.790  -5.556
    1XTA   HL20 4965  -4.428  29.821  -5.670
    1XTA   HL21 4966  -4.709  29.820  -5.764
    1XTA   HL22 4967  -4.599  29.677  -5.774
    1XTA   HL23 4968  -4.557  29.815  -5.860
    1XTA   HL24 4969  -3.507  30.290  -4.809
    1XTA   HL25 4970  -3.552  30.433  -4.883
    1XTA    CO8 4971  -4.490  30.093  -5.736
    1XTA    CO9 4972  -4.681  30.047  -5.581
    1XTA    OA6 4973  -4.740  30.049  -5.672
    1XTA   HL42 4974  -4.483  30.193  -5.694
    1XTA   HL43 4975  -4.562  30.086  -5.851
    1XTA   HL48 4976  -4.688  30.149  -5.542
    1XTA   HL49 4977  -4.712  29.979  -5.503
    1XTA     NT 4978  -7.465  27.431  -6.311
    1XTA    CN1 4979  -7.551  27.457  -6.408
    1XTA     C1 4980  -7.502  27.464  -6.537
    1XTA     C2 4981  -7.595  27.497  -6.632
    1XTA     C3 4982  -7.728  27.523  -6.604
    1XTA     C4 4983  -7.775  27.509  -6.476
    1XTA     C5 4984  -7.687  27.479  -6.376
    1XTA    CN2 4985  -7.345  27.495  -6.296
    1XTA     C6 4986  -7.335  27.605  -6.211
    1XTA     C7 4987  -7.212  27.660  -6.172
    1XTA     C8 4988  -7.089  27.612  -6.225
    1XTA     C9 4989  -7.102  27.506  -6.317
    1XTA    C10 4990  -7.226  27.454  -6.364
    1XTA    CN3 4991  -7.471  27.327  -6.228
    1XTA    C11 4992  -7.496  27.344  -6.092
    1XTA    C12 4993  -7.499  27.238  -6.006
    1XTA    C13 4994  -7.471  27.111  -6.054
    1XTA    C14 4995  -7.452  27.087  -6.191
    1XTA    C15 4996  -7.455  27.196  -6.279
    1XTA     H1 4997  -7.398  27.443  -6.560
    1XTA     H2 4998  -7.561  27.503  -6.735
    1XTA     H3 4999  -7.883  27.523  -6.453
    1XTA     H4 5000  -7.718  27.484  -6.273
    1XTA     H5 5001  -7.423  27.650  -6.161
    1XTA     H6 5002  -7.203  27.744  -6.101
    1XTA     H7 5003  -7.013  27.463  -6.357
    1XTA     H8 5004  -7.214  27.370  -6.438
    1XTA     H9 5005  -7.494  27.449  -6.056
    1XTA    H10 5006  -7.518  27.264  -5.902
    1XTA    H11 5007  -7.428  26.991  -6.226
    1XTA    H12 5008  -7.435  27.173  -6.382
    1XTA    OA1 5009  -7.820  27.564  -6.696
    1XTA    CO1 5010  -7.783  27.676  -6.768
    1XTA    OA2 5011  -6.972  27.665  -6.182
    1XTA    CO2 5012  -6.855  27.595  -6.211
    1XTA    CL1 5013  -6.728  27.660  -6.152
    1XTA    CL2 5014  -6.706  27.654  -6.005
    1XTA    CL3 5015  -6.603  27.748  -5.953
    1XTA    CL4 5016  -6.555  27.709  -5.818
    1XTA    CO3 5017  -6.442  27.802  -5.770
    1XTA    OA3 5018  -6.328  27.802  -5.844
    1XTA    CO4 5019  -6.234  27.904  -5.815
    1XTA    CT1 5020  -6.100  27.861  -5.862
    1XTA    CL5 5021  -6.005  27.980  -5.879
    1XTA    CL6 5022  -6.036  28.072  -6.001
    1XTA    OA4 5023  -7.450  27.007  -5.974
    1XTA    CO5 5024  -7.475  27.020  -5.835
    1XTA    HL1 5025  -7.404  27.096  -5.787
    1XTA    HL2 5026  -7.779  27.758  -6.696
    1XTA    HL3 5027  -7.680  27.668  -6.805
    1XTA    HL4 5028  -7.856  27.690  -6.847
    1XTA    HL5 5029  -6.866  27.498  -6.161
    1XTA    HL6 5030  -6.846  27.588  -6.318
    1XTA    HL7 5031  -6.736  27.766  -6.168
    1XTA    HL8 5032  -6.639  27.633  -6.198
    1XTA    HL9 5033  -6.692  27.553  -5.974
    1XTA   HL10 5034  -6.792  27.692  -5.950
    1XTA   HL11 5035  -6.518  27.733  -6.019
    1XTA   HL12 5036  -6.631  27.857  -5.956
    1XTA   HL13 5037  -6.518  27.609  -5.824
    1XTA   HL14 5038  -6.632  27.698  -5.745
    1XTA   HL15 5039  -6.486  27.905  -5.755
    1XTA   HL16 5040  -6.419  27.764  -5.673
    1XTA   HL17 5041  -6.267  27.991  -5.869
    1XTA   HL18 5042  -6.250  27.920  -5.705
    1XTA   HL19 5043  -5.900  27.957  -5.879
    1XTA   HL20 5044  -6.013  28.035  -5.792
    1XTA   HL21 5045  -5.962  28.149  -6.025
    1XTA   HL22 5046  -6.134  28.109  -5.998
    1XTA   HL23 5047  -6.051  28.022  -6.096
    1XTA   HL24 5048  -7.450  26.929  -5.782
    1XTA   HL25 5049  -7.572  27.034  -5.795
    1XTA    CO8 5050  -6.113  27.795  -6.005
    1XTA    CO9 5051  -6.043  27.755  -5.764
    1XTA    OA6 5052  -5.991  27.833  -5.656
    1XTA   HL42 5053  -6.021  27.800  -6.062
    1XTA   HL43 5054  -6.192  27.837  -6.067
    1XTA   HL48 5055  -5.967  27.692  -5.813
    1XTA   HL49 5056  -6.123  27.686  -5.723
    1XTA     NT 5057  -5.675  28.702 -10.161
    1XTA    CN1 5058  -5.649  28.833 -10.174
    1XTA     C1 5059  -5.601  28.887 -10.295
    1XTA     C2 5060  -5.603  29.027 -10.325
    1XTA     C3 5061  -5.656  29.119 -10.230
    1XTA     C4 5062  -5.705  29.067 -10.110
    1XTA     C5 5063  -5.693  28.931 -10.084
    1XTA    CN2 5064  -5.583  28.611 -10.212
    1XTA     C6 5065  -5.466  28.582 -10.140
    1XTA     C7 5066  -5.372  28.486 -10.191
    1XTA     C8 5067  -5.396  28.422 -10.313
    1XTA     C9 5068  -5.513  28.456 -10.378
    1XTA    C10 5069  -5.604  28.549 -10.335
    1XTA    CN3 5070  -5.793  28.655 -10.110
    1XTA    C11 5071  -5.799  28.552 -10.006
    1XTA    C12 5072  -5.921  28.509  -9.957
    1XTA    C13 5073  -6.042  28.568 -10.000
    1XTA    C14 5074  -6.036  28.672 -10.091
    1XTA    C15 5075  -5.917  28.716 -10.151
    1XTA     H1 5076  -5.579  28.815 -10.373
    1XTA     H2 5077  -5.579  29.059 -10.424
    1XTA     H3 5078  -5.754  29.136 -10.039
    1XTA     H4 5079  -5.745  28.894  -9.992
    1XTA     H5 5080  -5.448  28.635 -10.051
    1XTA     H6 5081  -5.292  28.467 -10.127
    1XTA     H7 5082  -5.545  28.412 -10.476
    1XTA     H8 5083  -5.688  28.586 -10.389
    1XTA     H9 5084  -5.711  28.512  -9.962
    1XTA    H10 5085  -5.927  28.435  -9.873
    1XTA    H11 5086  -6.123  28.733 -10.111
    1XTA    H12 5087  -5.926  28.804 -10.212
    1XTA    OA1 5088  -5.664  29.253 -10.250
    1XTA    CO1 5089  -5.630  29.302 -10.379
    1XTA    OA2 5090  -5.301  28.336 -10.366
    1XTA    CO2 5091  -5.316  28.278 -10.497
    1XTA    CL1 5092  -5.210  28.169 -10.508
    1XTA    CL2 5093  -5.195  28.123 -10.655
    1XTA    CL3 5094  -5.070  28.040 -10.645
    1XTA    CL4 5095  -5.006  28.009 -10.780
    1XTA    CO3 5096  -4.859  28.027 -10.804
    1XTA    OA3 5097  -4.813  27.960 -10.917
    1XTA    CO4 5098  -4.698  28.025 -10.978
    1XTA    CT1 5099  -4.653  27.942 -11.102
    1XTA    CL5 5100  -4.775  27.945 -11.197
    1XTA    CL6 5101  -4.753  27.855 -11.325
    1XTA    OA4 5102  -6.168  28.527  -9.971
    1XTA    CO5 5103  -6.164  28.399  -9.897
    1XTA    HL1 5104  -6.130  28.319  -9.960
    1XTA    HL2 5105  -5.689  29.255 -10.457
    1XTA    HL3 5106  -5.665  29.401 -10.372
    1XTA    HL4 5107  -5.522  29.298 -10.389
    1XTA    HL5 5108  -5.417  28.242 -10.511
    1XTA    HL6 5109  -5.285  28.348 -10.577
    1XTA    HL7 5110  -5.232  28.086 -10.441
    1XTA    HL8 5111  -5.120  28.218 -10.474
    1XTA    HL9 5112  -5.169  28.206 -10.721
    1XTA   HL10 5113  -5.279  28.064 -10.682
    1XTA   HL11 5114  -4.986  28.102 -10.602
    1XTA   HL12 5115  -5.092  27.945 -10.583
    1XTA   HL13 5116  -5.051  28.072 -10.855
    1XTA   HL14 5117  -5.048  27.909 -10.807
    1XTA   HL15 5118  -4.828  28.133 -10.802
    1XTA   HL16 5119  -4.810  27.995 -10.709
    1XTA   HL17 5120  -4.719  28.125 -11.014
    1XTA   HL18 5121  -4.624  28.019 -10.898
    1XTA   HL19 5122  -4.791  28.048 -11.228
    1XTA   HL20 5123  -4.872  27.922 -11.148
    1XTA   HL21 5124  -4.663  27.874 -11.381
    1XTA   HL22 5125  -4.836  27.869 -11.402
    1XTA   HL23 5126  -4.754  27.747 -11.295
    1XTA   HL24 5127  -6.271  28.369  -9.882
    1XTA   HL25 5128  -6.113  28.397  -9.794
    1XTA    CO8 5129  -4.624  27.787 -11.064
    1XTA    CO9 5130  -4.536  28.002 -11.170
    1XTA    OA6 5131  -4.568  28.119 -11.229
    1XTA   HL42 5132  -4.723  27.740 -11.058
    1XTA   HL43 5133  -4.567  27.741 -11.141
    1XTA   HL48 5134  -4.496  27.938 -11.250
    1XTA   HL49 5135  -4.455  28.009 -11.099
    1XTA     NT 5136  -9.040  28.236  -7.669
    1XTA    CN1 5137  -9.175  28.222  -7.682
    1XTA     C1 5138  -9.246  28.189  -7.570
    1XTA     C2 5139  -9.388  28.185  -7.567
    1XTA     C3 5140  -9.460  28.223  -7.683
    1XTA     C4 5141  -9.381  28.245  -7.805
    1XTA     C5 5142  -9.243  28.258  -7.802
    1XTA    CN2 5143  -8.982  28.355  -7.640
    1XTA     C6 5144  -8.992  28.404  -7.507
    1XTA     C7 5145  -8.897  28.498  -7.461
    1XTA     C8 5146  -8.807  28.561  -7.552
    1XTA     C9 5147  -8.794  28.505  -7.680
    1XTA    C10 5148  -8.887  28.410  -7.724
    1XTA    CN3 5149  -8.971  28.125  -7.691
    1XTA    C11 5150  -8.900  28.070  -7.579
    1XTA    C12 5151  -8.822  27.958  -7.600
    1XTA    C13 5152  -8.797  27.905  -7.725
    1XTA    C14 5153  -8.876  27.953  -7.829
    1XTA    C15 5154  -8.961  28.065  -7.815
    1XTA     H1 5155  -9.197  28.165  -7.477
    1XTA     H2 5156  -9.436  28.152  -7.475
    1XTA     H3 5157  -9.437  28.262  -7.892
    1XTA     H4 5158  -9.189  28.284  -7.890
    1XTA     H5 5159  -9.046  28.349  -7.430
    1XTA     H6 5160  -8.904  28.521  -7.353
    1XTA     H7 5161  -8.725  28.553  -7.744
    1XTA     H8 5162  -8.900  28.367  -7.824
    1XTA     H9 5163  -8.916  28.107  -7.478
    1XTA    H10 5164  -8.778  27.919  -7.515
    1XTA    H11 5165  -8.852  27.909  -7.929
    1XTA    H12 5166  -9.014  28.121  -7.894
    1XTA    OA1 5167  -9.598  28.225  -7.669
    1XTA    CO1 5168  -9.667  28.271  -7.783
    1XTA    OA2 5169  -8.726  28.669  -7.529
    1XTA    CO2 5170  -8.694  28.702  -7.393
    1XTA    CL1 5171  -8.678  28.854  -7.398
    1XTA    CL2 5172  -8.810  28.923  -7.414
    1XTA    CL3 5173  -8.881  28.942  -7.280
    1XTA    CL4 5174  -9.022  29.002  -7.293
    1XTA    CO3 5175  -9.125  28.886  -7.336
    1XTA    OA3 5176  -9.259  28.931  -7.308
    1XTA    CO4 5177  -9.351  28.927  -7.420
    1XTA    CT1 5178  -9.359  29.050  -7.516
    1XTA    CL5 5179  -9.491  29.042  -7.590
    1XTA    CL6 5180  -9.535  29.161  -7.684
    1XTA    OA4 5181  -8.715  27.796  -7.736
    1XTA    CO5 5182  -8.707  27.721  -7.862
    1XTA    HL1 5183  -8.650  27.785  -7.933
    1XTA    HL2 5184  -9.673  28.192  -7.860
    1XTA    HL3 5185  -9.768  28.311  -7.748
    1XTA    HL4 5186  -9.608  28.358  -7.821
    1XTA    HL5 5187  -8.776  28.680  -7.331
    1XTA    HL6 5188  -8.604  28.650  -7.355
    1XTA    HL7 5189  -8.605  28.883  -7.476
    1XTA    HL8 5190  -8.639  28.895  -7.307
    1XTA    HL9 5191  -8.881  28.870  -7.480
    1XTA   HL10 5192  -8.795  29.015  -7.461
    1XTA   HL11 5193  -8.888  28.853  -7.227
    1XTA   HL12 5194  -8.831  29.014  -7.207
    1XTA   HL13 5195  -9.030  29.085  -7.353
    1XTA   HL14 5196  -9.043  29.048  -7.198
    1XTA   HL15 5197  -9.123  28.869  -7.445
    1XTA   HL16 5198  -9.100  28.789  -7.299
    1XTA   HL17 5199  -9.341  28.834  -7.478
    1XTA   HL18 5200  -9.449  28.931  -7.366
    1XTA   HL19 5201  -9.575  29.021  -7.523
    1XTA   HL20 5202  -9.481  28.954  -7.659
    1XTA   HL21 5203  -9.624  29.126  -7.734
    1XTA   HL22 5204  -9.456  29.186  -7.754
    1XTA   HL23 5205  -9.556  29.242  -7.617
    1XTA   HL24 5206  -8.804  27.702  -7.901
    1XTA   HL25 5207  -8.650  27.628  -7.843
    1XTA    CO8 5208  -9.253  29.054  -7.618
    1XTA    CO9 5209  -9.348  29.176  -7.426
    1XTA    OA6 5210  -9.260  28.939  -7.705
    1XTA   HL42 5211  -9.156  29.035  -7.582
    1XTA   HL43 5212  -9.262  29.149  -7.680
    1XTA   HL48 5213  -9.261  29.161  -7.353
    1XTA   HL49 5214  -9.432  29.179  -7.354
    1XTA     NT 5215  -7.588  23.539  -6.465
    1XTA    CN1 5216  -7.688  23.587  -6.394
    1XTA     C1 5217  -7.714  23.553  -6.263
    1XTA     C2 5218  -7.826  23.602  -6.193
    1XTA     C3 5219  -7.927  23.677  -6.260
    1XTA     C4 5220  -7.906  23.703  -6.396
    1XTA     C5 5221  -7.788  23.658  -6.461
    1XTA    CN2 5222  -7.483  23.620  -6.481
    1XTA     C6 5223  -7.493  23.727  -6.574
    1XTA     C7 5224  -7.382  23.815  -6.587
    1XTA     C8 5225  -7.263  23.799  -6.520
    1XTA     C9 5226  -7.253  23.691  -6.426
    1XTA    C10 5227  -7.367  23.604  -6.405
    1XTA    CN3 5228  -7.598  23.429  -6.540
    1XTA    C11 5229  -7.518  23.316  -6.513
    1XTA    C12 5230  -7.528  23.201  -6.599
    1XTA    C13 5231  -7.615  23.199  -6.713
    1XTA    C14 5232  -7.681  23.320  -6.744
    1XTA    C15 5233  -7.673  23.431  -6.659
    1XTA     H1 5234  -7.636  23.493  -6.210
    1XTA     H2 5235  -7.833  23.579  -6.090
    1XTA     H3 5236  -7.983  23.759  -6.452
    1XTA     H4 5237  -7.781  23.669  -6.561
    1XTA     H5 5238  -7.584  23.730  -6.636
    1XTA     H6 5239  -7.386  23.912  -6.642
    1XTA     H7 5240  -7.161  23.679  -6.368
    1XTA     H8 5241  -7.358  23.528  -6.331
    1XTA     H9 5242  -7.458  23.313  -6.428
    1XTA    H10 5243  -7.465  23.117  -6.569
    1XTA    H11 5244  -7.741  23.335  -6.830
    1XTA    H12 5245  -7.721  23.523  -6.690
    1XTA    OA1 5246  -8.044  23.716  -6.205
    1XTA    CO1 5247  -8.078  23.692  -6.068
    1XTA    OA2 5248  -7.161  23.890  -6.539
    1XTA    CO2 5249  -7.072  23.918  -6.431
    1XTA    CL1 5250  -6.995  24.041  -6.470
    1XTA    CL2 5251  -6.899  24.077  -6.359
    1XTA    CL3 5252  -6.769  23.992  -6.348
    1XTA    CL4 5253  -6.647  24.062  -6.293
    1XTA    CO3 5254  -6.522  23.977  -6.304
    1XTA    OA3 5255  -6.417  24.063  -6.266
    1XTA    CO4 5256  -6.294  23.997  -6.234
    1XTA    CT1 5257  -6.192  24.112  -6.252
    1XTA    CL5 5258  -6.233  24.215  -6.146
    1XTA    CL6 5259  -6.127  24.320  -6.114
    1XTA    OA4 5260  -7.630  23.090  -6.792
    1XTA    CO5 5261  -7.744  23.073  -6.875
    1XTA    HL1 5262  -7.818  23.133  -6.836
    1XTA    HL2 5263  -8.071  23.587  -6.044
    1XTA    HL3 5264  -8.024  23.752  -5.989
    1XTA    HL4 5265  -8.185  23.708  -6.055
    1XTA    HL5 5266  -7.137  23.936  -6.336
    1XTA    HL6 5267  -7.002  23.840  -6.403
    1XTA    HL7 5268  -7.059  24.124  -6.502
    1XTA    HL8 5269  -6.925  24.016  -6.555
    1XTA    HL9 5270  -6.962  24.074  -6.265
    1XTA   HL10 5271  -6.874  24.180  -6.365
    1XTA   HL11 5272  -6.803  23.908  -6.286
    1XTA   HL12 5273  -6.740  23.954  -6.450
    1XTA   HL13 5274  -6.664  24.076  -6.193
    1XTA   HL14 5275  -6.636  24.154  -6.351
    1XTA   HL15 5276  -6.534  23.882  -6.245
    1XTA   HL16 5277  -6.505  23.944  -6.403
    1XTA   HL17 5278  -6.282  23.967  -6.134
    1XTA   HL18 5279  -6.269  23.916  -6.299
    1XTA   HL19 5280  -6.254  24.166  -6.053
    1XTA   HL20 5281  -6.325  24.261  -6.176
    1XTA   HL21 5282  -6.066  24.333  -6.203
    1XTA   HL22 5283  -6.055  24.284  -6.039
    1XTA   HL23 5284  -6.172  24.412  -6.080
    1XTA   HL24 5285  -7.767  22.966  -6.852
    1XTA   HL25 5286  -7.732  23.083  -6.984
    1XTA    CO8 5287  -6.204  24.167  -6.397
    1XTA    CO9 5288  -6.047  24.052  -6.227
    1XTA    OA6 5289  -6.152  24.299  -6.416
    1XTA   HL42 5290  -6.312  24.174  -6.413
    1XTA   HL43 5291  -6.156  24.103  -6.470
    1XTA   HL48 5292  -5.971  24.121  -6.251
    1XTA   HL49 5293  -6.021  23.973  -6.297
    1XTA     NT 5294  -7.826  27.430  -8.709
    1XTA    CN1 5295  -7.945  27.384  -8.754
    1XTA     C1 5296  -8.049  27.473  -8.801
    1XTA     C2 5297  -8.172  27.418  -8.847
    1XTA     C3 5298  -8.199  27.280  -8.846
    1XTA     C4 5299  -8.095  27.189  -8.799
    1XTA     C5 5300  -7.971  27.241  -8.753
    1XTA    CN2 5301  -7.735  27.473  -8.795
    1XTA     C6 5302  -7.758  27.580  -8.882
    1XTA     C7 5303  -7.663  27.614  -8.980
    1XTA     C8 5304  -7.537  27.548  -8.982
    1XTA     C9 5305  -7.512  27.446  -8.887
    1XTA    C10 5306  -7.610  27.408  -8.795
    1XTA    CN3 5307  -7.828  27.475  -8.585
    1XTA    C11 5308  -7.789  27.391  -8.473
    1XTA    C12 5309  -7.810  27.440  -8.344
    1XTA    C13 5310  -7.869  27.567  -8.319
    1XTA    C14 5311  -7.898  27.649  -8.425
    1XTA    C15 5312  -7.883  27.602  -8.558
    1XTA     H1 5313  -8.036  27.582  -8.790
    1XTA     H2 5314  -8.244  27.485  -8.892
    1XTA     H3 5315  -8.120  27.085  -8.789
    1XTA     H4 5316  -7.888  27.169  -8.715
    1XTA     H5 5317  -7.853  27.635  -8.880
    1XTA     H6 5318  -7.663  27.687  -9.050
    1XTA     H7 5319  -7.418  27.392  -8.895
    1XTA     H8 5320  -7.592  27.317  -8.736
    1XTA     H9 5321  -7.743  27.299  -8.498
    1XTA    H10 5322  -7.786  27.364  -8.269
    1XTA    H11 5323  -7.936  27.747  -8.403
    1XTA    H12 5324  -7.893  27.668  -8.638
    1XTA    OA1 5325  -8.325  27.253  -8.883
    1XTA    CO1 5326  -8.374  27.127  -8.856
    1XTA    OA2 5327  -7.442  27.589  -9.077
    1XTA    CO2 5328  -7.314  27.528  -9.085
    1XTA    CL1 5329  -7.259  27.601  -9.210
    1XTA    CL2 5330  -7.197  27.741  -9.174
    1XTA    CL3 5331  -7.208  27.850  -9.288
    1XTA    CL4 5332  -7.355  27.914  -9.305
    1XTA    CO3 5333  -7.385  27.986  -9.179
    1XTA    OA3 5334  -7.512  28.058  -9.173
    1XTA    CO4 5335  -7.525  28.158  -9.271
    1XTA    CT1 5336  -7.656  28.231  -9.231
    1XTA    CL5 5337  -7.696  28.307  -9.361
    1XTA    CL6 5338  -7.601  28.402  -9.430
    1XTA    OA4 5339  -7.879  27.622  -8.191
    1XTA    CO5 5340  -7.829  27.540  -8.087
    1XTA    HL1 5341  -7.867  27.438  -8.083
    1XTA    HL2 5342  -8.354  27.084  -8.757
    1XTA    HL3 5343  -8.480  27.115  -8.878
    1XTA    HL4 5344  -8.329  27.057  -8.928
    1XTA    HL5 5345  -7.264  27.543  -8.995
    1XTA    HL6 5346  -7.326  27.417  -9.102
    1XTA    HL7 5347  -7.331  27.613  -9.291
    1XTA    HL8 5348  -7.182  27.532  -9.258
    1XTA    HL9 5349  -7.092  27.736  -9.143
    1XTA   HL10 5350  -7.266  27.773  -9.088
    1XTA   HL11 5351  -7.144  27.934  -9.265
    1XTA   HL12 5352  -7.164  27.818  -9.381
    1XTA   HL13 5353  -7.428  27.829  -9.323
    1XTA   HL14 5354  -7.342  27.979  -9.394
    1XTA   HL15 5355  -7.395  27.920  -9.091
    1XTA   HL16 5356  -7.301  28.055  -9.148
    1XTA   HL17 5357  -7.440  28.227  -9.253
    1XTA   HL18 5358  -7.520  28.114  -9.375
    1XTA   HL19 5359  -7.790  28.362  -9.346
    1XTA   HL20 5360  -7.714  28.227  -9.431
    1XTA   HL21 5361  -7.626  28.418  -9.535
    1XTA   HL22 5362  -7.499  28.369  -9.423
    1XTA   HL23 5363  -7.598  28.502  -9.385
    1XTA   HL24 5364  -7.846  27.591  -7.994
    1XTA   HL25 5365  -7.725  27.524  -8.106
    1XTA    CO8 5366  -7.628  28.329  -9.121
    1XTA    CO9 5367  -7.765  28.140  -9.177
    1XTA    OA6 5368  -7.735  28.417  -9.090
    1XTA   HL42 5369  -7.538  28.380  -9.148
    1XTA   HL43 5370  -7.599  28.286  -9.031
    1XTA   HL48 5371  -7.858  28.201  -9.162
    1XTA   HL49 5372  -7.737  28.102  -9.078
    1XTA     NT 5373  -8.547  28.307  -5.498
    1XTA    CN1 5374  -8.443  28.389  -5.526
    1XTA     C1 5375  -8.442  28.514  -5.469
    1XTA     C2 5376  -8.337  28.599  -5.496
    1XTA     C3 5377  -8.227  28.558  -5.575
    1XTA     C4 5378  -8.236  28.436  -5.636
    1XTA     C5 5379  -8.334  28.344  -5.601
    1XTA    CN2 5380  -8.530  28.193  -5.427
    1XTA     C6 5381  -8.569  28.188  -5.292
    1XTA     C7 5382  -8.573  28.062  -5.233
    1XTA     C8 5383  -8.518  27.948  -5.301
    1XTA     C9 5384  -8.471  27.956  -5.432
    1XTA    C10 5385  -8.481  28.080  -5.496
    1XTA    CN3 5386  -8.672  28.344  -5.540
    1XTA    C11 5387  -8.711  28.310  -5.672
    1XTA    C12 5388  -8.828  28.372  -5.724
    1XTA    C13 5389  -8.912  28.450  -5.648
    1XTA    C14 5390  -8.875  28.483  -5.518
    1XTA    C15 5391  -8.753  28.427  -5.464
    1XTA     H1 5392  -8.522  28.542  -5.403
    1XTA     H2 5393  -8.332  28.698  -5.450
    1XTA     H3 5394  -8.159  28.404  -5.707
    1XTA     H4 5395  -8.336  28.245  -5.642
    1XTA     H5 5396  -8.612  28.273  -5.238
    1XTA     H6 5397  -8.612  28.053  -5.138
    1XTA     H7 5398  -8.440  27.862  -5.475
    1XTA     H8 5399  -8.465  28.082  -5.603
    1XTA     H9 5400  -8.650  28.245  -5.735
    1XTA    H10 5401  -8.849  28.346  -5.824
    1XTA    H11 5402  -8.938  28.552  -5.467
    1XTA    H12 5403  -8.734  28.453  -5.359
    1XTA    OA1 5404  -8.118  28.633  -5.608
    1XTA    CO1 5405  -8.115  28.755  -5.555
    1XTA    OA2 5406  -8.514  27.817  -5.249
    1XTA    CO2 5407  -8.549  27.808  -5.115
    1XTA    CL1 5408  -8.575  27.653  -5.102
    1XTA    CL2 5409  -8.454  27.571  -5.130
    1XTA    CL3 5410  -8.461  27.417  -5.113
    1XTA    CL4 5411  -8.351  27.346  -5.189
    1XTA    CO3 5412  -8.353  27.194  -5.185
    1XTA    OA3 5413  -8.469  27.148  -5.247
    1XTA    CO4 5414  -8.492  27.009  -5.221
    1XTA    CT1 5415  -8.644  26.997  -5.218
    1XTA    CL5 5416  -8.717  27.120  -5.153
    1XTA    CL6 5417  -8.676  27.118  -5.002
    1XTA    OA4 5418  -9.020  28.506  -5.709
    1XTA    CO5 5419  -9.136  28.529  -5.628
    1XTA    HL1 5420  -9.105  28.608  -5.554
    1XTA    HL2 5421  -8.082  28.737  -5.447
    1XTA    HL3 5422  -8.056  28.822  -5.607
    1XTA    HL4 5423  -8.208  28.800  -5.551
    1XTA    HL5 5424  -8.462  27.823  -5.052
    1XTA    HL6 5425  -8.642  27.862  -5.083
    1XTA    HL7 5426  -8.658  27.622  -5.167
    1XTA    HL8 5427  -8.607  27.634  -5.000
    1XTA    HL9 5428  -8.364  27.604  -5.069
    1XTA   HL10 5429  -8.424  27.586  -5.229
    1XTA   HL11 5430  -8.458  27.387  -5.009
    1XTA   HL12 5431  -8.556  27.376  -5.152
    1XTA   HL13 5432  -8.252  27.375  -5.138
    1XTA   HL14 5433  -8.341  27.385  -5.288
    1XTA   HL15 5434  -8.265  27.154  -5.236
    1XTA   HL16 5435  -8.355  27.165  -5.085
    1XTA   HL17 5436  -8.447  26.943  -5.292
    1XTA   HL18 5437  -8.463  26.983  -5.116
    1XTA   HL19 5438  -8.820  27.103  -5.165
    1XTA   HL20 5439  -8.687  27.217  -5.200
    1XTA   HL21 5440  -8.568  27.103  -4.994
    1XTA   HL22 5441  -8.724  27.041  -4.950
    1XTA   HL23 5442  -8.694  27.211  -4.943
    1XTA   HL24 5443  -9.153  28.443  -5.565
    1XTA   HL25 5444  -9.233  28.550  -5.686
    1XTA    CO8 5445  -8.677  26.872  -5.131
    1XTA    CO9 5446  -8.702  26.967  -5.358
    1XTA    OA6 5447  -8.811  26.873  -5.085
    1XTA   HL42 5448  -8.611  26.881  -5.047
    1XTA   HL43 5449  -8.648  26.779  -5.176
    1XTA   HL48 5450  -8.653  26.883  -5.406
    1XTA   HL49 5451  -8.804  26.935  -5.326
    1XTA     NT 5452  -8.453  28.646  -4.871
    1XTA    CN1 5453  -8.576  28.595  -4.864
    1XTA     C1 5454  -8.607  28.459  -4.877
    1XTA     C2 5455  -8.733  28.411  -4.851
    1XTA     C3 5456  -8.834  28.501  -4.814
    1XTA     C4 5457  -8.808  28.632  -4.796
    1XTA     C5 5458  -8.676  28.678  -4.817
    1XTA    CN2 5459  -8.416  28.694  -4.991
    1XTA     C6 5460  -8.482  28.805  -5.048
    1XTA     C7 5461  -8.434  28.864  -5.165
    1XTA     C8 5462  -8.311  28.818  -5.219
    1XTA     C9 5463  -8.254  28.704  -5.168
    1XTA    C10 5464  -8.307  28.635  -5.059
    1XTA    CN3 5465  -8.366  28.656  -4.766
    1XTA    C11 5466  -8.312  28.776  -4.719
    1XTA    C12 5467  -8.220  28.778  -4.615
    1XTA    C13 5468  -8.178  28.655  -4.563
    1XTA    C14 5469  -8.227  28.529  -4.609
    1XTA    C15 5470  -8.322  28.533  -4.713
    1XTA     H1 5471  -8.525  28.390  -4.910
    1XTA     H2 5472  -8.747  28.305  -4.861
    1XTA     H3 5473  -8.887  28.707  -4.779
    1XTA     H4 5474  -8.667  28.787  -4.805
    1XTA     H5 5475  -8.572  28.851  -5.003
    1XTA     H6 5476  -8.483  28.946  -5.210
    1XTA     H7 5477  -8.164  28.668  -5.219
    1XTA     H8 5478  -8.251  28.559  -5.013
    1XTA     H9 5479  -8.348  28.864  -4.769
    1XTA    H10 5480  -8.178  28.871  -4.576
    1XTA    H11 5481  -8.194  28.433  -4.557
    1XTA    H12 5482  -8.362  28.443  -4.755
    1XTA    OA1 5483  -8.956  28.445  -4.787
    1XTA    CO1 5484  -9.069  28.530  -4.777
    1XTA    OA2 5485  -8.234  28.893  -5.310
    1XTA    CO2 5486  -8.261  29.032  -5.322
    1XTA    CL1 5487  -8.174  29.089  -5.436
    1XTA    CL2 5488  -8.022  29.082  -5.404
    1XTA    CL3 5489  -7.941  29.157  -5.510
    1XTA    CL4 5490  -7.795  29.163  -5.486
    1XTA    CO3 5491  -7.717  29.040  -5.530
    1XTA    OA3 5492  -7.698  29.039  -5.665
    1XTA    CO4 5493  -7.608  28.930  -5.704
    1XTA    CT1 5494  -7.582  28.939  -5.856
    1XTA    CL5 5495  -7.512  29.071  -5.893
    1XTA    CL6 5496  -7.390  29.117  -5.812
    1XTA    OA4 5497  -8.097  28.663  -4.454
    1XTA    CO5 5498  -7.976  28.733  -4.476
    1XTA    HL1 5499  -7.924  28.700  -4.573
    1XTA    HL2 5500  -9.057  28.615  -4.708
    1XTA    HL3 5501  -9.090  28.584  -4.870
    1XTA    HL4 5502  -9.164  28.477  -4.753
    1XTA    HL5 5503  -8.372  29.039  -5.343
    1XTA    HL6 5504  -8.248  29.086  -5.232
    1XTA    HL7 5505  -8.197  29.201  -5.447
    1XTA    HL8 5506  -8.190  29.048  -5.534
    1XTA    HL9 5507  -7.988  28.983  -5.389
    1XTA   HL10 5508  -8.001  29.144  -5.314
    1XTA   HL11 5509  -7.967  29.114  -5.603
    1XTA   HL12 5510  -7.972  29.260  -5.512
    1XTA   HL13 5511  -7.770  29.180  -5.382
    1XTA   HL14 5512  -7.749  29.245  -5.535
    1XTA   HL15 5513  -7.629  29.025  -5.470
    1XTA   HL16 5514  -7.768  28.950  -5.522
    1XTA   HL17 5515  -7.507  28.948  -5.658
    1XTA   HL18 5516  -7.636  28.830  -5.672
    1XTA   HL19 5517  -7.588  29.149  -5.889
    1XTA   HL20 5518  -7.487  29.064  -5.996
    1XTA   HL21 5519  -7.406  29.142  -5.707
    1XTA   HL22 5520  -7.323  29.190  -5.854
    1XTA   HL23 5521  -7.334  29.023  -5.785
    1XTA   HL24 5522  -7.905  28.720  -4.397
    1XTA   HL25 5523  -7.998  28.843  -4.477
    1XTA    CO8 5524  -7.714  28.929  -5.930
    1XTA    CO9 5525  -7.496  28.819  -5.915
    1XTA    OA6 5526  -7.382  28.803  -5.827
    1XTA   HL42 5527  -7.754  28.829  -5.918
    1XTA   HL43 5528  -7.784  28.996  -5.873
    1XTA   HL48 5529  -7.468  28.825  -6.024
    1XTA   HL49 5530  -7.550  28.725  -5.906
    1XTA     NT 5531  -7.299  24.407  -6.017
    1XTA    CN1 5532  -7.322  24.541  -6.040
    1XTA     C1 5533  -7.216  24.628  -6.071
    1XTA     C2 5534  -7.231  24.768  -6.076
    1XTA     C3 5535  -7.355  24.823  -6.042
    1XTA     C4 5536  -7.464  24.741  -6.008
    1XTA     C5 5537  -7.446  24.604  -6.014
    1XTA    CN2 5538  -7.192  24.366  -5.943
    1XTA     C6 5539  -7.083  24.303  -6.005
    1XTA     C7 5540  -6.969  24.264  -5.934
    1XTA     C8 5541  -6.958  24.283  -5.801
    1XTA     C9 5542  -7.067  24.350  -5.737
    1XTA    C10 5543  -7.182  24.385  -5.800
    1XTA    CN3 5544  -7.369  24.324  -6.091
    1XTA    C11 5545  -7.498  24.289  -6.044
    1XTA    C12 5546  -7.578  24.214  -6.121
    1XTA    C13 5547  -7.530  24.165  -6.245
    1XTA    C14 5548  -7.403  24.203  -6.295
    1XTA    C15 5549  -7.318  24.280  -6.217
    1XTA     H1 5550  -7.124  24.589  -6.102
    1XTA     H2 5551  -7.139  24.828  -6.099
    1XTA     H3 5552  -7.556  24.785  -5.998
    1XTA     H4 5553  -7.529  24.533  -5.989
    1XTA     H5 5554  -7.084  24.292  -6.111
    1XTA     H6 5555  -6.889  24.211  -5.982
    1XTA     H7 5556  -7.066  24.367  -5.626
    1XTA     H8 5557  -7.262  24.434  -5.741
    1XTA     H9 5558  -7.524  24.325  -5.946
    1XTA    H10 5559  -7.677  24.191  -6.094
    1XTA    H11 5560  -7.370  24.162  -6.387
    1XTA    H12 5561  -7.223  24.312  -6.261
    1XTA    OA1 5562  -7.373  24.957  -6.059
    1XTA    CO1 5563  -7.264  25.045  -6.050
    1XTA    OA2 5564  -6.855  24.241  -5.727
    1XTA    CO2 5565  -6.744  24.173  -5.786
    1XTA    CL1 5566  -6.657  24.136  -5.663
    1XTA    CL2 5567  -6.552  24.037  -5.719
    1XTA    CL3 5568  -6.464  23.976  -5.607
    1XTA    CL4 5569  -6.320  23.926  -5.638
    1XTA    CO3 5570  -6.328  23.796  -5.715
    1XTA    OA3 5571  -6.196  23.769  -5.766
    1XTA    CO4 5572  -6.192  23.821  -5.893
    1XTA    CT1 5573  -6.038  23.804  -5.937
    1XTA    CL5 5574  -5.943  23.860  -5.830
    1XTA    CL6 5575  -5.974  24.005  -5.787
    1XTA    OA4 5576  -7.601  24.079  -6.332
    1XTA    CO5 5577  -7.719  24.019  -6.274
    1XTA    HL1 5578  -7.773  23.968  -6.350
    1XTA    HL2 5579  -7.192  25.016  -5.973
    1XTA    HL3 5580  -7.214  25.047  -6.144
    1XTA    HL4 5581  -7.300  25.146  -6.021
    1XTA    HL5 5582  -6.782  24.089  -5.843
    1XTA    HL6 5583  -6.698  24.241  -5.857
    1XTA    HL7 5584  -6.715  24.099  -5.575
    1XTA    HL8 5585  -6.590  24.217  -5.633
    1XTA    HL9 5586  -6.489  24.073  -5.798
    1XTA   HL10 5587  -6.608  23.953  -5.764
    1XTA   HL11 5588  -6.456  24.058  -5.535
    1XTA   HL12 5589  -6.515  23.901  -5.556
    1XTA   HL13 5590  -6.263  23.922  -5.549
    1XTA   HL14 5591  -6.270  24.007  -5.696
    1XTA   HL15 5592  -6.355  23.711  -5.652
    1XTA   HL16 5593  -6.414  23.794  -5.789
    1XTA   HL17 5594  -6.247  23.766  -5.967
    1XTA   HL18 5595  -6.215  23.935  -5.895
    1XTA   HL19 5596  -5.834  23.844  -5.840
    1XTA   HL20 5597  -5.948  23.797  -5.752
    1XTA   HL21 5598  -5.966  24.070  -5.875
    1XTA   HL22 5599  -5.912  24.022  -5.705
    1XTA   HL23 5600  -6.075  24.014  -5.755
    1XTA   HL24 5601  -7.790  24.096  -6.252
    1XTA   HL25 5602  -7.708  23.949  -6.198
    1XTA    CO8 5603  -6.009  23.869  -6.079
    1XTA    CO9 5604  -6.008  23.657  -5.961
    1XTA    OA6 5605  -6.030  24.007  -6.094
    1XTA   HL42 5606  -6.082  23.818  -6.147
    1XTA   HL43 5607  -5.913  23.854  -6.120
    1XTA   HL48 5608  -5.899  23.651  -5.980
    1XTA   HL49 5609  -6.007  23.615  -5.868
    1XTA     NT 5610  -4.031  30.101  -6.968
    1XTA    CN1 5611  -4.057  30.233  -6.949
    1XTA     C1 5612  -4.171  30.270  -6.883
    1XTA     C2 5613  -4.208  30.402  -6.865
    1XTA     C3 5614  -4.114  30.502  -6.906
    1XTA     C4 5615  -3.995  30.465  -6.966
    1XTA     C5 5616  -3.964  30.328  -6.986
    1XTA    CN2 5617  -4.123  30.015  -7.004
    1XTA     C6 5618  -4.210  29.949  -6.910
    1XTA     C7 5619  -4.307  29.863  -6.965
    1XTA     C8 5620  -4.329  29.842  -7.102
    1XTA     C9 5621  -4.248  29.909  -7.196
    1XTA    C10 5622  -4.147  30.000  -7.144
    1XTA    CN3 5623  -3.921  30.040  -6.925
    1XTA    C11 5624  -3.819  30.010  -7.015
    1XTA    C12 5625  -3.699  29.954  -6.970
    1XTA    C13 5626  -3.675  29.936  -6.836
    1XTA    C14 5627  -3.779  29.959  -6.740
    1XTA    C15 5628  -3.902  30.006  -6.788
    1XTA     H1 5629  -4.224  30.186  -6.836
    1XTA     H2 5630  -4.301  30.421  -6.805
    1XTA     H3 5631  -3.925  30.541  -7.001
    1XTA     H4 5632  -3.875  30.289  -7.032
    1XTA     H5 5633  -4.196  29.959  -6.800
    1XTA     H6 5634  -4.379  29.816  -6.895
    1XTA     H7 5635  -4.260  29.896  -7.300
    1XTA     H8 5636  -4.085  30.053  -7.212
    1XTA     H9 5637  -3.833  30.032  -7.123
    1XTA    H10 5638  -3.610  29.942  -7.040
    1XTA    H11 5639  -3.762  29.934  -6.635
    1XTA    H12 5640  -3.981  30.037  -6.730
    1XTA    OA1 5641  -4.135  30.635  -6.882
    1XTA    CO1 5642  -4.244  30.674  -6.791
    1XTA    OA2 5643  -4.422  29.757  -7.155
    1XTA    CO2 5644  -4.532  29.725  -7.079
    1XTA    CL1 5645  -4.642  29.645  -7.150
    1XTA    CL2 5646  -4.700  29.705  -7.279
    1XTA    CL3 5647  -4.767  29.843  -7.258
    1XTA    CL4 5648  -4.672  29.970  -7.276
    1XTA    CO3 5649  -4.632  29.996  -7.426
    1XTA    OA3 5650  -4.560  30.120  -7.423
    1XTA    CO4 5651  -4.516  30.172  -7.556
    1XTA    CT1 5652  -4.434  30.295  -7.556
    1XTA    CL5 5653  -4.301  30.261  -7.484
    1XTA    CL6 5654  -4.306  30.260  -7.331
    1XTA    OA4 5655  -3.542  29.920  -6.808
    1XTA    CO5 5656  -3.515  29.868  -6.675
    1XTA    HL1 5657  -3.496  29.951  -6.609
    1XTA    HL2 5658  -4.227  30.620  -6.699
    1XTA    HL3 5659  -4.246  30.778  -6.765
    1XTA    HL4 5660  -4.340  30.653  -6.845
    1XTA    HL5 5661  -4.508  29.657  -6.997
    1XTA    HL6 5662  -4.584  29.809  -7.033
    1XTA    HL7 5663  -4.726  29.638  -7.082
    1XTA    HL8 5664  -4.613  29.547  -7.176
    1XTA    HL9 5665  -4.776  29.633  -7.307
    1XTA   HL10 5666  -4.625  29.705  -7.351
    1XTA   HL11 5667  -4.854  29.849  -7.323
    1XTA   HL12 5668  -4.804  29.837  -7.161
    1XTA   HL13 5669  -4.592  29.962  -7.209
    1XTA   HL14 5670  -4.735  30.053  -7.253
    1XTA   HL15 5671  -4.565  29.919  -7.464
    1XTA   HL16 5672  -4.719  30.010  -7.492
    1XTA   HL17 5673  -4.462  30.093  -7.614
    1XTA   HL18 5674  -4.608  30.185  -7.606
    1XTA   HL19 5675  -4.224  30.338  -7.510
    1XTA   HL20 5676  -4.260  30.162  -7.519
    1XTA   HL21 5677  -4.351  30.346  -7.283
    1XTA   HL22 5678  -4.204  30.238  -7.301
    1XTA   HL23 5679  -4.365  30.173  -7.302
    1XTA   HL24 5680  -3.425  29.803  -6.687
    1XTA   HL25 5681  -3.595  29.801  -6.646
    1XTA    CO8 5682  -4.509  30.414  -7.494
    1XTA    CO9 5683  -4.392  30.323  -7.703
    1XTA    OA6 5684  -4.602  30.430  -7.543
    1XTA   HL42 5685  -4.446  30.508  -7.498
    1XTA   HL43 5686  -4.524  30.393  -7.390
    1XTA   HL48 5687  -4.500  30.348  -7.796
    1XTA   HL49 5688  -4.327  30.417  -7.702
    1XTA     NT 5689  -4.928  29.147 -10.356
    1XTA    CN1 5690  -4.857  29.186 -10.247
    1XTA     C1 5691  -4.714  29.185 -10.251
    1XTA     C2 5692  -4.642  29.213 -10.130
    1XTA     C3 5693  -4.713  29.229 -10.009
    1XTA     C4 5694  -4.856  29.215 -10.009
    1XTA     C5 5695  -4.924  29.202 -10.125
    1XTA    CN2 5696  -4.918  29.016 -10.393
    1XTA     C6 5697  -4.802  28.957 -10.449
    1XTA     C7 5698  -4.804  28.822 -10.484
    1XTA     C8 5699  -4.921  28.746 -10.464
    1XTA     C9 5700  -5.025  28.803 -10.383
    1XTA    C10 5701  -5.028  28.940 -10.349
    1XTA    CN3 5702  -4.968  29.239 -10.453
    1XTA    C11 5703  -5.104  29.282 -10.466
    1XTA    C12 5704  -5.137  29.386 -10.554
    1XTA    C13 5705  -5.040  29.433 -10.647
    1XTA    C14 5706  -4.905  29.387 -10.627
    1XTA    C15 5707  -4.871  29.289 -10.541
    1XTA     H1 5708  -4.658  29.173 -10.344
    1XTA     H2 5709  -4.533  29.213 -10.124
    1XTA     H3 5710  -4.912  29.230  -9.919
    1XTA     H4 5711  -5.028  29.208 -10.124
    1XTA     H5 5712  -4.709  29.004 -10.471
    1XTA     H6 5713  -4.726  28.793 -10.549
    1XTA     H7 5714  -5.110  28.750 -10.361
    1XTA     H8 5715  -5.112  28.992 -10.308
    1XTA     H9 5716  -5.177  29.245 -10.400
    1XTA    H10 5717  -5.239  29.432 -10.561
    1XTA    H11 5718  -4.822  29.427 -10.686
    1XTA    H12 5719  -4.770  29.260 -10.525
    1XTA    OA1 5720  -4.653  29.262  -9.888
    1XTA    CO1 5721  -4.527  29.322  -9.895
    1XTA    OA2 5722  -4.927  28.616 -10.507
    1XTA    CO2 5723  -5.013  28.596 -10.620
    1XTA    CL1 5724  -4.949  28.655 -10.742
    1XTA    CL2 5725  -4.835  28.573 -10.797
    1XTA    CL3 5726  -4.780  28.645 -10.923
    1XTA    CL4 5727  -4.653  28.578 -10.992
    1XTA    CO3 5728  -4.686  28.454 -11.075
    1XTA    OA3 5729  -4.595  28.431 -11.178
    1XTA    CO4 5730  -4.654  28.392 -11.298
    1XTA    CT1 5731  -4.538  28.319 -11.381
    1XTA    CL5 5732  -4.425  28.421 -11.435
    1XTA    CL6 5733  -4.300  28.355 -11.498
    1XTA    OA4 5734  -5.068  29.537 -10.730
    1XTA    CO5 5735  -4.994  29.549 -10.849
    1XTA    HL1 5736  -4.987  29.458 -10.896
    1XTA    HL2 5737  -4.522  29.400  -9.969
    1XTA    HL3 5738  -4.495  29.361  -9.797
    1XTA    HL4 5739  -4.461  29.239  -9.919
    1XTA    HL5 5740  -5.031  28.487 -10.636
    1XTA    HL6 5741  -5.117  28.638 -10.608
    1XTA    HL7 5742  -4.915  28.753 -10.719
    1XTA    HL8 5743  -5.033  28.663 -10.807
    1XTA    HL9 5744  -4.857  28.466 -10.807
    1XTA   HL10 5745  -4.754  28.576 -10.723
    1XTA   HL11 5746  -4.863  28.664 -11.007
    1XTA   HL12 5747  -4.753  28.749 -10.890
    1XTA   HL13 5748  -4.584  28.542 -10.914
    1XTA   HL14 5749  -4.594  28.647 -11.056
    1XTA   HL15 5750  -4.698  28.374 -11.006
    1XTA   HL16 5751  -4.788  28.475 -11.116
    1XTA   HL17 5752  -4.733  28.318 -11.268
    1XTA   HL18 5753  -4.694  28.478 -11.345
    1XTA   HL19 5754  -4.401  28.481 -11.351
    1XTA   HL20 5755  -4.473  28.480 -11.512
    1XTA   HL21 5756  -4.244  28.426 -11.557
    1XTA   HL22 5757  -4.321  28.280 -11.578
    1XTA   HL23 5758  -4.235  28.319 -11.415
    1XTA   HL24 5759  -4.894  29.577 -10.825
    1XTA   HL25 5760  -5.037  29.624 -10.918
    1XTA    CO8 5761  -4.593  28.236 -11.490
    1XTA    CO9 5762  -4.477  28.211 -11.289
    1XTA    OA6 5763  -4.654  28.300 -11.554
    1XTA   HL42 5764  -4.651  28.152 -11.456
    1XTA   HL43 5765  -4.514  28.201 -11.552
    1XTA   HL48 5766  -4.378  28.142 -11.354
    1XTA   HL49 5767  -4.423  28.260 -11.207
    1XTA     NT 5768  -4.464  22.574  -6.437
    1XTA    CN1 5769  -4.336  22.606  -6.455
    1XTA     C1 5770  -4.291  22.701  -6.548
    1XTA     C2 5771  -4.157  22.726  -6.562
    1XTA     C3 5772  -4.061  22.670  -6.478
    1XTA     C4 5773  -4.102  22.571  -6.390
    1XTA     C5 5774  -4.238  22.530  -6.381
    1XTA    CN2 5775  -4.543  22.643  -6.354
    1XTA     C6 5776  -4.600  22.770  -6.384
    1XTA     C7 5777  -4.671  22.838  -6.287
    1XTA     C8 5778  -4.685  22.783  -6.157
    1XTA     C9 5779  -4.635  22.655  -6.131
    1XTA    C10 5780  -4.564  22.581  -6.229
    1XTA    CN3 5781  -4.525  22.484  -6.521
    1XTA    C11 5782  -4.594  22.525  -6.640
    1XTA    C12 5783  -4.660  22.426  -6.710
    1XTA    C13 5784  -4.652  22.287  -6.678
    1XTA    C14 5785  -4.592  22.253  -6.559
    1XTA    C15 5786  -4.533  22.351  -6.477
    1XTA     H1 5787  -4.362  22.755  -6.600
    1XTA     H2 5788  -4.118  22.798  -6.630
    1XTA     H3 5789  -4.023  22.521  -6.334
    1XTA     H4 5790  -4.261  22.445  -6.316
    1XTA     H5 5791  -4.578  22.813  -6.483
    1XTA     H6 5792  -4.708  22.938  -6.308
    1XTA     H7 5793  -4.648  22.603  -6.034
    1XTA     H8 5794  -4.540  22.479  -6.212
    1XTA     H9 5795  -4.598  22.628  -6.658
    1XTA    H10 5796  -4.731  22.461  -6.783
    1XTA    H11 5797  -4.593  22.148  -6.534
    1XTA    H12 5798  -4.507  22.319  -6.374
    1XTA    OA1 5799  -3.925  22.699  -6.487
    1XTA    CO1 5800  -3.899  22.827  -6.544
    1XTA    OA2 5801  -4.752  22.857  -6.064
    1XTA    CO2 5802  -4.662  22.925  -5.976
    1XTA    CL1 5803  -4.606  23.043  -6.056
    1XTA    CL2 5804  -4.578  23.169  -5.979
    1XTA    CL3 5805  -4.523  23.282  -6.066
    1XTA    CL4 5806  -4.635  23.356  -6.130
    1XTA    CO3 5807  -4.600  23.438  -6.264
    1XTA    OA3 5808  -4.689  23.544  -6.281
    1XTA    CO4 5809  -4.679  23.604  -6.410
    1XTA    CT1 5810  -4.797  23.701  -6.417
    1XTA    CL5 5811  -4.780  23.806  -6.307
    1XTA    CL6 5812  -4.643  23.871  -6.301
    1XTA    OA4 5813  -4.703  22.206  -6.775
    1XTA    CO5 5814  -4.730  22.074  -6.741
    1XTA    HL1 5815  -4.644  22.024  -6.690
    1XTA    HL2 5816  -3.794  22.853  -6.536
    1XTA    HL3 5817  -3.908  22.818  -6.652
    1XTA    HL4 5818  -3.963  22.912  -6.502
    1XTA    HL5 5819  -4.712  22.962  -5.884
    1XTA    HL6 5820  -4.581  22.859  -5.936
    1XTA    HL7 5821  -4.685  23.066  -6.127
    1XTA    HL8 5822  -4.517  23.013  -6.106
    1XTA    HL9 5823  -4.494  23.153  -5.908
    1XTA   HL10 5824  -4.668  23.203  -5.922
    1XTA   HL11 5825  -4.463  23.352  -6.010
    1XTA   HL12 5826  -4.449  23.241  -6.140
    1XTA   HL13 5827  -4.669  23.415  -6.042
    1XTA   HL14 5828  -4.716  23.282  -6.149
    1XTA   HL15 5829  -4.502  23.484  -6.257
    1XTA   HL16 5830  -4.593  23.376  -6.352
    1XTA   HL17 5831  -4.587  23.654  -6.404
    1XTA   HL18 5832  -4.679  23.539  -6.499
    1XTA   HL19 5833  -4.796  23.750  -6.212
    1XTA   HL20 5834  -4.858  23.879  -6.311
    1XTA   HL21 5835  -4.570  23.801  -6.256
    1XTA   HL22 5836  -4.631  23.948  -6.224
    1XTA   HL23 5837  -4.601  23.914  -6.390
    1XTA   HL24 5838  -4.745  22.009  -6.827
    1XTA   HL25 5839  -4.811  22.074  -6.670
    1XTA    CO8 5840  -4.933  23.627  -6.405
    1XTA    CO9 5841  -4.791  23.771  -6.548
    1XTA    OA6 5842  -4.869  23.892  -6.537
    1XTA   HL42 5843  -4.929  23.577  -6.309
    1XTA   HL43 5844  -5.014  23.703  -6.400
    1XTA   HL48 5845  -4.838  23.706  -6.622
    1XTA   HL49 5846  -4.690  23.798  -6.578
    1XTA     NT 5847  -5.756  28.114  -8.896
    1XTA    CN1 5848  -5.649  28.135  -8.978
    1XTA     C1 5849  -5.639  28.251  -9.060
    1XTA     C2 5850  -5.537  28.263  -9.155
    1XTA     C3 5851  -5.441  28.155  -9.166
    1XTA     C4 5852  -5.453  28.046  -9.083
    1XTA     C5 5853  -5.557  28.035  -8.987
    1XTA    CN2 5854  -5.877  28.080  -8.950
    1XTA     C6 5855  -5.906  27.947  -8.989
    1XTA     C7 5856  -6.035  27.906  -9.015
    1XTA     C8 5857  -6.146  27.995  -9.004
    1XTA     C9 5858  -6.116  28.123  -8.962
    1XTA    C10 5859  -5.984  28.169  -8.937
    1XTA    CN3 5860  -5.752  28.169  -8.774
    1XTA    C11 5861  -5.768  28.083  -8.660
    1XTA    C12 5862  -5.771  28.124  -8.525
    1XTA    C13 5863  -5.764  28.261  -8.508
    1XTA    C14 5864  -5.743  28.350  -8.614
    1XTA    C15 5865  -5.742  28.305  -8.745
    1XTA     H1 5866  -5.703  28.337  -9.064
    1XTA     H2 5867  -5.535  28.357  -9.205
    1XTA     H3 5868  -5.374  27.968  -9.089
    1XTA     H4 5869  -5.566  27.946  -8.929
    1XTA     H5 5870  -5.826  27.875  -8.998
    1XTA     H6 5871  -6.043  27.799  -9.037
    1XTA     H7 5872  -6.196  28.193  -8.945
    1XTA     H8 5873  -5.965  28.278  -8.910
    1XTA     H9 5874  -5.775  27.976  -8.677
    1XTA    H10 5875  -5.793  28.053  -8.446
    1XTA    H11 5876  -5.726  28.456  -8.601
    1XTA    H12 5877  -5.726  28.374  -8.823
    1XTA    OA1 5878  -5.344  28.141  -9.258
    1XTA    CO1 5879  -5.349  28.232  -9.361
    1XTA    OA2 5880  -6.267  27.940  -9.015
    1XTA    CO2 5881  -6.293  27.817  -8.950
    1XTA    CL1 5882  -6.287  27.834  -8.802
    1XTA    CL2 5883  -6.260  27.710  -8.723
    1XTA    CL3 5884  -6.109  27.698  -8.699
    1XTA    CL4 5885  -6.048  27.801  -8.611
    1XTA    CO3 5886  -5.929  27.740  -8.540
    1XTA    OA3 5887  -5.839  27.672  -8.633
    1XTA    CO4 5888  -5.713  27.640  -8.568
    1XTA    CT1 5889  -5.620  27.589  -8.682
    1XTA    CL5 5890  -5.568  27.713  -8.764
    1XTA    CL6 5891  -5.486  27.676  -8.884
    1XTA    OA4 5892  -5.774  28.310  -8.374
    1XTA    CO5 5893  -5.682  28.412  -8.342
    1XTA    HL1 5894  -5.599  28.375  -8.281
    1XTA    HL2 5895  -5.441  28.214  -9.421
    1XTA    HL3 5896  -5.345  28.337  -9.325
    1XTA    HL4 5897  -5.262  28.208  -9.426
    1XTA    HL5 5898  -6.395  27.789  -8.966
    1XTA    HL6 5899  -6.234  27.730  -8.987
    1XTA    HL7 5900  -6.379  27.876  -8.777
    1XTA    HL8 5901  -6.212  27.908  -8.780
    1XTA    HL9 5902  -6.308  27.618  -8.770
    1XTA   HL10 5903  -6.312  27.722  -8.628
    1XTA   HL11 5904  -6.079  27.602  -8.647
    1XTA   HL12 5905  -6.070  27.703  -8.805
    1XTA   HL13 5906  -6.133  27.821  -8.542
    1XTA   HL14 5907  -6.022  27.895  -8.651
    1XTA   HL15 5908  -5.881  27.825  -8.489
    1XTA   HL16 5909  -5.957  27.665  -8.469
    1XTA   HL17 5910  -5.671  27.737  -8.521
    1XTA   HL18 5911  -5.714  27.561  -8.495
    1XTA   HL19 5912  -5.512  27.789  -8.708
    1XTA   HL20 5913  -5.655  27.770  -8.797
    1XTA   HL21 5914  -5.437  27.760  -8.929
    1XTA   HL22 5915  -5.555  27.644  -8.959
    1XTA   HL23 5916  -5.423  27.585  -8.871
    1XTA   HL24 5917  -5.733  28.492  -8.282
    1XTA   HL25 5918  -5.628  28.460  -8.419
    1XTA    CO8 5919  -5.682  27.474  -8.758
    1XTA    CO9 5920  -5.506  27.501  -8.639
    1XTA    OA6 5921  -5.565  27.399  -8.727
    1XTA   HL42 5922  -5.686  27.499  -8.865
    1XTA   HL43 5923  -5.777  27.442  -8.717
    1XTA   HL48 5924  -5.505  27.477  -8.534
    1XTA   HL49 5925  -5.410  27.537  -8.666
    1XTA     NT 5926  -3.981  24.798  -8.164
    1XTA    CN1 5927  -3.909  24.695  -8.195
    1XTA     C1 5928  -3.783  24.707  -8.264
    1XTA     C2 5929  -3.710  24.592  -8.299
    1XTA     C3 5930  -3.756  24.463  -8.275
    1XTA     C4 5931  -3.882  24.451  -8.209
    1XTA     C5 5932  -3.956  24.569  -8.170
    1XTA    CN2 5933  -4.088  24.834  -8.243
    1XTA     C6 5934  -4.076  24.936  -8.334
    1XTA     C7 5935  -4.191  24.972  -8.411
    1XTA     C8 5936  -4.314  24.900  -8.410
    1XTA     C9 5937  -4.329  24.802  -8.308
    1XTA    C10 5938  -4.219  24.770  -8.227
    1XTA    CN3 5939  -3.944  24.880  -8.063
    1XTA    C11 5940  -4.008  24.867  -7.941
    1XTA    C12 5941  -3.988  24.961  -7.842
    1XTA    C13 5942  -3.906  25.075  -7.867
    1XTA    C14 5943  -3.840  25.093  -7.990
    1XTA    C15 5944  -3.863  24.995  -8.089
    1XTA     H1 5945  -3.745  24.811  -8.285
    1XTA     H2 5946  -3.617  24.600  -8.356
    1XTA     H3 5947  -3.923  24.355  -8.180
    1XTA     H4 5948  -4.050  24.557  -8.121
    1XTA     H5 5949  -3.980  24.986  -8.351
    1XTA     H6 5950  -4.180  25.054  -8.473
    1XTA     H7 5951  -4.419  24.750  -8.300
    1XTA     H8 5952  -4.233  24.698  -8.148
    1XTA     H9 5953  -4.054  24.773  -7.915
    1XTA    H10 5954  -4.032  24.951  -7.743
    1XTA    H11 5955  -3.779  25.182  -8.023
    1XTA    H12 5956  -3.827  24.999  -8.195
    1XTA    OA1 5957  -3.677  24.360  -8.318
    1XTA    CO1 5958  -3.714  24.230  -8.275
    1XTA    OA2 5959  -4.406  24.929  -8.504
    1XTA    CO2 5960  -4.538  24.877  -8.476
    1XTA    CL1 5961  -4.612  24.881  -8.609
    1XTA    CL2 5962  -4.547  24.792  -8.721
    1XTA    CL3 5963  -4.557  24.642  -8.688
    1XTA    CL4 5964  -4.435  24.579  -8.750
    1XTA    CO3 5965  -4.326  24.573  -8.641
    1XTA    OA3 5966  -4.202  24.532  -8.696
    1XTA    CO4 5967  -4.095  24.503  -8.611
    1XTA    CT1 5968  -3.969  24.569  -8.663
    1XTA    CL5 5969  -3.954  24.718  -8.638
    1XTA    CL6 5970  -4.052  24.809  -8.704
    1XTA    OA4 5971  -3.868  25.174  -7.779
    1XTA    CO5 5972  -3.933  25.177  -7.656
    1XTA    HL1 5973  -4.040  25.182  -7.643
    1XTA    HL2 5974  -3.813  24.202  -8.283
    1XTA    HL3 5975  -3.661  24.158  -8.342
    1XTA    HL4 5976  -3.684  24.228  -8.170
    1XTA    HL5 5977  -4.535  24.772  -8.450
    1XTA    HL6 5978  -4.596  24.926  -8.397
    1XTA    HL7 5979  -4.651  24.982  -8.635
    1XTA    HL8 5980  -4.710  24.834  -8.597
    1XTA    HL9 5981  -4.445  24.828  -8.712
    1XTA   HL10 5982  -4.593  24.806  -8.810
    1XTA   HL11 5983  -4.569  24.626  -8.582
    1XTA   HL12 5984  -4.644  24.599  -8.734
    1XTA   HL13 5985  -4.390  24.631  -8.838
    1XTA   HL14 5986  -4.460  24.475  -8.776
    1XTA   HL15 5987  -4.309  24.671  -8.589
    1XTA   HL16 5988  -4.352  24.501  -8.568
    1XTA   HL17 5989  -4.112  24.511  -8.507
    1XTA   HL18 5990  -4.087  24.400  -8.626
    1XTA   HL19 5991  -3.850  24.746  -8.680
    1XTA   HL20 5992  -3.940  24.735  -8.534
    1XTA   HL21 5993  -4.159  24.784  -8.690
    1XTA   HL22 5994  -4.028  24.800  -8.813
    1XTA   HL23 5995  -4.036  24.911  -8.662
    1XTA   HL24 5996  -3.893  25.270  -7.623
    1XTA   HL25 5997  -3.893  25.086  -7.611
    1XTA    CO8 5998  -3.932  24.521  -8.795
    1XTA    CO9 5999  -3.850  24.486  -8.614
    1XTA    OA6 6000  -3.861  24.446  -8.761
    1XTA   HL42 6001  -3.882  24.602  -8.849
    1XTA   HL43 6002  -4.010  24.470  -8.850
    1XTA   HL48 6003  -3.884  24.391  -8.515
    1XTA   HL49 6004  -3.767  24.543  -8.575
    1XTA     NT 6005  -6.649  30.149 -10.730
    1XTA    CN1 6006  -6.683  30.251 -10.807
    1XTA     C1 6007  -6.812  30.311 -10.803
    1XTA     C2 6008  -6.854  30.404 -10.899
    1XTA     C3 6009  -6.761  30.464 -10.989
    1XTA     C4 6010  -6.624  30.423 -10.978
    1XTA     C5 6011  -6.591  30.316 -10.895
    1XTA    CN2 6012  -6.663  30.152 -10.593
    1XTA     C6 6013  -6.711  30.041 -10.522
    1XTA     C7 6014  -6.733  30.050 -10.384
    1XTA     C8 6015  -6.711  30.172 -10.312
    1XTA     C9 6016  -6.671  30.284 -10.390
    1XTA    C10 6017  -6.648  30.270 -10.529
    1XTA    CN3 6018  -6.575  30.048 -10.784
    1XTA    C11 6019  -6.446  30.011 -10.737
    1XTA    C12 6020  -6.398  29.884 -10.774
    1XTA    C13 6021  -6.468  29.804 -10.865
    1XTA    C14 6022  -6.588  29.849 -10.920
    1XTA    C15 6023  -6.629  29.976 -10.887
    1XTA     H1 6024  -6.882  30.289 -10.724
    1XTA     H2 6025  -6.956  30.445 -10.904
    1XTA     H3 6026  -6.541  30.456 -11.035
    1XTA     H4 6027  -6.488  30.291 -10.897
    1XTA     H5 6028  -6.733  29.957 -10.583
    1XTA     H6 6029  -6.778  29.971 -10.326
    1XTA     H7 6030  -6.638  30.380 -10.359
    1XTA     H8 6031  -6.610  30.353 -10.583
    1XTA     H9 6032  -6.386  30.069 -10.671
    1XTA    H10 6033  -6.295  29.851 -10.758
    1XTA    H11 6034  -6.642  29.793 -10.992
    1XTA    H12 6035  -6.725  30.010 -10.924
    1XTA    OA1 6036  -6.804  30.554 -11.083
    1XTA    CO1 6037  -6.707  30.637 -11.145
    1XTA    OA2 6038  -6.736  30.171 -10.177
    1XTA    CO2 6039  -6.677  30.274 -10.102
    1XTA    CL1 6040  -6.545  30.226 -10.038
    1XTA    CL2 6041  -6.427  30.182 -10.138
    1XTA    CL3 6042  -6.374  30.293 -10.234
    1XTA    CL4 6043  -6.292  30.401 -10.166
    1XTA    CO3 6044  -6.249  30.515 -10.259
    1XTA    OA3 6045  -6.165  30.459 -10.361
    1XTA    CO4 6046  -6.125  30.563 -10.453
    1XTA    CT1 6047  -6.056  30.497 -10.570
    1XTA    CL5 6048  -6.141  30.379 -10.628
    1XTA    CL6 6049  -6.077  30.297 -10.735
    1XTA    OA4 6050  -6.431  29.679 -10.915
    1XTA    CO5 6051  -6.333  29.615 -10.833
    1XTA    HL1 6052  -6.244  29.678 -10.848
    1XTA    HL2 6053  -6.639  30.698 -11.083
    1XTA    HL3 6054  -6.648  30.595 -11.215
    1XTA    HL4 6055  -6.761  30.711 -11.211
    1XTA    HL5 6056  -6.678  30.364 -10.159
    1XTA    HL6 6057  -6.743  30.303 -10.020
    1XTA    HL7 6058  -6.572  30.142  -9.974
    1XTA    HL8 6059  -6.513  30.305  -9.975
    1XTA    HL9 6060  -6.452  30.088 -10.183
    1XTA   HL10 6061  -6.342  30.165 -10.077
    1XTA   HL11 6062  -6.307  30.256 -10.308
    1XTA   HL12 6063  -6.458  30.344 -10.286
    1XTA   HL13 6064  -6.209  30.357 -10.115
    1XTA   HL14 6065  -6.355  30.453 -10.090
    1XTA   HL15 6066  -6.325  30.566 -10.312
    1XTA   HL16 6067  -6.210  30.597 -10.198
    1XTA   HL17 6068  -6.229  30.601 -10.497
    1XTA   HL18 6069  -6.080  30.652 -10.412
    1XTA   HL19 6070  -6.235  30.427 -10.671
    1XTA   HL20 6071  -6.167  30.308 -10.547
    1XTA   HL21 6072  -6.037  30.201 -10.706
    1XTA   HL22 6073  -6.003  30.350 -10.794
    1XTA   HL23 6074  -6.157  30.267 -10.804
    1XTA   HL24 6075  -6.313  29.520 -10.878
    1XTA   HL25 6076  -6.351  29.615 -10.725
    1XTA    CO8 6077  -5.919  30.453 -10.513
    1XTA    CO9 6078  -6.005  30.598 -10.680
    1XTA    OA6 6079  -5.830  30.382 -10.597
    1XTA   HL42 6080  -5.942  30.390 -10.433
    1XTA   HL43 6081  -5.860  30.533 -10.468
    1XTA   HL48 6082  -6.081  30.609 -10.751
    1XTA   HL49 6083  -5.913  30.554 -10.731
    1XTA     NT 6084  -7.758  22.609 -11.065
    1XTA    CN1 6085  -7.781  22.535 -11.174
    1XTA     C1 6086  -7.685  22.546 -11.282
    1XTA     C2 6087  -7.711  22.476 -11.406
    1XTA     C3 6088  -7.829  22.395 -11.417
    1XTA     C4 6089  -7.917  22.381 -11.311
    1XTA     C5 6090  -7.895  22.449 -11.190
    1XTA    CN2 6091  -7.826  22.725 -11.072
    1XTA     C6 6092  -7.765  22.850 -11.091
    1XTA     C7 6093  -7.843  22.971 -11.115
    1XTA     C8 6094  -7.981  22.968 -11.117
    1XTA     C9 6095  -8.039  22.842 -11.087
    1XTA    C10 6096  -7.966  22.723 -11.060
    1XTA    CN3 6097  -7.683  22.569 -10.960
    1XTA    C11 6098  -7.715  22.457 -10.884
    1XTA    C12 6099  -7.632  22.408 -10.786
    1XTA    C13 6100  -7.504  22.462 -10.776
    1XTA    C14 6101  -7.469  22.575 -10.847
    1XTA    C15 6102  -7.559  22.629 -10.939
    1XTA     H1 6103  -7.600  22.611 -11.271
    1XTA     H2 6104  -7.641  22.496 -11.493
    1XTA     H3 6105  -8.015  22.330 -11.324
    1XTA     H4 6106  -7.968  22.432 -11.112
    1XTA     H5 6107  -7.656  22.851 -11.096
    1XTA     H6 6108  -7.788  23.069 -11.122
    1XTA     H7 6109  -8.151  22.839 -11.092
    1XTA     H8 6110  -8.015  22.629 -11.032
    1XTA     H9 6111  -7.814  22.422 -10.903
    1XTA    H10 6112  -7.685  22.343 -10.719
    1XTA    H11 6113  -7.367  22.613 -10.837
    1XTA    H12 6114  -7.530  22.716 -10.993
    1XTA    OA1 6115  -7.852  22.337 -11.542
    1XTA    CO1 6116  -7.988  22.298 -11.560
    1XTA    OA2 6117  -8.053  23.083 -11.155
    1XTA    CO2 6118  -8.182  23.059 -11.199
    1XTA    CL1 6119  -8.238  23.189 -11.256
    1XTA    CL2 6120  -8.384  23.164 -11.303
    1XTA    CL3 6121  -8.422  23.270 -11.402
    1XTA    CL4 6122  -8.564  23.243 -11.451
    1XTA    CO3 6123  -8.670  23.251 -11.342
    1XTA    OA3 6124  -8.780  23.325 -11.388
    1XTA    CO4 6125  -8.874  23.369 -11.287
    1XTA    CT1 6126  -8.956  23.499 -11.329
    1XTA    CL5 6127  -9.064  23.524 -11.226
    1XTA    CL6 6128  -9.144  23.650 -11.239
    1XTA    OA4 6129  -7.405  22.404 -10.704
    1XTA    CO5 6130  -7.430  22.279 -10.655
    1XTA    HL1 6131  -7.506  22.279 -10.573
    1XTA    HL2 6132  -8.029  22.224 -11.492
    1XTA    HL3 6133  -8.055  22.379 -11.574
    1XTA    HL4 6134  -7.982  22.248 -11.661
    1XTA    HL5 6135  -8.187  22.987 -11.281
    1XTA    HL6 6136  -8.234  23.025 -11.114
    1XTA    HL7 6137  -8.167  23.207 -11.337
    1XTA    HL8 6138  -8.235  23.270 -11.179
    1XTA    HL9 6139  -8.442  23.168 -11.214
    1XTA   HL10 6140  -8.388  23.062 -11.332
    1XTA   HL11 6141  -8.415  23.377 -11.369
    1XTA   HL12 6142  -8.366  23.259 -11.496
    1XTA   HL13 6143  -8.576  23.148 -11.502
    1XTA   HL14 6144  -8.582  23.317 -11.532
    1XTA   HL15 6145  -8.702  23.150 -11.300
    1XTA   HL16 6146  -8.635  23.301 -11.256
    1XTA   HL17 6147  -8.941  23.287 -11.269
    1XTA   HL18 6148  -8.819  23.382 -11.193
    1XTA   HL19 6149  -9.019  23.521 -11.130
    1XTA   HL20 6150  -9.124  23.433 -11.232
    1XTA   HL21 6151  -9.192  23.661 -11.334
    1XTA   HL22 6152  -9.075  23.729 -11.221
    1XTA   HL23 6153  -9.216  23.653 -11.157
    1XTA   HL24 6154  -7.338  22.233 -10.612
    1XTA   HL25 6155  -7.473  22.204 -10.725
    1XTA    CO8 6156  -9.018  23.472 -11.466
    1XTA    CO9 6157  -8.859  23.621 -11.347
    1XTA    OA6 6158  -9.094  23.399 -11.466
    1XTA   HL42 6159  -8.934  23.454 -11.532
    1XTA   HL43 6160  -9.054  23.575 -11.501
    1XTA   HL48 6161  -8.916  23.736 -11.407
    1XTA   HL49 6162  -8.781  23.584 -11.415
    1XTA     NT 6163  -3.644  29.532  -5.623
    1XTA    CN1 6164  -3.558  29.599  -5.540
    1XTA     C1 6165  -3.602  29.626  -5.413
    1XTA     C2 6166  -3.507  29.676  -5.319
    1XTA     C3 6167  -3.371  29.701  -5.352
    1XTA     C4 6168  -3.328  29.680  -5.488
    1XTA     C5 6169  -3.426  29.623  -5.577
    1XTA    CN2 6170  -3.661  29.581  -5.747
    1XTA     C6 6171  -3.605  29.520  -5.860
    1XTA     C7 6172  -3.629  29.580  -5.990
    1XTA     C8 6173  -3.711  29.695  -5.998
    1XTA     C9 6174  -3.778  29.750  -5.887
    1XTA    C10 6175  -3.757  29.688  -5.760
    1XTA    CN3 6176  -3.675  29.403  -5.597
    1XTA    C11 6177  -3.793  29.384  -5.529
    1XTA    C12 6178  -3.830  29.254  -5.495
    1XTA    C13 6179  -3.745  29.143  -5.516
    1XTA    C14 6180  -3.624  29.168  -5.581
    1XTA    C15 6181  -3.584  29.295  -5.617
    1XTA     H1 6182  -3.702  29.603  -5.386
    1XTA     H2 6183  -3.539  29.690  -5.214
    1XTA     H3 6184  -3.223  29.685  -5.515
    1XTA     H4 6185  -3.393  29.608  -5.676
    1XTA     H5 6186  -3.551  29.428  -5.857
    1XTA     H6 6187  -3.585  29.527  -6.072
    1XTA     H7 6188  -3.852  29.828  -5.889
    1XTA     H8 6189  -3.803  29.729  -5.678
    1XTA     H9 6190  -3.859  29.469  -5.517
    1XTA    H10 6191  -3.929  29.250  -5.448
    1XTA    H11 6192  -3.559  29.082  -5.601
    1XTA    H12 6193  -3.491  29.321  -5.661
    1XTA    OA1 6194  -3.280  29.756  -5.256
    1XTA    CO1 6195  -3.297  29.717  -5.127
    1XTA    OA2 6196  -3.736  29.765  -6.115
    1XTA    CO2 6197  -3.706  29.697  -6.237
    1XTA    CL1 6198  -3.808  29.601  -6.277
    1XTA    CL2 6199  -3.955  29.654  -6.276
    1XTA    CL3 6200  -4.027  29.604  -6.150
    1XTA    CL4 6201  -4.174  29.628  -6.155
    1XTA    CO3 6202  -4.238  29.592  -6.015
    1XTA    OA3 6203  -4.202  29.693  -5.921
    1XTA    CO4 6204  -4.282  29.810  -5.937
    1XTA    CT1 6205  -4.207  29.935  -5.895
    1XTA    CL5 6206  -4.126  29.906  -5.762
    1XTA    CL6 6207  -4.026  30.000  -5.693
    1XTA    OA4 6208  -3.779  29.015  -5.488
    1XTA    CO5 6209  -3.899  28.993  -5.418
    1XTA    HL1 6210  -3.982  29.020  -5.472
    1XTA    HL2 6211  -3.212  29.755  -5.073
    1XTA    HL3 6212  -3.391  29.763  -5.080
    1XTA    HL4 6213  -3.298  29.608  -5.112
    1XTA    HL5 6214  -3.702  29.776  -6.312
    1XTA    HL6 6215  -3.606  29.651  -6.238
    1XTA    HL7 6216  -3.810  29.505  -6.222
    1XTA    HL8 6217  -3.774  29.575  -6.378
    1XTA    HL9 6218  -4.014  29.625  -6.360
    1XTA   HL10 6219  -3.941  29.764  -6.275
    1XTA   HL11 6220  -4.001  29.503  -6.141
    1XTA   HL12 6221  -3.980  29.648  -6.061
    1XTA   HL13 6222  -4.211  29.554  -6.232
    1XTA   HL14 6223  -4.197  29.727  -6.202
    1XTA   HL15 6224  -4.346  29.605  -6.040
    1XTA   HL16 6225  -4.222  29.491  -5.990
    1XTA   HL17 6226  -4.335  29.825  -6.031
    1XTA   HL18 6227  -4.359  29.777  -5.861
    1XTA   HL19 6228  -4.081  29.802  -5.762
    1XTA   HL20 6229  -4.201  29.894  -5.683
    1XTA   HL21 6230  -3.981  29.944  -5.610
    1XTA   HL22 6231  -4.076  30.092  -5.659
    1XTA   HL23 6232  -3.949  30.022  -5.762
    1XTA   HL24 6233  -3.908  29.042  -5.327
    1XTA   HL25 6234  -3.899  28.880  -5.408
    1XTA    CO8 6235  -4.315  30.041  -5.865
    1XTA    CO9 6236  -4.115  29.978  -6.007
    1XTA    OA6 6237  -4.366  30.020  -5.767
    1XTA   HL42 6238  -4.387  30.036  -5.948
    1XTA   HL43 6239  -4.266  30.137  -5.866
    1XTA   HL48 6240  -4.013  29.882  -6.022
    1XTA   HL49 6241  -4.174  29.969  -6.097
    1XTA     NT 6242  -4.223  24.039  -7.416
    1XTA    CN1 6243  -4.090  24.056  -7.453
    1XTA     C1 6244  -4.044  24.029  -7.586
    1XTA     C2 6245  -3.915  24.053  -7.623
    1XTA     C3 6246  -3.819  24.094  -7.532
    1XTA     C4 6247  -3.858  24.105  -7.397
    1XTA     C5 6248  -3.993  24.076  -7.357
    1XTA    CN2 6249  -4.275  23.916  -7.390
    1XTA     C6 6250  -4.251  23.812  -7.490
    1XTA     C7 6251  -4.305  23.683  -7.467
    1XTA     C8 6252  -4.371  23.650  -7.354
    1XTA     C9 6253  -4.397  23.754  -7.259
    1XTA    C10 6254  -4.354  23.887  -7.280
    1XTA    CN3 6255  -4.309  24.141  -7.426
    1XTA    C11 6256  -4.400  24.141  -7.532
    1XTA    C12 6257  -4.479  24.259  -7.564
    1XTA    C13 6258  -4.459  24.379  -7.487
    1XTA    C14 6259  -4.371  24.371  -7.379
    1XTA    C15 6260  -4.292  24.260  -7.352
    1XTA     H1 6261  -4.108  24.011  -7.666
    1XTA     H2 6262  -3.882  24.030  -7.728
    1XTA     H3 6263  -3.783  24.128  -7.322
    1XTA     H4 6264  -4.019  24.091  -7.254
    1XTA     H5 6265  -4.196  23.828  -7.577
    1XTA     H6 6266  -4.293  23.612  -7.542
    1XTA     H7 6267  -4.456  23.734  -7.176
    1XTA     H8 6268  -4.376  23.967  -7.212
    1XTA     H9 6269  -4.409  24.045  -7.593
    1XTA    H10 6270  -4.550  24.246  -7.647
    1XTA    H11 6271  -4.357  24.457  -7.312
    1XTA    H12 6272  -4.224  24.263  -7.268
    1XTA    OA1 6273  -3.696  24.115  -7.582
    1XTA    CO1 6274  -3.616  24.205  -7.504
    1XTA    OA2 6275  -4.418  23.524  -7.343
    1XTA    CO2 6276  -4.448  23.471  -7.219
    1XTA    CL1 6277  -4.455  23.318  -7.226
    1XTA    CL2 6278  -4.517  23.252  -7.091
    1XTA    CL3 6279  -4.515  23.099  -7.074
    1XTA    CL4 6280  -4.626  23.065  -6.975
    1XTA    CO3 6281  -4.612  22.925  -6.921
    1XTA    OA3 6282  -4.715  22.907  -6.820
    1XTA    CO4 6283  -4.853  22.896  -6.860
    1XTA    CT1 6284  -4.947  22.852  -6.746
    1XTA    CL5 6285  -5.088  22.867  -6.793
    1XTA    CL6 6286  -5.131  22.778  -6.906
    1XTA    OA4 6287  -4.518  24.504  -7.515
    1XTA    CO5 6288  -4.641  24.501  -7.583
    1XTA    HL1 6289  -4.723  24.457  -7.532
    1XTA    HL2 6290  -3.585  24.165  -7.411
    1XTA    HL3 6291  -3.522  24.211  -7.559
    1XTA    HL4 6292  -3.664  24.301  -7.489
    1XTA    HL5 6293  -4.366  23.495  -7.154
    1XTA    HL6 6294  -4.533  23.524  -7.178
    1XTA    HL7 6295  -4.352  23.288  -7.234
    1XTA    HL8 6296  -4.511  23.284  -7.312
    1XTA    HL9 6297  -4.620  23.281  -7.091
    1XTA   HL10 6298  -4.466  23.290  -7.013
    1XTA   HL11 6299  -4.540  23.046  -7.170
    1XTA   HL12 6300  -4.416  23.073  -7.049
    1XTA   HL13 6301  -4.732  23.085  -7.011
    1XTA   HL14 6302  -4.623  23.135  -6.889
    1XTA   HL15 6303  -4.622  22.847  -6.995
    1XTA   HL16 6304  -4.518  22.916  -6.873
    1XTA   HL17 6305  -4.879  22.994  -6.899
    1XTA   HL18 6306  -4.866  22.829  -6.945
    1XTA   HL19 6307  -5.104  22.968  -6.816
    1XTA   HL20 6308  -5.157  22.860  -6.710
    1XTA   HL21 6309  -5.083  22.804  -6.995
    1XTA   HL22 6310  -5.234  22.795  -6.917
    1XTA   HL23 6311  -5.114  22.673  -6.887
    1XTA   HL24 6312  -4.625  24.460  -7.683
    1XTA   HL25 6313  -4.660  24.610  -7.604
    1XTA    CO8 6314  -4.925  22.940  -6.623
    1XTA    CO9 6315  -4.921  22.705  -6.708
    1XTA    OA6 6316  -4.944  23.071  -6.656
    1XTA   HL42 6317  -4.824  22.913  -6.583
    1XTA   HL43 6318  -5.004  22.914  -6.548
    1XTA   HL48 6319  -4.920  22.652  -6.801
    1XTA   HL49 6320  -4.817  22.708  -6.665
    1XTA     NT 6321  -6.956  24.586 -12.159
    1XTA    CN1 6322  -6.840  24.627 -12.097
    1XTA     C1 6323  -6.719  24.640 -12.178
    1XTA     C2 6324  -6.608  24.692 -12.118
    1XTA     C3 6325  -6.605  24.735 -11.983
    1XTA     C4 6326  -6.722  24.715 -11.910
    1XTA     C5 6327  -6.846  24.660 -11.964
    1XTA    CN2 6328  -6.991  24.456 -12.144
    1XTA     C6 6329  -7.079  24.428 -12.044
    1XTA     C7 6330  -7.126  24.299 -12.020
    1XTA     C8 6331  -7.088  24.193 -12.110
    1XTA     C9 6332  -6.998  24.219 -12.217
    1XTA    C10 6333  -6.954  24.349 -12.238
    1XTA    CN3 6334  -7.018  24.679 -12.236
    1XTA    C11 6335  -7.143  24.730 -12.200
    1XTA    C12 6336  -7.207  24.821 -12.290
    1XTA    C13 6337  -7.159  24.853 -12.419
    1XTA    C14 6338  -7.045  24.784 -12.462
    1XTA    C15 6339  -6.974  24.703 -12.374
    1XTA     H1 6340  -6.719  24.612 -12.282
    1XTA     H2 6341  -6.515  24.707 -12.181
    1XTA     H3 6342  -6.707  24.738 -11.806
    1XTA     H4 6343  -6.943  24.642 -11.908
    1XTA     H5 6344  -7.130  24.501 -11.987
    1XTA     H6 6345  -7.193  24.289 -11.939
    1XTA     H7 6346  -6.973  24.126 -12.261
    1XTA     H8 6347  -6.896  24.364 -12.332
    1XTA     H9 6348  -7.203  24.709 -12.113
    1XTA    H10 6349  -7.310  24.854 -12.258
    1XTA    H11 6350  -7.012  24.783 -12.566
    1XTA    H12 6351  -6.894  24.636 -12.408
    1XTA    OA1 6352  -6.498  24.785 -11.913
    1XTA    CO1 6353  -6.406  24.838 -12.002
    1XTA    OA2 6354  -7.127  24.062 -12.093
    1XTA    CO2 6355  -7.217  24.032 -11.987
    1XTA    CL1 6356  -7.258  23.885 -12.019
    1XTA    CL2 6357  -7.371  23.831 -11.929
    1XTA    CL3 6358  -7.503  23.909 -11.909
    1XTA    CL4 6359  -7.604  23.910 -12.027
    1XTA    CO3 6360  -7.558  24.005 -12.131
    1XTA    OA3 6361  -7.650  24.006 -12.237
    1XTA    CO4 6362  -7.604  24.055 -12.360
    1XTA    CT1 6363  -7.624  23.952 -12.476
    1XTA    CL5 6364  -7.552  23.822 -12.432
    1XTA    CL6 6365  -7.403  23.836 -12.403
    1XTA    OA4 6366  -7.235  24.935 -12.500
    1XTA    CO5 6367  -7.330  25.012 -12.437
    1XTA    HL1 6368  -7.413  24.963 -12.400
    1XTA    HL2 6369  -6.329  24.880 -11.943
    1XTA    HL3 6370  -6.350  24.764 -12.070
    1XTA    HL4 6371  -6.433  24.916 -12.066
    1XTA    HL5 6372  -7.168  24.047 -11.892
    1XTA    HL6 6373  -7.305  24.097 -11.990
    1XTA    HL7 6374  -7.182  23.810 -12.004
    1XTA    HL8 6375  -7.286  23.877 -12.128
    1XTA    HL9 6376  -7.330  23.823 -11.829
    1XTA   HL10 6377  -7.412  23.731 -11.956
    1XTA   HL11 6378  -7.559  23.864 -11.826
    1XTA   HL12 6379  -7.488  24.014 -11.879
    1XTA   HL13 6380  -7.704  23.938 -11.993
    1XTA   HL14 6381  -7.626  23.811 -12.071
    1XTA   HL15 6382  -7.562  24.111 -12.098
    1XTA   HL16 6383  -7.454  23.986 -12.174
    1XTA   HL17 6384  -7.656  24.154 -12.392
    1XTA   HL18 6385  -7.497  24.082 -12.357
    1XTA   HL19 6386  -7.564  23.736 -12.495
    1XTA   HL20 6387  -7.585  23.793 -12.333
    1XTA   HL21 6388  -7.375  23.909 -12.328
    1XTA   HL22 6389  -7.343  23.860 -12.489
    1XTA   HL23 6390  -7.375  23.737 -12.368
    1XTA   HL24 6391  -7.358  25.096 -12.496
    1XTA   HL25 6392  -7.286  25.055 -12.348
    1XTA    CO8 6393  -7.571  24.005 -12.615
    1XTA    CO9 6394  -7.776  23.925 -12.503
    1XTA    OA6 6395  -7.782  23.822 -12.602
    1XTA   HL42 6396  -7.618  24.088 -12.655
    1XTA   HL43 6397  -7.570  23.920 -12.685
    1XTA   HL48 6398  -7.825  24.017 -12.535
    1XTA   HL49 6399  -7.825  23.871 -12.422
    1XTA     NT 6400  -6.353  29.489  -8.132
    1XTA    CN1 6401  -6.248  29.568  -8.159
    1XTA     C1 6402  -6.219  29.670  -8.070
    1XTA     C2 6403  -6.109  29.755  -8.095
    1XTA     C3 6404  -6.032  29.736  -8.217
    1XTA     C4 6405  -6.076  29.644  -8.309
    1XTA     C5 6406  -6.183  29.561  -8.279
    1XTA    CN2 6407  -6.330  29.367  -8.078
    1XTA     C6 6408  -6.304  29.255  -8.160
    1XTA     C7 6409  -6.280  29.127  -8.099
    1XTA     C8 6410  -6.274  29.117  -7.960
    1XTA     C9 6411  -6.296  29.228  -7.882
    1XTA    C10 6412  -6.334  29.347  -7.942
    1XTA    CN3 6413  -6.477  29.515  -8.180
    1XTA    C11 6414  -6.502  29.568  -8.307
    1XTA    C12 6415  -6.633  29.605  -8.344
    1XTA    C13 6416  -6.742  29.577  -8.264
    1XTA    C14 6417  -6.723  29.514  -8.139
    1XTA    C15 6418  -6.588  29.494  -8.095
    1XTA     H1 6419  -6.272  29.699  -7.983
    1XTA     H2 6420  -6.076  29.825  -8.022
    1XTA     H3 6421  -6.017  29.627  -8.395
    1XTA     H4 6422  -6.218  29.481  -8.349
    1XTA     H5 6423  -6.286  29.270  -8.260
    1XTA     H6 6424  -6.230  29.057  -8.165
    1XTA     H7 6425  -6.295  29.211  -7.772
    1XTA     H8 6426  -6.354  29.429  -7.879
    1XTA     H9 6427  -6.421  29.593  -8.377
    1XTA    H10 6428  -6.640  29.661  -8.440
    1XTA    H11 6429  -6.800  29.490  -8.063
    1XTA    H12 6430  -6.566  29.434  -8.007
    1XTA    OA1 6431  -5.917  29.811  -8.234
    1XTA    CO1 6432  -5.831  29.784  -8.343
    1XTA    OA2 6433  -6.261  28.994  -7.898
    1XTA    CO2 6434  -6.310  28.880  -7.964
    1XTA    CL1 6435  -6.317  28.765  -7.868
    1XTA    CL2 6436  -6.328  28.625  -7.934
    1XTA    CL3 6437  -6.437  28.608  -8.038
    1XTA    CL4 6438  -6.578  28.608  -7.986
    1XTA    CO3 6439  -6.588  28.495  -7.878
    1XTA    OA3 6440  -6.551  28.546  -7.749
    1XTA    CO4 6441  -6.541  28.450  -7.645
    1XTA    CT1 6442  -6.575  28.519  -7.505
    1XTA    CL5 6443  -6.557  28.426  -7.387
    1XTA    CL6 6444  -6.639  28.301  -7.369
    1XTA    OA4 6445  -6.877  29.609  -8.292
    1XTA    CO5 6446  -6.904  29.667  -8.418
    1XTA    HL1 6447  -7.007  29.690  -8.443
    1XTA    HL2 6448  -5.801  29.677  -8.345
    1XTA    HL3 6449  -5.866  29.812  -8.442
    1XTA    HL4 6450  -5.734  29.834  -8.338
    1XTA    HL5 6451  -6.407  28.912  -7.999
    1XTA    HL6 6452  -6.254  28.851  -8.056
    1XTA    HL7 6453  -6.386  28.779  -7.786
    1XTA    HL8 6454  -6.233  28.765  -7.808
    1XTA    HL9 6455  -6.335  28.548  -7.862
    1XTA   HL10 6456  -6.229  28.603  -7.983
    1XTA   HL11 6457  -6.436  28.690  -8.104
    1XTA   HL12 6458  -6.423  28.515  -8.083
    1XTA   HL13 6459  -6.659  28.595  -8.065
    1XTA   HL14 6460  -6.598  28.700  -7.934
    1XTA   HL15 6461  -6.689  28.448  -7.876
    1XTA   HL16 6462  -6.532  28.403  -7.907
    1XTA   HL17 6463  -6.610  28.364  -7.667
    1XTA   HL18 6464  -6.438  28.415  -7.642
    1XTA   HL19 6465  -6.578  28.492  -7.300
    1XTA   HL20 6466  -6.454  28.393  -7.375
    1XTA   HL21 6467  -6.675  28.254  -7.459
    1XTA   HL22 6468  -6.726  28.301  -7.302
    1XTA   HL23 6469  -6.574  28.225  -7.324
    1XTA   HL24 6470  -6.860  29.607  -8.500
    1XTA   HL25 6471  -6.861  29.767  -8.421
    1XTA    CO8 6472  -6.718  28.581  -7.499
    1XTA    CO9 6473  -6.476  28.638  -7.488
    1XTA    OA6 6474  -6.369  28.608  -7.484
    1XTA   HL42 6475  -6.750  28.578  -7.396
    1XTA   HL43 6476  -6.831  28.509  -7.562
    1XTA   HL48 6477  -6.505  28.694  -7.396
    1XTA   HL49 6478  -6.492  28.713  -7.576
    1XTA     NT 6479  -6.205  28.638  -6.433
    1XTA    CN1 6480  -6.218  28.512  -6.401
    1XTA     C1 6481  -6.277  28.414  -6.484
    1XTA     C2 6482  -6.293  28.280  -6.442
    1XTA     C3 6483  -6.250  28.245  -6.314
    1XTA     C4 6484  -6.185  28.337  -6.232
    1XTA     C5 6485  -6.171  28.470  -6.277
    1XTA    CN2 6486  -6.096  28.665  -6.506
    1XTA     C6 6487  -6.109  28.650  -6.645
    1XTA     C7 6488  -6.013  28.695  -6.734
    1XTA     C8 6489  -5.904  28.769  -6.684
    1XTA     C9 6490  -5.891  28.787  -6.545
    1XTA    C10 6491  -5.984  28.738  -6.457
    1XTA    CN3 6492  -6.304  28.730  -6.393
    1XTA    C11 6493  -6.427  28.740  -6.462
    1XTA    C12 6494  -6.524  28.833  -6.422
    1XTA    C13 6495  -6.489  28.932  -6.324
    1XTA    C14 6496  -6.364  28.923  -6.261
    1XTA    C15 6497  -6.272  28.824  -6.297
    1XTA     H1 6498  -6.307  28.448  -6.585
    1XTA     H2 6499  -6.334  28.209  -6.505
    1XTA     H3 6500  -6.143  28.296  -6.143
    1XTA     H4 6501  -6.120  28.541  -6.211
    1XTA     H5 6502  -6.197  28.598  -6.681
    1XTA     H6 6503  -6.037  28.691  -6.831
    1XTA     H7 6504  -5.808  28.846  -6.511
    1XTA     H8 6505  -5.978  28.748  -6.352
    1XTA     H9 6506  -6.446  28.668  -6.537
    1XTA    H10 6507  -6.611  28.848  -6.481
    1XTA    H11 6508  -6.330  28.989  -6.182
    1XTA    H12 6509  -6.171  28.821  -6.257
    1XTA    OA1 6510  -6.243  28.109  -6.284
    1XTA    CO1 6511  -6.349  28.022  -6.333
    1XTA    OA2 6512  -5.822  28.817  -6.782
    1XTA    CO2 6513  -5.725  28.921  -6.755
    1XTA    CL1 6514  -5.626  28.920  -6.874
    1XTA    CL2 6515  -5.515  29.034  -6.869
    1XTA    CL3 6516  -5.575  29.166  -6.906
    1XTA    CL4 6517  -5.474  29.273  -6.921
    1XTA    CO3 6518  -5.521  29.420  -6.926
    1XTA    OA3 6519  -5.410  29.502  -6.960
    1XTA    CO4 6520  -5.406  29.594  -6.847
    1XTA    CT1 6521  -5.310  29.719  -6.869
    1XTA    CL5 6522  -5.350  29.783  -7.001
    1XTA    CL6 6523  -5.292  29.919  -7.031
    1XTA    OA4 6524  -6.574  29.024  -6.279
    1XTA    CO5 6525  -6.712  29.025  -6.323
    1XTA    HL1 6526  -6.705  29.052  -6.432
    1XTA    HL2 6527  -6.340  27.925  -6.285
    1XTA    HL3 6528  -6.439  28.078  -6.307
    1XTA    HL4 6529  -6.347  28.012  -6.441
    1XTA    HL5 6530  -5.768  29.021  -6.737
    1XTA    HL6 6531  -5.666  28.900  -6.662
    1XTA    HL7 6532  -5.685  28.930  -6.959
    1XTA    HL8 6533  -5.582  28.826  -6.863
    1XTA    HL9 6534  -5.432  29.022  -6.937
    1XTA   HL10 6535  -5.472  29.035  -6.769
    1XTA   HL11 6536  -5.644  29.155  -6.986
    1XTA   HL12 6537  -5.634  29.193  -6.820
    1XTA   HL13 6538  -5.408  29.245  -7.001
    1XTA   HL14 6539  -5.411  29.258  -6.833
    1XTA   HL15 6540  -5.587  29.430  -7.010
    1XTA   HL16 6541  -5.577  29.448  -6.834
    1XTA   HL17 6542  -5.504  29.631  -6.831
    1XTA   HL18 6543  -5.368  29.567  -6.749
    1XTA   HL19 6544  -5.461  29.794  -7.014
    1XTA   HL20 6545  -5.310  29.712  -7.072
    1XTA   HL21 6546  -5.374  29.988  -7.001
    1XTA   HL22 6547  -5.270  29.923  -7.140
    1XTA   HL23 6548  -5.208  29.933  -6.972
    1XTA   HL24 6549  -6.774  29.092  -6.263
    1XTA   HL25 6550  -6.753  28.924  -6.335
    1XTA    CO8 6551  -5.165  29.669  -6.875
    1XTA    CO9 6552  -5.333  29.810  -6.749
    1XTA    OA6 6553  -5.248  29.880  -6.735
    1XTA   HL42 6554  -5.104  29.751  -6.898
    1XTA   HL43 6555  -5.114  29.634  -6.750
    1XTA   HL48 6556  -5.355  29.762  -6.658
    1XTA   HL49 6557  -5.418  29.879  -6.768
    1XTA     NT 6558  -7.830  25.480  -7.822
    1XTA    CN1 6559  -7.860  25.527  -7.697
    1XTA     C1 6560  -7.758  25.584  -7.620
    1XTA     C2 6561  -7.787  25.631  -7.487
    1XTA     C3 6562  -7.910  25.614  -7.428
    1XTA     C4 6563  -8.012  25.557  -7.511
    1XTA     C5 6564  -7.992  25.518  -7.642
    1XTA    CN2 6565  -7.837  25.568  -7.922
    1XTA     C6 6566  -7.736  25.564  -8.024
    1XTA     C7 6567  -7.728  25.660  -8.130
    1XTA     C8 6568  -7.836  25.749  -8.146
    1XTA     C9 6569  -7.942  25.741  -8.050
    1XTA    C10 6570  -7.941  25.658  -7.937
    1XTA    CN3 6571  -7.866  25.351  -7.850
    1XTA    C11 6572  -7.943  25.309  -7.964
    1XTA    C12 6573  -7.983  25.173  -7.978
    1XTA    C13 6574  -7.942  25.078  -7.887
    1XTA    C14 6575  -7.851  25.118  -7.789
    1XTA    C15 6576  -7.823  25.253  -7.761
    1XTA     H1 6577  -7.659  25.590  -7.658
    1XTA     H2 6578  -7.705  25.682  -7.425
    1XTA     H3 6579  -8.108  25.558  -7.465
    1XTA     H4 6580  -8.064  25.470  -7.706
    1XTA     H5 6581  -7.643  25.509  -8.018
    1XTA     H6 6582  -7.643  25.663  -8.195
    1XTA     H7 6583  -8.018  25.819  -8.066
    1XTA     H8 6584  -8.026  25.672  -7.871
    1XTA     H9 6585  -7.984  25.382  -8.038
    1XTA    H10 6586  -8.053  25.141  -8.057
    1XTA    H11 6587  -7.801  25.037  -7.738
    1XTA    H12 6588  -7.758  25.287  -7.670
    1XTA    OA1 6589  -7.952  25.677  -7.318
    1XTA    CO1 6590  -7.868  25.757  -7.242
    1XTA    OA2 6591  -7.855  25.840  -8.244
    1XTA    CO2 6592  -7.741  25.866  -8.324
    1XTA    CL1 6593  -7.776  25.975  -8.421
    1XTA    CL2 6594  -7.673  26.024  -8.513
    1XTA    CL3 6595  -7.549  26.085  -8.439
    1XTA    CL4 6596  -7.587  26.200  -8.343
    1XTA    CO3 6597  -7.458  26.281  -8.326
    1XTA    OA3 6598  -7.475  26.388  -8.236
    1XTA    CO4 6599  -7.520  26.340  -8.113
    1XTA    CT1 6600  -7.511  26.440  -7.999
    1XTA    CL5 6601  -7.568  26.369  -7.876
    1XTA    CL6 6602  -7.531  26.409  -7.738
    1XTA    OA4 6603  -7.973  24.945  -7.889
    1XTA    CO5 6604  -7.996  24.890  -8.015
    1XTA    HL1 6605  -8.040  24.789  -8.008
    1XTA    HL2 6606  -7.923  25.789  -7.147
    1XTA    HL3 6607  -7.773  25.702  -7.210
    1XTA    HL4 6608  -7.846  25.846  -7.303
    1XTA    HL5 6609  -7.665  25.897  -8.251
    1XTA    HL6 6610  -7.699  25.776  -8.368
    1XTA    HL7 6611  -7.811  26.058  -8.359
    1XTA    HL8 6612  -7.856  25.930  -8.477
    1XTA    HL9 6613  -7.706  26.105  -8.575
    1XTA   HL10 6614  -7.630  25.943  -8.570
    1XTA   HL11 6615  -7.505  25.998  -8.388
    1XTA   HL12 6616  -7.476  26.124  -8.512
    1XTA   HL13 6617  -7.620  26.151  -8.251
    1XTA   HL14 6618  -7.668  26.266  -8.378
    1XTA   HL15 6619  -7.369  26.241  -8.282
    1XTA   HL16 6620  -7.434  26.330  -8.426
    1XTA   HL17 6621  -7.630  26.327  -8.125
    1XTA   HL18 6622  -7.473  26.244  -8.077
    1XTA   HL19 6623  -7.531  26.268  -7.879
    1XTA   HL20 6624  -7.677  26.367  -7.892
    1XTA   HL21 6625  -7.428  26.389  -7.714
    1XTA   HL22 6626  -7.599  26.357  -7.671
    1XTA   HL23 6627  -7.531  26.510  -7.703
    1XTA   HL24 6628  -7.901  24.888  -8.068
    1XTA   HL25 6629  -8.081  24.942  -8.063
    1XTA    CO8 6630  -7.593  26.566  -8.033
    1XTA    CO9 6631  -7.367  26.492  -7.977
    1XTA    OA6 6632  -7.705  26.545  -8.058
    1XTA   HL42 6633  -7.540  26.606  -8.123
    1XTA   HL43 6634  -7.569  26.640  -7.955
    1XTA   HL48 6635  -7.326  26.543  -8.103
    1XTA   HL49 6636  -7.349  26.569  -7.898
    1XTA     NT 6637  -3.513  25.622  -4.880
    1XTA    CN1 6638  -3.422  25.639  -4.779
    1XTA     C1 6639  -3.296  25.566  -4.776
    1XTA     C2 6640  -3.200  25.599  -4.673
    1XTA     C3 6641  -3.224  25.701  -4.585
    1XTA     C4 6642  -3.344  25.777  -4.592
    1XTA     C5 6643  -3.441  25.744  -4.687
    1XTA    CN2 6644  -3.523  25.694  -4.994
    1XTA     C6 6645  -3.651  25.731  -5.046
    1XTA     C7 6646  -3.670  25.811  -5.158
    1XTA     C8 6647  -3.556  25.850  -5.231
    1XTA     C9 6648  -3.430  25.802  -5.191
    1XTA    C10 6649  -3.409  25.729  -5.076
    1XTA    CN3 6650  -3.590  25.516  -4.861
    1XTA    C11 6651  -3.699  25.517  -4.769
    1XTA    C12 6652  -3.777  25.404  -4.737
    1XTA    C13 6653  -3.742  25.279  -4.794
    1XTA    C14 6654  -3.629  25.271  -4.881
    1XTA    C15 6655  -3.555  25.387  -4.908
    1XTA     H1 6656  -3.277  25.484  -4.839
    1XTA     H2 6657  -3.104  25.543  -4.676
    1XTA     H3 6658  -3.366  25.859  -4.527
    1XTA     H4 6659  -3.538  25.795  -4.696
    1XTA     H5 6660  -3.741  25.698  -4.997
    1XTA     H6 6661  -3.772  25.826  -5.195
    1XTA     H7 6662  -3.352  25.837  -5.258
    1XTA     H8 6663  -3.305  25.708  -5.044
    1XTA     H9 6664  -3.718  25.609  -4.713
    1XTA    H10 6665  -3.853  25.403  -4.666
    1XTA    H11 6666  -3.598  25.177  -4.933
    1XTA    H12 6667  -3.482  25.378  -4.979
    1XTA    OA1 6668  -3.127  25.726  -4.497
    1XTA    CO1 6669  -3.144  25.842  -4.415
    1XTA    OA2 6670  -3.570  25.930  -5.344
    1XTA    CO2 6671  -3.681  26.015  -5.340
    1XTA    CL1 6672  -3.659  26.119  -5.455
    1XTA    CL2 6673  -3.716  26.256  -5.428
    1XTA    CL3 6674  -3.701  26.366  -5.532
    1XTA    CL4 6675  -3.777  26.340  -5.668
    1XTA    CO3 6676  -3.930  26.324  -5.643
    1XTA    OA3 6677  -3.986  26.201  -5.596
    1XTA    CO4 6678  -3.973  26.097  -5.692
    1XTA    CT1 6679  -4.072  25.981  -5.672
    1XTA    CL5 6680  -4.210  26.036  -5.635
    1XTA    CL6 6681  -4.236  26.098  -5.494
    1XTA    OA4 6682  -3.823  25.166  -4.777
    1XTA    CO5 6683  -3.755  25.047  -4.775
    1XTA    HL1 6684  -3.666  25.042  -4.710
    1XTA    HL2 6685  -3.165  25.939  -4.465
    1XTA    HL3 6686  -3.223  25.826  -4.339
    1XTA    HL4 6687  -3.052  25.856  -4.361
    1XTA    HL5 6688  -3.767  25.955  -5.353
    1XTA    HL6 6689  -3.688  26.059  -5.239
    1XTA    HL7 6690  -3.684  26.080  -5.557
    1XTA    HL8 6691  -3.553  26.139  -5.446
    1XTA    HL9 6692  -3.671  26.304  -5.338
    1XTA   HL10 6693  -3.816  26.238  -5.396
    1XTA   HL11 6694  -3.730  26.463  -5.495
    1XTA   HL12 6695  -3.603  26.396  -5.556
    1XTA   HL13 6696  -3.747  26.257  -5.729
    1XTA   HL14 6697  -3.771  26.436  -5.729
    1XTA   HL15 6698  -3.955  26.403  -5.572
    1XTA   HL16 6699  -3.976  26.357  -5.736
    1XTA   HL17 6700  -3.982  26.137  -5.804
    1XTA   HL18 6701  -3.875  26.060  -5.679
    1XTA   HL19 6702  -4.278  25.960  -5.661
    1XTA   HL20 6703  -4.223  26.113  -5.704
    1XTA   HL21 6704  -4.156  26.166  -5.470
    1XTA   HL22 6705  -4.227  26.016  -5.427
    1XTA   HL23 6706  -4.334  26.142  -5.484
    1XTA   HL24 6707  -3.733  25.007  -4.876
    1XTA   HL25 6708  -3.819  24.968  -4.745
    1XTA    CO8 6709  -4.025  25.875  -5.570
    1XTA    CO9 6710  -4.063  25.916  -5.811
    1XTA    OA6 6711  -4.161  25.808  -5.820
    1XTA   HL42 6712  -4.036  25.941  -5.479
    1XTA   HL43 6713  -4.112  25.811  -5.579
    1XTA   HL48 6714  -3.968  25.869  -5.842
    1XTA   HL49 6715  -4.092  25.984  -5.892
    1XTA     NT 6716  -5.275  23.230  -5.152
    1XTA    CN1 6717  -5.209  23.203  -5.263
    1XTA     C1 6718  -5.257  23.124  -5.367
    1XTA     C2 6719  -5.190  23.088  -5.479
    1XTA     C3 6720  -5.059  23.132  -5.498
    1XTA     C4 6721  -5.007  23.216  -5.398
    1XTA     C5 6722  -5.083  23.256  -5.290
    1XTA    CN2 6723  -5.322  23.133  -5.069
    1XTA     C6 6724  -5.234  23.044  -5.003
    1XTA     C7 6725  -5.285  22.947  -4.917
    1XTA     C8 6726  -5.424  22.937  -4.892
    1XTA     C9 6727  -5.512  23.025  -4.960
    1XTA    C10 6728  -5.463  23.119  -5.051
    1XTA    CN3 6729  -5.295  23.358  -5.114
    1XTA    C11 6730  -5.394  23.441  -5.168
    1XTA    C12 6731  -5.412  23.575  -5.125
    1XTA    C13 6732  -5.321  23.623  -5.031
    1XTA    C14 6733  -5.218  23.545  -4.976
    1XTA    C15 6734  -5.212  23.412  -5.012
    1XTA     H1 6735  -5.361  23.085  -5.365
    1XTA     H2 6736  -5.231  23.021  -5.547
    1XTA     H3 6737  -4.910  23.262  -5.400
    1XTA     H4 6738  -5.030  23.316  -5.221
    1XTA     H5 6739  -5.126  23.044  -5.020
    1XTA     H6 6740  -5.218  22.870  -4.879
    1XTA     H7 6741  -5.616  23.018  -4.943
    1XTA     H8 6742  -5.534  23.178  -5.098
    1XTA     H9 6743  -5.454  23.405  -5.245
    1XTA    H10 6744  -5.484  23.645  -5.176
    1XTA    H11 6745  -5.156  23.585  -4.900
    1XTA    H12 6746  -5.134  23.339  -4.985
    1XTA    OA1 6747  -4.991  23.071  -5.601
    1XTA    CO1 6748  -4.879  23.141  -5.658
    1XTA    OA2 6749  -5.466  22.842  -4.800
    1XTA    CO2 6750  -5.576  22.878  -4.722
    1XTA    CL1 6751  -5.601  22.791  -4.600
    1XTA    CL2 6752  -5.731  22.822  -4.530
    1XTA    CL3 6753  -5.716  22.921  -4.416
    1XTA    CL4 6754  -5.861  22.966  -4.368
    1XTA    CO3 6755  -5.833  23.056  -4.245
    1XTA    OA3 6756  -5.805  22.961  -4.145
    1XTA    CO4 6757  -5.719  23.007  -4.041
    1XTA    CT1 6758  -5.678  22.886  -3.950
    1XTA    CL5 6759  -5.811  22.837  -3.890
    1XTA    CL6 6760  -5.787  22.732  -3.776
    1XTA    OA4 6761  -5.337  23.744  -4.964
    1XTA    CO5 6762  -5.453  23.824  -4.987
    1XTA    HL1 6763  -5.528  23.770  -4.933
    1XTA    HL2 6764  -4.837  23.087  -5.743
    1XTA    HL3 6765  -4.923  23.231  -5.703
    1XTA    HL4 6766  -4.807  23.164  -5.574
    1XTA    HL5 6767  -5.557  22.973  -4.680
    1XTA    HL6 6768  -5.660  22.871  -4.794
    1XTA    HL7 6769  -5.515  22.787  -4.530
    1XTA    HL8 6770  -5.606  22.690  -4.643
    1XTA    HL9 6771  -5.778  22.736  -4.490
    1XTA   HL10 6772  -5.805  22.868  -4.597
    1XTA   HL11 6773  -5.647  22.881  -4.338
    1XTA   HL12 6774  -5.660  23.005  -4.457
    1XTA   HL13 6775  -5.932  22.883  -4.346
    1XTA   HL14 6776  -5.910  23.020  -4.449
    1XTA   HL15 6777  -5.749  23.120  -4.263
    1XTA   HL16 6778  -5.916  23.119  -4.221
    1XTA   HL17 6779  -5.624  23.041  -4.097
    1XTA   HL18 6780  -5.753  23.094  -3.989
    1XTA   HL19 6781  -5.878  22.795  -3.967
    1XTA   HL20 6782  -5.861  22.923  -3.846
    1XTA   HL21 6783  -5.703  22.757  -3.708
    1XTA   HL22 6784  -5.756  22.637  -3.822
    1XTA   HL23 6785  -5.878  22.724  -3.715
    1XTA   HL24 6786  -5.480  23.853  -5.087
    1XTA   HL25 6787  -5.439  23.911  -4.926
    1XTA    CO8 6788  -5.563  22.934  -3.853
    1XTA    CO9 6789  -5.611  22.778  -4.034
    1XTA    OA6 6790  -5.483  22.827  -4.083
    1XTA   HL42 6791  -5.493  22.998  -3.904
    1XTA   HL43 6792  -5.519  22.846  -3.813
    1XTA   HL48 6793  -5.666  22.742  -4.123
    1XTA   HL49 6794  -5.585  22.692  -3.976
    1XTA     NT 6795  -4.857  28.748  -8.175
    1XTA    CN1 6796  -4.773  28.721  -8.279
    1XTA     C1 6797  -4.635  28.756  -8.266
    1XTA     C2 6798  -4.542  28.734  -8.369
    1XTA     C3 6799  -4.592  28.681  -8.491
    1XTA     C4 6800  -4.727  28.639  -8.505
    1XTA     C5 6801  -4.816  28.661  -8.404
    1XTA    CN2 6802  -4.948  28.845  -8.197
    1XTA     C6 6803  -5.067  28.808  -8.261
    1XTA     C7 6804  -5.164  28.904  -8.290
    1XTA     C8 6805  -5.144  29.036  -8.259
    1XTA     C9 6806  -5.028  29.074  -8.200
    1XTA    C10 6807  -4.931  28.980  -8.167
    1XTA    CN3 6808  -4.834  28.695  -8.053
    1XTA    C11 6809  -4.895  28.570  -8.023
    1XTA    C12 6810  -4.875  28.517  -7.896
    1XTA    C13 6811  -4.808  28.584  -7.799
    1XTA    C14 6812  -4.760  28.712  -7.820
    1XTA    C15 6813  -4.762  28.764  -7.953
    1XTA     H1 6814  -4.594  28.801  -8.174
    1XTA     H2 6815  -4.446  28.767  -8.352
    1XTA     H3 6816  -4.754  28.597  -8.598
    1XTA     H4 6817  -4.919  28.641  -8.422
    1XTA     H5 6818  -5.076  28.706  -8.284
    1XTA     H6 6819  -5.249  28.869  -8.343
    1XTA     H7 6820  -5.004  29.171  -8.164
    1XTA     H8 6821  -4.852  29.010  -8.098
    1XTA     H9 6822  -4.960  28.521  -8.089
    1XTA    H10 6823  -4.931  28.435  -7.872
    1XTA    H11 6824  -4.708  28.767  -7.746
    1XTA    H12 6825  -4.705  28.853  -7.973
    1XTA    OA1 6826  -4.509  28.666  -8.598
    1XTA    CO1 6827  -4.370  28.653  -8.570
    1XTA    OA2 6828  -5.226  29.141  -8.300
    1XTA    CO2 6829  -5.324  29.115  -8.404
    1XTA    CL1 6830  -5.402  29.249  -8.422
    1XTA    CL2 6831  -5.517  29.238  -8.523
    1XTA    CL3 6832  -5.603  29.365  -8.559
    1XTA    CL4 6833  -5.682  29.416  -8.437
    1XTA    CO3 6834  -5.812  29.338  -8.417
    1XTA    OA3 6835  -5.776  29.208  -8.377
    1XTA    CO4 6836  -5.875  29.149  -8.297
    1XTA    CT1 6837  -5.834  29.142  -8.147
    1XTA    CL5 6838  -5.819  29.279  -8.084
    1XTA    CL6 6839  -5.944  29.365  -8.067
    1XTA    OA4 6840  -4.782  28.521  -7.679
    1XTA    CO5 6841  -4.752  28.602  -7.573
    1XTA    HL1 6842  -4.833  28.676  -7.559
    1XTA    HL2 6843  -4.342  28.554  -8.519
    1XTA    HL3 6844  -4.304  28.654  -8.652
    1XTA    HL4 6845  -4.326  28.733  -8.515
    1XTA    HL5 6846  -5.274  29.063  -8.491
    1XTA    HL6 6847  -5.399  29.040  -8.363
    1XTA    HL7 6848  -5.323  29.326  -8.448
    1XTA    HL8 6849  -5.445  29.290  -8.328
    1XTA    HL9 6850  -5.565  29.150  -8.489
    1XTA   HL10 6851  -5.463  29.210  -8.618
    1XTA   HL11 6852  -5.549  29.453  -8.591
    1XTA   HL12 6853  -5.670  29.334  -8.637
    1XTA   HL13 6854  -5.712  29.513  -8.443
    1XTA   HL14 6855  -5.620  29.426  -8.349
    1XTA   HL15 6856  -5.859  29.379  -8.336
    1XTA   HL16 6857  -5.885  29.324  -8.496
    1XTA   HL17 6858  -5.967  29.206  -8.302
    1XTA   HL18 6859  -5.898  29.052  -8.333
    1XTA   HL19 6860  -5.748  29.342  -8.138
    1XTA   HL20 6861  -5.771  29.261  -7.994
    1XTA   HL21 6862  -6.021  29.322  -8.008
    1XTA   HL22 6863  -5.983  29.414  -8.154
    1XTA   HL23 6864  -5.900  29.442  -8.005
    1XTA   HL24 6865  -4.656  28.658  -7.586
    1XTA   HL25 6866  -4.753  28.540  -7.488
    1XTA    CO8 6867  -5.695  29.059  -8.144
    1XTA    CO9 6868  -5.931  29.061  -8.057
    1XTA    OA6 6869  -5.624  29.091  -8.062
    1XTA   HL42 6870  -5.640  29.061  -8.240
    1XTA   HL43 6871  -5.713  28.954  -8.131
    1XTA   HL48 6872  -5.957  28.926  -8.096
    1XTA   HL49 6873  -6.025  29.111  -8.094
    1XTA     NT 6874  -5.055  31.011  -8.429
    1XTA    CN1 6875  -4.932  31.068  -8.409
    1XTA     C1 6876  -4.836  31.076  -8.512
    1XTA     C2 6877  -4.711  31.148  -8.498
    1XTA     C3 6878  -4.687  31.216  -8.382
    1XTA     C4 6879  -4.774  31.200  -8.267
    1XTA     C5 6880  -4.898  31.127  -8.284
    1XTA    CN2 6881  -5.159  31.088  -8.448
    1XTA     C6 6882  -5.211  31.113  -8.579
    1XTA     C7 6883  -5.318  31.203  -8.595
    1XTA     C8 6884  -5.374  31.258  -8.483
    1XTA     C9 6885  -5.332  31.233  -8.354
    1XTA    C10 6886  -5.223  31.148  -8.334
    1XTA    CN3 6887  -5.073  30.879  -8.426
    1XTA    C11 6888  -5.089  30.801  -8.546
    1XTA    C12 6889  -5.107  30.665  -8.538
    1XTA    C13 6890  -5.117  30.605  -8.415
    1XTA    C14 6891  -5.106  30.679  -8.300
    1XTA    C15 6892  -5.076  30.815  -8.305
    1XTA     H1 6893  -4.865  31.037  -8.613
    1XTA     H2 6894  -4.628  31.158  -8.567
    1XTA     H3 6895  -4.742  31.245  -8.170
    1XTA     H4 6896  -4.969  31.100  -8.204
    1XTA     H5 6897  -5.175  31.070  -8.664
    1XTA     H6 6898  -5.357  31.221  -8.695
    1XTA     H7 6899  -5.382  31.287  -8.275
    1XTA     H8 6900  -5.187  31.132  -8.235
    1XTA     H9 6901  -5.083  30.852  -8.639
    1XTA    H10 6902  -5.121  30.602  -8.624
    1XTA    H11 6903  -5.118  30.628  -8.209
    1XTA    H12 6904  -5.075  30.867  -8.214
    1XTA    OA1 6905  -4.564  31.272  -8.373
    1XTA    CO1 6906  -4.559  31.369  -8.282
    1XTA    OA2 6907  -5.473  31.346  -8.512
    1XTA    CO2 6908  -5.601  31.301  -8.462
    1XTA    CL1 6909  -5.697  31.303  -8.581
    1XTA    CL2 6910  -5.687  31.179  -8.662
    1XTA    CL3 6911  -5.767  31.188  -8.791
    1XTA    CL4 6912  -5.919  31.182  -8.764
    1XTA    CO3 6913  -6.013  31.211  -8.887
    1XTA    OA3 6914  -5.978  31.135  -9.002
    1XTA    CO4 6915  -5.994  30.995  -8.975
    1XTA    CT1 6916  -5.970  30.908  -9.103
    1XTA    CL5 6917  -6.070  30.959  -9.206
    1XTA    CL6 6918  -6.064  30.901  -9.348
    1XTA    OA4 6919  -5.140  30.468  -8.403
    1XTA    CO5 6920  -5.120  30.388  -8.521
    1XTA    HL1 6921  -5.025  30.419  -8.572
    1XTA    HL2 6922  -4.582  31.336  -8.176
    1XTA    HL3 6923  -4.459  31.412  -8.276
    1XTA    HL4 6924  -4.619  31.453  -8.301
    1XTA    HL5 6925  -5.596  31.212  -8.401
    1XTA    HL6 6926  -5.638  31.374  -8.395
    1XTA    HL7 6927  -5.690  31.397  -8.642
    1XTA    HL8 6928  -5.800  31.316  -8.542
    1XTA    HL9 6929  -5.711  31.090  -8.611
    1XTA   HL10 6930  -5.581  31.172  -8.693
    1XTA   HL11 6931  -5.729  31.273  -8.853
    1XTA   HL12 6932  -5.744  31.097  -8.853
    1XTA   HL13 6933  -5.934  31.254  -8.681
    1XTA   HL14 6934  -5.952  31.087  -8.719
    1XTA   HL15 6935  -6.122  31.193  -8.869
    1XTA   HL16 6936  -6.006  31.317  -8.907
    1XTA   HL17 6937  -5.926  30.964  -8.897
    1XTA   HL18 6938  -6.089  30.983  -8.933
    1XTA   HL19 6939  -6.057  31.070  -9.211
    1XTA   HL20 6940  -6.177  30.942  -9.185
    1XTA   HL21 6941  -6.044  30.800  -9.346
    1XTA   HL22 6942  -5.974  30.939  -9.402
    1XTA   HL23 6943  -6.158  30.922  -9.398
    1XTA   HL24 6944  -5.209  30.403  -8.581
    1XTA   HL25 6945  -5.120  30.282  -8.506
    1XTA    CO8 6946  -6.004  30.768  -9.070
    1XTA    CO9 6947  -5.828  30.913  -9.161
    1XTA    OA6 6948  -5.806  31.013  -9.200
    1XTA   HL42 6949  -5.993  30.693  -9.151
    1XTA   HL43 6950  -6.134  30.759  -9.007
    1XTA   HL48 6951  -5.818  30.845  -9.252
    1XTA   HL49 6952  -5.745  30.889  -9.095
    1XTA     NT 6953  -5.999  29.460  -5.350
    1XTA    CN1 6954  -6.066  29.506  -5.242
    1XTA     C1 6955  -5.988  29.563  -5.144
    1XTA     C2 6956  -6.035  29.602  -5.023
    1XTA     C3 6957  -6.178  29.595  -5.002
    1XTA     C4 6958  -6.263  29.529  -5.094
    1XTA     C5 6959  -6.209  29.484  -5.216
    1XTA    CN2 6960  -6.003  29.323  -5.374
    1XTA     C6 6961  -6.076  29.260  -5.476
    1XTA     C7 6962  -6.075  29.118  -5.490
    1XTA     C8 6963  -6.008  29.032  -5.400
    1XTA     C9 6964  -5.946  29.093  -5.295
    1XTA    C10 6965  -5.935  29.235  -5.288
    1XTA    CN3 6966  -5.981  29.548  -5.454
    1XTA    C11 6967  -5.850  29.603  -5.469
    1XTA    C12 6968  -5.818  29.693  -5.568
    1XTA    C13 6969  -5.921  29.742  -5.656
    1XTA    C14 6970  -6.055  29.695  -5.641
    1XTA    C15 6971  -6.080  29.588  -5.546
    1XTA     H1 6972  -5.882  29.571  -5.157
    1XTA     H2 6973  -5.975  29.638  -4.940
    1XTA     H3 6974  -6.372  29.520  -5.069
    1XTA     H4 6975  -6.274  29.451  -5.295
    1XTA     H5 6976  -6.132  29.306  -5.546
    1XTA     H6 6977  -6.125  29.061  -5.572
    1XTA     H7 6978  -5.907  29.028  -5.222
    1XTA     H8 6979  -5.861  29.286  -5.222
    1XTA     H9 6980  -5.781  29.574  -5.394
    1XTA    H10 6981  -5.717  29.728  -5.587
    1XTA    H11 6982  -6.132  29.733  -5.703
    1XTA    H12 6983  -6.184  29.558  -5.540
    1XTA    OA1 6984  -6.227  29.617  -4.876
    1XTA    CO1 6985  -6.159  29.721  -4.804
    1XTA    OA2 6986  -6.027  28.895  -5.416
    1XTA    CO2 6987  -5.954  28.804  -5.333
    1XTA    CL1 6988  -6.011  28.670  -5.373
    1XTA    CL2 6989  -5.940  28.561  -5.300
    1XTA    CL3 6990  -5.933  28.572  -5.140
    1XTA    CL4 6991  -6.061  28.589  -5.075
    1XTA    CO3 6992  -6.037  28.647  -4.933
    1XTA    OA3 6993  -6.165  28.656  -4.862
    1XTA    CO4 6994  -6.200  28.535  -4.797
    1XTA    CT1 6995  -6.354  28.542  -4.763
    1XTA    CL5 6996  -6.417  28.569  -4.900
    1XTA    CL6 6997  -6.566  28.610  -4.902
    1XTA    OA4 6998  -5.882  29.830  -5.756
    1XTA    CO5 6999  -5.985  29.847  -5.862
    1XTA    HL1 7000  -6.005  29.751  -5.902
    1XTA    HL2 7001  -6.184  29.805  -4.870
    1XTA    HL3 7002  -6.208  29.720  -4.708
    1XTA    HL4 7003  -6.049  29.713  -4.786
    1XTA    HL5 7004  -5.854  28.817  -5.356
    1XTA    HL6 7005  -5.967  28.830  -5.229
    1XTA    HL7 7006  -6.008  28.661  -5.484
    1XTA    HL8 7007  -6.120  28.666  -5.357
    1XTA    HL9 7008  -5.843  28.540  -5.341
    1XTA   HL10 7009  -5.994  28.465  -5.321
    1XTA   HL11 7010  -5.883  28.492  -5.092
    1XTA   HL12 7011  -5.860  28.653  -5.129
    1XTA   HL13 7012  -6.123  28.492  -5.060
    1XTA   HL14 7013  -6.134  28.653  -5.136
    1XTA   HL15 7014  -5.976  28.578  -4.873
    1XTA   HL16 7015  -5.997  28.750  -4.936
    1XTA   HL17 7016  -6.178  28.450  -4.869
    1XTA   HL18 7017  -6.144  28.517  -4.710
    1XTA   HL19 7018  -6.414  28.475  -4.971
    1XTA   HL20 7019  -6.366  28.645  -4.954
    1XTA   HL21 7020  -6.597  28.644  -5.000
    1XTA   HL22 7021  -6.588  28.695  -4.838
    1XTA   HL23 7022  -6.628  28.518  -4.879
    1XTA   HL24 7023  -5.943  29.913  -5.941
    1XTA   HL25 7024  -6.069  29.898  -5.826
    1XTA    CO8 7025  -6.371  28.655  -4.661
    1XTA    CO9 7026  -6.409  28.409  -4.711
    1XTA    OA6 7027  -6.323  28.299  -4.721
    1XTA   HL42 7028  -6.305  28.625  -4.582
    1XTA   HL43 7029  -6.316  28.743  -4.710
    1XTA   HL48 7030  -6.502  28.379  -4.754
    1XTA   HL49 7031  -6.436  28.421  -4.606
    1XTA     NT 7032  -4.602  25.676  -8.453
    1XTA    CN1 7033  -4.498  25.710  -8.530
    1XTA     C1 7034  -4.486  25.849  -8.557
    1XTA     C2 7035  -4.370  25.889  -8.629
    1XTA     C3 7036  -4.280  25.798  -8.692
    1XTA     C4 7037  -4.298  25.664  -8.656
    1XTA     C5 7038  -4.406  25.622  -8.578
    1XTA    CN2 7039  -4.726  25.657  -8.511
    1XTA     C6 7040  -4.765  25.526  -8.549
    1XTA     C7 7041  -4.896  25.504  -8.596
    1XTA     C8 7042  -4.983  25.604  -8.628
    1XTA     C9 7043  -4.942  25.741  -8.597
    1XTA    C10 7044  -4.811  25.763  -8.548
    1XTA    CN3 7045  -4.583  25.663  -8.318
    1XTA    C11 7046  -4.665  25.744  -8.235
    1XTA    C12 7047  -4.663  25.719  -8.094
    1XTA    C13 7048  -4.569  25.633  -8.035
    1XTA    C14 7049  -4.479  25.570  -8.119
    1XTA    C15 7050  -4.488  25.582  -8.258
    1XTA     H1 7051  -4.558  25.919  -8.525
    1XTA     H2 7052  -4.339  25.994  -8.636
    1XTA     H3 7053  -4.238  25.588  -8.693
    1XTA     H4 7054  -4.424  25.517  -8.555
    1XTA     H5 7055  -4.713  25.437  -8.524
    1XTA     H6 7056  -4.924  25.401  -8.611
    1XTA     H7 7057  -5.010  25.825  -8.611
    1XTA     H8 7058  -4.770  25.865  -8.528
    1XTA     H9 7059  -4.717  25.821  -8.282
    1XTA    H10 7060  -4.731  25.770  -8.029
    1XTA    H11 7061  -4.409  25.503  -8.069
    1XTA    H12 7062  -4.421  25.531  -8.326
    1XTA    OA1 7063  -4.169  25.845  -8.755
    1XTA    CO1 7064  -4.073  25.764  -8.809
    1XTA    OA2 7065  -5.113  25.581  -8.682
    1XTA    CO2 7066  -5.188  25.695  -8.721
    1XTA    CL1 7067  -5.275  25.647  -8.843
    1XTA    CL2 7068  -5.372  25.522  -8.825
    1XTA    CL3 7069  -5.487  25.512  -8.928
    1XTA    CL4 7070  -5.617  25.450  -8.883
    1XTA    CO3 7071  -5.747  25.504  -8.943
    1XTA    OA3 7072  -5.745  25.648  -8.947
    1XTA    CO4 7073  -5.735  25.706  -8.811
    1XTA    CT1 7074  -5.823  25.833  -8.806
    1XTA    CL5 7075  -5.968  25.808  -8.861
    1XTA    CL6 7076  -6.064  25.924  -8.897
    1XTA    OA4 7077  -4.570  25.610  -7.899
    1XTA    CO5 7078  -4.559  25.479  -7.855
    1XTA    HL1 7079  -4.551  25.484  -7.741
    1XTA    HL2 7080  -3.993  25.822  -8.859
    1XTA    HL3 7081  -4.035  25.683  -8.736
    1XTA    HL4 7082  -4.116  25.705  -8.895
    1XTA    HL5 7083  -5.257  25.730  -8.644
    1XTA    HL6 7084  -5.125  25.782  -8.766
    1XTA    HL7 7085  -5.225  25.625  -8.931
    1XTA    HL8 7086  -5.332  25.742  -8.870
    1XTA    HL9 7087  -5.411  25.531  -8.719
    1XTA   HL10 7088  -5.305  25.433  -8.824
    1XTA   HL11 7089  -5.502  25.615  -8.967
    1XTA   HL12 7090  -5.458  25.443  -9.007
    1XTA   HL13 7091  -5.626  25.466  -8.773
    1XTA   HL14 7092  -5.612  25.344  -8.889
    1XTA   HL15 7093  -5.756  25.461  -9.044
    1XTA   HL16 7094  -5.833  25.465  -8.882
    1XTA   HL17 7095  -5.764  25.634  -8.742
    1XTA   HL18 7096  -5.627  25.726  -8.792
    1XTA   HL19 7097  -6.006  25.740  -8.785
    1XTA   HL20 7098  -5.957  25.758  -8.956
    1XTA   HL21 7099  -6.006  25.995  -8.953
    1XTA   HL22 7100  -6.101  25.977  -8.806
    1XTA   HL23 7101  -6.151  25.897  -8.956
    1XTA   HL24 7102  -4.467  25.433  -7.886
    1XTA   HL25 7103  -4.636  25.410  -7.898
    1XTA    CO8 7104  -5.741  25.942  -8.883
    1XTA    CO9 7105  -5.840  25.888  -8.658
    1XTA    OA6 7106  -5.617  25.965  -8.812
    1XTA   HL42 7107  -5.806  26.034  -8.878
    1XTA   HL43 7108  -5.730  25.916  -8.986
    1XTA   HL48 7109  -5.757  25.938  -8.610
    1XTA   HL49 7110  -5.920  25.963  -8.669
    1XTA     NT 7111  -2.327  29.943  -7.943
    1XTA    CN1 7112  -2.378  29.917  -7.823
    1XTA     C1 7113  -2.515  29.946  -7.794
    1XTA     C2 7114  -2.556  29.922  -7.669
    1XTA     C3 7115  -2.469  29.867  -7.570
    1XTA     C4 7116  -2.333  29.849  -7.606
    1XTA     C5 7117  -2.285  29.867  -7.732
    1XTA    CN2 7118  -2.340  30.061  -8.005
    1XTA     C6 7119  -2.395  30.072  -8.131
    1XTA     C7 7120  -2.413  30.200  -8.187
    1XTA     C8 7121  -2.365  30.317  -8.122
    1XTA     C9 7122  -2.302  30.303  -7.993
    1XTA    C10 7123  -2.295  30.174  -7.939
    1XTA    CN3 7124  -2.261  29.839  -8.005
    1XTA    C11 7125  -2.120  29.849  -8.030
    1XTA    C12 7126  -2.056  29.745  -8.094
    1XTA    C13 7127  -2.123  29.629  -8.134
    1XTA    C14 7128  -2.258  29.614  -8.107
    1XTA    C15 7129  -2.322  29.720  -8.046
    1XTA     H1 7130  -2.590  29.971  -7.868
    1XTA     H2 7131  -2.661  29.945  -7.645
    1XTA     H3 7132  -2.265  29.803  -7.545
    1XTA     H4 7133  -2.180  29.848  -7.762
    1XTA     H5 7134  -2.443  29.992  -8.185
    1XTA     H6 7135  -2.463  30.210  -8.281
    1XTA     H7 7136  -2.249  30.383  -7.946
    1XTA     H8 7137  -2.250  30.171  -7.839
    1XTA     H9 7138  -2.061  29.947  -8.015
    1XTA    H10 7139  -1.952  29.762  -8.120
    1XTA    H11 7140  -2.320  29.530  -8.139
    1XTA    H12 7141  -2.428  29.719  -8.036
    1XTA    OA1 7142  -2.516  29.864  -7.445
    1XTA    CO1 7143  -2.421  29.832  -7.349
    1XTA    OA2 7144  -2.383  30.436  -8.191
    1XTA    CO2 7145  -2.351  30.555  -8.114
    1XTA    CL1 7146  -2.392  30.669  -8.210
    1XTA    CL2 7147  -2.318  30.687  -8.342
    1XTA    CL3 7148  -2.398  30.769  -8.449
    1XTA    CL4 7149  -2.301  30.810  -8.569
    1XTA    CO3 7150  -2.210  30.923  -8.530
    1XTA    OA3 7151  -2.274  31.047  -8.549
    1XTA    CO4 7152  -2.183  31.157  -8.515
    1XTA    CT1 7153  -2.250  31.262  -8.428
    1XTA    CL5 7154  -2.157  31.373  -8.378
    1XTA    CL6 7155  -2.087  31.456  -8.482
    1XTA    OA4 7156  -2.062  29.542  -8.219
    1XTA    CO5 7157  -1.925  29.561  -8.256
    1XTA    HL1 7158  -1.885  29.485  -8.321
    1XTA    HL2 7159  -2.461  29.809  -7.253
    1XTA    HL3 7160  -2.380  29.734  -7.378
    1XTA    HL4 7161  -2.341  29.911  -7.348
    1XTA    HL5 7162  -2.395  30.558  -8.012
    1XTA    HL6 7163  -2.243  30.547  -8.102
    1XTA    HL7 7164  -2.381  30.761  -8.156
    1XTA    HL8 7165  -2.498  30.654  -8.228
    1XTA    HL9 7166  -2.291  30.592  -8.383
    1XTA   HL10 7167  -2.227  30.745  -8.328
    1XTA   HL11 7168  -2.490  30.721  -8.488
    1XTA   HL12 7169  -2.431  30.863  -8.404
    1XTA   HL13 7170  -2.362  30.849  -8.650
    1XTA   HL14 7171  -2.244  30.722  -8.613
    1XTA   HL15 7172  -2.165  30.916  -8.428
    1XTA   HL16 7173  -2.127  30.923  -8.609
    1XTA   HL17 7174  -2.096  31.128  -8.457
    1XTA   HL18 7175  -2.147  31.197  -8.604
    1XTA   HL19 7176  -2.072  31.323  -8.319
    1XTA   HL20 7177  -2.219  31.437  -8.315
    1XTA   HL21 7178  -2.016  31.531  -8.447
    1XTA   HL22 7179  -2.165  31.509  -8.543
    1XTA   HL23 7180  -2.018  31.393  -8.551
    1XTA   HL24 7181  -1.865  29.567  -8.170
    1XTA   HL25 7182  -1.924  29.645  -8.320
    1XTA    CO8 7183  -2.314  31.190  -8.306
    1XTA    CO9 7184  -2.373  31.318  -8.510
    1XTA    OA6 7185  -2.387  31.277  -8.225
    1XTA   HL42 7186  -2.241  31.145  -8.237
    1XTA   HL43 7187  -2.385  31.108  -8.341
    1XTA   HL48 7188  -2.412  31.397  -8.453
    1XTA   HL49 7189  -2.335  31.371  -8.602
    1XTA     NT 7190  -5.570  26.016 -11.036
    1XTA    CN1 7191  -5.545  25.949 -10.921
    1XTA     C1 7192  -5.478  26.011 -10.812
    1XTA     C2 7193  -5.454  25.933 -10.699
    1XTA     C3 7194  -5.503  25.808 -10.682
    1XTA     C4 7195  -5.578  25.750 -10.784
    1XTA     C5 7196  -5.601  25.820 -10.907
    1XTA    CN2 7197  -5.512  25.975 -11.149
    1XTA     C6 7198  -5.569  25.869 -11.221
    1XTA     C7 7199  -5.501  25.806 -11.327
    1XTA     C8 7200  -5.392  25.871 -11.388
    1XTA     C9 7201  -5.335  25.975 -11.320
    1XTA    C10 7202  -5.386  26.015 -11.192
    1XTA    CN3 7203  -5.657  26.119 -11.047
    1XTA    C11 7204  -5.789  26.104 -11.098
    1XTA    C12 7205  -5.878  26.215 -11.099
    1XTA    C13 7206  -5.836  26.337 -11.041
    1XTA    C14 7207  -5.699  26.358 -11.013
    1XTA    C15 7208  -5.615  26.246 -11.008
    1XTA     H1 7209  -5.448  26.110 -10.815
    1XTA     H2 7210  -5.410  25.969 -10.610
    1XTA     H3 7211  -5.623  25.655 -10.776
    1XTA     H4 7212  -5.658  25.777 -10.986
    1XTA     H5 7213  -5.669  25.833 -11.203
    1XTA     H6 7214  -5.539  25.719 -11.373
    1XTA     H7 7215  -5.251  26.019 -11.374
    1XTA     H8 7216  -5.352  26.106 -11.159
    1XTA     H9 7217  -5.820  26.006 -11.126
    1XTA    H10 7218  -5.980  26.200 -11.111
    1XTA    H11 7219  -5.661  26.446 -10.971
    1XTA    H12 7220  -5.510  26.273 -10.972
    1XTA    OA1 7221  -5.473  25.738 -10.568
    1XTA    CO1 7222  -5.536  25.609 -10.549
    1XTA    OA2 7223  -5.330  25.813 -11.500
    1XTA    CO2 7224  -5.295  25.677 -11.489
    1XTA    CL1 7225  -5.330  25.620 -11.630
    1XTA    CL2 7226  -5.484  25.592 -11.639
    1XTA    CL3 7227  -5.534  25.486 -11.543
    1XTA    CL4 7228  -5.682  25.446 -11.538
    1XTA    CO3 7229  -5.771  25.564 -11.512
    1XTA    OA3 7230  -5.909  25.523 -11.511
    1XTA    CO4 7231  -5.991  25.629 -11.491
    1XTA    CT1 7232  -6.143  25.613 -11.483
    1XTA    CL5 7233  -6.205  25.749 -11.454
    1XTA    CL6 7234  -6.359  25.768 -11.460
    1XTA    OA4 7235  -5.932  26.435 -11.029
    1XTA    CO5 7236  -5.896  26.567 -10.999
    1XTA    HL1 7237  -5.844  26.573 -10.903
    1XTA    HL2 7238  -5.525  25.565 -10.454
    1XTA    HL3 7239  -5.647  25.611 -10.570
    1XTA    HL4 7240  -5.490  25.555 -10.634
    1XTA    HL5 7241  -5.188  25.667 -11.474
    1XTA    HL6 7242  -5.344  25.625 -11.407
    1XTA    HL7 7243  -5.279  25.526 -11.643
    1XTA    HL8 7244  -5.298  25.691 -11.701
    1XTA    HL9 7245  -5.493  25.576 -11.746
    1XTA   HL10 7246  -5.546  25.687 -11.617
    1XTA   HL11 7247  -5.477  25.388 -11.573
    1XTA   HL12 7248  -5.505  25.508 -11.439
    1XTA   HL13 7249  -5.691  25.381 -11.455
    1XTA   HL14 7250  -5.699  25.401 -11.634
    1XTA   HL15 7251  -5.739  25.632 -11.431
    1XTA   HL16 7252  -5.755  25.634 -11.597
    1XTA   HL17 7253  -5.951  25.690 -11.408
    1XTA   HL18 7254  -5.980  25.692 -11.577
    1XTA   HL19 7255  -6.168  25.817 -11.522
    1XTA   HL20 7256  -6.171  25.779 -11.359
    1XTA   HL21 7257  -6.382  25.866 -11.418
    1XTA   HL22 7258  -6.408  25.695 -11.404
    1XTA   HL23 7259  -6.392  25.760 -11.566
    1XTA   HL24 7260  -5.984  26.627 -10.992
    1XTA   HL25 7261  -5.838  26.621 -11.075
    1XTA    CO8 7262  -6.185  25.508 -11.373
    1XTA    CO9 7263  -6.187  25.558 -11.618
    1XTA    OA6 7264  -6.150  25.653 -11.725
    1XTA   HL42 7265  -6.120  25.425 -11.399
    1XTA   HL43 7266  -6.150  25.541 -11.278
    1XTA   HL48 7267  -6.295  25.536 -11.623
    1XTA   HL49 7268  -6.130  25.465 -11.633
    1XTA     NT 7269  -5.673  25.196  -7.451
    1XTA    CN1 7270  -5.781  25.121  -7.491
    1XTA     C1 7271  -5.766  25.032  -7.599
    1XTA     C2 7272  -5.878  24.967  -7.655
    1XTA     C3 7273  -6.005  24.992  -7.606
    1XTA     C4 7274  -6.021  25.078  -7.494
    1XTA     C5 7275  -5.908  25.144  -7.438
    1XTA    CN2 7276  -5.569  25.122  -7.406
    1XTA     C6 7277  -5.571  25.062  -7.278
    1XTA     C7 7278  -5.466  24.981  -7.242
    1XTA     C8 7279  -5.349  24.969  -7.323
    1XTA     C9 7280  -5.351  25.028  -7.449
    1XTA    C10 7281  -5.464  25.106  -7.492
    1XTA    CN3 7282  -5.681  25.331  -7.422
    1XTA    C11 7283  -5.704  25.427  -7.520
    1XTA    C12 7284  -5.724  25.561  -7.481
    1XTA    C13 7285  -5.733  25.601  -7.348
    1XTA    C14 7286  -5.699  25.508  -7.248
    1XTA    C15 7287  -5.676  25.373  -7.287
    1XTA     H1 7288  -5.666  25.013  -7.643
    1XTA     H2 7289  -5.857  24.908  -7.744
    1XTA     H3 7290  -6.115  25.094  -7.448
    1XTA     H4 7291  -5.914  25.211  -7.354
    1XTA     H5 7292  -5.663  25.067  -7.221
    1XTA     H6 7293  -5.465  24.923  -7.153
    1XTA     H7 7294  -5.271  25.010  -7.515
    1XTA     H8 7295  -5.448  25.147  -7.593
    1XTA     H9 7296  -5.724  25.395  -7.620
    1XTA    H10 7297  -5.753  25.635  -7.560
    1XTA    H11 7298  -5.700  25.533  -7.146
    1XTA    H12 7299  -5.660  25.303  -7.215
    1XTA    OA1 7300  -6.110  24.920  -7.668
    1XTA    CO1 7301  -6.240  24.976  -7.638
    1XTA    OA2 7302  -5.241  24.898  -7.281
    1XTA    CO2 7303  -5.234  24.840  -7.151
    1XTA    CL1 7304  -5.153  24.714  -7.181
    1XTA    CL2 7305  -5.106  24.653  -7.044
    1XTA    CL3 7306  -5.214  24.578  -6.967
    1XTA    CL4 7307  -5.266  24.456  -7.043
    1XTA    CO3 7308  -5.366  24.377  -6.956
    1XTA    OA3 7309  -5.401  24.263  -7.032
    1XTA    CO4 7310  -5.468  24.164  -6.954
    1XTA    CT1 7311  -5.450  24.027  -7.029
    1XTA    CL5 7312  -5.300  24.007  -7.039
    1XTA    CL6 7313  -5.253  23.890  -7.129
    1XTA    OA4 7314  -5.766  25.733  -7.304
    1XTA    CO5 7315  -5.859  25.802  -7.395
    1XTA    HL1 7316  -5.945  25.737  -7.441
    1XTA    HL2 7317  -6.255  25.078  -7.676
    1XTA    HL3 7318  -6.304  24.907  -7.691
    1XTA    HL4 7319  -6.258  24.975  -7.530
    1XTA    HL5 7320  -5.183  24.909  -7.085
    1XTA    HL6 7321  -5.329  24.808  -7.110
    1XTA    HL7 7322  -5.066  24.741  -7.235
    1XTA    HL8 7323  -5.212  24.637  -7.232
    1XTA    HL9 7324  -5.060  24.737  -6.994
    1XTA   HL10 7325  -5.026  24.580  -7.063
    1XTA   HL11 7326  -5.177  24.527  -6.877
    1XTA   HL12 7327  -5.292  24.639  -6.932
    1XTA   HL13 7328  -5.182  24.394  -7.083
    1XTA   HL14 7329  -5.309  24.495  -7.137
    1XTA   HL15 7330  -5.346  24.358  -6.846
    1XTA   HL16 7331  -5.473  24.419  -6.951
    1XTA   HL17 7332  -5.433  24.149  -6.850
    1XTA   HL18 7333  -5.569  24.203  -6.948
    1XTA   HL19 7334  -5.257  24.002  -6.941
    1XTA   HL20 7335  -5.261  24.101  -7.075
    1XTA   HL21 7336  -5.146  23.881  -7.144
    1XTA   HL22 7337  -5.284  23.903  -7.234
    1XTA   HL23 7338  -5.289  23.794  -7.082
    1XTA   HL24 7339  -5.804  25.852  -7.472
    1XTA   HL25 7340  -5.913  25.883  -7.343
    1XTA    CO8 7341  -5.519  24.036  -7.167
    1XTA    CO9 7342  -5.506  23.910  -6.940
    1XTA    OA6 7343  -5.490  24.119  -7.229
    1XTA   HL42 7344  -5.623  24.029  -7.153
    1XTA   HL43 7345  -5.486  23.946  -7.223
    1XTA   HL48 7346  -5.555  23.803  -7.015
    1XTA   HL49 7347  -5.602  23.943  -6.905
    1XTA     NT 7348  -8.089  26.490  -5.610
    1XTA    CN1 7349  -8.137  26.540  -5.493
    1XTA     C1 7350  -8.191  26.670  -5.484
    1XTA     C2 7351  -8.247  26.716  -5.361
    1XTA     C3 7352  -8.246  26.634  -5.249
    1XTA     C4 7353  -8.192  26.503  -5.260
    1XTA     C5 7354  -8.135  26.455  -5.381
    1XTA    CN2 7355  -8.167  26.478  -5.720
    1XTA     C6 7356  -8.263  26.374  -5.717
    1XTA     C7 7357  -8.362  26.379  -5.820
    1XTA     C8 7358  -8.366  26.483  -5.911
    1XTA     C9 7359  -8.251  26.563  -5.927
    1XTA    C10 7360  -8.149  26.558  -5.834
    1XTA    CN3 7361  -7.954  26.507  -5.631
    1XTA    C11 7362  -7.895  26.630  -5.637
    1XTA    C12 7363  -7.762  26.653  -5.683
    1XTA    C13 7364  -7.680  26.540  -5.717
    1XTA    C14 7365  -7.735  26.410  -5.700
    1XTA    C15 7366  -7.872  26.391  -5.660
    1XTA     H1 7367  -8.198  26.729  -5.583
    1XTA     H2 7368  -8.276  26.818  -5.357
    1XTA     H3 7369  -8.180  26.435  -5.176
    1XTA     H4 7370  -8.101  26.351  -5.388
    1XTA     H5 7371  -8.269  26.305  -5.640
    1XTA     H6 7372  -8.442  26.303  -5.807
    1XTA     H7 7373  -8.251  26.625  -6.011
    1XTA     H8 7374  -8.064  26.632  -5.829
    1XTA     H9 7375  -7.944  26.722  -5.605
    1XTA    H10 7376  -7.724  26.752  -5.682
    1XTA    H11 7377  -7.673  26.323  -5.710
    1XTA    H12 7378  -7.912  26.294  -5.663
    1XTA    OA1 7379  -8.295  26.685  -5.134
    1XTA    CO1 7380  -8.296  26.593  -5.027
    1XTA    OA2 7381  -8.468  26.510  -5.996
    1XTA    CO2 7382  -8.599  26.473  -5.951
    1XTA    CL1 7383  -8.630  26.529  -5.804
    1XTA    CL2 7384  -8.742  26.456  -5.722
    1XTA    CL3 7385  -8.735  26.485  -5.573
    1XTA    CL4 7386  -8.606  26.447  -5.494
    1XTA    CO3 7387  -8.614  26.468  -5.349
    1XTA    OA3 7388  -8.711  26.373  -5.294
    1XTA    CO4 7389  -8.732  26.383  -5.156
    1XTA    CT1 7390  -8.831  26.269  -5.115
    1XTA    CL5 7391  -8.870  26.264  -4.972
    1XTA    CL6 7392  -8.968  26.151  -4.939
    1XTA    OA4 7393  -7.549  26.562  -5.742
    1XTA    CO5 7394  -7.459  26.450  -5.757
    1XTA    HL1 7395  -7.466  26.398  -5.854
    1XTA    HL2 7396  -8.348  26.639  -4.946
    1XTA    HL3 7397  -8.347  26.498  -5.040
    1XTA    HL4 7398  -8.191  26.575  -4.993
    1XTA    HL5 7399  -8.666  26.510  -6.026
    1XTA    HL6 7400  -8.621  26.363  -5.945
    1XTA    HL7 7401  -8.649  26.635  -5.798
    1XTA    HL8 7402  -8.542  26.514  -5.755
    1XTA    HL9 7403  -8.731  26.350  -5.719
    1XTA   HL10 7404  -8.840  26.473  -5.758
    1XTA   HL11 7405  -8.757  26.589  -5.554
    1XTA   HL12 7406  -8.809  26.438  -5.516
    1XTA   HL13 7407  -8.530  26.514  -5.532
    1XTA   HL14 7408  -8.589  26.340  -5.513
    1XTA   HL15 7409  -8.515  26.452  -5.304
    1XTA   HL16 7410  -8.634  26.567  -5.323
    1XTA   HL17 7411  -8.639  26.366  -5.108
    1XTA   HL18 7412  -8.791  26.476  -5.136
    1XTA   HL19 7413  -8.913  26.362  -4.934
    1XTA   HL20 7414  -8.776  26.247  -4.915
    1XTA   HL21 7415  -8.969  26.144  -4.829
    1XTA   HL22 7416  -8.917  26.065  -4.981
    1XTA   HL23 7417  -9.069  26.170  -4.975
    1XTA   HL24 7418  -7.477  26.370  -5.687
    1XTA   HL25 7419  -7.350  26.479  -5.755
    1XTA    CO8 7420  -8.769  26.138  -5.163
    1XTA    CO9 7421  -8.958  26.292  -5.211
    1XTA    OA6 7422  -8.678  26.119  -5.099
    1XTA   HL42 7423  -8.730  26.145  -5.263
    1XTA   HL43 7424  -8.852  26.060  -5.162
    1XTA   HL48 7425  -9.058  26.204  -5.174
    1XTA   HL49 7426  -8.921  26.253  -5.303
    1XTA     NT 7427  -8.111  24.318 -10.079
    1XTA    CN1 7428  -8.232  24.342 -10.135
    1XTA     C1 7429  -8.298  24.458 -10.093
    1XTA     C2 7430  -8.429  24.485 -10.142
    1XTA     C3 7431  -8.486  24.406 -10.245
    1XTA     C4 7432  -8.412  24.295 -10.294
    1XTA     C5 7433  -8.288  24.256 -10.229
    1XTA    CN2 7434  -8.000  24.381 -10.126
    1XTA     C6 7435  -7.909  24.446 -10.036
    1XTA     C7 7436  -7.781  24.477 -10.073
    1XTA     C8 7437  -7.738  24.451 -10.205
    1XTA     C9 7438  -7.828  24.397 -10.295
    1XTA    C10 7439  -7.956  24.359 -10.256
    1XTA    CN3 7440  -8.104  24.204 -10.000
    1XTA    C11 7441  -8.065  24.085 -10.058
    1XTA    C12 7442  -8.039  23.969  -9.981
    1XTA    C13 7443  -8.081  23.966  -9.850
    1XTA    C14 7444  -8.126  24.087  -9.792
    1XTA    C15 7445  -8.140  24.203  -9.866
    1XTA     H1 7446  -8.249  24.515 -10.021
    1XTA     H2 7447  -8.478  24.568 -10.103
    1XTA     H3 7448  -8.447  24.228 -10.378
    1XTA     H4 7449  -8.224  24.173 -10.272
    1XTA     H5 7450  -7.935  24.476  -9.931
    1XTA     H6 7451  -7.713  24.522 -10.005
    1XTA     H7 7452  -7.807  24.379 -10.400
    1XTA     H8 7453  -8.013  24.315 -10.332
    1XTA     H9 7454  -8.042  24.080 -10.162
    1XTA    H10 7455  -7.995  23.878 -10.029
    1XTA    H11 7456  -8.158  24.092  -9.689
    1XTA    H12 7457  -8.179  24.299  -9.827
    1XTA    OA1 7458  -8.615  24.445 -10.285
    1XTA    CO1 7459  -8.666  24.380 -10.397
    1XTA    OA2 7460  -7.611  24.489 -10.248
    1XTA    CO2 7461  -7.557  24.414 -10.355
    1XTA    CL1 7462  -7.422  24.479 -10.389
    1XTA    CL2 7463  -7.335  24.380 -10.464
    1XTA    CL3 7464  -7.395  24.327 -10.598
    1XTA    CL4 7465  -7.295  24.260 -10.687
    1XTA    CO3 7466  -7.370  24.174 -10.795
    1XTA    OA3 7467  -7.270  24.100 -10.870
    1XTA    CO4 7468  -7.334  24.007 -10.950
    1XTA    CT1 7469  -7.247  23.965 -11.068
    1XTA    CL5 7470  -7.332  23.904 -11.176
    1XTA    CL6 7471  -7.448  23.813 -11.139
    1XTA    OA4 7472  -8.059  23.855  -9.769
    1XTA    CO5 7473  -7.925  23.856  -9.707
    1XTA    HL1 7474  -7.916  23.755  -9.660
    1XTA    HL2 7475  -8.604  24.361 -10.480
    1XTA    HL3 7476  -8.693  24.284 -10.371
    1XTA    HL4 7477  -8.755  24.430 -10.432
    1XTA    HL5 7478  -7.546  24.302 -10.342
    1XTA    HL6 7479  -7.624  24.428 -10.441
    1XTA    HL7 7480  -7.373  24.530 -10.305
    1XTA    HL8 7481  -7.441  24.567 -10.448
    1XTA    HL9 7482  -7.320  24.288 -10.396
    1XTA   HL10 7483  -7.235  24.425 -10.483
    1XTA   HL11 7484  -7.480  24.264 -10.577
    1XTA   HL12 7485  -7.443  24.408 -10.653
    1XTA   HL13 7486  -7.237  24.185 -10.624
    1XTA   HL14 7487  -7.216  24.316 -10.740
    1XTA   HL15 7488  -7.455  24.112 -10.754
    1XTA   HL16 7489  -7.413  24.255 -10.861
    1XTA   HL17 7490  -7.362  23.926 -10.890
    1XTA   HL18 7491  -7.423  24.057 -10.991
    1XTA   HL19 7492  -7.265  23.849 -11.241
    1XTA   HL20 7493  -7.379  23.974 -11.252
    1XTA   HL21 7494  -7.413  23.719 -11.098
    1XTA   HL22 7495  -7.501  23.792 -11.228
    1XTA   HL23 7496  -7.515  23.857 -11.070
    1XTA   HL24 7497  -7.917  23.928  -9.624
    1XTA   HL25 7498  -7.844  23.864  -9.779
    1XTA    CO8 7499  -7.129  23.877 -11.010
    1XTA    CO9 7500  -7.183  24.093 -11.130
    1XTA    OA6 7501  -7.164  23.747 -10.952
    1XTA   HL42 7502  -7.075  23.925 -10.934
    1XTA   HL43 7503  -7.051  23.863 -11.077
    1XTA   HL48 7504  -7.096  24.056 -11.184
    1XTA   HL49 7505  -7.145  24.155 -11.049
    1XTA     NT 7506  -1.976  27.042  -6.144
    1XTA    CN1 7507  -1.930  27.086  -6.262
    1XTA     C1 7508  -1.862  27.003  -6.352
    1XTA     C2 7509  -1.811  27.045  -6.477
    1XTA     C3 7510  -1.839  27.174  -6.519
    1XTA     C4 7511  -1.902  27.257  -6.435
    1XTA     C5 7512  -1.952  27.215  -6.308
    1XTA    CN2 7513  -2.090  27.087  -6.092
    1XTA     C6 7514  -2.096  27.187  -5.986
    1XTA     C7 7515  -2.223  27.212  -5.931
    1XTA     C8 7516  -2.346  27.152  -5.973
    1XTA     C9 7517  -2.337  27.060  -6.080
    1XTA    C10 7518  -2.210  27.035  -6.141
    1XTA    CN3 7519  -1.884  26.990  -6.062
    1XTA    C11 7520  -1.889  26.858  -6.019
    1XTA    C12 7521  -1.790  26.816  -5.927
    1XTA    C13 7522  -1.680  26.903  -5.903
    1XTA    C14 7523  -1.668  27.029  -5.961
    1XTA    C15 7524  -1.781  27.073  -6.030
    1XTA     H1 7525  -1.841  26.900  -6.318
    1XTA     H2 7526  -1.751  26.972  -6.527
    1XTA     H3 7527  -1.928  27.357  -6.462
    1XTA     H4 7528  -1.992  27.289  -6.241
    1XTA     H5 7529  -2.003  27.217  -5.939
    1XTA     H6 7530  -2.230  27.278  -5.846
    1XTA     H7 7531  -2.419  27.001  -6.111
    1XTA     H8 7532  -2.201  26.968  -6.222
    1XTA     H9 7533  -1.974  26.790  -6.049
    1XTA    H10 7534  -1.799  26.718  -5.891
    1XTA    H11 7535  -1.582  27.087  -5.946
    1XTA    H12 7536  -1.792  27.181  -6.054
    1XTA    OA1 7537  -1.779  27.220  -6.636
    1XTA    CO1 7538  -1.728  27.130  -6.734
    1XTA    OA2 7539  -2.450  27.162  -5.890
    1XTA    CO2 7540  -2.540  27.049  -5.874
    1XTA    CL1 7541  -2.455  26.935  -5.801
    1XTA    CL2 7542  -2.402  26.981  -5.667
    1XTA    CL3 7543  -2.297  26.878  -5.616
    1XTA    CL4 7544  -2.159  26.900  -5.666
    1XTA    CO3 7545  -2.094  26.993  -5.569
    1XTA    OA3 7546  -1.963  27.025  -5.606
    1XTA    CO4 7547  -1.870  27.096  -5.522
    1XTA    CT1 7548  -1.861  27.248  -5.553
    1XTA    CL5 7549  -1.981  27.305  -5.637
    1XTA    CL6 7550  -1.968  27.453  -5.677
    1XTA    OA4 7551  -1.575  26.865  -5.826
    1XTA    CO5 7552  -1.551  26.725  -5.809
    1XTA    HL1 7553  -1.642  26.687  -5.758
    1XTA    HL2 7554  -1.683  27.186  -6.823
    1XTA    HL3 7555  -1.637  27.076  -6.690
    1XTA    HL4 7556  -1.804  27.052  -6.750
    1XTA    HL5 7557  -2.630  27.073  -5.825
    1XTA    HL6 7558  -2.562  27.008  -5.975
    1XTA    HL7 7559  -2.382  26.892  -5.865
    1XTA    HL8 7560  -2.528  26.859  -5.798
    1XTA    HL9 7561  -2.478  27.001  -5.594
    1XTA   HL10 7562  -2.358  27.076  -5.683
    1XTA   HL11 7563  -2.302  26.856  -5.505
    1XTA   HL12 7564  -2.321  26.775  -5.642
    1XTA   HL13 7565  -2.154  26.929  -5.771
    1XTA   HL14 7566  -2.099  26.803  -5.672
    1XTA   HL15 7567  -2.149  27.083  -5.549
    1XTA   HL16 7568  -2.100  26.949  -5.473
    1XTA   HL17 7569  -1.911  27.080  -5.420
    1XTA   HL18 7570  -1.767  27.050  -5.521
    1XTA   HL19 7571  -2.066  27.297  -5.571
    1XTA   HL20 7572  -2.004  27.230  -5.716
    1XTA   HL21 7573  -2.040  27.511  -5.737
    1XTA   HL22 7574  -1.879  27.453  -5.740
    1XTA   HL23 7575  -1.949  27.522  -5.591
    1XTA   HL24 7576  -1.473  26.691  -5.743
    1XTA   HL25 7577  -1.548  26.667  -5.902
    1XTA    CO8 7578  -1.728  27.284  -5.630
    1XTA    CO9 7579  -1.864  27.328  -5.419
    1XTA    OA6 7580  -1.611  27.229  -5.566
    1XTA   HL42 7581  -1.724  27.392  -5.631
    1XTA   HL43 7582  -1.744  27.238  -5.727
    1XTA   HL48 7583  -1.783  27.286  -5.352
    1XTA   HL49 7584  -1.832  27.430  -5.421
    1XTA     NT 7585  -7.480  27.513  -5.559
    1XTA    CN1 7586  -7.379  27.475  -5.643
    1XTA     C1 7587  -7.385  27.493  -5.786
    1XTA     C2 7588  -7.281  27.442  -5.869
    1XTA     C3 7589  -7.169  27.380  -5.814
    1XTA     C4 7590  -7.166  27.367  -5.677
    1XTA     C5 7591  -7.265  27.416  -5.593
    1XTA    CN2 7592  -7.561  27.417  -5.502
    1XTA     C6 7593  -7.636  27.338  -5.585
    1XTA     C7 7594  -7.701  27.226  -5.536
    1XTA     C8 7595  -7.683  27.184  -5.401
    1XTA     C9 7596  -7.609  27.271  -5.316
    1XTA    C10 7597  -7.551  27.386  -5.368
    1XTA    CN3 7598  -7.513  27.642  -5.555
    1XTA    C11 7599  -7.630  27.695  -5.619
    1XTA    C12 7600  -7.669  27.826  -5.578
    1XTA    C13 7601  -7.596  27.909  -5.490
    1XTA    C14 7602  -7.477  27.864  -5.434
    1XTA    C15 7603  -7.434  27.731  -5.470
    1XTA     H1 7604  -7.470  27.541  -5.827
    1XTA     H2 7605  -7.289  27.451  -5.976
    1XTA     H3 7606  -7.084  27.313  -5.634
    1XTA     H4 7607  -7.245  27.395  -5.485
    1XTA     H5 7608  -7.634  27.351  -5.692
    1XTA     H6 7609  -7.772  27.180  -5.599
    1XTA     H7 7610  -7.612  27.249  -5.212
    1XTA     H8 7611  -7.495  27.455  -5.303
    1XTA     H9 7612  -7.697  27.646  -5.688
    1XTA    H10 7613  -7.753  27.858  -5.636
    1XTA    H11 7614  -7.431  27.921  -5.358
    1XTA    H12 7615  -7.340  27.679  -5.432
    1XTA    OA1 7616  -7.063  27.329  -5.894
    1XTA    CO1 7617  -7.085  27.358  -6.028
    1XTA    OA2 7618  -7.752  27.080  -5.347
    1XTA    CO2 7619  -7.740  26.961  -5.419
    1XTA    CL1 7620  -7.656  26.864  -5.348
    1XTA    CL2 7621  -7.515  26.911  -5.312
    1XTA    CL3 7622  -7.430  26.903  -5.443
    1XTA    CL4 7623  -7.287  26.958  -5.429
    1XTA    CO3 7624  -7.294  27.107  -5.418
    1XTA    OA3 7625  -7.165  27.166  -5.403
    1XTA    CO4 7626  -7.079  27.120  -5.293
    1XTA    CT1 7627  -6.994  27.243  -5.263
    1XTA    CL5 7628  -7.085  27.372  -5.249
    1XTA    CL6 7629  -7.205  27.359  -5.149
    1XTA    OA4 7630  -7.638  28.035  -5.460
    1XTA    CO5 7631  -7.769  28.068  -5.500
    1XTA    HL1 7632  -7.840  27.990  -5.512
    1XTA    HL2 7633  -6.999  27.324  -6.080
    1XTA    HL3 7634  -7.172  27.313  -6.072
    1XTA    HL4 7635  -7.077  27.464  -6.047
    1XTA    HL5 7636  -7.841  26.924  -5.399
    1XTA    HL6 7637  -7.737  26.964  -5.526
    1XTA    HL7 7638  -7.661  26.767  -5.401
    1XTA    HL8 7639  -7.714  26.836  -5.256
    1XTA    HL9 7640  -7.466  26.851  -5.234
    1XTA   HL10 7641  -7.510  27.009  -5.264
    1XTA   HL11 7642  -7.425  26.796  -5.468
    1XTA   HL12 7643  -7.491  26.953  -5.516
    1XTA   HL13 7644  -7.238  26.938  -5.524
    1XTA   HL14 7645  -7.231  26.913  -5.347
    1XTA   HL15 7646  -7.332  27.143  -5.514
    1XTA   HL16 7647  -7.363  27.149  -5.343
    1XTA   HL17 7648  -7.139  27.097  -5.206
    1XTA   HL18 7649  -7.012  27.038  -5.306
    1XTA   HL19 7650  -7.130  27.384  -5.345
    1XTA   HL20 7651  -7.017  27.459  -5.244
    1XTA   HL21 7652  -7.180  27.351  -5.039
    1XTA   HL22 7653  -7.271  27.278  -5.176
    1XTA   HL23 7654  -7.271  27.450  -5.152
    1XTA   HL24 7655  -7.758  28.100  -5.599
    1XTA   HL25 7656  -7.814  28.145  -5.446
    1XTA    CO8 7657  -6.895  27.272  -5.382
    1XTA    CO9 7658  -6.913  27.227  -5.132
    1XTA    OA6 7659  -6.832  27.183  -5.389
    1XTA   HL42 7660  -6.835  27.367  -5.364
    1XTA   HL43 7661  -6.950  27.287  -5.469
    1XTA   HL48 7662  -6.836  27.109  -5.134
    1XTA   HL49 7663  -6.979  27.213  -5.047
    1XTA     NT 7664  -2.100  29.015  -8.923
    1XTA    CN1 7665  -2.190  28.962  -8.831
    1XTA     C1 7666  -2.175  28.829  -8.788
    1XTA     C2 7667  -2.267  28.780  -8.692
    1XTA     C3 7668  -2.379  28.857  -8.645
    1XTA     C4 7669  -2.384  28.993  -8.677
    1XTA     C5 7670  -2.289  29.043  -8.774
    1XTA    CN2 7671  -2.143  29.100  -9.022
    1XTA     C6 7672  -2.213  29.057  -9.141
    1XTA     C7 7673  -2.260  29.153  -9.232
    1XTA     C8 7674  -2.251  29.289  -9.206
    1XTA     C9 7675  -2.198  29.331  -9.077
    1XTA    C10 7676  -2.143  29.233  -8.991
    1XTA    CN3 7677  -1.970  28.981  -8.920
    1XTA    C11 7678  -1.918  28.887  -9.017
    1XTA    C12 7679  -1.795  28.820  -9.005
    1XTA    C13 7680  -1.708  28.867  -8.909
    1XTA    C14 7681  -1.749  28.974  -8.827
    1XTA    C15 7682  -1.883  29.025  -8.824
    1XTA     H1 7683  -2.096  28.754  -8.813
    1XTA     H2 7684  -2.249  28.681  -8.661
    1XTA     H3 7685  -2.466  29.050  -8.637
    1XTA     H4 7686  -2.297  29.149  -8.809
    1XTA     H5 7687  -2.206  28.955  -9.172
    1XTA     H6 7688  -2.295  29.127  -9.333
    1XTA     H7 7689  -2.194  29.440  -9.043
    1XTA     H8 7690  -2.100  29.262  -8.896
    1XTA     H9 7691  -1.992  28.862  -9.092
    1XTA    H10 7692  -1.765  28.751  -9.080
    1XTA    H11 7693  -1.680  29.014  -8.756
    1XTA    H12 7694  -1.920  29.104  -8.754
    1XTA    OA1 7695  -2.481  28.823  -8.562
    1XTA    CO1 7696  -2.466  28.704  -8.488
    1XTA    OA2 7697  -2.309  29.377  -9.300
    1XTA    CO2 7698  -2.349  29.508  -9.261
    1XTA    CL1 7699  -2.476  29.539  -9.347
    1XTA    CL2 7700  -2.451  29.530  -9.500
    1XTA    CL3 7701  -2.406  29.667  -9.557
    1XTA    CL4 7702  -2.414  29.655  -9.708
    1XTA    CO3 7703  -2.371  29.789  -9.777
    1XTA    OA3 7704  -2.236  29.813  -9.738
    1XTA    CO4 7705  -2.191  29.942  -9.731
    1XTA    CT1 7706  -2.040  29.952  -9.733
    1XTA    CL5 7707  -1.981  29.856  -9.833
    1XTA    CL6 7708  -1.826  29.857  -9.843
    1XTA    OA4 7709  -1.584  28.812  -8.912
    1XTA    CO5 7710  -1.491  28.884  -8.843
    1XTA    HL1 7711  -1.438  28.952  -8.913
    1XTA    HL2 7712  -2.539  28.705  -8.404
    1XTA    HL3 7713  -2.489  28.617  -8.545
    1XTA    HL4 7714  -2.369  28.695  -8.439
    1XTA    HL5 7715  -2.377  29.507  -9.154
    1XTA    HL6 7716  -2.261  29.578  -9.266
    1XTA    HL7 7717  -2.528  29.638  -9.333
    1XTA    HL8 7718  -2.542  29.459  -9.322
    1XTA    HL9 7719  -2.547  29.504  -9.544
    1XTA   HL10 7720  -2.379  29.451  -9.536
    1XTA   HL11 7721  -2.481  29.744  -9.528
    1XTA   HL12 7722  -2.302  29.689  -9.514
    1XTA   HL13 7723  -2.512  29.632  -9.733
    1XTA   HL14 7724  -2.357  29.572  -9.745
    1XTA   HL15 7725  -2.393  29.788  -9.881
    1XTA   HL16 7726  -2.443  29.871  -9.735
    1XTA   HL17 7727  -2.214  29.992  -9.818
    1XTA   HL18 7728  -2.233  29.995  -9.640
    1XTA   HL19 7729  -2.021  29.862  -9.938
    1XTA   HL20 7730  -2.000  29.752  -9.799
    1XTA   HL21 7731  -1.786  29.945  -9.886
    1XTA   HL22 7732  -1.803  29.780  -9.916
    1XTA   HL23 7733  -1.785  29.834  -9.751
    1XTA   HL24 7734  -1.418  28.808  -8.823
    1XTA   HL25 7735  -1.512  28.922  -8.752
    1XTA    CO8 7736  -1.987  29.926  -9.591
    1XTA    CO9 7737  -2.000  30.099  -9.783
    1XTA    OA6 7738  -1.979  29.791  -9.559
    1XTA   HL42 7739  -2.038  29.984  -9.519
    1XTA   HL43 7740  -1.888  29.966  -9.584
    1XTA   HL48 7741  -1.997  30.122  -9.892
    1XTA   HL49 7742  -2.070  30.170  -9.745
    1XTA     NT 7743  -5.929  29.378 -10.704
    1XTA    CN1 7744  -5.981  29.384 -10.830
    1XTA     C1 7745  -6.015  29.265 -10.893
    1XTA     C2 7746  -6.056  29.276 -11.030
    1XTA     C3 7747  -6.065  29.404 -11.093
    1XTA     C4 7748  -6.029  29.518 -11.028
    1XTA     C5 7749  -5.986  29.505 -10.896
    1XTA    CN2 7750  -6.002  29.316 -10.606
    1XTA     C6 7751  -6.138  29.349 -10.590
    1XTA     C7 7752  -6.218  29.282 -10.496
    1XTA     C8 7753  -6.167  29.167 -10.433
    1XTA     C9 7754  -6.027  29.126 -10.450
    1XTA    C10 7755  -5.950  29.204 -10.534
    1XTA    CN3 7756  -5.819  29.444 -10.675
    1XTA    C11 7757  -5.694  29.400 -10.720
    1XTA    C12 7758  -5.574  29.473 -10.695
    1XTA    C13 7759  -5.585  29.593 -10.623
    1XTA    C14 7760  -5.703  29.642 -10.576
    1XTA    C15 7761  -5.826  29.566 -10.606
    1XTA     H1 7762  -5.989  29.167 -10.853
    1XTA     H2 7763  -6.092  29.188 -11.084
    1XTA     H3 7764  -6.022  29.614 -11.082
    1XTA     H4 7765  -5.954  29.594 -10.835
    1XTA     H5 7766  -6.180  29.430 -10.640
    1XTA     H6 7767  -6.322  29.311 -10.495
    1XTA     H7 7768  -5.998  29.037 -10.403
    1XTA     H8 7769  -5.852  29.171 -10.555
    1XTA     H9 7770  -5.690  29.317 -10.785
    1XTA    H10 7771  -5.479  29.432 -10.723
    1XTA    H11 7772  -5.703  29.729 -10.512
    1XTA    H12 7773  -5.914  29.615 -10.567
    1XTA    OA1 7774  -6.113  29.398 -11.227
    1XTA    CO1 7775  -6.170  29.509 -11.287
    1XTA    OA2 7776  -6.241  29.097 -10.345
    1XTA    CO2 7777  -6.361  29.147 -10.289
    1XTA    CL1 7778  -6.423  29.044 -10.189
    1XTA    CL2 7779  -6.408  28.907 -10.262
    1XTA    CL3 7780  -6.451  28.797 -10.167
    1XTA    CL4 7781  -6.430  28.646 -10.215
    1XTA    CO3 7782  -6.471  28.550 -10.103
    1XTA    OA3 7783  -6.468  28.419 -10.157
    1XTA    CO4 7784  -6.541  28.319 -10.095
    1XTA    CT1 7785  -6.537  28.190 -10.181
    1XTA    CL5 7786  -6.634  28.086 -10.127
    1XTA    CL6 7787  -6.587  28.039  -9.988
    1XTA    OA4 7788  -5.478  29.670 -10.598
    1XTA    CO5 7789  -5.389  29.695 -10.704
    1XTA    HL1 7790  -5.335  29.613 -10.751
    1XTA    HL2 7791  -6.215  29.477 -11.379
    1XTA    HL3 7792  -6.248  29.555 -11.236
    1XTA    HL4 7793  -6.101  29.587 -11.298
    1XTA    HL5 7794  -6.338  29.242 -10.249
    1XTA    HL6 7795  -6.433  29.171 -10.368
    1XTA    HL7 7796  -6.527  29.064 -10.168
    1XTA    HL8 7797  -6.367  29.042 -10.101
    1XTA    HL9 7798  -6.300  28.893 -10.274
    1XTA   HL10 7799  -6.456  28.912 -10.361
    1XTA   HL11 7800  -6.409  28.799 -10.064
    1XTA   HL12 7801  -6.560  28.819 -10.150
    1XTA   HL13 7802  -6.320  28.636 -10.214
    1XTA   HL14 7803  -6.473  28.624 -10.313
    1XTA   HL15 7804  -6.388  28.543 -10.026
    1XTA   HL16 7805  -6.562  28.573 -10.052
    1XTA   HL17 7806  -6.507  28.297  -9.996
    1XTA   HL18 7807  -6.645  28.350 -10.063
    1XTA   HL19 7808  -6.640  27.996 -10.193
    1XTA   HL20 7809  -6.732  28.130 -10.122
    1XTA   HL21 7810  -6.492  27.978  -9.995
    1XTA   HL22 7811  -6.662  27.975  -9.939
    1XTA   HL23 7812  -6.570  28.113  -9.920
    1XTA   HL24 7813  -5.306  29.747 -10.667
    1XTA   HL25 7814  -5.427  29.764 -10.778
    1XTA    CO8 7815  -6.389  28.132 -10.172
    1XTA    CO9 7816  -6.571  28.217 -10.328
    1XTA    OA6 7817  -6.663  28.279 -10.339
    1XTA   HL42 7818  -6.393  28.029 -10.206
    1XTA   HL43 7819  -6.339  28.131 -10.043
    1XTA   HL48 7820  -6.599  28.129 -10.381
    1XTA   HL49 7821  -6.493  28.267 -10.381
    1XTA     NT 7822  -6.481  26.877  -7.096
    1XTA    CN1 7823  -6.464  26.944  -7.213
    1XTA     C1 7824  -6.341  26.920  -7.277
    1XTA     C2 7825  -6.319  26.977  -7.405
    1XTA     C3 7826  -6.419  27.057  -7.463
    1XTA     C4 7827  -6.538  27.088  -7.394
    1XTA     C5 7828  -6.566  27.028  -7.269
    1XTA    CN2 7829  -6.409  26.914  -6.990
    1XTA     C6 7830  -6.447  27.025  -6.914
    1XTA     C7 7831  -6.384  27.055  -6.789
    1XTA     C8 7832  -6.278  26.968  -6.747
    1XTA     C9 7833  -6.254  26.845  -6.814
    1XTA    C10 7834  -6.315  26.821  -6.937
    1XTA    CN3 7835  -6.575  26.779  -7.083
    1XTA    C11 7836  -6.570  26.679  -7.175
    1XTA    C12 7837  -6.665  26.576  -7.173
    1XTA    C13 7838  -6.775  26.588  -7.094
    1XTA    C14 7839  -6.776  26.687  -6.996
    1XTA    C15 7840  -6.677  26.783  -6.984
    1XTA     H1 7841  -6.269  26.854  -7.235
    1XTA     H2 7842  -6.230  26.944  -7.458
    1XTA     H3 7843  -6.615  27.155  -7.425
    1XTA     H4 7844  -6.661  27.037  -7.219
    1XTA     H5 7845  -6.512  27.102  -6.955
    1XTA     H6 7846  -6.422  27.140  -6.738
    1XTA     H7 7847  -6.179  26.782  -6.781
    1XTA     H8 7848  -6.287  26.729  -6.989
    1XTA     H9 7849  -6.486  26.670  -7.242
    1XTA    H10 7850  -6.656  26.490  -7.237
    1XTA    H11 7851  -6.867  26.705  -6.940
    1XTA    H12 7852  -6.677  26.863  -6.912
    1XTA    OA1 7853  -6.405  27.100  -7.593
    1XTA    CO1 7854  -6.388  26.990  -7.679
    1XTA    OA2 7855  -6.201  27.015  -6.643
    1XTA    CO2 7856  -6.227  27.134  -6.568
    1XTA    CL1 7857  -6.122  27.174  -6.461
    1XTA    CL2 7858  -6.099  27.083  -6.339
    1XTA    CL3 7859  -6.223  27.083  -6.245
    1XTA    CL4 7860  -6.212  26.979  -6.135
    1XTA    CO3 7861  -6.356  26.912  -6.113
    1XTA    OA3 7862  -6.460  27.008  -6.107
    1XTA    CO4 7863  -6.484  27.068  -5.980
    1XTA    CT1 7864  -6.562  27.202  -5.989
    1XTA    CL5 7865  -6.685  27.188  -6.084
    1XTA    CL6 7866  -6.814  27.110  -6.033
    1XTA    OA4 7867  -6.886  26.504  -7.101
    1XTA    CO5 7868  -6.901  26.446  -7.231
    1XTA    HL1 7869  -6.998  26.398  -7.242
    1XTA    HL2 7870  -6.463  26.908  -7.676
    1XTA    HL3 7871  -6.391  27.009  -7.787
    1XTA    HL4 7872  -6.286  26.943  -7.675
    1XTA    HL5 7873  -6.236  27.216  -6.639
    1XTA    HL6 7874  -6.323  27.131  -6.523
    1XTA    HL7 7875  -6.146  27.277  -6.436
    1XTA    HL8 7876  -6.024  27.189  -6.517
    1XTA    HL9 7877  -6.012  27.114  -6.281
    1XTA   HL10 7878  -6.079  26.981  -6.375
    1XTA   HL11 7879  -6.245  27.176  -6.202
    1XTA   HL12 7880  -6.315  27.060  -6.305
    1XTA   HL13 7881  -6.173  27.024  -6.040
    1XTA   HL14 7882  -6.139  26.904  -6.164
    1XTA   HL15 7883  -6.372  26.843  -6.205
    1XTA   HL16 7884  -6.364  26.842  -6.027
    1XTA   HL17 7885  -6.531  26.999  -5.905
    1XTA   HL18 7886  -6.386  27.087  -5.929
    1XTA   HL19 7887  -6.639  27.138  -6.168
    1XTA   HL20 7888  -6.726  27.284  -6.120
    1XTA   HL21 7889  -6.865  27.155  -5.950
    1XTA   HL22 7890  -6.788  27.020  -5.987
    1XTA   HL23 7891  -6.884  27.086  -6.119
    1XTA   HL24 7892  -6.823  26.369  -7.254
    1XTA   HL25 7893  -6.906  26.515  -7.318
    1XTA    CO8 7894  -6.474  27.317  -6.033
    1XTA    CO9 7895  -6.621  27.248  -5.848
    1XTA    OA6 7896  -6.344  27.313  -5.984
    1XTA   HL42 7897  -6.521  27.415  -6.008
    1XTA   HL43 7898  -6.480  27.322  -6.140
    1XTA   HL48 7899  -6.663  27.346  -5.860
    1XTA   HL49 7900  -6.533  27.276  -5.782
    1XTA     NT 7901  -8.742  23.128  -7.042
    1XTA    CN1 7902  -8.848  23.090  -7.117
    1XTA     C1 7903  -8.862  23.129  -7.248
    1XTA     C2 7904  -8.982  23.088  -7.310
    1XTA     C3 7905  -9.087  23.011  -7.249
    1XTA     C4 7906  -9.070  22.980  -7.117
    1XTA     C5 7907  -8.952  23.022  -7.051
    1XTA    CN2 7908  -8.728  23.257  -7.016
    1XTA     C6 7909  -8.653  23.334  -7.106
    1XTA     C7 7910  -8.641  23.474  -7.083
    1XTA     C8 7911  -8.706  23.533  -6.973
    1XTA     C9 7912  -8.790  23.454  -6.894
    1XTA    C10 7913  -8.804  23.318  -6.912
    1XTA    CN3 7914  -8.659  23.046  -6.979
    1XTA    C11 7915  -8.579  22.963  -7.057
    1XTA    C12 7916  -8.482  22.875  -7.003
    1XTA    C13 7917  -8.485  22.857  -6.864
    1XTA    C14 7918  -8.568  22.930  -6.781
    1XTA    C15 7919  -8.650  23.031  -6.842
    1XTA     H1 7920  -8.785  23.187  -7.294
    1XTA     H2 7921  -9.003  23.126  -7.407
    1XTA     H3 7922  -9.137  22.916  -7.075
    1XTA     H4 7923  -8.955  22.995  -6.949
    1XTA     H5 7924  -8.594  23.290  -7.188
    1XTA     H6 7925  -8.581  23.537  -7.145
    1XTA     H7 7926  -8.843  23.498  -6.808
    1XTA     H8 7927  -8.879  23.259  -6.855
    1XTA     H9 7928  -8.591  22.974  -7.160
    1XTA    H10 7929  -8.409  22.822  -7.063
    1XTA    H11 7930  -8.580  22.910  -6.677
    1XTA    H12 7931  -8.705  23.095  -6.775
    1XTA    OA1 7932  -9.196  22.979  -7.323
    1XTA    CO1 7933  -9.292  22.904  -7.261
    1XTA    OA2 7934  -8.706  23.672  -6.942
    1XTA    CO2 7935  -8.596  23.747  -6.996
    1XTA    CL1 7936  -8.567  23.882  -6.923
    1XTA    CL2 7937  -8.429  23.934  -6.974
    1XTA    CL3 7938  -8.415  24.080  -6.943
    1XTA    CL4 7939  -8.508  24.170  -7.021
    1XTA    CO3 7940  -8.464  24.314  -7.030
    1XTA    OA3 7941  -8.567  24.403  -7.083
    1XTA    CO4 7942  -8.667  24.418  -6.976
    1XTA    CT1 7943  -8.805  24.445  -7.038
    1XTA    CL5 7944  -8.801  24.560  -7.145
    1XTA    CL6 7945  -8.752  24.692  -7.084
    1XTA    OA4 7946  -8.402  22.770  -6.806
    1XTA    CO5 7947  -8.366  22.651  -6.865
    1XTA    HL1 7948  -8.320  22.584  -6.799
    1XTA    HL2 7949  -9.371  22.873  -7.329
    1XTA    HL3 7950  -9.262  22.810  -7.216
    1XTA    HL4 7951  -9.341  22.966  -7.188
    1XTA    HL5 7952  -8.504  23.686  -6.988
    1XTA    HL6 7953  -8.621  23.768  -7.094
    1XTA    HL7 7954  -8.570  23.887  -6.809
    1XTA    HL8 7955  -8.638  23.951  -6.962
    1XTA    HL9 7956  -8.400  23.927  -7.080
    1XTA   HL10 7957  -8.357  23.873  -6.913
    1XTA   HL11 7958  -8.428  24.093  -6.838
    1XTA   HL12 7959  -8.314  24.122  -6.963
    1XTA   HL13 7960  -8.604  24.154  -6.975
    1XTA   HL14 7961  -8.524  24.126  -7.120
    1XTA   HL15 7962  -8.428  24.364  -6.939
    1XTA   HL16 7963  -8.371  24.320  -7.092
    1XTA   HL17 7964  -8.684  24.321  -6.926
    1XTA   HL18 7965  -8.643  24.495  -6.901
    1XTA   HL19 7966  -8.904  24.580  -7.182
    1XTA   HL20 7967  -8.739  24.534  -7.232
    1XTA   HL21 7968  -8.824  24.723  -7.007
    1XTA   HL22 7969  -8.756  24.779  -7.156
    1XTA   HL23 7970  -8.649  24.694  -7.049
    1XTA   HL24 7971  -8.302  22.666  -6.956
    1XTA   HL25 7972  -8.454  22.601  -6.900
    1XTA    CO8 7973  -8.917  24.472  -6.926
    1XTA    CO9 7974  -8.849  24.320  -7.114
    1XTA    OA6 7975  -8.938  24.345  -7.176
    1XTA   HL42 7976  -9.005  24.519  -6.973
    1XTA   HL43 7977  -8.965  24.359  -6.855
    1XTA   HL48 7978  -8.864  24.240  -7.045
    1XTA   HL49 7979  -8.779  24.281  -7.186
    1XTA     NT 7980  -5.850  29.410  -4.143
    1XTA    CN1 7981  -5.832  29.544  -4.135
    1XTA     C1 7982  -5.947  29.635  -4.145
    1XTA     C2 7983  -5.927  29.777  -4.138
    1XTA     C3 7984  -5.795  29.831  -4.138
    1XTA     C4 7985  -5.684  29.737  -4.144
    1XTA     C5 7986  -5.703  29.595  -4.139
    1XTA    CN2 7987  -5.914  29.359  -4.247
    1XTA     C6 7988  -6.045  29.320  -4.230
    1XTA     C7 7989  -6.124  29.292  -4.343
    1XTA     C8 7990  -6.078  29.309  -4.475
    1XTA     C9 7991  -5.944  29.355  -4.493
    1XTA    C10 7992  -5.865  29.379  -4.378
    1XTA    CN3 7993  -5.796  29.329  -4.049
    1XTA    C11 7994  -5.800  29.367  -3.912
    1XTA    C12 7995  -5.726  29.287  -3.815
    1XTA    C13 7996  -5.644  29.183  -3.861
    1XTA    C14 7997  -5.638  29.146  -3.998
    1XTA    C15 7998  -5.719  29.217  -4.090
    1XTA     H1 7999  -6.049  29.589  -4.142
    1XTA     H2 8000  -6.012  29.844  -4.133
    1XTA     H3 8001  -5.582  29.772  -4.150
    1XTA     H4 8002  -5.623  29.523  -4.128
    1XTA     H5 8003  -6.085  29.302  -4.127
    1XTA     H6 8004  -6.226  29.258  -4.328
    1XTA     H7 8005  -5.918  29.383  -4.595
    1XTA     H8 8006  -5.766  29.417  -4.389
    1XTA     H9 8007  -5.868  29.442  -3.882
    1XTA    H10 8008  -5.737  29.327  -3.716
    1XTA    H11 8009  -5.577  29.067  -4.030
    1XTA    H12 8010  -5.706  29.186  -4.192
    1XTA    OA1 8011  -5.778  29.962  -4.149
    1XTA    CO1 8012  -5.884  30.043  -4.194
    1XTA    OA2 8013  -6.174  29.297  -4.574
    1XTA    CO2 8014  -6.110  29.273  -4.696
    1XTA    CL1 8015  -6.206  29.208  -4.797
    1XTA    CL2 8016  -6.137  29.164  -4.929
    1XTA    CL3 8017  -6.222  29.104  -5.036
    1XTA    CL4 8018  -6.236  28.958  -5.021
    1XTA    CO3 8019  -6.326  28.887  -5.124
    1XTA    OA3 8020  -6.450  28.946  -5.137
    1XTA    CO4 8021  -6.550  28.904  -5.041
    1XTA    CT1 8022  -6.646  29.014  -4.997
    1XTA    CL5 8023  -6.737  29.058  -5.113
    1XTA    CL6 8024  -6.850  29.149  -5.094
    1XTA    OA4 8025  -5.563  29.131  -3.762
    1XTA    CO5 8026  -5.469  29.032  -3.807
    1XTA    HL1 8027  -5.523  28.949  -3.850
    1XTA    HL2 8028  -5.912  30.005  -4.290
    1XTA    HL3 8029  -5.974  30.041  -4.134
    1XTA    HL4 8030  -5.851  30.152  -4.203
    1XTA    HL5 8031  -6.068  29.363  -4.736
    1XTA    HL6 8032  -6.032  29.198  -4.685
    1XTA    HL7 8033  -6.279  29.286  -4.813
    1XTA    HL8 8034  -6.268  29.124  -4.753
    1XTA    HL9 8035  -6.053  29.091  -4.912
    1XTA   HL10 8036  -6.104  29.254  -4.965
    1XTA   HL11 8037  -6.312  29.159  -5.052
    1XTA   HL12 8038  -6.175  29.105  -5.135
    1XTA   HL13 8039  -6.287  28.940  -4.919
    1XTA   HL14 8040  -6.137  28.907  -5.023
    1XTA   HL15 8041  -6.284  28.897  -5.227
    1XTA   HL16 8042  -6.337  28.789  -5.089
    1XTA   HL17 8043  -6.606  28.826  -5.091
    1XTA   HL18 8044  -6.495  28.874  -4.960
    1XTA   HL19 8045  -6.783  28.967  -5.165
    1XTA   HL20 8046  -6.684  29.100  -5.201
    1XTA   HL21 8047  -6.872  29.186  -5.192
    1XTA   HL22 8048  -6.840  29.238  -5.027
    1XTA   HL23 8049  -6.930  29.091  -5.053
    1XTA   HL24 8050  -5.413  28.995  -3.718
    1XTA   HL25 8051  -5.405  29.083  -3.879
    1XTA    CO8 8052  -6.564  29.138  -4.957
    1XTA    CO9 8053  -6.728  28.973  -4.867
    1XTA    OA6 8054  -6.661  28.961  -4.785
    1XTA   HL42 8055  -6.500  29.106  -4.876
    1XTA   HL43 8056  -6.495  29.183  -5.073
    1XTA   HL48 8057  -6.797  28.889  -4.888
    1XTA   HL49 8058  -6.786  29.060  -4.842
    1XTA     NT 8059  -6.936  29.295  -5.573
    1XTA    CN1 8060  -6.988  29.401  -5.511
    1XTA     C1 8061  -6.956  29.420  -5.377
    1XTA     C2 8062  -7.015  29.525  -5.300
    1XTA     C3 8063  -7.112  29.604  -5.357
    1XTA     C4 8064  -7.138  29.590  -5.494
    1XTA     C5 8065  -7.074  29.491  -5.570
    1XTA    CN2 8066  -6.942  29.176  -5.511
    1XTA     C6 8067  -6.820  29.103  -5.495
    1XTA     C7 8068  -6.829  28.975  -5.429
    1XTA     C8 8069  -6.957  28.920  -5.389
    1XTA     C9 8070  -7.073  28.997  -5.410
    1XTA    C10 8071  -7.069  29.121  -5.477
    1XTA    CN3 8072  -6.907  29.300  -5.705
    1XTA    C11 8073  -6.987  29.234  -5.798
    1XTA    C12 8074  -6.960  29.234  -5.937
    1XTA    C13 8075  -6.851  29.305  -5.983
    1XTA    C14 8076  -6.776  29.383  -5.899
    1XTA    C15 8077  -6.803  29.385  -5.758
    1XTA     H1 8078  -6.887  29.345  -5.333
    1XTA     H2 8079  -7.006  29.528  -5.188
    1XTA     H3 8080  -7.212  29.650  -5.541
    1XTA     H4 8081  -7.104  29.477  -5.669
    1XTA     H5 8082  -6.729  29.145  -5.526
    1XTA     H6 8083  -6.739  28.924  -5.421
    1XTA     H7 8084  -7.159  28.951  -5.389
    1XTA     H8 8085  -7.156  29.179  -5.503
    1XTA     H9 8086  -7.079  29.190  -5.764
    1XTA    H10 8087  -7.025  29.195  -6.016
    1XTA    H11 8088  -6.689  29.446  -5.931
    1XTA    H12 8089  -6.744  29.451  -5.692
    1XTA    OA1 8090  -7.179  29.692  -5.278
    1XTA    CO1 8091  -7.300  29.754  -5.334
    1XTA    OA2 8092  -6.958  28.799  -5.323
    1XTA    CO2 8093  -7.081  28.734  -5.294
    1XTA    CL1 8094  -7.067  28.594  -5.223
    1XTA    CL2 8095  -6.978  28.572  -5.097
    1XTA    CL3 8096  -6.956  28.419  -5.070
    1XTA    CL4 8097  -6.859  28.349  -5.171
    1XTA    CO3 8098  -6.721  28.411  -5.181
    1XTA    OA3 8099  -6.640  28.329  -5.257
    1XTA    CO4 8100  -6.505  28.353  -5.247
    1XTA    CT1 8101  -6.417  28.282  -5.355
    1XTA    CL5 8102  -6.267  28.323  -5.322
    1XTA    CL6 8103  -6.166  28.238  -5.401
    1XTA    OA4 8104  -6.833  29.303  -6.116
    1XTA    CO5 8105  -6.744  29.400  -6.175
    1XTA    HL1 8106  -6.728  29.389  -6.285
    1XTA    HL2 8107  -7.270  29.799  -5.425
    1XTA    HL3 8108  -7.372  29.676  -5.361
    1XTA    HL4 8109  -7.352  29.845  -5.289
    1XTA    HL5 8110  -7.130  28.797  -5.222
    1XTA    HL6 8111  -7.147  28.729  -5.384
    1XTA    HL7 8112  -7.033  28.525  -5.298
    1XTA    HL8 8113  -7.163  28.564  -5.195
    1XTA    HL9 8114  -7.035  28.619  -5.018
    1XTA   HL10 8115  -6.882  28.631  -5.102
    1XTA   HL11 8116  -6.894  28.415  -4.974
    1XTA   HL12 8117  -7.049  28.359  -5.063
    1XTA   HL13 8118  -6.911  28.329  -5.263
    1XTA   HL14 8119  -6.842  28.242  -5.136
    1XTA   HL15 8120  -6.723  28.521  -5.216
    1XTA   HL16 8121  -6.684  28.400  -5.077
    1XTA   HL17 8122  -6.493  28.462  -5.257
    1XTA   HL18 8123  -6.475  28.310  -5.153
    1XTA   HL19 8124  -6.252  28.316  -5.216
    1XTA   HL20 8125  -6.246  28.431  -5.322
    1XTA   HL21 8126  -6.185  28.247  -5.510
    1XTA   HL22 8127  -6.173  28.135  -5.375
    1XTA   HL23 8128  -6.067  28.269  -5.372
    1XTA   HL24 8129  -6.642  29.381  -6.130
    1XTA   HL25 8130  -6.778  29.502  -6.138
    1XTA    CO8 8131  -6.453  28.315  -5.500
    1XTA    CO9 8132  -6.423  28.130  -5.334
    1XTA    OA6 8133  -6.388  28.073  -5.206
    1XTA   HL42 8134  -6.381  28.268  -5.566
    1XTA   HL43 8135  -6.443  28.424  -5.500
    1XTA   HL48 8136  -6.358  28.074  -5.407
    1XTA   HL49 8137  -6.523  28.110  -5.356
    1XTA     NT 8138  -8.000  30.565 -10.180
    1XTA    CN1 8139  -7.949  30.491 -10.280
    1XTA     C1 8140  -8.008  30.484 -10.412
    1XTA     C2 8141  -7.962  30.395 -10.511
    1XTA     C3 8142  -7.850  30.311 -10.490
    1XTA     C4 8143  -7.794  30.316 -10.361
    1XTA     C5 8144  -7.841  30.407 -10.262
    1XTA    CN2 8145  -8.129  30.552 -10.144
    1XTA     C6 8146  -8.233  30.625 -10.204
    1XTA     C7 8147  -8.360  30.622 -10.145
    1XTA     C8 8148  -8.392  30.544 -10.032
    1XTA     C9 8149  -8.287  30.477  -9.967
    1XTA    C10 8150  -8.163  30.470 -10.031
    1XTA    CN3 8151  -7.924  30.657 -10.120
    1XTA    C11 8152  -7.871  30.754 -10.207
    1XTA    C12 8153  -7.779  30.848 -10.151
    1XTA    C13 8154  -7.763  30.859 -10.007
    1XTA    C14 8155  -7.832  30.769  -9.924
    1XTA    C15 8156  -7.897  30.659  -9.982
    1XTA     H1 8157  -8.097  30.537 -10.441
    1XTA     H2 8158  -8.034  30.384 -10.592
    1XTA     H3 8159  -7.719  30.249 -10.332
    1XTA     H4 8160  -7.798  30.401 -10.165
    1XTA     H5 8161  -8.215  30.688 -10.289
    1XTA     H6 8162  -8.429  30.694 -10.177
    1XTA     H7 8163  -8.307  30.426  -9.875
    1XTA     H8 8164  -8.087  30.415  -9.981
    1XTA     H9 8165  -7.901  30.755 -10.310
    1XTA    H10 8166  -7.723  30.916 -10.218
    1XTA    H11 8167  -7.838  30.777  -9.815
    1XTA    H12 8168  -7.943  30.588  -9.915
    1XTA    OA1 8169  -7.811  30.205 -10.568
    1XTA    CO1 8170  -7.878  30.195 -10.698
    1XTA    OA2 8171  -8.514  30.551  -9.966
    1XTA    CO2 8172  -8.629  30.581 -10.041
    1XTA    CL1 8173  -8.699  30.698  -9.966
    1XTA    CL2 8174  -8.836  30.726 -10.027
    1XTA    CL3 8175  -8.852  30.795 -10.165
    1XTA    CL4 8176  -8.753  30.913 -10.185
    1XTA    CO3 8177  -8.779  31.019 -10.083
    1XTA    OA3 8178  -8.746  31.150 -10.134
    1XTA    CO4 8179  -8.610  31.177 -10.133
    1XTA    CT1 8180  -8.589  31.298 -10.232
    1XTA    CL5 8181  -8.436  31.318 -10.251
    1XTA    CL6 8182  -8.346  31.344 -10.131
    1XTA    OA4 8183  -7.698  30.962  -9.947
    1XTA    CO5 8184  -7.759  31.015  -9.829
    1XTA    HL1 8185  -7.722  30.973  -9.732
    1XTA    HL2 8186  -7.909  30.290 -10.741
    1XTA    HL3 8187  -7.809  30.163 -10.770
    1XTA    HL4 8188  -7.967  30.141 -10.697
    1XTA    HL5 8189  -8.612  30.600 -10.144
    1XTA    HL6 8190  -8.687  30.489 -10.040
    1XTA    HL7 8191  -8.642  30.793  -9.968
    1XTA    HL8 8192  -8.710  30.683  -9.857
    1XTA    HL9 8193  -8.888  30.781  -9.944
    1XTA   HL10 8194  -8.896  30.638 -10.028
    1XTA   HL11 8195  -8.846  30.709 -10.244
    1XTA   HL12 8196  -8.949  30.833 -10.182
    1XTA   HL13 8197  -8.787  30.949 -10.287
    1XTA   HL14 8198  -8.644  30.896 -10.167
    1XTA   HL15 8199  -8.881  31.031 -10.059
    1XTA   HL16 8200  -8.740  30.989  -9.992
    1XTA   HL17 8201  -8.570  31.197 -10.028
    1XTA   HL18 8202  -8.549  31.091 -10.175
    1XTA   HL19 8203  -8.419  31.392 -10.334
    1XTA   HL20 8204  -8.402  31.220 -10.293
    1XTA   HL21 8205  -8.242  31.326 -10.165
    1XTA   HL22 8206  -8.368  31.269 -10.045
    1XTA   HL23 8207  -8.352  31.443 -10.092
    1XTA   HL24 8208  -7.868  31.013  -9.829
    1XTA   HL25 8209  -7.732  31.121  -9.829
    1XTA    CO8 8210  -8.652  31.425 -10.169
    1XTA    CO9 8211  -8.655  31.280 -10.370
    1XTA    OA6 8212  -8.575  31.195 -10.449
    1XTA   HL42 8213  -8.680  31.485 -10.254
    1XTA   HL43 8214  -8.750  31.405 -10.137
    1XTA   HL48 8215  -8.651  31.373 -10.431
    1XTA   HL49 8216  -8.756  31.248 -10.350
    1XTA     NT 8217  -3.423  29.196  -6.261
    1XTA    CN1 8218  -3.334  29.101  -6.291
    1XTA     C1 8219  -3.226  29.073  -6.204
    1XTA     C2 8220  -3.154  28.952  -6.225
    1XTA     C3 8221  -3.181  28.871  -6.336
    1XTA     C4 8222  -3.280  28.911  -6.427
    1XTA     C5 8223  -3.356  29.021  -6.408
    1XTA    CN2 8224  -3.393  29.328  -6.292
    1XTA     C6 8225  -3.341  29.422  -6.202
    1XTA     C7 8226  -3.301  29.550  -6.240
    1XTA     C8 8227  -3.335  29.594  -6.371
    1XTA     C9 8228  -3.403  29.507  -6.457
    1XTA    C10 8229  -3.428  29.380  -6.417
    1XTA    CN3 8230  -3.528  29.166  -6.185
    1XTA    C11 8231  -3.531  29.170  -6.043
    1XTA    C12 8232  -3.650  29.149  -5.967
    1XTA    C13 8233  -3.773  29.133  -6.034
    1XTA    C14 8234  -3.774  29.140  -6.177
    1XTA    C15 8235  -3.659  29.142  -6.248
    1XTA     H1 8236  -3.199  29.133  -6.115
    1XTA     H2 8237  -3.068  28.928  -6.155
    1XTA     H3 8238  -3.292  28.854  -6.518
    1XTA     H4 8239  -3.437  29.038  -6.474
    1XTA     H5 8240  -3.326  29.371  -6.105
    1XTA     H6 8241  -3.246  29.614  -6.167
    1XTA     H7 8242  -3.440  29.538  -6.552
    1XTA     H8 8243  -3.469  29.313  -6.495
    1XTA     H9 8244  -3.436  29.197  -6.005
    1XTA    H10 8245  -3.653  29.164  -5.858
    1XTA    H11 8246  -3.870  29.123  -6.229
    1XTA    H12 8247  -3.657  29.133  -6.351
    1XTA    OA1 8248  -3.104  28.758  -6.364
    1XTA    CO1 8249  -3.032  28.702  -6.261
    1XTA    OA2 8250  -3.314  29.723  -6.415
    1XTA    CO2 8251  -3.207  29.802  -6.365
    1XTA    CL1 8252  -3.236  29.949  -6.400
    1XTA    CL2 8253  -3.361  30.001  -6.353
    1XTA    CL3 8254  -3.388  30.148  -6.399
    1XTA    CL4 8255  -3.504  30.218  -6.323
    1XTA    CO3 8256  -3.637  30.139  -6.323
    1XTA    OA3 8257  -3.744  30.212  -6.262
    1XTA    CO4 8258  -3.738  30.244  -6.122
    1XTA    CT1 8259  -3.875  30.257  -6.054
    1XTA    CL5 8260  -3.956  30.361  -6.133
    1XTA    CL6 8261  -4.103  30.386  -6.094
    1XTA    OA4 8262  -3.891  29.132  -5.965
    1XTA    CO5 8263  -3.886  29.098  -5.827
    1XTA    HL1 8264  -3.865  29.193  -5.770
    1XTA    HL2 8265  -3.029  28.589  -6.256
    1XTA    HL3 8266  -2.928  28.737  -6.273
    1XTA    HL4 8267  -3.074  28.723  -6.158
    1XTA    HL5 8268  -3.193  29.800  -6.259
    1XTA    HL6 8269  -3.106  29.763  -6.403
    1XTA    HL7 8270  -3.237  29.962  -6.509
    1XTA    HL8 8271  -3.159  30.011  -6.365
    1XTA    HL9 8272  -3.362  30.011  -6.244
    1XTA   HL10 8273  -3.446  29.939  -6.368
    1XTA   HL11 8274  -3.299  30.205  -6.402
    1XTA   HL12 8275  -3.419  30.138  -6.508
    1XTA   HL13 8276  -3.516  30.310  -6.367
    1XTA   HL14 8277  -3.470  30.230  -6.218
    1XTA   HL15 8278  -3.673  30.121  -6.430
    1XTA   HL16 8279  -3.625  30.039  -6.279
    1XTA   HL17 8280  -3.679  30.164  -6.073
    1XTA   HL18 8281  -3.685  30.341  -6.117
    1XTA   HL19 8282  -3.962  30.324  -6.232
    1XTA   HL20 8283  -3.903  30.456  -6.154
    1XTA   HL21 8284  -4.134  30.322  -6.016
    1XTA   HL22 8285  -4.167  30.367  -6.185
    1XTA   HL23 8286  -4.116  30.485  -6.055
    1XTA   HL24 8287  -3.813  29.021  -5.820
    1XTA   HL25 8288  -3.981  29.052  -5.798
    1XTA    CO8 8289  -3.854  30.314  -5.912
    1XTA    CO9 8290  -3.943  30.118  -6.068
    1XTA    OA6 8291  -4.068  30.113  -5.997
    1XTA   HL42 8292  -3.956  30.326  -5.867
    1XTA   HL43 8293  -3.829  30.232  -5.847
    1XTA   HL48 8294  -3.877  30.043  -6.024
    1XTA   HL49 8295  -3.957  30.089  -6.170
    1XTA     NT 8296  -5.044  30.310  -9.448
    1XTA    CN1 8297  -5.004  30.423  -9.507
    1XTA     C1 8298  -4.987  30.539  -9.434
    1XTA     C2 8299  -4.949  30.661  -9.493
    1XTA     C3 8300  -4.924  30.663  -9.636
    1XTA     C4 8301  -4.949  30.546  -9.706
    1XTA     C5 8302  -4.996  30.426  -9.646
    1XTA    CN2 8303  -5.181  30.292  -9.430
    1XTA     C6 8304  -5.252  30.321  -9.311
    1XTA     C7 8305  -5.384  30.287  -9.292
    1XTA     C8 8306  -5.456  30.225  -9.394
    1XTA     C9 8307  -5.392  30.194  -9.512
    1XTA    C10 8308  -5.261  30.238  -9.533
    1XTA    CN3 8309  -4.965  30.203  -9.437
    1XTA    C11 8310  -4.913  30.178  -9.307
    1XTA    C12 8311  -4.826  30.067  -9.288
    1XTA    C13 8312  -4.798  29.978  -9.398
    1XTA    C14 8313  -4.851  30.007  -9.527
    1XTA    C15 8314  -4.938  30.119  -9.543
    1XTA     H1 8315  -4.993  30.529  -9.332
    1XTA     H2 8316  -4.917  30.742  -9.427
    1XTA     H3 8317  -4.924  30.548  -9.811
    1XTA     H4 8318  -5.012  30.337  -9.698
    1XTA     H5 8319  -5.196  30.371  -9.234
    1XTA     H6 8320  -5.421  30.308  -9.194
    1XTA     H7 8321  -5.445  30.140  -9.588
    1XTA     H8 8322  -5.217  30.208  -9.625
    1XTA     H9 8323  -4.946  30.248  -9.232
    1XTA    H10 8324  -4.787  30.043  -9.191
    1XTA    H11 8325  -4.823  29.936  -9.605
    1XTA    H12 8326  -4.978  30.148  -9.642
    1XTA    OA1 8327  -4.872  30.776  -9.696
    1XTA    CO1 8328  -4.903  30.895  -9.629
    1XTA    OA2 8329  -5.583  30.179  -9.382
    1XTA    CO2 8330  -5.680  30.274  -9.333
    1XTA    CL1 8331  -5.719  30.364  -9.454
    1XTA    CL2 8332  -5.840  30.452  -9.450
    1XTA    CL3 8333  -5.855  30.529  -9.586
    1XTA    CL4 8334  -5.936  30.651  -9.566
    1XTA    CO3 8335  -6.091  30.616  -9.550
    1XTA    OA3 8336  -6.106  30.567  -9.413
    1XTA    CO4 8337  -6.180  30.446  -9.408
    1XTA    CT1 8338  -6.221  30.408  -9.269
    1XTA    CL5 8339  -6.319  30.285  -9.272
    1XTA    CL6 8340  -6.279  30.163  -9.365
    1XTA    OA4 8341  -4.724  29.866  -9.381
    1XTA    CO5 8342  -4.714  29.814  -9.249
    1XTA    HL1 8343  -4.669  29.873  -9.163
    1XTA    HL2 8344  -4.858  30.980  -9.682
    1XTA    HL3 8345  -5.009  30.904  -9.612
    1XTA    HL4 8346  -4.853  30.897  -9.530
    1XTA    HL5 8347  -5.770  30.217  -9.299
    1XTA    HL6 8348  -5.648  30.330  -9.249
    1XTA    HL7 8349  -5.743  30.304  -9.543
    1XTA    HL8 8350  -5.629  30.422  -9.473
    1XTA    HL9 8351  -5.837  30.515  -9.355
    1XTA   HL10 8352  -5.936  30.408  -9.448
    1XTA   HL11 8353  -5.753  30.566  -9.608
    1XTA   HL12 8354  -5.902  30.471  -9.668
    1XTA   HL13 8355  -5.920  30.709  -9.659
    1XTA   HL14 8356  -5.902  30.717  -9.481
    1XTA   HL15 8357  -6.157  30.700  -9.562
    1XTA   HL16 8358  -6.128  30.540  -9.627
    1XTA   HL17 8359  -6.271  30.462  -9.461
    1XTA   HL18 8360  -6.127  30.365  -9.465
    1XTA   HL19 8361  -6.407  30.332  -9.299
    1XTA   HL20 8362  -6.339  30.244  -9.171
    1XTA   HL21 8363  -6.194  30.108  -9.320
    1XTA   HL22 8364  -6.245  30.194  -9.466
    1XTA   HL23 8365  -6.343  30.081  -9.384
    1XTA   HL24 8366  -4.656  29.727  -9.256
    1XTA   HL25 8367  -4.812  29.785  -9.221
    1XTA    CO8 8368  -6.273  30.530  -9.196
    1XTA    CO9 8369  -6.099  30.371  -9.181
    1XTA    OA6 8370  -6.133  30.328  -9.051
    1XTA   HL42 8371  -6.209  30.619  -9.216
    1XTA   HL43 8372  -6.279  30.506  -9.082
    1XTA   HL48 8373  -6.030  30.457  -9.177
    1XTA   HL49 8374  -6.051  30.289  -9.233
    1XTA     NT 8375  -4.275  25.763 -11.601
    1XTA    CN1 8376  -4.400  25.728 -11.626
    1XTA     C1 8377  -4.483  25.658 -11.535
    1XTA     C2 8378  -4.621  25.654 -11.554
    1XTA     C3 8379  -4.683  25.699 -11.671
    1XTA     C4 8380  -4.599  25.765 -11.763
    1XTA     C5 8381  -4.461  25.788 -11.736
    1XTA    CN2 8382  -4.250  25.795 -11.469
    1XTA     C6 8383  -4.325  25.904 -11.409
    1XTA     C7 8384  -4.307  25.928 -11.269
    1XTA     C8 8385  -4.216  25.849 -11.193
    1XTA     C9 8386  -4.143  25.745 -11.249
    1XTA    C10 8387  -4.159  25.725 -11.386
    1XTA    CN3 8388  -4.171  25.734 -11.677
    1XTA    C11 8389  -4.120  25.607 -11.697
    1XTA    C12 8390  -4.011  25.579 -11.781
    1XTA    C13 8391  -3.943  25.685 -11.843
    1XTA    C14 8392  -3.991  25.817 -11.814
    1XTA    C15 8393  -4.103  25.846 -11.735
    1XTA     H1 8394  -4.450  25.630 -11.439
    1XTA     H2 8395  -4.686  25.608 -11.482
    1XTA     H3 8396  -4.645  25.797 -11.854
    1XTA     H4 8397  -4.394  25.839 -11.811
    1XTA     H5 8398  -4.398  25.950 -11.470
    1XTA     H6 8399  -4.361  26.002 -11.216
    1XTA     H7 8400  -4.077  25.690 -11.186
    1XTA     H8 8401  -4.100  25.653 -11.436
    1XTA     H9 8402  -4.187  25.527 -11.673
    1XTA    H10 8403  -3.991  25.474 -11.808
    1XTA    H11 8404  -3.945  25.897 -11.858
    1XTA    H12 8405  -4.131  25.947 -11.717
    1XTA    OA1 8406  -4.817  25.677 -11.700
    1XTA    CO1 8407  -4.891  25.604 -11.596
    1XTA    OA2 8408  -4.193  25.877 -11.061
    1XTA    CO2 8409  -4.296  25.943 -10.996
    1XTA    CL1 8410  -4.267  25.934 -10.842
    1XTA    CL2 8411  -4.371  25.994 -10.753
    1XTA    CL3 8412  -4.310  26.021 -10.616
    1XTA    CL4 8413  -4.237  26.156 -10.615
    1XTA    CO3 8414  -4.146  26.176 -10.493
    1XTA    OA3 8415  -4.048  26.073 -10.500
    1XTA    CO4 8416  -3.944  26.093 -10.596
    1XTA    CT1 8417  -3.858  25.963 -10.614
    1XTA    CL5 8418  -3.743  25.996 -10.713
    1XTA    CL6 8419  -3.635  26.106 -10.680
    1XTA    OA4 8420  -3.837  25.663 -11.926
    1XTA    CO5 8421  -3.788  25.784 -11.986
    1XTA    HL1 8422  -3.759  25.853 -11.904
    1XTA    HL2 8423  -4.995  25.582 -11.619
    1XTA    HL3 8424  -4.856  25.504 -11.566
    1XTA    HL4 8425  -4.910  25.657 -11.501
    1XTA    HL5 8426  -4.293  26.044 -11.026
    1XTA    HL6 8427  -4.391  25.896 -11.021
    1XTA    HL7 8428  -4.165  25.977 -10.819
    1XTA    HL8 8429  -4.270  25.824 -10.828
    1XTA    HL9 8430  -4.457  25.931 -10.756
    1XTA   HL10 8431  -4.401  26.092 -10.798
    1XTA   HL11 8432  -4.389  26.006 -10.541
    1XTA   HL12 8433  -4.231  25.948 -10.595
    1XTA   HL13 8434  -4.313  26.238 -10.620
    1XTA   HL14 8435  -4.176  26.175 -10.705
    1XTA   HL15 8436  -4.105  26.275 -10.486
    1XTA   HL16 8437  -4.207  26.154 -10.402
    1XTA   HL17 8438  -3.976  26.122 -10.697
    1XTA   HL18 8439  -3.885  26.177 -10.563
    1XTA   HL19 8440  -3.793  26.019 -10.807
    1XTA   HL20 8441  -3.690  25.910 -10.754
    1XTA   HL21 8442  -3.671  26.205 -10.650
    1XTA   HL22 8443  -3.565  26.119 -10.759
    1XTA   HL23 8444  -3.586  26.059 -10.594
    1XTA   HL24 8445  -3.862  25.845 -12.041
    1XTA   HL25 8446  -3.711  25.768 -12.054
    1XTA    CO8 8447  -3.948  25.851 -10.671
    1XTA    CO9 8448  -3.778  25.918 -10.485
    1XTA    OA6 8449  -3.679  25.823 -10.513
    1XTA   HL42 8450  -4.008  25.829 -10.591
    1XTA   HL43 8451  -4.007  25.897 -10.746
    1XTA   HL48 8452  -3.845  25.861 -10.414
    1XTA   HL49 8453  -3.739  26.011 -10.436
    1XTA     NT 8454  -4.259  24.226  -9.034
    1XTA    CN1 8455  -4.213  24.156  -8.928
    1XTA     C1 8456  -4.203  24.212  -8.799
    1XTA     C2 8457  -4.143  24.138  -8.695
    1XTA     C3 8458  -4.097  24.005  -8.712
    1XTA     C4 8459  -4.107  23.948  -8.841
    1XTA     C5 8460  -4.169  24.020  -8.947
    1XTA    CN2 8461  -4.196  24.310  -9.114
    1XTA     C6 8462  -4.240  24.443  -9.096
    1XTA     C7 8463  -4.192  24.549  -9.182
    1XTA     C8 8464  -4.099  24.517  -9.286
    1XTA     C9 8465  -4.052  24.384  -9.291
    1XTA    C10 8466  -4.094  24.281  -9.204
    1XTA    CN3 8467  -4.378  24.198  -9.081
    1XTA    C11 8468  -4.482  24.264  -9.019
    1XTA    C12 8469  -4.617  24.237  -9.058
    1XTA    C13 8470  -4.634  24.152  -9.167
    1XTA    C14 8471  -4.523  24.096  -9.240
    1XTA    C15 8472  -4.392  24.116  -9.194
    1XTA     H1 8473  -4.234  24.310  -8.786
    1XTA     H2 8474  -4.133  24.190  -8.602
    1XTA     H3 8475  -4.071  23.844  -8.860
    1XTA     H4 8476  -4.176  23.966  -9.040
    1XTA     H5 8477  -4.319  24.460  -9.021
    1XTA     H6 8478  -4.236  24.649  -9.171
    1XTA     H7 8479  -3.979  24.362  -9.365
    1XTA     H8 8480  -4.053  24.178  -9.198
    1XTA     H9 8481  -4.470  24.337  -8.938
    1XTA    H10 8482  -4.695  24.285  -8.998
    1XTA    H11 8483  -4.547  24.032  -9.323
    1XTA    H12 8484  -4.311  24.071  -9.240
    1XTA    OA1 8485  -4.029  23.940  -8.612
    1XTA    CO1 8486  -3.923  23.857  -8.647
    1XTA    OA2 8487  -4.054  24.614  -9.375
    1XTA    CO2 8488  -4.069  24.751  -9.342
    1XTA    CL1 8489  -3.979  24.832  -9.430
    1XTA    CL2 8490  -4.019  24.811  -9.577
    1XTA    CL3 8491  -3.985  24.936  -9.650
    1XTA    CL4 8492  -4.021  24.924  -9.804
    1XTA    CO3 8493  -3.902  24.873  -9.885
    1XTA    OA3 8494  -3.954  24.796  -9.991
    1XTA    CO4 8495  -4.020  24.876 -10.093
    1XTA    CT1 8496  -4.076  24.785 -10.210
    1XTA    CL5 8497  -4.169  24.850 -10.321
    1XTA    CL6 8498  -4.128  24.994 -10.340
    1XTA    OA4 8499  -4.753  24.107  -9.217
    1XTA    CO5 8500  -4.851  24.103  -9.114
    1XTA    HL1 8501  -4.816  24.054  -9.028
    1XTA    HL2 8502  -3.865  23.817  -8.565
    1XTA    HL3 8503  -3.953  23.758  -8.691
    1XTA    HL4 8504  -3.867  23.906  -8.726
    1XTA    HL5 8505  -4.173  24.772  -9.351
    1XTA    HL6 8506  -4.040  24.764  -9.238
    1XTA    HL7 8507  -3.875  24.798  -9.414
    1XTA    HL8 8508  -3.988  24.938  -9.403
    1XTA    HL9 8509  -4.118  24.788  -9.575
    1XTA   HL10 8510  -3.978  24.719  -9.620
    1XTA   HL11 8511  -4.041  25.023  -9.609
    1XTA   HL12 8512  -3.887  24.957  -9.631
    1XTA   HL13 8513  -4.049  25.028  -9.827
    1XTA   HL14 8514  -4.118  24.870  -9.812
    1XTA   HL15 8515  -3.825  24.942  -9.911
    1XTA   HL16 8516  -3.842  24.810  -9.816
    1XTA   HL17 8517  -4.100  24.935 -10.054
    1XTA   HL18 8518  -3.942  24.947 -10.132
    1XTA   HL19 8519  -4.279  24.856 -10.287
    1XTA   HL20 8520  -4.170  24.786 -10.421
    1XTA   HL21 8521  -4.026  25.001 -10.353
    1XTA   HL22 8522  -4.150  25.058 -10.257
    1XTA   HL23 8523  -4.179  25.035 -10.427
    1XTA   HL24 8524  -4.941  24.055  -9.145
    1XTA   HL25 8525  -4.882  24.203  -9.075
    1XTA    CO8 8526  -4.158  24.667 -10.150
    1XTA    CO9 8527  -3.946  24.719 -10.272
    1XTA    OA6 8528  -4.255  24.699 -10.112
    1XTA   HL42 8529  -4.108  24.630 -10.059
    1XTA   HL43 8530  -4.167  24.577 -10.219
    1XTA   HL48 8531  -3.832  24.699 -10.181
    1XTA   HL49 8532  -3.967  24.620 -10.289
    1XTA     NT 8533  -8.912  27.279  -9.649
    1XTA    CN1 8534  -8.831  27.381  -9.694
    1XTA     C1 8535  -8.698  27.358  -9.719
    1XTA     C2 8536  -8.608  27.464  -9.736
    1XTA     C3 8537  -8.653  27.590  -9.739
    1XTA     C4 8538  -8.791  27.623  -9.721
    1XTA     C5 8539  -8.880  27.515  -9.703
    1XTA    CN2 8540  -8.917  27.260  -9.517
    1XTA     C6 8541  -8.814  27.194  -9.443
    1XTA     C7 8542  -8.831  27.171  -9.310
    1XTA     C8 8543  -8.951  27.211  -9.247
    1XTA     C9 8544  -9.049  27.274  -9.322
    1XTA    C10 8545  -9.037  27.303  -9.456
    1XTA    CN3 8546  -8.937  27.180  -9.740
    1XTA    C11 8547  -9.053  27.179  -9.821
    1XTA    C12 8548  -9.076  27.072  -9.914
    1XTA    C13 8549  -9.000  26.958  -9.919
    1XTA    C14 8550  -8.885  26.955  -9.835
    1XTA    C15 8551  -8.862  27.060  -9.745
    1XTA     H1 8552  -8.660  27.256  -9.728
    1XTA     H2 8553  -8.502  27.446  -9.753
    1XTA     H3 8554  -8.830  27.725  -9.723
    1XTA     H4 8555  -8.986  27.528  -9.690
    1XTA     H5 8556  -8.720  27.157  -9.490
    1XTA     H6 8557  -8.752  27.113  -9.263
    1XTA     H7 8558  -9.132  27.312  -9.268
    1XTA     H8 8559  -9.108  27.356  -9.519
    1XTA     H9 8560  -9.121  27.266  -9.828
    1XTA    H10 8561  -9.154  27.077  -9.989
    1XTA    H11 8562  -8.820  26.869  -9.841
    1XTA    H12 8563  -8.771  27.055  -9.690
    1XTA    OA1 8564  -8.553  27.683  -9.758
    1XTA    CO1 8565  -8.584  27.821  -9.764
    1XTA    OA2 8566  -8.968  27.182  -9.115
    1XTA    CO2 8567  -8.898  27.270  -9.028
    1XTA    CL1 8568  -8.940  27.267  -8.879
    1XTA    CL2 8569  -8.937  27.126  -8.825
    1XTA    CL3 8570  -8.951  27.103  -8.667
    1XTA    CL4 8571  -8.838  27.159  -8.581
    1XTA    CO3 8572  -8.702  27.139  -8.652
    1XTA    OA3 8573  -8.611  27.224  -8.585
    1XTA    CO4 8574  -8.546  27.167  -8.478
    1XTA    CT1 8575  -8.445  27.269  -8.415
    1XTA    CL5 8576  -8.330  27.296  -8.516
    1XTA    CL6 8577  -8.222  27.399  -8.488
    1XTA    OA4 8578  -9.039  26.855 -10.008
    1XTA    CO5 8579  -8.954  26.743 -10.022
    1XTA    HL1 8580  -8.986  26.682 -10.106
    1XTA    HL2 8581  -8.624  27.843  -9.659
    1XTA    HL3 8582  -8.502  27.886  -9.796
    1XTA    HL4 8583  -8.655  27.830  -9.843
    1XTA    HL5 8584  -8.794  27.248  -9.020
    1XTA    HL6 8585  -8.915  27.366  -9.077
    1XTA    HL7 8586  -9.034  27.316  -8.874
    1XTA    HL8 8587  -8.861  27.326  -8.823
    1XTA    HL9 8588  -8.858  27.070  -8.863
    1XTA   HL10 8589  -9.018  27.075  -8.873
    1XTA   HL11 8590  -9.044  27.148  -8.636
    1XTA   HL12 8591  -8.982  27.001  -8.647
    1XTA   HL13 8592  -8.845  27.102  -8.487
    1XTA   HL14 8593  -8.852  27.262  -8.557
    1XTA   HL15 8594  -8.676  27.034  -8.643
    1XTA   HL16 8595  -8.698  27.172  -8.752
    1XTA   HL17 8596  -8.618  27.132  -8.407
    1XTA   HL18 8597  -8.496  27.079  -8.517
    1XTA   HL19 8598  -8.373  27.312  -8.611
    1XTA   HL20 8599  -8.263  27.214  -8.521
    1XTA   HL21 8600  -8.263  27.499  -8.495
    1XTA   HL22 8601  -8.137  27.385  -8.541
    1XTA   HL23 8602  -8.196  27.385  -8.383
    1XTA   HL24 8603  -8.957  26.677  -9.934
    1XTA   HL25 8604  -8.858  26.778 -10.047
    1XTA    CO8 8605  -8.390  27.207  -8.291
    1XTA    CO9 8606  -8.523  27.399  -8.381
    1XTA    OA6 8607  -8.649  27.364  -8.329
    1XTA   HL42 8608  -8.457  27.219  -8.203
    1XTA   HL43 8609  -8.302  27.256  -8.254
    1XTA   HL48 8610  -8.530  27.467  -8.465
    1XTA   HL49 8611  -8.471  27.452  -8.305
    1XTA     NT 8612  -8.517  26.723 -10.934
    1XTA    CN1 8613  -8.599  26.663 -10.845
    1XTA     C1 8614  -8.547  26.563 -10.761
    1XTA     C2 8615  -8.632  26.489 -10.674
    1XTA     C3 8616  -8.768  26.514 -10.669
    1XTA     C4 8617  -8.825  26.612 -10.752
    1XTA     C5 8618  -8.742  26.695 -10.830
    1XTA    CN2 8619  -8.416  26.657 -10.997
    1XTA     C6 8620  -8.457  26.584 -11.107
    1XTA     C7 8621  -8.367  26.508 -11.181
    1XTA     C8 8622  -8.233  26.508 -11.144
    1XTA     C9 8623  -8.190  26.581 -11.027
    1XTA    C10 8624  -8.286  26.643 -10.955
    1XTA    CN3 8625  -8.530  26.852 -10.966
    1XTA    C11 8626  -8.609  26.897 -11.073
    1XTA    C12 8627  -8.605  27.035 -11.110
    1XTA    C13 8628  -8.527  27.133 -11.042
    1XTA    C14 8629  -8.450  27.089 -10.931
    1XTA    C15 8630  -8.450  26.952 -10.899
    1XTA     H1 8631  -8.446  26.534 -10.762
    1XTA     H2 8632  -8.583  26.406 -10.628
    1XTA     H3 8633  -8.930  26.624 -10.746
    1XTA     H4 8634  -8.788  26.765 -10.895
    1XTA     H5 8635  -8.564  26.590 -11.134
    1XTA     H6 8636  -8.409  26.454 -11.266
    1XTA     H7 8637  -8.088  26.582 -10.997
    1XTA     H8 8638  -8.255  26.705 -10.864
    1XTA     H9 8639  -8.668  26.824 -11.125
    1XTA    H10 8640  -8.660  27.074 -11.198
    1XTA    H11 8641  -8.397  27.158 -10.873
    1XTA    H12 8642  -8.386  26.905 -10.821
    1XTA    OA1 8643  -8.856  26.436 -10.593
    1XTA    CO1 8644  -8.799  26.359 -10.490
    1XTA    OA2 8645  -8.146  26.433 -11.212
    1XTA    CO2 8646  -8.011  26.465 -11.193
    1XTA    CL1 8647  -7.925  26.393 -11.297
    1XTA    CL2 8648  -7.893  26.241 -11.261
    1XTA    CL3 8649  -7.778  26.225 -11.152
    1XTA    CL4 8650  -7.748  26.073 -11.121
    1XTA    CO3 8651  -7.647  26.044 -11.016
    1XTA    OA3 8652  -7.707  26.032 -10.889
    1XTA    CO4 8653  -7.622  25.972 -10.778
    1XTA    CT1 8654  -7.573  26.089 -10.682
    1XTA    CL5 8655  -7.690  26.169 -10.624
    1XTA    CL6 8656  -7.805  26.092 -10.554
    1XTA    OA4 8657  -8.509  27.263 -11.084
    1XTA    CO5 8658  -8.573  27.298 -11.197
    1XTA    HL1 8659  -8.543  27.253 -11.293
    1XTA    HL2 8660  -8.709  26.403 -10.448
    1XTA    HL3 8661  -8.867  26.351 -10.407
    1XTA    HL4 8662  -8.781  26.259 -10.531
    1XTA    HL5 8663  -7.993  26.575 -11.208
    1XTA    HL6 8664  -8.000  26.430 -11.097
    1XTA    HL7 8665  -7.838  26.447 -11.330
    1XTA    HL8 8666  -7.970  26.404 -11.395
    1XTA    HL9 8667  -7.866  26.196 -11.359
    1XTA   HL10 8668  -7.980  26.198 -11.229
    1XTA   HL11 8669  -7.687  26.283 -11.176
    1XTA   HL12 8670  -7.815  26.268 -11.062
    1XTA   HL13 8671  -7.729  26.015 -11.215
    1XTA   HL14 8672  -7.848  26.036 -11.095
    1XTA   HL15 8673  -7.605  25.946 -11.036
    1XTA   HL16 8674  -7.579  26.128 -11.010
    1XTA   HL17 8675  -7.683  25.891 -10.724
    1XTA   HL18 8676  -7.543  25.924 -10.826
    1XTA   HL19 8677  -7.722  26.244 -10.699
    1XTA   HL20 8678  -7.648  26.238 -10.551
    1XTA   HL21 8679  -7.881  26.164 -10.529
    1XTA   HL22 8680  -7.769  26.054 -10.461
    1XTA   HL23 8681  -7.833  26.022 -10.632
    1XTA   HL24 8682  -8.557  27.401 -11.213
    1XTA   HL25 8683  -8.681  27.285 -11.182
    1XTA    CO8 8684  -7.472  26.193 -10.744
    1XTA    CO9 8685  -7.495  26.018 -10.565
    1XTA    OA6 8686  -7.427  26.083 -10.497
    1XTA   HL42 8687  -7.531  26.247 -10.817
    1XTA   HL43 8688  -7.431  26.290 -10.647
    1XTA   HL48 8689  -7.427  25.944 -10.615
    1XTA   HL49 8690  -7.564  25.945 -10.523
    1XTA     NT 8691  -7.825  28.505  -6.786
    1XTA    CN1 8692  -7.915  28.453  -6.698
    1XTA     C1 8693  -8.017  28.533  -6.640
    1XTA     C2 8694  -8.101  28.487  -6.539
    1XTA     C3 8695  -8.089  28.355  -6.493
    1XTA     C4 8696  -7.990  28.269  -6.553
    1XTA     C5 8697  -7.904  28.321  -6.653
    1XTA    CN2 8698  -7.728  28.586  -6.743
    1XTA     C6 8699  -7.608  28.525  -6.691
    1XTA     C7 8700  -7.511  28.611  -6.628
    1XTA     C8 8701  -7.529  28.751  -6.642
    1XTA     C9 8702  -7.652  28.807  -6.695
    1XTA    C10 8703  -7.753  28.721  -6.743
    1XTA    CN3 8704  -7.858  28.501  -6.920
    1XTA    C11 8705  -7.951  28.593  -6.972
    1XTA    C12 8706  -7.971  28.610  -7.111
    1XTA    C13 8707  -7.893  28.532  -7.202
    1XTA    C14 8708  -7.804  28.436  -7.152
    1XTA    C15 8709  -7.790  28.419  -7.012
    1XTA     H1 8710  -8.023  28.632  -6.670
    1XTA     H2 8711  -8.164  28.557  -6.493
    1XTA     H3 8712  -7.982  28.170  -6.513
    1XTA     H4 8713  -7.819  28.260  -6.676
    1XTA     H5 8714  -7.581  28.424  -6.686
    1XTA     H6 8715  -7.433  28.561  -6.576
    1XTA     H7 8716  -7.662  28.915  -6.697
    1XTA     H8 8717  -7.834  28.762  -6.797
    1XTA     H9 8718  -8.008  28.661  -6.908
    1XTA    H10 8719  -8.050  28.680  -7.143
    1XTA    H11 8720  -7.739  28.378  -7.219
    1XTA    H12 8721  -7.718  28.360  -6.958
    1XTA    OA1 8722  -8.170  28.302  -6.393
    1XTA    CO1 8723  -8.252  28.395  -6.331
    1XTA    OA2 8724  -7.436  28.842  -6.595
    1XTA    CO2 8725  -7.318  28.787  -6.534
    1XTA    CL1 8726  -7.224  28.895  -6.484
    1XTA    CL2 8727  -7.296  28.989  -6.380
    1XTA    CL3 8728  -7.305  28.928  -6.240
    1XTA    CL4 8729  -7.191  28.974  -6.152
    1XTA    CO3 8730  -7.069  28.889  -6.166
    1XTA    OA3 8731  -6.988  28.936  -6.068
    1XTA    CO4 8732  -6.887  28.837  -6.042
    1XTA    CT1 8733  -6.814  28.856  -5.907
    1XTA    CL5 8734  -6.732  28.984  -5.938
    1XTA    CL6 8735  -6.640  29.037  -5.822
    1XTA    OA4 8736  -7.930  28.523  -7.335
    1XTA    CO5 8737  -8.060  28.581  -7.372
    1XTA    HL1 8738  -8.088  28.543  -7.473
    1XTA    HL2 8739  -8.202  28.489  -6.300
    1XTA    HL3 8740  -8.336  28.421  -6.395
    1XTA    HL4 8741  -8.274  28.343  -6.238
    1XTA    HL5 8742  -7.359  28.723  -6.444
    1XTA    HL6 8743  -7.262  28.722  -6.603
    1XTA    HL7 8744  -7.205  28.948  -6.574
    1XTA    HL8 8745  -7.124  28.855  -6.445
    1XTA    HL9 8746  -7.400  29.004  -6.401
    1XTA   HL10 8747  -7.252  29.090  -6.390
    1XTA   HL11 8748  -7.387  28.981  -6.193
    1XTA   HL12 8749  -7.323  28.826  -6.241
    1XTA   HL13 8750  -7.225  28.973  -6.052
    1XTA   HL14 8751  -7.148  29.081  -6.175
    1XTA   HL15 8752  -7.100  28.783  -6.148
    1XTA   HL16 8753  -7.036  28.906  -6.263
    1XTA   HL17 8754  -6.944  28.747  -6.036
    1XTA   HL18 8755  -6.808  28.833  -6.119
    1XTA   HL19 8756  -6.801  29.053  -5.982
    1XTA   HL20 8757  -6.667  28.949  -6.021
    1XTA   HL21 8758  -6.576  29.115  -5.864
    1XTA   HL22 8759  -6.581  28.950  -5.784
    1XTA   HL23 8760  -6.700  29.076  -5.736
    1XTA   HL24 8761  -8.061  28.694  -7.365
    1XTA   HL25 8762  -8.135  28.534  -7.301
    1XTA    CO8 8763  -6.737  28.731  -5.865
    1XTA    CO9 8764  -6.908  28.880  -5.786
    1XTA    OA6 8765  -6.663  28.694  -5.982
    1XTA   HL42 8766  -6.801  28.646  -5.848
    1XTA   HL43 8767  -6.669  28.743  -5.784
    1XTA   HL48 8768  -6.847  28.905  -5.700
    1XTA   HL49 8769  -6.952  28.981  -5.805
    1XTA     NT 8770  -7.375  27.175  -6.904
    1XTA    CN1 8771  -7.268  27.109  -6.965
    1XTA     C1 8772  -7.289  27.010  -7.060
    1XTA     C2 8773  -7.181  26.952  -7.128
    1XTA     C3 8774  -7.048  26.993  -7.106
    1XTA     C4 8775  -7.028  27.096  -7.016
    1XTA     C5 8776  -7.134  27.142  -6.936
    1XTA    CN2 8777  -7.407  27.300  -6.944
    1XTA     C6 8778  -7.489  27.307  -7.060
    1XTA     C7 8779  -7.525  27.429  -7.120
    1XTA     C8 8780  -7.484  27.550  -7.057
    1XTA     C9 8781  -7.401  27.544  -6.949
    1XTA    C10 8782  -7.366  27.418  -6.891
    1XTA    CN3 8783  -7.423  27.128  -6.788
    1XTA    C11 8784  -7.561  27.150  -6.752
    1XTA    C12 8785  -7.620  27.106  -6.635
    1XTA    C13 8786  -7.546  27.025  -6.545
    1XTA    C14 8787  -7.407  27.004  -6.575
    1XTA    C15 8788  -7.353  27.057  -6.694
    1XTA     H1 8789  -7.386  26.967  -7.087
    1XTA     H2 8790  -7.203  26.872  -7.199
    1XTA     H3 8791  -6.930  27.142  -7.002
    1XTA     H4 8792  -7.110  27.223  -6.869
    1XTA     H5 8793  -7.518  27.220  -7.113
    1XTA     H6 8794  -7.589  27.427  -7.209
    1XTA     H7 8795  -7.360  27.636  -6.903
    1XTA     H8 8796  -7.306  27.421  -6.800
    1XTA     H9 8797  -7.623  27.202  -6.826
    1XTA    H10 8798  -7.727  27.130  -6.609
    1XTA    H11 8799  -7.347  26.947  -6.509
    1XTA    H12 8800  -7.250  27.039  -6.706
    1XTA    OA1 8801  -6.937  26.959  -7.174
    1XTA    CO1 8802  -6.950  26.847  -7.262
    1XTA    OA2 8803  -7.517  27.673  -7.108
    1XTA    CO2 8804  -7.559  27.695  -7.232
    1XTA    CL1 8805  -7.712  27.675  -7.253
    1XTA    CL2 8806  -7.771  27.685  -7.394
    1XTA    CL3 8807  -7.924  27.674  -7.394
    1XTA    CL4 8808  -7.979  27.530  -7.353
    1XTA    CO3 8809  -8.120  27.494  -7.354
    1XTA    OA3 8810  -8.160  27.512  -7.492
    1XTA    CO4 8811  -8.299  27.533  -7.510
    1XTA    CT1 8812  -8.346  27.682  -7.528
    1XTA    CL5 8813  -8.344  27.770  -7.399
    1XTA    CL6 8814  -8.355  27.923  -7.414
    1XTA    OA4 8815  -7.586  26.974  -6.425
    1XTA    CO5 8816  -7.717  26.913  -6.428
    1XTA    HL1 8817  -7.786  26.972  -6.480
    1XTA    HL2 8818  -6.858  26.839  -7.315
    1XTA    HL3 8819  -6.967  26.751  -7.213
    1XTA    HL4 8820  -7.029  26.857  -7.342
    1XTA    HL5 8821  -7.543  27.804  -7.250
    1XTA    HL6 8822  -7.510  27.635  -7.314
    1XTA    HL7 8823  -7.764  27.742  -7.185
    1XTA    HL8 8824  -7.746  27.580  -7.207
    1XTA    HL9 8825  -7.714  27.618  -7.457
    1XTA   HL10 8826  -7.753  27.789  -7.432
    1XTA   HL11 8827  -7.967  27.739  -7.325
    1XTA   HL12 8828  -7.967  27.702  -7.494
    1XTA   HL13 8829  -7.954  27.530  -7.252
    1XTA   HL14 8830  -7.917  27.452  -7.398
    1XTA   HL15 8831  -8.125  27.392  -7.324
    1XTA   HL16 8832  -8.170  27.567  -7.287
    1XTA   HL17 8833  -8.311  27.481  -7.608
    1XTA   HL18 8834  -8.361  27.477  -7.431
    1XTA   HL19 8835  -8.252  27.766  -7.336
    1XTA   HL20 8836  -8.421  27.741  -7.330
    1XTA   HL21 8837  -8.341  27.970  -7.313
    1XTA   HL22 8838  -8.448  27.947  -7.461
    1XTA   HL23 8839  -8.286  27.976  -7.477
    1XTA   HL24 8840  -7.756  26.888  -6.332
    1XTA   HL25 8841  -7.712  26.827  -6.492
    1XTA    CO8 8842  -8.491  27.657  -7.580
    1XTA    CO9 8843  -8.255  27.746  -7.635
    1XTA    OA6 8844  -8.290  27.840  -7.679
    1XTA   HL42 8845  -8.542  27.750  -7.560
    1XTA   HL43 8846  -8.491  27.657  -7.721
    1XTA   HL48 8847  -8.245  27.670  -7.711
    1XTA   HL49 8848  -8.159  27.754  -7.585
    1XTA     NT 8849  -8.179  26.022  -8.294
    1XTA    CN1 8850  -8.142  26.058  -8.172
    1XTA     C1 8851  -8.235  26.071  -8.070
    1XTA     C2 8852  -8.197  26.119  -7.938
    1XTA     C3 8853  -8.063  26.152  -7.912
    1XTA     C4 8854  -7.967  26.130  -8.013
    1XTA     C5 8855  -8.002  26.091  -8.144
    1XTA    CN2 8856  -8.149  26.106  -8.395
    1XTA     C6 8857  -8.187  26.241  -8.392
    1XTA     C7 8858  -8.157  26.326  -8.497
    1XTA     C8 8859  -8.078  26.280  -8.600
    1XTA     C9 8860  -8.041  26.144  -8.604
    1XTA    C10 8861  -8.085  26.052  -8.508
    1XTA    CN3 8862  -8.278  25.933  -8.308
    1XTA    C11 8863  -8.238  25.801  -8.318
    1XTA    C12 8864  -8.338  25.702  -8.324
    1XTA    C13 8865  -8.475  25.735  -8.327
    1XTA    C14 8866  -8.517  25.872  -8.318
    1XTA    C15 8867  -8.419  25.971  -8.306
    1XTA     H1 8868  -8.338  26.053  -8.098
    1XTA     H2 8869  -8.269  26.125  -7.864
    1XTA     H3 8870  -7.859  26.145  -7.990
    1XTA     H4 8871  -7.933  26.077  -8.222
    1XTA     H5 8872  -8.246  26.279  -8.313
    1XTA     H6 8873  -8.182  26.429  -8.493
    1XTA     H7 8874  -7.984  26.104  -8.684
    1XTA     H8 8875  -8.062  25.949  -8.513
    1XTA     H9 8876  -8.133  25.776  -8.314
    1XTA    H10 8877  -8.298  25.605  -8.316
    1XTA    H11 8878  -8.617  25.909  -8.316
    1XTA    H12 8879  -8.446  26.079  -8.295
    1XTA    OA1 8880  -8.043  26.202  -7.785
    1XTA    CO1 8881  -7.921  26.159  -7.727
    1XTA    OA2 8882  -8.026  26.372  -8.695
    1XTA    CO2 8883  -7.943  26.318  -8.798
    1XTA    CL1 8884  -7.905  26.438  -8.889
    1XTA    CL2 8885  -7.820  26.382  -8.999
    1XTA    CL3 8886  -7.675  26.363  -8.951
    1XTA    CL4 8887  -7.577  26.317  -9.069
    1XTA    CO3 8888  -7.564  26.425  -9.178
    1XTA    OA3 8889  -7.464  26.376  -9.270
    1XTA    CO4 8890  -7.439  26.461  -9.373
    1XTA    CT1 8891  -7.302  26.442  -9.458
    1XTA    CL5 8892  -7.175  26.454  -9.363
    1XTA    CL6 8893  -7.132  26.604  -9.316
    1XTA    OA4 8894  -8.578  25.643  -8.344
    1XTA    CO5 8895  -8.539  25.508  -8.342
    1XTA    HL1 8896  -8.478  25.492  -8.248
    1XTA    HL2 8897  -7.917  26.042  -7.711
    1XTA    HL3 8898  -7.839  26.214  -7.773
    1XTA    HL4 8899  -7.933  26.214  -7.637
    1XTA    HL5 8900  -7.854  26.264  -8.772
    1XTA    HL6 8901  -8.009  26.263  -8.856
    1XTA    HL7 8902  -7.825  26.508  -8.846
    1XTA    HL8 8903  -7.994  26.490  -8.925
    1XTA    HL9 8904  -7.826  26.460  -9.077
    1XTA   HL10 8905  -7.862  26.290  -9.042
    1XTA   HL11 8906  -7.634  26.456  -8.910
    1XTA   HL12 8907  -7.678  26.294  -8.868
    1XTA   HL13 8908  -7.613  26.225  -9.106
    1XTA   HL14 8909  -7.476  26.294  -9.035
    1XTA   HL15 8910  -7.653  26.417  -9.235
    1XTA   HL16 8911  -7.521  26.514  -9.135
    1XTA   HL17 8912  -7.521  26.466  -9.437
    1XTA   HL18 8913  -7.429  26.565  -9.329
    1XTA   HL19 8914  -7.086  26.418  -9.410
    1XTA   HL20 8915  -7.193  26.385  -9.277
    1XTA   HL21 8916  -7.205  26.654  -9.248
    1XTA   HL22 8917  -7.110  26.668  -9.395
    1XTA   HL23 8918  -7.046  26.599  -9.252
    1XTA   HL24 8919  -8.487  25.480  -8.433
    1XTA   HL25 8920  -8.620  25.436  -8.335
    1XTA    CO8 8921  -7.297  26.558  -9.566
    1XTA    CO9 8922  -7.301  26.312  -9.537
    1XTA    OA6 8923  -7.385  26.556  -9.638
    1XTA   HL42 8924  -7.205  26.547  -9.617
    1XTA   HL43 8925  -7.296  26.653  -9.516
    1XTA   HL48 8926  -7.197  26.330  -9.634
    1XTA   HL49 8927  -7.394  26.314  -9.589
    1XTA     NT 8928  -6.255  29.988  -4.499
    1XTA    CN1 8929  -6.335  30.010  -4.609
    1XTA     C1 8930  -6.406  29.897  -4.667
    1XTA     C2 8931  -6.469  29.911  -4.795
    1XTA     C3 8932  -6.469  30.039  -4.857
    1XTA     C4 8933  -6.391  30.144  -4.800
    1XTA     C5 8934  -6.321  30.127  -4.684
    1XTA    CN2 8935  -6.285  30.069  -4.395
    1XTA     C6 8936  -6.413  30.068  -4.340
    1XTA     C7 8937  -6.437  30.137  -4.218
    1XTA     C8 8938  -6.337  30.205  -4.148
    1XTA     C9 8939  -6.205  30.200  -4.203
    1XTA    C10 8940  -6.184  30.144  -4.327
    1XTA    CN3 8941  -6.137  29.919  -4.500
    1XTA    C11 8942  -6.040  29.965  -4.587
    1XTA    C12 8943  -5.924  29.891  -4.611
    1XTA    C13 8944  -5.906  29.773  -4.538
    1XTA    C14 8945  -6.002  29.726  -4.451
    1XTA    C15 8946  -6.119  29.804  -4.415
    1XTA     H1 8947  -6.401  29.807  -4.609
    1XTA     H2 8948  -6.519  29.826  -4.826
    1XTA     H3 8949  -6.383  30.237  -4.852
    1XTA     H4 8950  -6.249  30.195  -4.658
    1XTA     H5 8951  -6.487  30.008  -4.394
    1XTA     H6 8952  -6.535  30.117  -4.186
    1XTA     H7 8953  -6.129  30.248  -4.151
    1XTA     H8 8954  -6.084  30.143  -4.367
    1XTA     H9 8955  -6.058  30.055  -4.641
    1XTA    H10 8956  -5.852  29.920  -4.687
    1XTA    H11 8957  -5.980  29.628  -4.409
    1XTA    H12 8958  -6.190  29.761  -4.346
    1XTA    OA1 8959  -6.554  30.046  -4.963
    1XTA    CO1 8960  -6.556  30.169  -5.037
    1XTA    OA2 8961  -6.369  30.254  -4.024
    1XTA    CO2 8962  -6.259  30.280  -3.924
    1XTA    CL1 8963  -6.332  30.320  -3.791
    1XTA    CL2 8964  -6.235  30.336  -3.677
    1XTA    CL3 8965  -6.137  30.449  -3.691
    1XTA    CL4 8966  -6.122  30.536  -3.559
    1XTA    CO3 8967  -6.033  30.659  -3.577
    1XTA    OA3 8968  -5.906  30.615  -3.525
    1XTA    CO4 8969  -5.812  30.584  -3.630
    1XTA    CT1 8970  -5.674  30.560  -3.569
    1XTA    CL5 8971  -5.622  30.683  -3.497
    1XTA    CL6 8972  -5.597  30.825  -3.568
    1XTA    OA4 8973  -5.803  29.690  -4.571
    1XTA    CO5 8974  -5.672  29.748  -4.575
    1XTA    HL1 8975  -5.591  29.677  -4.601
    1XTA    HL2 8976  -6.562  30.262  -4.980
    1XTA    HL3 8977  -6.462  30.183  -5.095
    1XTA    HL4 8978  -6.633  30.163  -5.114
    1XTA    HL5 8979  -6.191  30.196  -3.913
    1XTA    HL6 8980  -6.202  30.363  -3.966
    1XTA    HL7 8981  -6.395  30.232  -3.772
    1XTA    HL8 8982  -6.406  30.396  -3.793
    1XTA    HL9 8983  -6.179  30.243  -3.665
    1XTA   HL10 8984  -6.292  30.343  -3.583
    1XTA   HL11 8985  -6.034  30.433  -3.713
    1XTA   HL12 8986  -6.164  30.527  -3.770
    1XTA   HL13 8987  -6.102  30.481  -3.468
    1XTA   HL14 8988  -6.219  30.571  -3.519
    1XTA   HL15 8989  -6.026  30.700  -3.681
    1XTA   HL16 8990  -6.057  30.744  -3.510
    1XTA   HL17 8991  -5.843  30.491  -3.671
    1XTA   HL18 8992  -5.801  30.661  -3.710
    1XTA   HL19 8993  -5.536  30.662  -3.442
    1XTA   HL20 8994  -5.687  30.706  -3.406
    1XTA   HL21 8995  -5.655  30.829  -3.660
    1XTA   HL22 8996  -5.491  30.835  -3.581
    1XTA   HL23 8997  -5.630  30.913  -3.509
    1XTA   HL24 8998  -5.649  29.804  -4.481
    1XTA   HL25 8999  -5.668  29.828  -4.653
    1XTA    CO8 9000  -5.582  30.528  -3.686
    1XTA    CO9 9001  -5.682  30.445  -3.465
    1XTA    OA6 9002  -5.639  30.444  -3.747
    1XTA   HL42 9003  -5.491  30.480  -3.640
    1XTA   HL43 9004  -5.567  30.621  -3.742
    1XTA   HL48 9005  -5.742  30.335  -3.530
    1XTA   HL49 9006  -5.758  30.474  -3.397
    1XTA     NT 9007  -6.044  30.235  -8.017
    1XTA    CN1 9008  -6.173  30.259  -8.030
    1XTA     C1 9009  -6.274  30.161  -8.023
    1XTA     C2 9010  -6.410  30.195  -8.025
    1XTA     C3 9011  -6.458  30.327  -8.022
    1XTA     C4 9012  -6.363  30.425  -8.027
    1XTA     C5 9013  -6.222  30.396  -8.039
    1XTA    CN2 9014  -5.993  30.190  -7.898
    1XTA     C6 9015  -5.945  30.059  -7.876
    1XTA     C7 9016  -5.894  30.032  -7.752
    1XTA     C8 9017  -5.908  30.120  -7.645
    1XTA     C9 9018  -5.964  30.244  -7.663
    1XTA    C10 9019  -6.003  30.280  -7.793
    1XTA    CN3 9020  -5.962  30.257  -8.122
    1XTA    C11 9021  -5.998  30.215  -8.253
    1XTA    C12 9022  -5.921  30.266  -8.365
    1XTA    C13 9023  -5.800  30.340  -8.351
    1XTA    C14 9024  -5.766  30.376  -8.218
    1XTA    C15 9025  -5.839  30.338  -8.105
    1XTA     H1 9026  -6.241  30.059  -8.016
    1XTA     H2 9027  -6.486  30.118  -8.014
    1XTA     H3 9028  -6.385  30.532  -8.017
    1XTA     H4 9029  -6.152  30.479  -8.043
    1XTA     H5 9030  -5.933  29.990  -7.962
    1XTA     H6 9031  -5.850  29.936  -7.746
    1XTA     H7 9032  -5.996  30.301  -7.582
    1XTA     H8 9033  -6.046  30.376  -7.811
    1XTA     H9 9034  -6.084  30.156  -8.272
    1XTA    H10 9035  -5.951  30.242  -8.468
    1XTA    H11 9036  -5.676  30.431  -8.196
    1XTA    H12 9037  -5.810  30.387  -8.009
    1XTA    OA1 9038  -6.589  30.362  -8.005
    1XTA    CO1 9039  -6.679  30.255  -7.961
    1XTA    OA2 9040  -5.878  30.095  -7.516
    1XTA    CO2 9041  -5.831  29.967  -7.480
    1XTA    CL1 9042  -5.721  29.982  -7.371
    1XTA    CL2 9043  -5.662  29.849  -7.332
    1XTA    CL3 9044  -5.768  29.748  -7.272
    1XTA    CL4 9045  -5.713  29.630  -7.185
    1XTA    CO3 9046  -5.658  29.511  -7.270
    1XTA    OA3 9047  -5.548  29.553  -7.357
    1XTA    CO4 9048  -5.429  29.553  -7.282
    1XTA    CT1 9049  -5.305  29.593  -7.368
    1XTA    CL5 9050  -5.327  29.739  -7.417
    1XTA    CL6 9051  -5.215  29.801  -7.514
    1XTA    OA4 9052  -5.728  30.368  -8.467
    1XTA    CO5 9053  -5.633  30.469  -8.450
    1XTA    HL1 9054  -5.645  30.568  -8.401
    1XTA    HL2 9055  -6.777  30.293  -7.948
    1XTA    HL3 9056  -6.691  30.169  -8.030
    1XTA    HL4 9057  -6.637  30.226  -7.867
    1XTA    HL5 9058  -5.898  29.895  -7.436
    1XTA    HL6 9059  -5.795  29.905  -7.563
    1XTA    HL7 9060  -5.756  30.036  -7.277
    1XTA    HL8 9061  -5.639  30.044  -7.418
    1XTA    HL9 9062  -5.572  29.869  -7.267
    1XTA   HL10 9063  -5.610  29.812  -7.418
    1XTA   HL11 9064  -5.832  29.808  -7.209
    1XTA   HL12 9065  -5.832  29.727  -7.352
    1XTA   HL13 9066  -5.788  29.597  -7.129
    1XTA   HL14 9067  -5.633  29.674  -7.124
    1XTA   HL15 9068  -5.617  29.433  -7.209
    1XTA   HL16 9069  -5.740  29.460  -7.332
    1XTA   HL17 9070  -5.436  29.619  -7.194
    1XTA   HL18 9071  -5.418  29.453  -7.232
    1XTA   HL19 9072  -5.346  29.803  -7.324
    1XTA   HL20 9073  -5.423  29.749  -7.465
    1XTA   HL21 9074  -5.181  29.726  -7.580
    1XTA   HL22 9075  -5.153  29.849  -7.455
    1XTA   HL23 9076  -5.249  29.879  -7.582
    1XTA   HL24 9077  -5.596  30.477  -8.555
    1XTA   HL25 9078  -5.544  30.430  -8.401
    1XTA    CO8 9079  -5.300  29.493  -7.490
    1XTA    CO9 9080  -5.172  29.585  -7.291
    1XTA    OA6 9081  -5.127  29.453  -7.285
    1XTA   HL42 9082  -5.204  29.505  -7.536
    1XTA   HL43 9083  -5.369  29.527  -7.561
    1XTA   HL48 9084  -5.162  29.628  -7.192
    1XTA   HL49 9085  -5.105  29.639  -7.350
    1XTA     NT 9086  -5.940  28.298  -7.051
    1XTA    CN1 9087  -5.859  28.400  -7.074
    1XTA     C1 9088  -5.801  28.462  -6.960
    1XTA     C2 9089  -5.707  28.569  -6.973
    1XTA     C3 9090  -5.665  28.614  -7.104
    1XTA     C4 9091  -5.730  28.556  -7.215
    1XTA     C5 9092  -5.821  28.449  -7.202
    1XTA    CN2 9093  -6.068  28.323  -7.074
    1XTA     C6 9094  -6.137  28.273  -7.182
    1XTA     C7 9095  -6.276  28.291  -7.200
    1XTA     C8 9096  -6.350  28.360  -7.098
    1XTA     C9 9097  -6.282  28.411  -6.984
    1XTA    C10 9098  -6.141  28.391  -6.972
    1XTA    CN3 9099  -5.894  28.173  -7.030
    1XTA    C11 9100  -5.774  28.130  -7.090
    1XTA    C12 9101  -5.721  28.000  -7.062
    1XTA    C13 9102  -5.793  27.915  -6.973
    1XTA    C14 9103  -5.907  27.960  -6.907
    1XTA    C15 9104  -5.959  28.089  -6.942
    1XTA     H1 9105  -5.834  28.423  -6.864
    1XTA     H2 9106  -5.679  28.620  -6.882
    1XTA     H3 9107  -5.700  28.593  -7.313
    1XTA     H4 9108  -5.864  28.405  -7.290
    1XTA     H5 9109  -6.086  28.213  -7.263
    1XTA     H6 9110  -6.333  28.250  -7.278
    1XTA     H7 9111  -6.322  28.455  -6.898
    1XTA     H8 9112  -6.087  28.418  -6.880
    1XTA     H9 9113  -5.713  28.188  -7.155
    1XTA    H10 9114  -5.637  27.957  -7.114
    1XTA    H11 9115  -5.955  27.898  -6.835
    1XTA    H12 9116  -6.051  28.122  -6.899
    1XTA    OA1 9117  -5.576  28.708  -7.127
    1XTA    CO1 9118  -5.444  28.675  -7.096
    1XTA    OA2 9119  -6.482  28.353  -7.105
    1XTA    CO2 9120  -6.542  28.276  -7.001
    1XTA    CL1 9121  -6.635  28.368  -6.921
    1XTA    CL2 9122  -6.666  28.314  -6.785
    1XTA    CL3 9123  -6.665  28.428  -6.675
    1XTA    CL4 9124  -6.670  28.367  -6.539
    1XTA    CO3 9125  -6.687  28.483  -6.445
    1XTA    OA3 9126  -6.678  28.431  -6.312
    1XTA    CO4 9127  -6.656  28.534  -6.219
    1XTA    CT1 9128  -6.623  28.467  -6.081
    1XTA    CL5 9129  -6.498  28.370  -6.105
    1XTA    CL6 9130  -6.433  28.306  -5.981
    1XTA    OA4 9131  -5.739  27.796  -6.938
    1XTA    CO5 9132  -5.609  27.767  -6.965
    1XTA    HL1 9133  -5.600  27.748  -7.074
    1XTA    HL2 9134  -5.365  28.745  -7.140
    1XTA    HL3 9135  -5.421  28.686  -6.989
    1XTA    HL4 9136  -5.418  28.574  -7.116
    1XTA    HL5 9137  -6.586  28.189  -7.053
    1XTA    HL6 9138  -6.468  28.234  -6.932
    1XTA    HL7 9139  -6.729  28.368  -6.977
    1XTA    HL8 9140  -6.595  28.469  -6.906
    1XTA    HL9 9141  -6.592  28.247  -6.752
    1XTA   HL10 9142  -6.763  28.268  -6.783
    1XTA   HL11 9143  -6.576  28.492  -6.691
    1XTA   HL12 9144  -6.757  28.490  -6.688
    1XTA   HL13 9145  -6.587  28.300  -6.513
    1XTA   HL14 9146  -6.762  28.313  -6.536
    1XTA   HL15 9147  -6.604  28.548  -6.468
    1XTA   HL16 9148  -6.780  28.531  -6.454
    1XTA   HL17 9149  -6.574  28.595  -6.255
    1XTA   HL18 9150  -6.737  28.615  -6.224
    1XTA   HL19 9151  -6.426  28.424  -6.164
    1XTA   HL20 9152  -6.538  28.287  -6.166
    1XTA   HL21 9153  -6.499  28.234  -5.930
    1XTA   HL22 9154  -6.397  28.374  -5.907
    1XTA   HL23 9155  -6.342  28.245  -6.000
    1XTA   HL24 9156  -5.593  27.670  -6.916
    1XTA   HL25 9157  -5.550  27.849  -6.924
    1XTA    CO8 9158  -6.752  28.408  -6.024
    1XTA    CO9 9159  -6.589  28.576  -5.986
    1XTA    OA6 9160  -6.716  28.340  -5.904
    1XTA   HL42 9161  -6.803  28.340  -6.089
    1XTA   HL43 9162  -6.828  28.486  -5.995
    1XTA   HL48 9163  -6.583  28.535  -5.879
    1XTA   HL49 9164  -6.483  28.606  -6.004
    1XTA     NT 9165  -7.273  28.873  -8.594
    1XTA    CN1 9166  -7.322  28.744  -8.573
    1XTA     C1 9167  -7.395  28.681  -8.673
    1XTA     C2 9168  -7.446  28.556  -8.652
    1XTA     C3 9169  -7.438  28.490  -8.532
    1XTA     C4 9170  -7.366  28.555  -8.425
    1XTA     C5 9171  -7.310  28.680  -8.450
    1XTA    CN2 9172  -7.358  28.965  -8.551
    1XTA     C6 9173  -7.383  28.991  -8.413
    1XTA     C7 9174  -7.472  29.089  -8.374
    1XTA     C8 9175  -7.523  29.172  -8.469
    1XTA     C9 9176  -7.505  29.150  -8.608
    1XTA    C10 9177  -7.423  29.043  -8.651
    1XTA    CN3 9178  -7.139  28.884  -8.617
    1XTA    C11 9179  -7.056  28.914  -8.505
    1XTA    C12 9180  -6.915  28.927  -8.519
    1XTA    C13 9181  -6.865  28.931  -8.648
    1XTA    C14 9182  -6.946  28.890  -8.754
    1XTA    C15 9183  -7.083  28.867  -8.744
    1XTA     H1 9184  -7.406  28.730  -8.770
    1XTA     H2 9185  -7.500  28.515  -8.741
    1XTA     H3 9186  -7.356  28.518  -8.327
    1XTA     H4 9187  -7.265  28.732  -8.369
    1XTA     H5 9188  -7.339  28.928  -8.336
    1XTA     H6 9189  -7.497  29.090  -8.269
    1XTA     H7 9190  -7.557  29.206  -8.686
    1XTA     H8 9191  -7.406  29.016  -8.755
    1XTA     H9 9192  -7.102  28.917  -8.404
    1XTA    H10 9193  -6.853  28.934  -8.424
    1XTA    H11 9194  -6.902  28.904  -8.856
    1XTA    H12 9195  -7.145  28.851  -8.832
    1XTA    OA1 9196  -7.487  28.363  -8.520
    1XTA    CO1 9197  -7.498  28.315  -8.385
    1XTA    OA2 9198  -7.608  29.276  -8.447
    1XTA    CO2 9199  -7.661  29.293  -8.317
    1XTA    CL1 9200  -7.763  29.409  -8.297
    1XTA    CL2 9201  -7.875  29.402  -8.389
    1XTA    CL3 9202  -7.977  29.315  -8.335
    1XTA    CL4 9203  -8.093  29.307  -8.426
    1XTA    CO3 9204  -8.214  29.249  -8.348
    1XTA    OA3 9205  -8.186  29.122  -8.292
    1XTA    CO4 9206  -8.156  29.017  -8.382
    1XTA    CT1 9207  -8.087  28.904  -8.306
    1XTA    CL5 9208  -8.185  28.847  -8.197
    1XTA    CL6 9209  -8.328  28.817  -8.256
    1XTA    OA4 9210  -6.726  28.944  -8.669
    1XTA    CO5 9211  -6.669  28.836  -8.745
    1XTA    HL1 9212  -6.709  28.741  -8.709
    1XTA    HL2 9213  -7.558  28.383  -8.323
    1XTA    HL3 9214  -7.548  28.216  -8.389
    1XTA    HL4 9215  -7.396  28.313  -8.342
    1XTA    HL5 9216  -7.703  29.196  -8.290
    1XTA    HL6 9217  -7.579  29.324  -8.254
    1XTA    HL7 9218  -7.708  29.501  -8.300
    1XTA    HL8 9219  -7.794  29.385  -8.192
    1XTA    HL9 9220  -7.838  29.360  -8.489
    1XTA   HL10 9221  -7.917  29.504  -8.412
    1XTA   HL11 9222  -7.946  29.212  -8.316
    1XTA   HL12 9223  -8.012  29.351  -8.238
    1XTA   HL13 9224  -8.076  29.250  -8.526
    1XTA   HL14 9225  -8.115  29.411  -8.457
    1XTA   HL15 9226  -8.246  29.310  -8.264
    1XTA   HL16 9227  -8.307  29.252  -8.401
    1XTA   HL17 9228  -8.242  28.969  -8.444
    1XTA   HL18 9229  -8.082  29.039  -8.457
    1XTA   HL19 9230  -8.207  28.914  -8.113
    1XTA   HL20 9231  -8.139  28.762  -8.152
    1XTA   HL21 9232  -8.398  28.895  -8.266
    1XTA   HL22 9233  -8.366  28.752  -8.178
    1XTA   HL23 9234  -8.322  28.766  -8.349
    1XTA   HL24 9235  -6.560  28.832  -8.736
    1XTA   HL25 9236  -6.693  28.852  -8.848
    1XTA    CO8 9237  -7.962  28.957  -8.236
    1XTA    CO9 9238  -8.035  28.791  -8.402
    1XTA    OA6 9239  -7.901  28.852  -8.159
    1XTA   HL42 9240  -7.997  29.049  -8.171
    1XTA   HL43 9241  -7.886  29.001  -8.297
    1XTA   HL48 9242  -8.003  28.705  -8.355
    1XTA   HL49 9243  -7.941  28.823  -8.457
    1XTA     NT 9244  -5.733  32.027  -6.000
    1XTA    CN1 9245  -5.617  32.096  -6.009
    1XTA     C1 9246  -5.557  32.104  -6.131
    1XTA     C2 9247  -5.436  32.169  -6.148
    1XTA     C3 9248  -5.383  32.244  -6.039
    1XTA     C4 9249  -5.448  32.243  -5.917
    1XTA     C5 9250  -5.563  32.166  -5.900
    1XTA    CN2 9251  -5.723  31.889  -5.999
    1XTA     C6 9252  -5.724  31.817  -6.121
    1XTA     C7 9253  -5.709  31.674  -6.119
    1XTA     C8 9254  -5.702  31.607  -5.996
    1XTA     C9 9255  -5.704  31.678  -5.873
    1XTA    C10 9256  -5.715  31.817  -5.873
    1XTA    CN3 9257  -5.854  32.081  -5.996
    1XTA    C11 9258  -5.925  32.109  -6.110
    1XTA    C12 9259  -6.052  32.168  -6.101
    1XTA    C13 9260  -6.117  32.204  -5.982
    1XTA    C14 9261  -6.037  32.186  -5.867
    1XTA    C15 9262  -5.907  32.118  -5.869
    1XTA     H1 9263  -5.608  32.049  -6.207
    1XTA     H2 9264  -5.380  32.162  -6.238
    1XTA     H3 9265  -5.412  32.300  -5.833
    1XTA     H4 9266  -5.605  32.155  -5.809
    1XTA     H5 9267  -5.750  31.863  -6.218
    1XTA     H6 9268  -5.713  31.610  -6.206
    1XTA     H7 9269  -5.711  31.621  -5.784
    1XTA     H8 9270  -5.722  31.878  -5.775
    1XTA     H9 9271  -5.877  32.089  -6.203
    1XTA    H10 9272  -6.107  32.183  -6.192
    1XTA    H11 9273  -6.066  32.226  -5.771
    1XTA    H12 9274  -5.850  32.132  -5.782
    1XTA    OA1 9275  -5.258  32.301  -6.040
    1XTA    CO1 9276  -5.176  32.286  -6.154
    1XTA    OA2 9277  -5.697  31.466  -5.991
    1XTA    CO2 9278  -5.630  31.391  -6.091
    1XTA    CL1 9279  -5.639  31.238  -6.069
    1XTA    CL2 9280  -5.624  31.162  -6.195
    1XTA    CL3 9281  -5.481  31.110  -6.228
    1XTA    CL4 9282  -5.500  30.993  -6.327
    1XTA    CO3 9283  -5.377  30.960  -6.407
    1XTA    OA3 9284  -5.311  31.067  -6.467
    1XTA    CO4 9285  -5.395  31.133  -6.565
    1XTA    CT1 9286  -5.343  31.273  -6.608
    1XTA    CL5 9287  -5.321  31.359  -6.479
    1XTA    CL6 9288  -5.442  31.427  -6.421
    1XTA    OA4 9289  -6.245  32.257  -5.977
    1XTA    CO5 9290  -6.324  32.260  -6.093
    1XTA    HL1 9291  -6.283  32.343  -6.154
    1XTA    HL2 9292  -5.143  32.177  -6.155
    1XTA    HL3 9293  -5.230  32.310  -6.247
    1XTA    HL4 9294  -5.103  32.365  -6.140
    1XTA    HL5 9295  -5.672  31.412  -6.179
    1XTA    HL6 9296  -5.527  31.430  -6.092
    1XTA    HL7 9297  -5.737  31.213  -6.038
    1XTA    HL8 9298  -5.571  31.198  -5.999
    1XTA    HL9 9299  -5.653  31.230  -6.271
    1XTA   HL10 9300  -5.700  31.083  -6.197
    1XTA   HL11 9301  -5.422  31.191  -6.272
    1XTA   HL12 9302  -5.427  31.076  -6.136
    1XTA   HL13 9303  -5.583  31.001  -6.392
    1XTA   HL14 9304  -5.512  30.902  -6.272
    1XTA   HL15 9305  -5.316  30.902  -6.340
    1XTA   HL16 9306  -5.406  30.892  -6.486
    1XTA   HL17 9307  -5.408  31.070  -6.658
    1XTA   HL18 9308  -5.491  31.144  -6.527
    1XTA   HL19 9309  -5.255  31.438  -6.514
    1XTA   HL20 9310  -5.281  31.299  -6.395
    1XTA   HL21 9311  -5.476  31.516  -6.485
    1XTA   HL22 9312  -5.413  31.456  -6.319
    1XTA   HL23 9313  -5.523  31.360  -6.416
    1XTA   HL24 9314  -6.427  32.287  -6.062
    1XTA   HL25 9315  -6.336  32.167  -6.145
    1XTA    CO8 9316  -5.443  31.338  -6.709
    1XTA    CO9 9317  -5.209  31.254  -6.678
    1XTA    OA6 9318  -5.428  31.283  -6.841
    1XTA   HL42 9319  -5.416  31.448  -6.707
    1XTA   HL43 9320  -5.547  31.335  -6.671
    1XTA   HL48 9321  -5.138  31.198  -6.603
    1XTA   HL49 9322  -5.236  31.185  -6.763
    1XTA     NT 9323  -4.225  27.666  -6.894
    1XTA    CN1 9324  -4.174  27.563  -6.819
    1XTA     C1 9325  -4.236  27.438  -6.831
    1XTA     C2 9326  -4.197  27.327  -6.750
    1XTA     C3 9327  -4.081  27.342  -6.670
    1XTA     C4 9328  -4.011  27.466  -6.669
    1XTA     C5 9329  -4.058  27.573  -6.741
    1XTA    CN2 9330  -4.261  27.779  -6.824
    1XTA     C6 9331  -4.211  27.907  -6.860
    1XTA     C7 9332  -4.269  28.026  -6.804
    1XTA     C8 9333  -4.385  28.009  -6.718
    1XTA     C9 9334  -4.433  27.881  -6.690
    1XTA    C10 9335  -4.382  27.769  -6.751
    1XTA    CN3 9336  -4.239  27.670  -7.032
    1XTA    C11 9337  -4.125  27.649  -7.114
    1XTA    C12 9338  -4.139  27.673  -7.250
    1XTA    C13 9339  -4.253  27.726  -7.312
    1XTA    C14 9340  -4.371  27.748  -7.228
    1XTA    C15 9341  -4.358  27.713  -7.092
    1XTA     H1 9342  -4.328  27.445  -6.893
    1XTA     H2 9343  -4.261  27.246  -6.732
    1XTA     H3 9344  -3.927  27.471  -6.609
    1XTA     H4 9345  -4.020  27.673  -6.741
    1XTA     H5 9346  -4.124  27.910  -6.923
    1XTA     H6 9347  -4.226  28.122  -6.830
    1XTA     H7 9348  -4.509  27.861  -6.618
    1XTA     H8 9349  -4.424  27.670  -6.731
    1XTA     H9 9350  -4.033  27.623  -7.072
    1XTA    H10 9351  -4.053  27.654  -7.312
    1XTA    H11 9352  -4.467  27.777  -7.278
    1XTA    H12 9353  -4.444  27.723  -7.025
    1XTA    OA1 9354  -4.038  27.259  -6.578
    1XTA    CO1 9355  -4.112  27.142  -6.557
    1XTA    OA2 9356  -4.434  28.124  -6.660
    1XTA    CO2 9357  -4.572  28.108  -6.617
    1XTA    CL1 9358  -4.620  28.251  -6.598
    1XTA    CL2 9359  -4.729  28.260  -6.488
    1XTA    CL3 9360  -4.822  28.381  -6.499
    1XTA    CL4 9361  -4.905  28.394  -6.625
    1XTA    CO3 9362  -5.024  28.298  -6.622
    1XTA    OA3 9363  -5.109  28.341  -6.522
    1XTA    CO4 9364  -5.196  28.247  -6.481
    1XTA    CT1 9365  -5.182  28.227  -6.332
    1XTA    CL5 9366  -5.164  28.361  -6.248
    1XTA    CL6 9367  -5.280  28.466  -6.257
    1XTA    OA4 9368  -4.253  27.741  -7.447
    1XTA    CO5 9369  -4.363  27.814  -7.501
    1XTA    HL1 9370  -4.324  27.846  -7.597
    1XTA    HL2 9371  -4.208  27.180  -6.518
    1XTA    HL3 9372  -4.114  27.076  -6.641
    1XTA    HL4 9373  -4.071  27.076  -6.474
    1XTA    HL5 9374  -4.638  28.059  -6.692
    1XTA    HL6 9375  -4.570  28.048  -6.526
    1XTA    HL7 9376  -4.649  28.296  -6.691
    1XTA    HL8 9377  -4.535  28.302  -6.572
    1XTA    HL9 9378  -4.680  28.266  -6.389
    1XTA   HL10 9379  -4.796  28.177  -6.498
    1XTA   HL11 9380  -4.884  28.385  -6.413
    1XTA   HL12 9381  -4.755  28.466  -6.499
    1XTA   HL13 9382  -4.850  28.382  -6.715
    1XTA   HL14 9383  -4.943  28.498  -6.624
    1XTA   HL15 9384  -5.080  28.294  -6.718
    1XTA   HL16 9385  -4.986  28.193  -6.601
    1XTA   HL17 9386  -5.290  28.291  -6.510
    1XTA   HL18 9387  -5.180  28.153  -6.536
    1XTA   HL19 9388  -5.067  28.397  -6.284
    1XTA   HL20 9389  -5.140  28.335  -6.144
    1XTA   HL21 9390  -5.235  28.566  -6.240
    1XTA   HL22 9391  -5.362  28.447  -6.190
    1XTA   HL23 9392  -5.320  28.472  -6.356
    1XTA   HL24 9393  -4.394  27.910  -7.446
    1XTA   HL25 9394  -4.442  27.749  -7.521
    1XTA    CO8 9395  -5.067  28.134  -6.296
    1XTA    CO9 9396  -5.310  28.164  -6.287
    1XTA    OA6 9397  -5.309  28.121  -6.150
    1XTA   HL42 9398  -5.001  28.152  -6.379
    1XTA   HL43 9399  -5.101  28.038  -6.331
    1XTA   HL48 9400  -5.337  28.070  -6.343
    1XTA   HL49 9401  -5.392  28.239  -6.298
    1XTA     NT 9402  -7.347  28.248  -4.395
    1XTA    CN1 9403  -7.468  28.281  -4.345
    1XTA     C1 9404  -7.561  28.365  -4.417
    1XTA     C2 9405  -7.680  28.404  -4.354
    1XTA     C3 9406  -7.715  28.352  -4.228
    1XTA     C4 9407  -7.622  28.272  -4.156
    1XTA     C5 9408  -7.498  28.236  -4.214
    1XTA    CN2 9409  -7.342  28.208  -4.522
    1XTA     C6 9410  -7.310  28.300  -4.620
    1XTA     C7 9411  -7.301  28.255  -4.756
    1XTA     C8 9412  -7.327  28.120  -4.787
    1XTA     C9 9413  -7.374  28.033  -4.685
    1XTA    C10 9414  -7.375  28.080  -4.554
    1XTA    CN3 9415  -7.236  28.306  -4.348
    1XTA    C11 9416  -7.223  28.447  -4.338
    1XTA    C12 9417  -7.103  28.511  -4.299
    1XTA    C13 9418  -6.993  28.424  -4.264
    1XTA    C14 9419  -7.013  28.288  -4.244
    1XTA    C15 9420  -7.133  28.227  -4.290
    1XTA     H1 9421  -7.532  28.405  -4.519
    1XTA     H2 9422  -7.758  28.459  -4.404
    1XTA     H3 9423  -7.644  28.234  -4.057
    1XTA     H4 9424  -7.430  28.166  -4.164
    1XTA     H5 9425  -7.287  28.404  -4.596
    1XTA     H6 9426  -7.265  28.320  -4.829
    1XTA     H7 9427  -7.409  27.935  -4.716
    1XTA     H8 9428  -7.398  28.012  -4.474
    1XTA     H9 9429  -7.297  28.512  -4.384
    1XTA    H10 9430  -7.100  28.617  -4.298
    1XTA    H11 9431  -6.936  28.220  -4.205
    1XTA    H12 9432  -7.136  28.119  -4.302
    1XTA    OA1 9433  -7.834  28.391  -4.166
    1XTA    CO1 9434  -7.944  28.435  -4.248
    1XTA    OA2 9435  -7.321  28.065  -4.910
    1XTA    CO2 9436  -7.239  28.125  -5.008
    1XTA    CL1 9437  -7.244  28.030  -5.126
    1XTA    CL2 9438  -7.174  27.891  -5.101
    1XTA    CL3 9439  -7.260  27.792  -5.022
    1XTA    CL4 9440  -7.171  27.679  -4.986
    1XTA    CO3 9441  -7.091  27.685  -4.859
    1XTA    OA3 9442  -7.173  27.700  -4.741
    1XTA    CO4 9443  -7.206  27.572  -4.688
    1XTA    CT1 9444  -7.281  27.589  -4.553
    1XTA    CL5 9445  -7.278  27.464  -4.468
    1XTA    CL6 9446  -7.309  27.325  -4.544
    1XTA    OA4 9447  -6.873  28.485  -4.243
    1XTA    CO5 9448  -6.762  28.409  -4.207
    1XTA    HL1 9449  -6.779  28.367  -4.106
    1XTA    HL2 9450  -8.039  28.439  -4.191
    1XTA    HL3 9451  -7.915  28.533  -4.294
    1XTA    HL4 9452  -7.952  28.364  -4.333
    1XTA    HL5 9453  -7.293  28.220  -5.044
    1XTA    HL6 9454  -7.139  28.134  -4.972
    1XTA    HL7 9455  -7.200  28.083  -5.210
    1XTA    HL8 9456  -7.347  28.006  -5.152
    1XTA    HL9 9457  -7.079  27.910  -5.060
    1XTA   HL10 9458  -7.156  27.836  -5.195
    1XTA   HL11 9459  -7.292  27.832  -4.929
    1XTA   HL12 9460  -7.353  27.756  -5.079
    1XTA   HL13 9461  -7.101  27.657  -5.072
    1XTA   HL14 9462  -7.228  27.584  -4.980
    1XTA   HL15 9463  -7.026  27.595  -4.845
    1XTA   HL16 9464  -7.032  27.776  -4.864
    1XTA   HL17 9465  -7.257  27.501  -4.748
    1XTA   HL18 9466  -7.120  27.504  -4.664
    1XTA   HL19 9467  -7.341  27.469  -4.379
    1XTA   HL20 9468  -7.184  27.452  -4.423
    1XTA   HL21 9469  -7.304  27.257  -4.456
    1XTA   HL22 9470  -7.233  27.287  -4.617
    1XTA   HL23 9471  -7.408  27.336  -4.585
    1XTA   HL24 9472  -6.677  28.473  -4.188
    1XTA   HL25 9473  -6.727  28.336  -4.284
    1XTA    CO8 9474  -7.425  27.635  -4.585
    1XTA    CO9 9475  -7.204  27.693  -4.462
    1XTA    OA6 9476  -7.272  27.720  -4.334
    1XTA   HL42 9477  -7.426  27.738  -4.623
    1XTA   HL43 9478  -7.473  27.652  -4.489
    1XTA   HL48 9479  -7.189  27.783  -4.512
    1XTA   HL49 9480  -7.105  27.662  -4.442
    1XTA     NT 9481  -2.016  27.807  -5.425
    1XTA    CN1 9482  -1.903  27.738  -5.388
    1XTA     C1 9483  -1.879  27.675  -5.264
    1XTA     C2 9484  -1.757  27.611  -5.231
    1XTA     C3 9485  -1.647  27.612  -5.324
    1XTA     C4 9486  -1.674  27.664  -5.453
    1XTA     C5 9487  -1.799  27.727  -5.477
    1XTA    CN2 9488  -1.998  27.936  -5.468
    1XTA     C6 9489  -1.986  28.042  -5.379
    1XTA     C7 9490  -1.982  28.178  -5.423
    1XTA     C8 9491  -1.989  28.208  -5.565
    1XTA     C9 9492  -1.992  28.102  -5.651
    1XTA    C10 9493  -2.003  27.970  -5.606
    1XTA    CN3 9494  -2.135  27.754  -5.388
    1XTA    C11 9495  -2.190  27.659  -5.469
    1XTA    C12 9496  -2.323  27.620  -5.438
    1XTA    C13 9497  -2.387  27.642  -5.316
    1XTA    C14 9498  -2.318  27.732  -5.225
    1XTA    C15 9499  -2.198  27.798  -5.267
    1XTA     H1 9500  -1.963  27.677  -5.183
    1XTA     H2 9501  -1.736  27.565  -5.137
    1XTA     H3 9502  -1.597  27.649  -5.524
    1XTA     H4 9503  -1.811  27.787  -5.569
    1XTA     H5 9504  -1.977  28.017  -5.276
    1XTA     H6 9505  -1.976  28.252  -5.338
    1XTA     H7 9506  -2.003  28.130  -5.762
    1XTA     H8 9507  -2.015  27.891  -5.677
    1XTA     H9 9508  -2.150  27.624  -5.568
    1XTA    H10 9509  -2.372  27.543  -5.500
    1XTA    H11 9510  -2.360  27.762  -5.138
    1XTA    H12 9511  -2.145  27.875  -5.209
    1XTA    OA1 9512  -1.530  27.537  -5.313
    1XTA    CO1 9513  -1.470  27.557  -5.192
    1XTA    OA2 9514  -1.996  28.338  -5.617
    1XTA    CO2 9515  -1.995  28.451  -5.525
    1XTA    CL1 9516  -2.122  28.461  -5.433
    1XTA    CL2 9517  -2.104  28.549  -5.313
    1XTA    CL3 9518  -2.204  28.514  -5.195
    1XTA    CL4 9519  -2.156  28.571  -5.060
    1XTA    CO3 9520  -2.168  28.718  -5.039
    1XTA    OA3 9521  -2.167  28.742  -4.902
    1XTA    CO4 9522  -2.214  28.869  -4.866
    1XTA    CT1 9523  -2.263  28.871  -4.722
    1XTA    CL5 9524  -2.398  28.799  -4.699
    1XTA    CL6 9525  -2.508  28.799  -4.804
    1XTA    OA4 9526  -2.506  27.580  -5.284
    1XTA    CO5 9527  -2.571  27.635  -5.173
    1XTA    HL1 9528  -2.657  27.576  -5.157
    1XTA    HL2 9529  -1.446  27.663  -5.171
    1XTA    HL3 9530  -1.517  27.508  -5.107
    1XTA    HL4 9531  -1.373  27.509  -5.187
    1XTA    HL5 9532  -1.900  28.440  -5.468
    1XTA    HL6 9533  -1.985  28.540  -5.589
    1XTA    HL7 9534  -2.141  28.367  -5.388
    1XTA    HL8 9535  -2.206  28.488  -5.499
    1XTA    HL9 9536  -2.128  28.651  -5.353
    1XTA   HL10 9537  -1.999  28.559  -5.283
    1XTA   HL11 9538  -2.299  28.564  -5.220
    1XTA   HL12 9539  -2.214  28.407  -5.186
    1XTA   HL13 9540  -2.052  28.533  -5.045
    1XTA   HL14 9541  -2.219  28.517  -4.985
    1XTA   HL15 9542  -2.091  28.767  -5.094
    1XTA   HL16 9543  -2.265  28.738  -5.083
    1XTA   HL17 9544  -2.125  28.942  -4.870
    1XTA   HL18 9545  -2.284  28.910  -4.941
    1XTA   HL19 9546  -2.432  28.848  -4.609
    1XTA   HL20 9547  -2.380  28.700  -4.670
    1XTA   HL21 9548  -2.581  28.726  -4.791
    1XTA   HL22 9549  -2.463  28.784  -4.901
    1XTA   HL23 9550  -2.566  28.887  -4.802
    1XTA   HL24 9551  -2.594  27.745  -5.188
    1XTA   HL25 9552  -2.510  27.628  -5.082
    1XTA    CO8 9553  -2.280  29.013  -4.666
    1XTA    CO9 9554  -2.153  28.806  -4.630
    1XTA    OA6 9555  -2.169  29.097  -4.687
    1XTA   HL42 9556  -2.296  29.005  -4.556
    1XTA   HL43 9557  -2.365  29.063  -4.711
    1XTA   HL48 9558  -2.207  28.769  -4.539
    1XTA   HL49 9559  -2.110  28.720  -4.680
    1XTA     NT 9560  -4.057  26.158  -7.329
    1XTA    CN1 9561  -4.077  26.294  -7.343
    1XTA     C1 9562  -4.007  26.378  -7.439
    1XTA     C2 9563  -4.014  26.517  -7.441
    1XTA     C3 9564  -4.089  26.587  -7.344
    1XTA     C4 9565  -4.150  26.509  -7.246
    1XTA     C5 9566  -4.158  26.368  -7.258
    1XTA    CN2 9567  -3.944  26.111  -7.271
    1XTA     C6 9568  -3.915  26.138  -7.137
    1XTA     C7 9569  -3.788  26.095  -7.087
    1XTA     C8 9570  -3.688  26.038  -7.162
    1XTA     C9 9571  -3.723  26.006  -7.299
    1XTA    C10 9572  -3.846  26.047  -7.353
    1XTA    CN3 9573  -4.143  26.076  -7.389
    1XTA    C11 9574  -4.160  26.067  -7.532
    1XTA    C12 9575  -4.251  25.971  -7.582
    1XTA    C13 9576  -4.321  25.885  -7.501
    1XTA    C14 9577  -4.320  25.908  -7.364
    1XTA    C15 9578  -4.230  26.000  -7.309
    1XTA     H1 9579  -3.956  26.325  -7.517
    1XTA     H2 9580  -3.972  26.570  -7.522
    1XTA     H3 9581  -4.197  26.566  -7.168
    1XTA     H4 9582  -4.208  26.322  -7.184
    1XTA     H5 9583  -3.987  26.177  -7.068
    1XTA     H6 9584  -3.763  26.107  -6.984
    1XTA     H7 9585  -3.650  25.953  -7.361
    1XTA     H8 9586  -3.857  26.024  -7.455
    1XTA     H9 9587  -4.097  26.118  -7.605
    1XTA    H10 9588  -4.247  25.958  -7.691
    1XTA    H11 9589  -4.393  25.850  -7.300
    1XTA    H12 9590  -4.231  26.012  -7.205
    1XTA    OA1 9591  -4.094  26.725  -7.344
    1XTA    CO1 9592  -4.220  26.773  -7.323
    1XTA    OA2 9593  -3.560  26.006  -7.112
    1XTA    CO2 9594  -3.469  25.953  -7.211
    1XTA    CL1 9595  -3.345  25.909  -7.147
    1XTA    CL2 9596  -3.237  25.877  -7.252
    1XTA    CL3 9597  -3.098  25.844  -7.187
    1XTA    CL4 9598  -2.983  25.846  -7.292
    1XTA    CO3 9599  -2.864  25.771  -7.250
    1XTA    OA3 9600  -2.909  25.641  -7.231
    1XTA    CO4 9601  -2.817  25.549  -7.181
    1XTA    CT1 9602  -2.865  25.486  -7.050
    1XTA    CL5 9603  -2.844  25.585  -6.935
    1XTA    CL6 9604  -2.801  25.526  -6.798
    1XTA    OA4 9605  -4.393  25.776  -7.546
    1XTA    CO5 9606  -4.371  25.731  -7.677
    1XTA    HL1 9607  -4.416  25.811  -7.738
    1XTA    HL2 9608  -4.284  26.760  -7.415
    1XTA    HL3 9609  -4.278  26.733  -7.240
    1XTA    HL4 9610  -4.213  26.884  -7.323
    1XTA    HL5 9611  -3.505  25.862  -7.253
    1XTA    HL6 9612  -3.457  26.028  -7.292
    1XTA    HL7 9613  -3.355  25.817  -7.099
    1XTA    HL8 9614  -3.318  25.978  -7.070
    1XTA    HL9 9615  -3.217  25.952  -7.326
    1XTA   HL10 9616  -3.273  25.804  -7.315
    1XTA   HL11 9617  -3.067  25.908  -7.110
    1XTA   HL12 9618  -3.110  25.744  -7.138
    1XTA   HL13 9619  -2.948  25.945  -7.308
    1XTA   HL14 9620  -3.021  25.800  -7.381
    1XTA   HL15 9621  -2.788  25.765  -7.327
    1XTA   HL16 9622  -2.824  25.807  -7.148
    1XTA   HL17 9623  -2.802  25.490  -7.274
    1XTA   HL18 9624  -2.720  25.598  -7.176
    1XTA   HL19 9625  -2.938  25.642  -6.908
    1XTA   HL20 9626  -2.770  25.660  -6.976
    1XTA   HL21 9627  -2.802  25.597  -6.715
    1XTA   HL22 9628  -2.701  25.482  -6.809
    1XTA   HL23 9629  -2.870  25.443  -6.777
    1XTA   HL24 9630  -4.432  25.640  -7.683
    1XTA   HL25 9631  -4.267  25.698  -7.696
    1XTA    CO8 9632  -2.798  25.350  -7.026
    1XTA    CO9 9633  -3.008  25.450  -7.064
    1XTA    OA6 9634  -3.071  25.402  -6.941
    1XTA   HL42 9635  -2.696  25.362  -6.987
    1XTA   HL43 9636  -2.848  25.293  -6.946
    1XTA   HL48 9637  -3.016  25.385  -7.139
    1XTA   HL49 9638  -3.058  25.546  -7.095
    1XTA     NT 9639  -2.166  28.308  -8.744
    1XTA    CN1 9640  -2.218  28.400  -8.828
    1XTA     C1 9641  -2.354  28.394  -8.864
    1XTA     C2 9642  -2.406  28.483  -8.957
    1XTA     C3 9643  -2.327  28.577  -9.021
    1XTA     C4 9644  -2.188  28.583  -8.988
    1XTA     C5 9645  -2.136  28.507  -8.878
    1XTA    CN2 9646  -2.203  28.310  -8.615
    1XTA     C6 9647  -2.284  28.203  -8.567
    1XTA     C7 9648  -2.351  28.209  -8.441
    1XTA     C8 9649  -2.340  28.326  -8.366
    1XTA     C9 9650  -2.251  28.424  -8.409
    1XTA    C10 9651  -2.187  28.423  -8.537
    1XTA    CN3 9652  -2.074  28.219  -8.796
    1XTA    C11 9653  -2.124  28.119  -8.887
    1XTA    C12 9654  -2.034  28.029  -8.948
    1XTA    C13 9655  -1.895  28.038  -8.922
    1XTA    C14 9656  -1.855  28.137  -8.831
    1XTA    C15 9657  -1.940  28.216  -8.762
    1XTA     H1 9658  -2.423  28.315  -8.830
    1XTA     H2 9659  -2.513  28.489  -8.956
    1XTA     H3 9660  -2.146  28.665  -9.031
    1XTA     H4 9661  -2.036  28.518  -8.847
    1XTA     H5 9662  -2.311  28.123  -8.632
    1XTA     H6 9663  -2.401  28.126  -8.406
    1XTA     H7 9664  -2.245  28.518  -8.358
    1XTA     H8 9665  -2.143  28.514  -8.580
    1XTA     H9 9666  -2.228  28.120  -8.930
    1XTA    H10 9667  -2.073  27.957  -9.013
    1XTA    H11 9668  -1.743  28.156  -8.814
    1XTA    H12 9669  -1.894  28.286  -8.692
    1XTA    OA1 9670  -2.386  28.671  -9.101
    1XTA    CO1 9671  -2.506  28.639  -9.172
    1XTA    OA2 9672  -2.417  28.338  -8.251
    1XTA    CO2 9673  -2.415  28.464  -8.179
    1XTA    CL1 9674  -2.484  28.456  -8.040
    1XTA    CL2 9675  -2.635  28.416  -8.038
    1XTA    CL3 9676  -2.715  28.515  -8.128
    1XTA    CL4 9677  -2.850  28.549  -8.071
    1XTA    CO3 9678  -2.949  28.607  -8.174
    1XTA    OA3 9679  -3.062  28.658  -8.101
    1XTA    CO4 9680  -3.161  28.559  -8.091
    1XTA    CT1 9681  -3.295  28.627  -8.052
    1XTA    CL5 9682  -3.416  28.525  -8.070
    1XTA    CL6 9683  -3.405  28.398  -7.981
    1XTA    OA4 9684  -1.809  27.952  -8.983
    1XTA    CO5 9685  -1.668  27.980  -8.978
    1XTA    HL1 9686  -1.619  27.916  -9.053
    1XTA    HL2 9687  -2.594  28.599  -9.120
    1XTA    HL3 9688  -2.556  28.722  -9.228
    1XTA    HL4 9689  -2.476  28.574  -9.252
    1XTA    HL5 9690  -2.305  28.485  -8.162
    1XTA    HL6 9691  -2.448  28.545  -8.240
    1XTA    HL7 9692  -2.462  28.548  -7.984
    1XTA    HL8 9693  -2.432  28.370  -7.982
    1XTA    HL9 9694  -2.661  28.436  -7.934
    1XTA   HL10 9695  -2.660  28.304  -8.038
    1XTA   HL11 9696  -2.646  28.595  -8.138
    1XTA   HL12 9697  -2.729  28.469  -8.230
    1XTA   HL13 9698  -2.845  28.616  -7.989
    1XTA   HL14 9699  -2.893  28.458  -8.030
    1XTA   HL15 9700  -2.902  28.680  -8.230
    1XTA   HL16 9701  -2.983  28.536  -8.249
    1XTA   HL17 9702  -3.179  28.515  -8.192
    1XTA   HL18 9703  -3.125  28.480  -8.029
    1XTA   HL19 9704  -3.437  28.490  -8.173
    1XTA   HL20 9705  -3.500  28.583  -8.040
    1XTA   HL21 9706  -3.310  28.358  -7.963
    1XTA   HL22 9707  -3.472  28.318  -8.014
    1XTA   HL23 9708  -3.428  28.422  -7.884
    1XTA   HL24 9709  -1.617  27.963  -8.889
    1XTA   HL25 9710  -1.644  28.083  -9.002
    1XTA    CO8 9711  -3.326  28.749  -8.150
    1XTA    CO9 9712  -3.290  28.685  -7.907
    1XTA    OA6 9713  -3.275  28.610  -7.830
    1XTA   HL42 9714  -3.257  28.829  -8.117
    1XTA   HL43 9715  -3.277  28.721  -8.280
    1XTA   HL48 9716  -3.383  28.736  -7.887
    1XTA   HL49 9717  -3.209  28.764  -7.911
    1XTA     NT 9718  -5.302  25.949  -9.295
    1XTA    CN1 9719  -5.270  26.075  -9.341
    1XTA     C1 9720  -5.330  26.180  -9.270
    1XTA     C2 9721  -5.317  26.313  -9.316
    1XTA     C3 9722  -5.231  26.343  -9.425
    1XTA     C4 9723  -5.182  26.235  -9.505
    1XTA     C5 9724  -5.197  26.099  -9.462
    1XTA    CN2 9725  -5.420  25.899  -9.309
    1XTA     C6 9726  -5.482  25.888  -9.441
    1XTA     C7 9727  -5.615  25.840  -9.454
    1XTA     C8 9728  -5.689  25.810  -9.343
    1XTA     C9 9729  -5.623  25.810  -9.222
    1XTA    C10 9730  -5.494  25.857  -9.202
    1XTA    CN3 9731  -5.206  25.870  -9.245
    1XTA    C11 9732  -5.159  25.771  -9.332
    1XTA    C12 9733  -5.065  25.681  -9.284
    1XTA    C13 9734  -5.020  25.694  -9.152
    1XTA    C14 9735  -5.067  25.794  -9.064
    1XTA    C15 9736  -5.169  25.877  -9.112
    1XTA     H1 9737  -5.392  26.169  -9.184
    1XTA     H2 9738  -5.362  26.394  -9.258
    1XTA     H3 9739  -5.130  26.249  -9.598
    1XTA     H4 9740  -5.157  26.021  -9.510
    1XTA     H5 9741  -5.425  25.909  -9.531
    1XTA     H6 9742  -5.661  25.823  -9.556
    1XTA     H7 9743  -5.678  25.776  -9.137
    1XTA     H8 9744  -5.456  25.852  -9.105
    1XTA     H9 9745  -5.194  25.757  -9.431
    1XTA    H10 9746  -5.033  25.601  -9.352
    1XTA    H11 9747  -5.022  25.811  -8.965
    1XTA    H12 9748  -5.213  25.957  -9.056
    1XTA    OA1 9749  -5.203  26.471  -9.471
    1XTA    CO1 9750  -5.247  26.572  -9.386
    1XTA    OA2 9751  -5.825  25.768  -9.361
    1XTA    CO2 9752  -5.908  25.786  -9.242
    1XTA    CL1 9753  -6.056  25.766  -9.269
    1XTA    CL2 9754  -6.109  25.621  -9.270
    1XTA    CL3 9755  -6.083  25.539  -9.139
    1XTA    CL4 9756  -6.196  25.560  -9.040
    1XTA    CO3 9757  -6.198  25.456  -8.935
    1XTA    OA3 9758  -6.285  25.492  -8.833
    1XTA    CO4 9759  -6.233  25.581  -8.735
    1XTA    CT1 9760  -6.333  25.631  -8.629
    1XTA    CL5 9761  -6.459  25.542  -8.626
    1XTA    CL6 9762  -6.431  25.398  -8.578
    1XTA    OA4 9763  -4.923  25.611  -9.113
    1XTA    CO5 9764  -4.890  25.614  -8.970
    1XTA    HL1 9765  -4.846  25.522  -8.967
    1XTA    HL2 9766  -5.206  26.561  -9.287
    1XTA    HL3 9767  -5.220  26.668  -9.429
    1XTA    HL4 9768  -5.354  26.562  -9.385
    1XTA    HL5 9769  -5.890  25.738  -9.147
    1XTA    HL6 9770  -5.895  25.887  -9.214
    1XTA    HL7 9771  -6.080  25.816  -9.365
    1XTA    HL8 9772  -6.106  25.823  -9.194
    1XTA    HL9 9773  -6.055  25.565  -9.352
    1XTA   HL10 9774  -6.222  25.622  -9.278
    1XTA   HL11 9775  -6.071  25.429  -9.159
    1XTA   HL12 9776  -5.983  25.565  -9.102
    1XTA   HL13 9777  -6.290  25.561  -9.091
    1XTA   HL14 9778  -6.184  25.655  -8.990
    1XTA   HL15 9779  -6.221  25.355  -8.972
    1XTA   HL16 9780  -6.099  25.444  -8.894
    1XTA   HL17 9781  -6.151  25.532  -8.689
    1XTA   HL18 9782  -6.202  25.676  -8.791
    1XTA   HL19 9783  -6.526  25.550  -8.711
    1XTA   HL20 9784  -6.524  25.595  -8.554
    1XTA   HL21 9785  -6.443  25.390  -8.467
    1XTA   HL22 9786  -6.333  25.369  -8.610
    1XTA   HL23 9787  -6.504  25.334  -8.630
    1XTA   HL24 9788  -4.965  25.607  -8.897
    1XTA   HL25 9789  -4.815  25.683  -8.939
    1XTA    CO8 9790  -6.375  25.771  -8.676
    1XTA    CO9 9791  -6.274  25.641  -8.493
    1XTA    OA6 9792  -6.156  25.722  -8.482
    1XTA   HL42 9793  -6.294  25.842  -8.678
    1XTA   HL43 9794  -6.416  25.764  -8.781
    1XTA   HL48 9795  -6.245  25.541  -8.456
    1XTA   HL49 9796  -6.353  25.684  -8.433
    1XTA     NT 9797  -2.568  31.974  -9.114
    1XTA    CN1 9798  -2.470  31.995  -9.019
    1XTA     C1 9799  -2.340  32.029  -9.054
    1XTA     C2 9800  -2.239  32.044  -8.955
    1XTA     C3 9801  -2.267  32.026  -8.818
    1XTA     C4 9802  -2.403  32.001  -8.784
    1XTA     C5 9803  -2.498  31.987  -8.881
    1XTA    CN2 9804  -2.563  31.852  -9.170
    1XTA     C6 9805  -2.462  31.814  -9.262
    1XTA     C7 9806  -2.462  31.686  -9.322
    1XTA     C8 9807  -2.557  31.589  -9.278
    1XTA     C9 9808  -2.652  31.625  -9.178
    1XTA    C10 9809  -2.652  31.758  -9.124
    1XTA    CN3 9810  -2.613  32.077  -9.187
    1XTA    C11 9811  -2.538  32.124  -9.293
    1XTA    C12 9812  -2.591  32.225  -9.372
    1XTA    C13 9813  -2.713  32.290  -9.340
    1XTA    C14 9814  -2.788  32.248  -9.233
    1XTA    C15 9815  -2.733  32.142  -9.154
    1XTA     H1 9816  -2.306  32.049  -9.158
    1XTA     H2 9817  -2.140  32.080  -8.989
    1XTA     H3 9818  -2.435  32.008  -8.677
    1XTA     H4 9819  -2.601  31.972  -8.857
    1XTA     H5 9820  -2.391  31.896  -9.275
    1XTA     H6 9821  -2.382  31.657  -9.388
    1XTA     H7 9822  -2.712  31.551  -9.137
    1XTA     H8 9823  -2.709  31.791  -9.044
    1XTA     H9 9824  -2.447  32.076  -9.321
    1XTA    H10 9825  -2.536  32.246  -9.462
    1XTA    H11 9826  -2.886  32.289  -9.223
    1XTA    H12 9827  -2.802  32.102  -9.077
    1XTA    OA1 9828  -2.172  32.033  -8.713
    1XTA    CO1 9829  -2.056  32.111  -8.739
    1XTA    OA2 9830  -2.560  31.461  -9.335
    1XTA    CO2 9831  -2.496  31.442  -9.468
    1XTA    CL1 9832  -2.359  31.387  -9.441
    1XTA    CL2 9833  -2.261  31.441  -9.542
    1XTA    CL3 9834  -2.126  31.374  -9.521
    1XTA    CL4 9835  -2.049  31.423  -9.398
    1XTA    CO3 9836  -1.896  31.395  -9.410
    1XTA    OA3 9837  -1.872  31.247  -9.407
    1XTA    CO4 9838  -1.909  31.177  -9.283
    1XTA    CT1 9839  -1.869  31.033  -9.303
    1XTA    CL5 9840  -1.892  30.956  -9.167
    1XTA    CL6 9841  -2.026  30.943  -9.108
    1XTA    OA4 9842  -2.758  32.398  -9.417
    1XTA    CO5 9843  -2.683  32.419  -9.535
    1XTA    HL1 9844  -2.582  32.446  -9.520
    1XTA    HL2 9845  -2.005  32.077  -8.829
    1XTA    HL3 9846  -2.078  32.217  -8.755
    1XTA    HL4 9847  -1.989  32.094  -8.655
    1XTA    HL5 9848  -2.545  31.365  -9.521
    1XTA    HL6 9849  -2.509  31.534  -9.526
    1XTA    HL7 9850  -2.361  31.277  -9.451
    1XTA    HL8 9851  -2.327  31.417  -9.340
    1XTA    HL9 9852  -2.244  31.553  -9.538
    1XTA   HL10 9853  -2.309  31.419  -9.644
    1XTA   HL11 9854  -2.140  31.267  -9.511
    1XTA   HL12 9855  -2.064  31.385  -9.610
    1XTA   HL13 9856  -2.093  31.376  -9.318
    1XTA   HL14 9857  -2.072  31.530  -9.381
    1XTA   HL15 9858  -1.874  31.428  -9.509
    1XTA   HL16 9859  -1.843  31.451  -9.331
    1XTA   HL17 9860  -1.852  31.227  -9.206
    1XTA   HL18 9861  -2.014  31.195  -9.265
    1XTA   HL19 9862  -1.827  31.007  -9.088
    1XTA   HL20 9863  -1.845  30.857  -9.164
    1XTA   HL21 9864  -2.089  30.885  -9.184
    1XTA   HL22 9865  -2.082  31.037  -9.083
    1XTA   HL23 9866  -2.029  30.880  -9.022
    1XTA   HL24 9867  -2.730  32.508  -9.584
    1XTA   HL25 9868  -2.697  32.327  -9.599
    1XTA    CO8 9869  -1.719  31.019  -9.344
    1XTA    CO9 9870  -1.952  30.969  -9.424
    1XTA    OA6 9871  -2.080  31.015  -9.432
    1XTA   HL42 9872  -1.693  31.065  -9.443
    1XTA   HL43 9873  -1.687  30.912  -9.350
    1XTA   HL48 9874  -1.960  30.861  -9.418
    1XTA   HL49 9875  -1.906  30.992  -9.521
    1XTA     NT 9876  -8.594  30.416 -10.485
    1XTA    CN1 9877  -8.714  30.410 -10.543
    1XTA     C1 9878  -8.750  30.297 -10.618
    1XTA     C2 9879  -8.881  30.289 -10.662
    1XTA     C3 9880  -8.979  30.384 -10.635
    1XTA     C4 9881  -8.941  30.503 -10.573
    1XTA     C5 9882  -8.806  30.522 -10.524
    1XTA    CN2 9883  -8.492  30.475 -10.546
    1XTA     C6 9884  -8.444  30.593 -10.491
    1XTA     C7 9885  -8.339  30.661 -10.555
    1XTA     C8 9886  -8.272  30.611 -10.668
    1XTA     C9 9887  -8.324  30.483 -10.730
    1XTA    C10 9888  -8.431  30.423 -10.663
    1XTA    CN3 9889  -8.576  30.329 -10.383
    1XTA    C11 9890  -8.684  30.307 -10.296
    1XTA    C12 9891  -8.662  30.230 -10.182
    1XTA    C13 9892  -8.542  30.164 -10.172
    1XTA    C14 9893  -8.434  30.179 -10.264
    1XTA    C15 9894  -8.453  30.267 -10.369
    1XTA     H1 9895  -8.681  30.218 -10.646
    1XTA     H2 9896  -8.914  30.203 -10.725
    1XTA     H3 9897  -9.005  30.579 -10.538
    1XTA     H4 9898  -8.774  30.596 -10.450
    1XTA     H5 9899  -8.494  30.632 -10.403
    1XTA     H6 9900  -8.307  30.741 -10.500
    1XTA     H7 9901  -8.276  30.440 -10.812
    1XTA     H8 9902  -8.467  30.330 -10.700
    1XTA     H9 9903  -8.788  30.341 -10.319
    1XTA    H10 9904  -8.732  30.221 -10.102
    1XTA    H11 9905  -8.333  30.128 -10.253
    1XTA    H12 9906  -8.368  30.293 -10.435
    1XTA    OA1 9907  -9.113  30.364 -10.680
    1XTA    CO1 9908  -9.211  30.466 -10.650
    1XTA    OA2 9909  -8.163  30.682 -10.706
    1XTA    CO2 9910  -8.077  30.632 -10.810
    1XTA    CL1 9911  -7.947  30.719 -10.837
    1XTA    CL2 9912  -7.980  30.841 -10.918
    1XTA    CL3 9913  -8.084  30.929 -10.855
    1XTA    CL4 9914  -8.094  31.076 -10.902
    1XTA    CO3 9915  -8.190  31.162 -10.812
    1XTA    OA3 9916  -8.311  31.089 -10.796
    1XTA    CO4 9917  -8.396  31.167 -10.717
    1XTA    CT1 9918  -8.535  31.095 -10.680
    1XTA    CL5 9919  -8.509  30.955 -10.613
    1XTA    CL6 9920  -8.647  30.880 -10.593
    1XTA    OA4 9921  -8.533  30.089 -10.057
    1XTA    CO5 9922  -8.399  30.084 -10.002
    1XTA    HL1 9923  -8.331  30.165 -10.037
    1XTA    HL2 9924  -9.179  30.555 -10.709
    1XTA    HL3 9925  -9.308  30.444 -10.680
    1XTA    HL4 9926  -9.214  30.494 -10.546
    1XTA    HL5 9927  -8.066  30.524 -10.785
    1XTA    HL6 9928  -8.142  30.631 -10.899
    1XTA    HL7 9929  -7.871  30.661 -10.895
    1XTA    HL8 9930  -7.884  30.739 -10.754
    1XTA    HL9 9931  -8.011  30.814 -11.011
    1XTA   HL10 9932  -7.890  30.900 -10.935
    1XTA   HL11 9933  -8.178  30.880 -10.867
    1XTA   HL12 9934  -8.078  30.926 -10.743
    1XTA   HL13 9935  -8.130  31.079 -10.999
    1XTA   HL14 9936  -7.995  31.114 -10.901
    1XTA   HL15 9937  -8.146  31.185 -10.716
    1XTA   HL16 9938  -8.190  31.262 -10.862
    1XTA   HL17 9939  -8.348  31.195 -10.623
    1XTA   HL18 9940  -8.411  31.265 -10.769
    1XTA   HL19 9941  -8.469  30.958 -10.512
    1XTA   HL20 9942  -8.440  30.893 -10.673
    1XTA   HL21 9943  -8.697  30.922 -10.507
    1XTA   HL22 9944  -8.625  30.781 -10.566
    1XTA   HL23 9945  -8.719  30.876 -10.675
    1XTA   HL24 9946  -8.340  30.002 -10.040
    1XTA   HL25 9947  -8.402  30.067  -9.890
    1XTA    CO8 9948  -8.614  31.074 -10.814
    1XTA    CO9 9949  -8.627  31.181 -10.587
    1XTA    OA6 9950  -8.604  31.150 -10.893
    1XTA   HL42 9951  -8.720  31.055 -10.792
    1XTA   HL43 9952  -8.567  30.974 -10.847
    1XTA   HL48 9953  -8.627  31.311 -10.638
    1XTA   HL49 9954  -8.732  31.155 -10.604
    1XTA     NT 9955  -2.510  29.419  -5.831
    1XTA    CN1 9956  -2.552  29.306  -5.901
    1XTA     C1 9957  -2.642  29.332  -5.997
    1XTA     C2 9958  -2.672  29.232  -6.097
    1XTA     C3 9959  -2.613  29.102  -6.083
    1XTA     C4 9960  -2.526  29.072  -5.973
    1XTA     C5 9961  -2.487  29.182  -5.887
    1XTA    CN2 9962  -2.594  29.492  -5.757
    1XTA     C6 9963  -2.659  29.601  -5.811
    1XTA     C7 9964  -2.752  29.675  -5.740
    1XTA     C8 9965  -2.776  29.646  -5.606
    1XTA     C9 9966  -2.710  29.538  -5.543
    1XTA    C10 9967  -2.616  29.460  -5.622
    1XTA    CN3 9968  -2.376  29.448  -5.837
    1XTA    C11 9969  -2.321  29.537  -5.937
    1XTA    C12 9970  -2.181  29.562  -5.943
    1XTA    C13 9971  -2.096  29.508  -5.843
    1XTA    C14 9972  -2.152  29.419  -5.742
    1XTA    C15 9973  -2.288  29.392  -5.741
    1XTA     H1 9974  -2.685  29.427  -6.010
    1XTA     H2 9975  -2.748  29.240  -6.172
    1XTA     H3 9976  -2.476  28.976  -5.971
    1XTA     H4 9977  -2.417  29.173  -5.814
    1XTA     H5 9978  -2.641  29.639  -5.909
    1XTA     H6 9979  -2.806  29.759  -5.783
    1XTA     H7 9980  -2.715  29.523  -5.436
    1XTA     H8 9981  -2.572  29.375  -5.581
    1XTA     H9 9982  -2.381  29.581  -6.016
    1XTA    H10 9983  -2.133  29.614  -6.022
    1XTA    H11 9984  -2.082  29.376  -5.664
    1XTA    H12 9985  -2.334  29.327  -5.666
    1XTA    OA1 9986  -2.645  28.997  -6.165
    1XTA    CO1 9987  -2.732  29.009  -6.268
    1XTA    OA2 9988  -2.880  29.705  -5.531
    1XTA    CO2 9989  -2.945  29.823  -5.581
    1XTA    CL1 9990  -2.872  29.949  -5.522
    1XTA    CL2 9991  -2.741  29.982  -5.595
    1XTA    CL3 9992  -2.670  30.111  -5.538
    1XTA    CL4 9993  -2.609  30.091  -5.400
    1XTA    CO3 9994  -2.462  30.053  -5.426
    1XTA    OA3 9995  -2.400  29.972  -5.325
    1XTA    CO4 9996  -2.453  29.845  -5.350
    1XTA    CT1 9997  -2.407  29.745  -5.242
    1XTA    CL5 9998  -2.450  29.605  -5.297
    1XTA    CL6 9999  -2.416  29.487  -5.200
    1XTA    OA410000  -1.957  29.523  -5.863
    1XTA    CO510001  -1.874  29.456  -5.775
    1XTA    HL110002  -1.777  29.454  -5.823
    1XTA    HL210003  -2.679  29.058  -6.347
    1XTA    HL310004  -2.751  28.906  -6.300
    1XTA    HL410005  -2.825  29.063  -6.250
    1XTA    HL510006  -2.967  29.824  -5.686
    1XTA    HL610007  -3.043  29.820  -5.537
    1XTA    HL710008  -2.857  29.929  -5.414
    1XTA    HL810009  -2.943  30.028  -5.527
    1XTA    HL910010  -2.770  29.991  -5.700
    1XTA   HL1010011  -2.672  29.896  -5.594
    1XTA   HL1110012  -2.590  30.142  -5.604
    1XTA   HL1210013  -2.740  30.189  -5.523
    1XTA   HL1310014  -2.659  30.016  -5.347
    1XTA   HL1410015  -2.615  30.178  -5.340
    1XTA   HL1510016  -2.445  30.012  -5.519
    1XTA   HL1610017  -2.406  30.146  -5.436
    1XTA   HL1710018  -2.559  29.843  -5.368
    1XTA   HL1810019  -2.418  29.803  -5.439
    1XTA   HL1910020  -2.412  29.585  -5.394
    1XTA   HL2010021  -2.562  29.603  -5.312
    1XTA   HL2110022  -2.307  29.481  -5.181
    1XTA   HL2210023  -2.460  29.396  -5.243
    1XTA   HL2310024  -2.464  29.508  -5.106
    1XTA   HL2410025  -1.897  29.347  -5.762
    1XTA   HL2510026  -1.863  29.509  -5.677
    1XTA    CO810027  -2.474  29.780  -5.109
    1XTA    CO910028  -2.255  29.750  -5.235
    1XTA    OA610029  -2.580  29.750  -5.103
    1XTA   HL4210030  -2.468  29.888  -5.098
    1XTA   HL4310031  -2.420  29.725  -5.036
    1XTA   HL4810032  -2.205  29.875  -5.226
    1XTA   HL4910033  -2.207  29.715  -5.330
    1XTA     NT10034  -4.400  25.567  -9.732
    1XTA    CN110035  -4.379  25.446  -9.682
    1XTA     C110036  -4.410  25.427  -9.547
    1XTA     C210037  -4.380  25.306  -9.483
    1XTA     C310038  -4.312  25.205  -9.549
    1XTA     C410039  -4.280  25.222  -9.681
    1XTA     C510040  -4.318  25.342  -9.757
    1XTA    CN210041  -4.500  25.581  -9.820
    1XTA     C610042  -4.498  25.537  -9.953
    1XTA     C710043  -4.599  25.564 -10.042
    1XTA     C810044  -4.726  25.611  -9.994
    1XTA     C910045  -4.743  25.648  -9.857
    1XTA    C1010046  -4.628  25.626  -9.772
    1XTA    CN310047  -4.322  25.666  -9.695
    1XTA    C1110048  -4.370  25.754  -9.598
    1XTA    C1210049  -4.291  25.854  -9.547
    1XTA    C1310050  -4.164  25.875  -9.590
    1XTA    C1410051  -4.117  25.795  -9.700
    1XTA    C1510052  -4.203  25.690  -9.750
    1XTA     H110053  -4.454  25.512  -9.490
    1XTA     H210054  -4.415  25.282  -9.381
    1XTA     H310055  -4.234  25.149  -9.736
    1XTA     H410056  -4.296  25.345  -9.864
    1XTA     H510057  -4.402  25.507  -9.992
    1XTA     H610058  -4.581  25.537 -10.145
    1XTA     H710059  -4.841  25.676  -9.817
    1XTA     H810060  -4.637  25.648  -9.659
    1XTA     H910061  -4.462  25.743  -9.544
    1XTA    H1010062  -4.332  25.905  -9.464
    1XTA    H1110063  -4.034  25.814  -9.756
    1XTA    H1210064  -4.160  25.632  -9.829
    1XTA    OA110065  -4.262  25.090  -9.496
    1XTA    CO110066  -4.321  25.048  -9.378
    1XTA    OA210067  -4.835  25.632 -10.080
    1XTA    CO210068  -4.835  25.560 -10.204
    1XTA    CL110069  -4.986  25.542 -10.243
    1XTA    CL210070  -5.020  25.408 -10.295
    1XTA    CL310071  -5.176  25.398 -10.320
    1XTA    CL410072  -5.229  25.257 -10.341
    1XTA    CO310073  -5.194  25.170 -10.223
    1XTA    OA310074  -5.180  25.036 -10.269
    1XTA    CO410075  -5.305  24.977 -10.292
    1XTA    CT110076  -5.289  24.824 -10.320
    1XTA    CL510077  -5.159  24.809 -10.406
    1XTA    CL610078  -5.100  24.666 -10.421
    1XTA    OA410079  -4.091  25.969  -9.520
    1XTA    CO510080  -3.947  25.955  -9.521
    1XTA    HL110081  -3.918  25.976  -9.624
    1XTA    HL210082  -4.282  24.953  -9.339
    1XTA    HL310083  -4.303  25.121  -9.295
    1XTA    HL410084  -4.429  25.043  -9.394
    1XTA    HL510085  -4.776  25.622 -10.276
    1XTA    HL610086  -4.786  25.460 -10.189
    1XTA    HL710087  -5.021  25.601 -10.324
    1XTA    HL810088  -5.046  25.564 -10.152
    1XTA    HL910089  -4.986  25.341 -10.215
    1XTA   HL1010090  -4.957  25.388 -10.385
    1XTA   HL1110091  -5.230  25.435 -10.233
    1XTA   HL1210092  -5.211  25.450 -10.410
    1XTA   HL1310093  -5.186  25.213 -10.427
    1XTA   HL1410094  -5.337  25.266 -10.349
    1XTA   HL1510095  -5.096  25.197 -10.172
    1XTA   HL1610096  -5.268  25.178 -10.149
    1XTA   HL1710097  -5.376  24.986 -10.215
    1XTA   HL1810098  -5.351  25.019 -10.384
    1XTA   HL1910099  -5.079  24.871 -10.376
    1XTA   HL2010100  -5.179  24.837 -10.509
    1XTA   HL2110101  -5.172  24.596 -10.460
    1XTA   HL2210102  -5.069  24.614 -10.329
    1XTA   HL2310103  -5.014  24.661 -10.495
    1XTA   HL2410104  -3.915  25.860  -9.486
    1XTA   HL2510105  -3.897  26.028  -9.457
    1XTA    CO810106  -5.404  24.760 -10.395
    1XTA    CO910107  -5.269  24.754 -10.184
    1XTA    OA610108  -5.429  24.815 -10.484
    1XTA   HL4210109  -5.478  24.754 -10.315
    1XTA   HL4310110  -5.380  24.658 -10.413
    1XTA   HL4810111  -5.152  24.803 -10.119
    1XTA   HL4910112  -5.350  24.791 -10.124
    1XTA     NT10113  -2.907  28.323 -10.496
    1XTA    CN110114  -2.939  28.294 -10.628
    1XTA     C110115  -2.839  28.288 -10.728
    1XTA     C210116  -2.875  28.261 -10.862
    1XTA     C310117  -3.009  28.242 -10.899
    1XTA     C410118  -3.108  28.253 -10.800
    1XTA     C510119  -3.074  28.282 -10.663
    1XTA    CN210120  -2.838  28.236 -10.417
    1XTA     C610121  -2.896  28.114 -10.381
    1XTA     C710122  -2.831  28.026 -10.293
    1XTA     C810123  -2.702  28.053 -10.250
    1XTA     C910124  -2.646  28.176 -10.281
    1XTA    C1010125  -2.711  28.269 -10.357
    1XTA    CN310126  -2.928  28.442 -10.444
    1XTA    C1110127  -3.017  28.449 -10.333
    1XTA    C1210128  -3.043  28.572 -10.275
    1XTA    C1310129  -2.977  28.690 -10.322
    1XTA    C1410130  -2.884  28.679 -10.421
    1XTA    C1510131  -2.862  28.562 -10.483
    1XTA     H110132  -2.736  28.308 -10.715
    1XTA     H210133  -2.803  28.270 -10.935
    1XTA     H310134  -3.217  28.251 -10.819
    1XTA     H410135  -3.155  28.296 -10.592
    1XTA     H510136  -2.990  28.085 -10.417
    1XTA     H610137  -2.874  27.931 -10.270
    1XTA     H710138  -2.541  28.201 -10.253
    1XTA     H810139  -2.664  28.360 -10.371
    1XTA     H910140  -3.060  28.358 -10.299
    1XTA    H1010141  -3.123  28.580 -10.196
    1XTA    H1110142  -2.823  28.760 -10.458
    1XTA    H1210143  -2.808  28.567 -10.575
    1XTA    OA110144  -3.035  28.209 -11.032
    1XTA    CO110145  -3.168  28.241 -11.075
    1XTA    OA210146  -2.645  27.962 -10.170
    1XTA    CO210147  -2.516  27.981 -10.123
    1XTA    CL110148  -2.457  27.844 -10.083
    1XTA    CL210149  -2.305  27.849 -10.057
    1XTA    CL310150  -2.224  27.847 -10.188
    1XTA    CL410151  -2.204  27.703 -10.246
    1XTA    CO310152  -2.146  27.702 -10.381
    1XTA    OA310153  -2.122  27.570 -10.430
    1XTA    CO410154  -2.189  27.548 -10.549
    1XTA    CT110155  -2.176  27.404 -10.603
    1XTA    CL510156  -2.248  27.396 -10.737
    1XTA    CL610157  -2.398  27.445 -10.731
    1XTA    OA410158  -2.992  28.807 -10.249
    1XTA    CO510159  -2.974  28.936 -10.318
    1XTA    HL110160  -2.860  28.957 -10.319
    1XTA    HL210161  -3.161  28.229 -11.182
    1XTA    HL310162  -3.242  28.174 -11.027
    1XTA    HL410163  -3.193  28.343 -11.052
    1XTA    HL510164  -2.458  28.014 -10.207
    1XTA    HL610165  -2.500  28.058 -10.041
    1XTA    HL710166  -2.477  27.785 -10.173
    1XTA    HL810167  -2.511  27.804  -9.989
    1XTA    HL910168  -2.266  27.767  -9.990
    1XTA   HL1010169  -2.290  27.936  -9.993
    1XTA   HL1110170  -2.258  27.914 -10.265
    1XTA   HL1210171  -2.117  27.882 -10.172
    1XTA   HL1310172  -2.297  27.652 -10.253
    1XTA   HL1410173  -2.153  27.653 -10.163
    1XTA   HL1510174  -2.205  27.763 -10.448
    1XTA   HL1610175  -2.047  27.747 -10.383
    1XTA   HL1710176  -2.294  27.553 -10.518
    1XTA   HL1810177  -2.160  27.630 -10.613
    1XTA   HL1910178  -2.247  27.300 -10.778
    1XTA   HL2010179  -2.198  27.453 -10.814
    1XTA   HL2110180  -2.456  27.417 -10.644
    1XTA   HL2210181  -2.446  27.419 -10.823
    1XTA   HL2310182  -2.409  27.549 -10.720
    1XTA   HL2410183  -3.027  29.018 -10.273
    1XTA   HL2510184  -3.016  28.913 -10.420
    1XTA    CO810185  -2.244  27.317 -10.499
    1XTA    CO910186  -2.022  27.363 -10.612
    1XTA    OA610187  -1.949  27.453 -10.689
    1XTA   HL4210188  -2.348  27.339 -10.483
    1XTA   HL4310189  -2.196  27.331 -10.406
    1XTA   HL4810190  -2.011  27.262 -10.649
    1XTA   HL4910191  -1.979  27.356 -10.509
    1XTA     NT10192  -3.236  24.757  -8.359
    1XTA    CN110193  -3.159  24.716  -8.261
    1XTA     C110194  -3.029  24.688  -8.291
    1XTA     C210195  -2.936  24.662  -8.186
    1XTA     C310196  -2.974  24.663  -8.051
    1XTA     C410197  -3.103  24.685  -8.020
    1XTA     C510198  -3.197  24.717  -8.122
    1XTA    CN210199  -3.287  24.664  -8.446
    1XTA     C610200  -3.265  24.677  -8.583
    1XTA     C710201  -3.312  24.581  -8.670
    1XTA     C810202  -3.384  24.471  -8.623
    1XTA     C910203  -3.407  24.460  -8.487
    1XTA    C1010204  -3.353  24.551  -8.396
    1XTA    CN310205  -3.279  24.883  -8.365
    1XTA    C1110206  -3.386  24.921  -8.280
    1XTA    C1210207  -3.449  25.041  -8.305
    1XTA    C1310208  -3.407  25.124  -8.408
    1XTA    C1410209  -3.311  25.080  -8.501
    1XTA    C1510210  -3.245  24.959  -8.484
    1XTA     H110211  -3.000  24.682  -8.393
    1XTA     H210212  -2.840  24.619  -8.200
    1XTA     H310213  -3.139  24.692  -7.917
    1XTA     H410214  -3.294  24.748  -8.094
    1XTA     H510215  -3.202  24.751  -8.632
    1XTA     H610216  -3.288  24.586  -8.776
    1XTA     H710217  -3.461  24.378  -8.437
    1XTA     H810218  -3.366  24.542  -8.294
    1XTA     H910219  -3.419  24.860  -8.194
    1XTA    H1010220  -3.530  25.073  -8.241
    1XTA    H1110221  -3.288  25.148  -8.579
    1XTA    H1210222  -3.162  24.934  -8.550
    1XTA    OA110223  -2.888  24.644  -7.945
    1XTA    CO110224  -2.765  24.705  -7.965
    1XTA    OA210225  -3.436  24.381  -8.706
    1XTA    CO210226  -3.375  24.257  -8.695
    1XTA    CL110227  -3.470  24.164  -8.617
    1XTA    CL210228  -3.421  24.021  -8.634
    1XTA    CL310229  -3.514  23.920  -8.557
    1XTA    CL410230  -3.449  23.775  -8.544
    1XTA    CO310231  -3.457  23.701  -8.680
    1XTA    OA310232  -3.372  23.593  -8.674
    1XTA    CO410233  -3.386  23.503  -8.787
    1XTA    CT110234  -3.254  23.433  -8.820
    1XTA    CL510235  -3.277  23.311  -8.903
    1XTA    CL610236  -3.336  23.331  -9.045
    1XTA    OA410237  -3.479  25.236  -8.440
    1XTA    CO510238  -3.602  25.208  -8.511
    1XTA    HL110239  -3.648  25.296  -8.550
    1XTA    HL210240  -2.711  24.648  -8.043
    1XTA    HL310241  -2.784  24.807  -7.996
    1XTA    HL410242  -2.698  24.704  -7.878
    1XTA    HL510243  -3.364  24.218  -8.799
    1XTA    HL610244  -3.275  24.253  -8.650
    1XTA    HL710245  -3.566  24.187  -8.659
    1XTA    HL810246  -3.467  24.184  -8.508
    1XTA    HL910247  -3.320  23.991  -8.600
    1XTA   HL1010248  -3.433  24.009  -8.742
    1XTA   HL1110249  -3.527  23.966  -8.464
    1XTA   HL1210250  -3.605  23.911  -8.613
    1XTA   HL1310251  -3.471  23.708  -8.464
    1XTA   HL1410252  -3.345  23.793  -8.517
    1XTA   HL1510253  -3.556  23.677  -8.689
    1XTA   HL1610254  -3.423  23.768  -8.761
    1XTA   HL1710255  -3.461  23.441  -8.750
    1XTA   HL1810256  -3.417  23.571  -8.867
    1XTA   HL1910257  -3.344  23.238  -8.849
    1XTA   HL2010258  -3.178  23.265  -8.914
    1XTA   HL2110259  -3.438  23.361  -9.051
    1XTA   HL2210260  -3.327  23.246  -9.118
    1XTA   HL2310261  -3.293  23.418  -9.087
    1XTA   HL2410262  -3.669  25.155  -8.443
    1XTA   HL2510263  -3.578  25.141  -8.592
    1XTA    CO810264  -3.194  23.389  -8.682
    1XTA    CO910265  -3.162  23.531  -8.893
    1XTA    OA610266  -3.078  23.312  -8.713
    1XTA   HL4210267  -3.266  23.327  -8.631
    1XTA   HL4310268  -3.174  23.485  -8.619
    1XTA   HL4810269  -3.082  23.484  -8.933
    1XTA   HL4910270  -3.135  23.590  -8.802
    1XTA     NT10271  -8.135  23.361 -11.764
    1XTA    CN110272  -8.032  23.415 -11.828
    1XTA     C110273  -8.010  23.379 -11.960
    1XTA     C210274  -7.899  23.433 -12.028
    1XTA     C310275  -7.813  23.525 -11.966
    1XTA     C410276  -7.835  23.557 -11.834
    1XTA     C510277  -7.941  23.497 -11.766
    1XTA    CN210278  -8.259  23.420 -11.774
    1XTA     C610279  -8.316  23.478 -11.660
    1XTA     C710280  -8.436  23.561 -11.679
    1XTA     C810281  -8.492  23.578 -11.806
    1XTA     C910282  -8.432  23.517 -11.915
    1XTA    C1010283  -8.319  23.431 -11.895
    1XTA    CN310284  -8.122  23.228 -11.728
    1XTA    C1110285  -8.070  23.194 -11.600
    1XTA    C1210286  -8.046  23.064 -11.561
    1XTA    C1310287  -8.086  22.959 -11.646
    1XTA    C1410288  -8.143  22.991 -11.772
    1XTA    C1510289  -8.158  23.123 -11.818
    1XTA     H110290  -8.072  23.320 -12.015
    1XTA     H210291  -7.885  23.406 -12.131
    1XTA     H310292  -7.766  23.622 -11.778
    1XTA     H410293  -7.956  23.521 -11.662
    1XTA     H510294  -8.264  23.462 -11.563
    1XTA     H610295  -8.490  23.599 -11.594
    1XTA     H710296  -8.478  23.544 -12.012
    1XTA     H810297  -8.263  23.392 -11.984
    1XTA     H910298  -8.042  23.282 -11.542
    1XTA    H1010299  -7.994  23.048 -11.470
    1XTA    H1110300  -8.187  22.914 -11.839
    1XTA    H1210301  -8.186  23.145 -11.920
    1XTA    OA110302  -7.705  23.585 -12.031
    1XTA    CO110303  -7.673  23.543 -12.157
    1XTA    OA210304  -8.618  23.636 -11.827
    1XTA    CO210305  -8.674  23.723 -11.725
    1XTA    CL110306  -8.787  23.800 -11.796
    1XTA    CL210307  -8.874  23.885 -11.708
    1XTA    CL310308  -8.993  23.818 -11.657
    1XTA    CL410309  -9.120  23.847 -11.747
    1XTA    CO310310  -9.245  23.774 -11.692
    1XTA    OA310311  -9.236  23.634 -11.703
    1XTA    CO410312  -9.319  23.569 -11.607
    1XTA    CT110313  -9.304  23.416 -11.608
    1XTA    CL510314  -9.363  23.356 -11.732
    1XTA    CL610315  -9.506  23.396 -11.774
    1XTA    OA410316  -8.059  22.824 -11.617
    1XTA    CO510317  -7.984  22.802 -11.494
    1XTA    HL110318  -7.969  22.695 -11.486
    1XTA    HL210319  -7.746  23.560 -12.232
    1XTA    HL310320  -7.567  23.591 -12.168
    1XTA    HL410321  -7.652  23.434 -12.155
    1XTA    HL510322  -8.708  23.676 -11.639
    1XTA    HL610323  -8.594  23.793 -11.686
    1XTA    HL710324  -8.847  23.736 -11.856
    1XTA    HL810325  -8.742  23.869 -11.871
    1XTA    HL910326  -8.902  23.972 -11.762
    1XTA   HL1010327  -8.803  23.930 -11.634
    1XTA   HL1110328  -8.986  23.711 -11.655
    1XTA   HL1210329  -9.009  23.864 -11.557
    1XTA   HL1310330  -9.093  23.809 -11.846
    1XTA   HL1410331  -9.128  23.956 -11.758
    1XTA   HL1510332  -9.257  23.804 -11.592
    1XTA   HL1610333  -9.339  23.818 -11.740
    1XTA   HL1710334  -9.283  23.603 -11.514
    1XTA   HL1810335  -9.424  23.590 -11.627
    1XTA   HL1910336  -9.343  23.250 -11.742
    1XTA   HL2010337  -9.303  23.395 -11.816
    1XTA   HL2110338  -9.581  23.384 -11.699
    1XTA   HL2210339  -9.536  23.352 -11.868
    1XTA   HL2310340  -9.508  23.500 -11.808
    1XTA   HL2410341  -8.045  22.832 -11.406
    1XTA   HL2510342  -7.882  22.836 -11.504
    1XTA    CO810343  -9.379  23.352 -11.490
    1XTA    CO910344  -9.159  23.367 -11.593
    1XTA    OA610345  -9.515  23.391 -11.482
    1XTA   HL4210346  -9.333  23.379 -11.389
    1XTA   HL4310347  -9.370  23.240 -11.502
    1XTA   HL4810348  -9.144  23.260 -11.610
    1XTA   HL4910349  -9.101  23.420 -11.674
    1XTA     NT10350  -8.349  29.122  -7.851
    1XTA    CN110351  -8.259  29.221  -7.865
    1XTA     C110352  -8.284  29.348  -7.806
    1XTA     C210353  -8.184  29.450  -7.807
    1XTA     C310354  -8.066  29.432  -7.887
    1XTA     C410355  -8.052  29.304  -7.950
    1XTA     C510356  -8.142  29.203  -7.941
    1XTA    CN210357  -8.468  29.143  -7.913
    1XTA     C610358  -8.590  29.150  -7.846
    1XTA     C710359  -8.708  29.174  -7.910
    1XTA     C810360  -8.712  29.191  -8.045
    1XTA     C910361  -8.591  29.190  -8.116
    1XTA    C1010362  -8.472  29.157  -8.053
    1XTA    CN310363  -8.341  29.049  -7.738
    1XTA    C1110364  -8.294  28.919  -7.749
    1XTA    C1210365  -8.282  28.834  -7.637
    1XTA    C1310366  -8.317  28.877  -7.509
    1XTA    C1410367  -8.377  29.004  -7.499
    1XTA    C1510368  -8.395  29.089  -7.611
    1XTA     H110369  -8.375  29.369  -7.747
    1XTA     H210370  -8.203  29.542  -7.753
    1XTA     H310371  -7.979  29.295  -8.025
    1XTA     H410372  -8.126  29.108  -7.988
    1XTA     H510373  -8.591  29.139  -7.740
    1XTA     H610374  -8.799  29.163  -7.852
    1XTA     H710375  -8.599  29.204  -8.219
    1XTA     H810376  -8.386  29.135  -8.109
    1XTA     H910377  -8.262  28.886  -7.842
    1XTA    H1010378  -8.236  28.738  -7.647
    1XTA    H1110379  -8.424  29.038  -7.407
    1XTA    H1210380  -8.448  29.185  -7.610
    1XTA    OA110381  -7.975  29.536  -7.899
    1XTA    CO110382  -7.871  29.520  -7.990
    1XTA    OA210383  -8.829  29.226  -8.109
    1XTA    CO210384  -8.924  29.273  -8.027
    1XTA    CL110385  -9.040  29.326  -8.112
    1XTA    CL210386  -9.178  29.335  -8.035
    1XTA    CL310387  -9.174  29.416  -7.908
    1XTA    CL410388  -9.141  29.567  -7.916
    1XTA    CO310389  -9.109  29.623  -7.781
    1XTA    OA310390  -9.223  29.608  -7.694
    1XTA    CO410391  -9.240  29.494  -7.619
    1XTA    CT110392  -9.291  29.527  -7.475
    1XTA    CL510393  -9.420  29.589  -7.484
    1XTA    CL610394  -9.482  29.634  -7.354
    1XTA    OA410395  -8.292  28.786  -7.405
    1XTA    CO510396  -8.325  28.823  -7.274
    1XTA    HL110397  -8.285  28.771  -7.190
    1XTA    HL210398  -7.910  29.512  -8.093
    1XTA    HL310399  -7.803  29.603  -8.008
    1XTA    HL410400  -7.808  29.429  -7.964
    1XTA    HL510401  -8.967  29.194  -7.960
    1XTA    HL610402  -8.880  29.348  -7.969
    1XTA    HL710403  -9.054  29.250  -8.193
    1XTA    HL810404  -9.015  29.422  -8.165
    1XTA    HL910405  -9.213  29.231  -8.014
    1XTA   HL1010406  -9.256  29.380  -8.096
    1XTA   HL1110407  -9.276  29.389  -7.872
    1XTA   HL1210408  -9.099  29.366  -7.846
    1XTA   HL1310409  -9.234  29.614  -7.950
    1XTA   HL1410410  -9.059  29.589  -7.989
    1XTA   HL1510411  -9.017  29.579  -7.743
    1XTA   HL1610412  -9.078  29.722  -7.783
    1XTA   HL1710413  -9.311  29.436  -7.680
    1XTA   HL1810414  -9.150  29.430  -7.623
    1XTA   HL1910415  -9.495  29.521  -7.530
    1XTA   HL2010416  -9.414  29.674  -7.550
    1XTA   HL2110417  -9.582  29.670  -7.362
    1XTA   HL2210418  -9.426  29.716  -7.301
    1XTA   HL2310419  -9.480  29.560  -7.278
    1XTA   HL2410420  -8.432  28.820  -7.265
    1XTA   HL2510421  -8.303  28.929  -7.263
    1XTA    CO810422  -9.193  29.633  -7.418
    1XTA    CO910423  -9.285  29.402  -7.398
    1XTA    OA610424  -9.340  29.300  -7.485
    1XTA   HL4210425  -9.096  29.596  -7.428
    1XTA   HL4310426  -9.199  29.718  -7.482
    1XTA   HL4810427  -9.335  29.398  -7.306
    1XTA   HL4910428  -9.181  29.378  -7.383
    1XTA     NT10429  -7.827  23.474  -8.767
    1XTA    CN110430  -7.868  23.554  -8.870
    1XTA     C110431  -7.773  23.642  -8.927
    1XTA     C210432  -7.817  23.734  -9.026
    1XTA     C310433  -7.948  23.723  -9.084
    1XTA     C410434  -8.040  23.631  -9.025
    1XTA     C510435  -8.001  23.549  -8.919
    1XTA    CN210436  -7.714  23.400  -8.781
    1XTA     C610437  -7.599  23.434  -8.707
    1XTA     C710438  -7.486  23.348  -8.701
    1XTA     C810439  -7.487  23.236  -8.791
    1XTA     C910440  -7.601  23.204  -8.870
    1XTA    C1010441  -7.709  23.290  -8.868
    1XTA    CN310442  -7.902  23.452  -8.661
    1XTA    C1110443  -7.922  23.556  -8.563
    1XTA    C1210444  -7.980  23.526  -8.439
    1XTA    C1310445  -8.025  23.395  -8.407
    1XTA    C1410446  -8.010  23.293  -8.511
    1XTA    C1510447  -7.951  23.319  -8.635
    1XTA     H110448  -7.671  23.641  -8.875
    1XTA     H210449  -7.749  23.820  -9.047
    1XTA     H310450  -8.141  23.630  -9.060
    1XTA     H410451  -8.067  23.479  -8.866
    1XTA     H510452  -7.613  23.521  -8.645
    1XTA     H610453  -7.409  23.370  -8.628
    1XTA     H710454  -7.605  23.113  -8.928
    1XTA     H810455  -7.791  23.269  -8.928
    1XTA     H910456  -7.896  23.656  -8.585
    1XTA    H1010457  -8.008  23.605  -8.367
    1XTA    H1110458  -8.044  23.196  -8.484
    1XTA    H1210459  -7.920  23.246  -8.707
    1XTA    OA110460  -7.996  23.814  -9.177
    1XTA    CO110461  -7.898  23.884  -9.257
    1XTA    OA210462  -7.387  23.142  -8.789
    1XTA    CO210463  -7.256  23.181  -8.733
    1XTA    CL110464  -7.166  23.059  -8.743
    1XTA    CL210465  -7.026  23.085  -8.678
    1XTA    CL310466  -6.941  23.176  -8.776
    1XTA    CL410467  -6.877  23.117  -8.896
    1XTA    CO310468  -6.823  23.236  -8.981
    1XTA    OA310469  -6.728  23.182  -9.074
    1XTA    CO410470  -6.690  23.291  -9.156
    1XTA    CT110471  -6.590  23.233  -9.253
    1XTA    CL510472  -6.555  23.356  -9.344
    1XTA    CL610473  -6.499  23.328  -9.479
    1XTA    OA410474  -8.082  23.376  -8.281
    1XTA    CO510475  -8.166  23.264  -8.263
    1XTA    HL110476  -8.099  23.181  -8.289
    1XTA    HL210477  -7.846  23.808  -9.317
    1XTA    HL310478  -7.954  23.952  -9.322
    1XTA    HL410479  -7.817  23.928  -9.200
    1XTA    HL510480  -7.210  23.262  -8.787
    1XTA    HL610481  -7.259  23.209  -8.631
    1XTA    HL710482  -7.147  23.028  -8.847
    1XTA    HL810483  -7.221  22.980  -8.690
    1XTA    HL910484  -6.985  22.989  -8.669
    1XTA   HL1010485  -7.024  23.125  -8.574
    1XTA   HL1110486  -6.999  23.269  -8.798
    1XTA   HL1210487  -6.863  23.204  -8.709
    1XTA   HL1310488  -6.959  23.061  -8.952
    1XTA   HL1410489  -6.796  23.050  -8.871
    1XTA   HL1510490  -6.907  23.286  -9.028
    1XTA   HL1610491  -6.766  23.315  -8.923
    1XTA   HL1710492  -6.781  23.341  -9.195
    1XTA   HL1810493  -6.639  23.369  -9.100
    1XTA   HL1910494  -6.482  23.422  -9.298
    1XTA   HL2010495  -6.646  23.408  -9.360
    1XTA   HL2110496  -6.429  23.239  -9.467
    1XTA   HL2210497  -6.433  23.406  -9.515
    1XTA   HL2310498  -6.586  23.301  -9.548
    1XTA   HL2410499  -8.258  23.266  -8.324
    1XTA   HL2510500  -8.191  23.257  -8.158
    1XTA    CO810501  -6.658  23.116  -9.332
    1XTA    CO910502  -6.466  23.180  -9.172
    1XTA    OA610503  -6.403  23.116  -9.237
    1XTA   HL4210504  -6.586  23.053  -9.375
    1XTA   HL4310505  -6.715  23.029  -9.242
    1XTA   HL4810506  -6.495  23.131  -9.078
    1XTA   HL4910507  -6.399  23.268  -9.150
    1XTA     NT10508  -4.704  24.686  -6.605
    1XTA    CN110509  -4.614  24.729  -6.519
    1XTA     C110510  -4.543  24.849  -6.521
    1XTA     C210511  -4.430  24.873  -6.441
    1XTA     C310512  -4.393  24.781  -6.346
    1XTA     C410513  -4.467  24.660  -6.338
    1XTA     C510514  -4.574  24.633  -6.419
    1XTA    CN210515  -4.833  24.680  -6.570
    1XTA     C610516  -4.902  24.561  -6.577
    1XTA     C710517  -5.038  24.554  -6.564
    1XTA     C810518  -5.106  24.669  -6.520
    1XTA     C910519  -5.037  24.795  -6.499
    1XTA    C1010520  -4.901  24.795  -6.529
    1XTA    CN310521  -4.666  24.633  -6.726
    1XTA    C1110522  -4.575  24.530  -6.738
    1XTA    C1210523  -4.548  24.473  -6.863
    1XTA    C1310524  -4.620  24.521  -6.975
    1XTA    C1410525  -4.714  24.623  -6.964
    1XTA    C1510526  -4.743  24.669  -6.837
    1XTA     H110527  -4.570  24.918  -6.599
    1XTA     H210528  -4.367  24.958  -6.459
    1XTA     H310529  -4.425  24.586  -6.265
    1XTA     H410530  -4.611  24.526  -6.414
    1XTA     H510531  -4.848  24.467  -6.595
    1XTA     H610532  -5.091  24.461  -6.581
    1XTA     H710533  -5.090  24.883  -6.466
    1XTA     H810534  -4.843  24.885  -6.524
    1XTA     H910535  -4.524  24.493  -6.657
    1XTA    H1010536  -4.481  24.390  -6.882
    1XTA    H1110537  -4.764  24.658  -7.057
    1XTA    H1210538  -4.825  24.727  -6.817
    1XTA    OA110539  -4.290  24.794  -6.260
    1XTA    CO110540  -4.251  24.925  -6.224
    1XTA    OA210541  -5.247  24.675  -6.512
    1XTA    CO210542  -5.312  24.551  -6.482
    1XTA    CL110543  -5.463  24.578  -6.486
    1XTA    CL210544  -5.521  24.592  -6.636
    1XTA    CL310545  -5.667  24.554  -6.640
    1XTA    CL410546  -5.687  24.412  -6.680
    1XTA    CO310547  -5.835  24.374  -6.718
    1XTA    OA310548  -5.917  24.369  -6.598
    1XTA    CO410549  -5.972  24.493  -6.548
    1XTA    CT110550  -6.129  24.497  -6.562
    1XTA    CL510551  -6.183  24.593  -6.457
    1XTA    CL610552  -6.107  24.729  -6.445
    1XTA    OA410553  -4.598  24.447  -7.092
    1XTA    CO510554  -4.711  24.428  -7.177
    1XTA    HL110555  -4.693  24.364  -7.264
    1XTA    HL210556  -4.184  24.973  -6.293
    1XTA    HL310557  -4.330  24.977  -6.178
    1XTA    HL410558  -4.174  24.925  -6.150
    1XTA    HL510559  -5.288  24.475  -6.552
    1XTA    HL610560  -5.277  24.521  -6.382
    1XTA    HL710561  -5.495  24.660  -6.420
    1XTA    HL810562  -5.521  24.493  -6.446
    1XTA    HL910563  -5.451  24.552  -6.706
    1XTA   HL1010564  -5.520  24.694  -6.668
    1XTA   HL1110565  -5.724  24.567  -6.553
    1XTA   HL1210566  -5.717  24.626  -6.699
    1XTA   HL1310567  -5.673  24.350  -6.586
    1XTA   HL1410568  -5.618  24.374  -6.764
    1XTA   HL1510569  -5.882  24.450  -6.791
    1XTA   HL1610570  -5.833  24.278  -6.764
    1XTA   HL1710571  -5.937  24.506  -6.442
    1XTA   HL1810572  -5.927  24.572  -6.609
    1XTA   HL1910573  -6.173  24.538  -6.365
    1XTA   HL2010574  -6.295  24.601  -6.467
    1XTA   HL2110575  -6.016  24.721  -6.402
    1XTA   HL2210576  -6.155  24.780  -6.366
    1XTA   HL2310577  -6.113  24.790  -6.537
    1XTA   HL2410578  -4.757  24.521  -7.214
    1XTA   HL2510579  -4.789  24.376  -7.129
    1XTA    CO810580  -6.196  24.360  -6.538
    1XTA    CO910581  -6.156  24.527  -6.707
    1XTA    OA610582  -6.116  24.657  -6.746
    1XTA   HL4210583  -6.304  24.369  -6.534
    1XTA   HL4310584  -6.182  24.289  -6.616
    1XTA   HL4810585  -6.260  24.517  -6.735
    1XTA   HL4910586  -6.086  24.472  -6.764
    1XTA     NT10587  -7.390  29.700  -6.834
    1XTA    CN110588  -7.479  29.797  -6.878
    1XTA     C110589  -7.495  29.809  -7.014
    1XTA     C210590  -7.576  29.917  -7.063
    1XTA     C310591  -7.645  30.002  -6.972
    1XTA     C410592  -7.623  29.983  -6.836
    1XTA     C510593  -7.541  29.879  -6.786
    1XTA    CN210594  -7.255  29.721  -6.825
    1XTA     C610595  -7.176  29.712  -6.942
    1XTA     C710596  -7.045  29.768  -6.945
    1XTA     C810597  -6.990  29.819  -6.823
    1XTA     C910598  -7.067  29.826  -6.707
    1XTA    C1010599  -7.199  29.781  -6.712
    1XTA    CN310600  -7.433  29.574  -6.827
    1XTA    C1110601  -7.501  29.510  -6.928
    1XTA    C1210602  -7.539  29.378  -6.910
    1XTA    C1310603  -7.500  29.306  -6.788
    1XTA    C1410604  -7.436  29.373  -6.690
    1XTA    C1510605  -7.411  29.506  -6.706
    1XTA     H110606  -7.435  29.743  -7.073
    1XTA     H210607  -7.578  29.920  -7.167
    1XTA     H310608  -7.666  30.061  -6.776
    1XTA     H410609  -7.516  29.874  -6.689
    1XTA     H510610  -7.234  29.675  -7.034
    1XTA     H610611  -6.974  29.749  -7.027
    1XTA     H710612  -7.020  29.865  -6.615
    1XTA     H810613  -7.259  29.791  -6.625
    1XTA     H910614  -7.539  29.563  -7.019
    1XTA    H1010615  -7.604  29.324  -6.975
    1XTA    H1110616  -7.394  29.333  -6.594
    1XTA    H1210617  -7.358  29.555  -6.640
    1XTA    OA110618  -7.726  30.108  -7.011
    1XTA    CO110619  -7.733  30.145  -7.149
    1XTA    OA210620  -6.856  29.859  -6.830
    1XTA    CO210621  -6.771  29.810  -6.727
    1XTA    CL110622  -6.635  29.791  -6.799
    1XTA    CL210623  -6.644  29.709  -6.934
    1XTA    CL310624  -6.704  29.566  -6.926
    1XTA    CL410625  -6.701  29.496  -7.063
    1XTA    CO310626  -6.564  29.436  -7.105
    1XTA    OA310627  -6.574  29.391  -7.238
    1XTA    CO410628  -6.447  29.344  -7.284
    1XTA    CT110629  -6.455  29.288  -7.422
    1XTA    CL510630  -6.324  29.222  -7.472
    1XTA    CL610631  -6.220  29.319  -7.516
    1XTA    OA410632  -7.537  29.174  -6.774
    1XTA    CO510633  -7.419  29.099  -6.747
    1XTA    HL110634  -7.334  29.134  -6.811
    1XTA    HL210635  -7.819  30.115  -7.202
    1XTA    HL310636  -7.744  30.259  -7.149
    1XTA    HL410637  -7.641  30.139  -7.205
    1XTA    HL510638  -6.769  29.886  -6.652
    1XTA    HL610639  -6.813  29.717  -6.689
    1XTA    HL710640  -6.571  29.746  -6.725
    1XTA    HL810641  -6.603  29.896  -6.823
    1XTA    HL910642  -6.551  29.702  -6.982
    1XTA   HL1010643  -6.693  29.773  -6.998
    1XTA   HL1110644  -6.649  29.507  -6.842
    1XTA   HL1210645  -6.808  29.576  -6.887
    1XTA   HL1310646  -6.745  29.562  -7.140
    1XTA   HL1410647  -6.767  29.412  -7.060
    1XTA   HL1510648  -6.488  29.516  -7.101
    1XTA   HL1610649  -6.516  29.354  -7.042
    1XTA   HL1710650  -6.389  29.438  -7.268
    1XTA   HL1810651  -6.412  29.267  -7.208
    1XTA   HL1910652  -6.351  29.156  -7.557
    1XTA   HL2010653  -6.275  29.150  -7.404
    1XTA   HL2110654  -6.258  29.373  -7.603
    1XTA   HL2210655  -6.126  29.270  -7.537
    1XTA   HL2310656  -6.205  29.403  -7.448
    1XTA   HL2410657  -7.438  28.994  -6.772
    1XTA   HL2510658  -7.394  29.093  -6.643
    1XTA    CO810659  -6.515  29.376  -7.513
    1XTA    CO910660  -6.582  29.201  -7.439
    1XTA    OA610661  -6.612  29.321  -7.536
    1XTA   HL4210662  -6.453  29.392  -7.600
    1XTA   HL4310663  -6.524  29.472  -7.466
    1XTA   HL4810664  -6.664  29.181  -7.322
    1XTA   HL4910665  -6.561  29.107  -7.491
    1XTA     NT10666  -2.113  28.492  -9.360
    1XTA    CN110667  -2.069  28.614  -9.407
    1XTA     C110668  -2.136  28.730  -9.362
    1XTA     C210669  -2.116  28.853  -9.426
    1XTA     C310670  -2.015  28.867  -9.521
    1XTA     C410671  -1.937  28.757  -9.557
    1XTA     C510672  -1.972  28.626  -9.512
    1XTA    CN210673  -2.015  28.400  -9.335
    1XTA     C610674  -1.990  28.289  -9.414
    1XTA     C710675  -1.893  28.193  -9.380
    1XTA     C810676  -1.799  28.225  -9.276
    1XTA     C910677  -1.825  28.335  -9.196
    1XTA    C1010678  -1.932  28.425  -9.222
    1XTA    CN310679  -2.237  28.449  -9.390
    1XTA    C1110680  -2.309  28.375  -9.294
    1XTA    C1210681  -2.442  28.327  -9.310
    1XTA    C1310682  -2.505  28.360  -9.438
    1XTA    C1410683  -2.431  28.425  -9.535
    1XTA    C1510684  -2.301  28.477  -9.511
    1XTA     H110685  -2.205  28.726  -9.283
    1XTA     H210686  -2.174  28.938  -9.396
    1XTA     H310687  -1.856  28.755  -9.622
    1XTA     H410688  -1.916  28.541  -9.540
    1XTA     H510689  -2.047  28.263  -9.500
    1XTA     H610690  -1.878  28.119  -9.456
    1XTA     H710691  -1.757  28.344  -9.114
    1XTA     H810692  -1.954  28.513  -9.162
    1XTA     H910693  -2.262  28.353  -9.198
    1XTA    H1010694  -2.495  28.271  -9.234
    1XTA    H1110695  -2.486  28.440  -9.624
    1XTA    H1210696  -2.246  28.525  -9.590
    1XTA    OA110697  -1.969  28.982  -9.572
    1XTA    CO110698  -2.045  29.093  -9.539
    1XTA    OA210699  -1.691  28.139  -9.243
    1XTA    CO210700  -1.632  28.046  -9.336
    1XTA    CL110701  -1.550  28.132  -9.440
    1XTA    CL210702  -1.601  28.098  -9.585
    1XTA    CL310703  -1.484  28.124  -9.681
    1XTA    CL410704  -1.531  28.106  -9.828
    1XTA    CO310705  -1.416  28.123  -9.926
    1XTA    OA310706  -1.470  28.098 -10.054
    1XTA    CO410707  -1.378  28.124 -10.160
    1XTA    CT110708  -1.457  28.178 -10.281
    1XTA    CL510709  -1.553  28.293 -10.247
    1XTA    CL610710  -1.527  28.419 -10.326
    1XTA    OA410711  -2.632  28.323  -9.473
    1XTA    CO510712  -2.717  28.267  -9.374
    1XTA    HL110713  -2.734  28.330  -9.287
    1XTA    HL210714  -1.994  29.173  -9.601
    1XTA    HL310715  -2.153  29.085  -9.560
    1XTA    HL410716  -2.039  29.117  -9.434
    1XTA    HL510717  -1.569  27.976  -9.283
    1XTA    HL610718  -1.713  27.988  -9.388
    1XTA    HL710719  -1.450  28.091  -9.428
    1XTA    HL810720  -1.561  28.235  -9.420
    1XTA    HL910721  -1.690  28.151  -9.603
    1XTA   HL1010722  -1.629  27.989  -9.593
    1XTA   HL1110723  -1.453  28.222  -9.663
    1XTA   HL1210724  -1.395  28.058  -9.672
    1XTA   HL1310725  -1.610  28.170  -9.855
    1XTA   HL1410726  -1.565  28.001  -9.840
    1XTA   HL1510727  -1.375  28.223  -9.898
    1XTA   HL1610728  -1.338  28.055  -9.901
    1XTA   HL1710729  -1.316  28.210 -10.125
    1XTA   HL1810730  -1.316  28.034 -10.173
    1XTA   HL1910731  -1.548  28.323 -10.142
    1XTA   HL2010732  -1.658  28.262 -10.263
    1XTA   HL2110733  -1.562  28.505 -10.274
    1XTA   HL2210734  -1.584  28.420 -10.419
    1XTA   HL2310735  -1.421  28.433 -10.346
    1XTA   HL2410736  -2.661  28.178  -9.352
    1XTA   HL2510737  -2.804  28.232  -9.424
    1XTA    CO810738  -1.541  28.059 -10.333
    1XTA    CO910739  -1.346  28.203 -10.396
    1XTA    OA610740  -1.611  28.092 -10.450
    1XTA   HL4210741  -1.607  28.032 -10.254
    1XTA   HL4310742  -1.484  27.964 -10.350
    1XTA   HL4810743  -1.274  28.293 -10.380
    1XTA   HL4910744  -1.395  28.238 -10.489
    1XTA     NT10745  -6.624  24.419 -12.671
    1XTA    CN110746  -6.715  24.477 -12.747
    1XTA     C110747  -6.784  24.591 -12.699
    1XTA     C210748  -6.873  24.660 -12.789
    1XTA     C310749  -6.900  24.619 -12.919
    1XTA     C410750  -6.832  24.503 -12.958
    1XTA     C510751  -6.752  24.425 -12.872
    1XTA    CN210752  -6.495  24.398 -12.719
    1XTA     C610753  -6.454  24.279 -12.780
    1XTA     C710754  -6.325  24.265 -12.826
    1XTA     C810755  -6.237  24.375 -12.815
    1XTA     C910756  -6.274  24.493 -12.746
    1XTA    C1010757  -6.402  24.498 -12.701
    1XTA    CN310758  -6.652  24.351 -12.560
    1XTA    C1110759  -6.701  24.222 -12.569
    1XTA    C1210760  -6.719  24.146 -12.444
    1XTA    C1310761  -6.666  24.191 -12.321
    1XTA    C1410762  -6.594  24.312 -12.323
    1XTA    C1510763  -6.602  24.392 -12.438
    1XTA     H110764  -6.755  24.625 -12.605
    1XTA     H210765  -6.925  24.738 -12.742
    1XTA     H310766  -6.856  24.477 -13.057
    1XTA     H410767  -6.699  24.351 -12.919
    1XTA     H510768  -6.525  24.204 -12.777
    1XTA     H610769  -6.290  24.183 -12.880
    1XTA     H710770  -6.199  24.575 -12.724
    1XTA     H810771  -6.435  24.587 -12.646
    1XTA     H910772  -6.742  24.194 -12.661
    1XTA    H1010773  -6.775  24.049 -12.439
    1XTA    H1110774  -6.532  24.335 -12.230
    1XTA    H1210775  -6.552  24.485 -12.429
    1XTA    OA110776  -6.994  24.684 -13.002
    1XTA    CO110777  -6.976  24.682 -13.143
    1XTA    OA210778  -6.116  24.360 -12.877
    1XTA    CO210779  -6.008  24.440 -12.830
    1XTA    CL110780  -5.874  24.410 -12.899
    1XTA    CL210781  -5.746  24.501 -12.861
    1XTA    CL310782  -5.729  24.639 -12.935
    1XTA    CL410783  -5.833  24.745 -12.908
    1XTA    CO310784  -5.761  24.883 -12.918
    1XTA    OA310785  -5.870  24.966 -12.904
    1XTA    CO410786  -5.834  25.094 -12.916
    1XTA    CT110787  -5.965  25.170 -12.958
    1XTA    CL510788  -6.063  25.185 -12.839
    1XTA    CL610789  -6.105  25.049 -12.777
    1XTA    OA410790  -6.662  24.105 -12.216
    1XTA    CO510791  -6.617  24.153 -12.089
    1XTA    HL110792  -6.686  24.223 -12.043
    1XTA    HL210793  -7.020  24.754 -13.213
    1XTA    HL310794  -6.868  24.694 -13.159
    1XTA    HL410795  -7.006  24.589 -13.191
    1XTA    HL510796  -6.041  24.550 -12.837
    1XTA    HL610797  -5.991  24.413 -12.731
    1XTA    HL710798  -5.897  24.437 -13.004
    1XTA    HL810799  -5.852  24.306 -12.885
    1XTA    HL910800  -5.659  24.441 -12.888
    1XTA   HL1010801  -5.726  24.514 -12.759
    1XTA   HL1110802  -5.634  24.686 -12.896
    1XTA   HL1210803  -5.706  24.632 -13.037
    1XTA   HL1310804  -5.873  24.728 -12.803
    1XTA   HL1410805  -5.921  24.740 -12.969
    1XTA   HL1510806  -5.682  24.896 -12.838
    1XTA   HL1610807  -5.711  24.904 -13.009
    1XTA   HL1710808  -5.787  25.138 -12.829
    1XTA   HL1810809  -5.755  25.111 -12.991
    1XTA   HL1910810  -6.158  25.213 -12.881
    1XTA   HL2010811  -6.019  25.264 -12.771
    1XTA   HL2110812  -6.193  25.067 -12.709
    1XTA   HL2210813  -6.030  24.993 -12.716
    1XTA   HL2310814  -6.133  24.962 -12.845
    1XTA   HL2410815  -6.515  24.186 -12.085
    1XTA   HL2510816  -6.628  24.066 -12.025
    1XTA    CO810817  -6.029  25.099 -13.080
    1XTA    CO910818  -5.934  25.317 -13.003
    1XTA    OA610819  -6.111  25.158 -13.113
    1XTA   HL4210820  -6.055  24.997 -13.063
    1XTA   HL4310821  -5.955  25.092 -13.160
    1XTA   HL4810822  -5.845  25.324 -13.111
    1XTA   HL4910823  -6.013  25.375 -13.024
    1XTA     NT10824  -7.737  25.080  -8.880
    1XTA    CN110825  -7.809  24.973  -8.915
    1XTA     C110826  -7.772  24.895  -9.031
    1XTA     C210827  -7.857  24.791  -9.083
    1XTA     C310828  -7.971  24.752  -9.004
    1XTA     C410829  -8.000  24.826  -8.887
    1XTA     C510830  -7.926  24.936  -8.845
    1XTA    CN210831  -7.772  25.197  -8.949
    1XTA     C610832  -7.901  25.251  -8.921
    1XTA     C710833  -7.954  25.365  -8.990
    1XTA     C810834  -7.869  25.433  -9.076
    1XTA     C910835  -7.738  25.381  -9.105
    1XTA    C1010836  -7.691  25.264  -9.044
    1XTA    CN310837  -7.638  25.079  -8.784
    1XTA    C1110838  -7.633  25.161  -8.669
    1XTA    C1210839  -7.526  25.155  -8.581
    1XTA    C1310840  -7.414  25.069  -8.602
    1XTA    C1410841  -7.423  24.993  -8.718
    1XTA    C1510842  -7.528  24.994  -8.805
    1XTA     H110843  -7.679  24.923  -9.082
    1XTA     H210844  -7.837  24.734  -9.179
    1XTA     H310845  -8.082  24.788  -8.830
    1XTA     H410846  -7.954  24.987  -8.752
    1XTA     H510847  -7.951  25.203  -8.840
    1XTA     H610848  -8.055  25.404  -8.974
    1XTA     H710849  -7.672  25.421  -9.184
    1XTA     H810850  -7.594  25.237  -9.072
    1XTA     H910851  -7.719  25.225  -8.654
    1XTA    H1010852  -7.540  25.213  -8.494
    1XTA    H1110853  -7.346  24.922  -8.750
    1XTA    H1210854  -7.525  24.935  -8.894
    1XTA    OA110855  -8.058  24.643  -9.032
    1XTA    CO110856  -8.031  24.560  -9.138
    1XTA    OA210857  -7.916  25.549  -9.133
    1XTA    CO210858  -7.835  25.616  -9.221
    1XTA    CL110859  -7.871  25.554  -9.356
    1XTA    CL210860  -7.803  25.611  -9.481
    1XTA    CL310861  -7.653  25.585  -9.506
    1XTA    CL410862  -7.616  25.438  -9.490
    1XTA    CO310863  -7.465  25.406  -9.465
    1XTA    OA310864  -7.422  25.428  -9.339
    1XTA    CO410865  -7.281  25.442  -9.328
    1XTA    CT110866  -7.249  25.495  -9.181
    1XTA    CL510867  -7.317  25.408  -9.073
    1XTA    CL610868  -7.305  25.451  -8.921
    1XTA    OA410869  -7.316  25.049  -8.504
    1XTA    CO510870  -7.331  25.129  -8.386
    1XTA    HL110871  -7.415  25.106  -8.324
    1XTA    HL210872  -7.921  24.539  -9.150
    1XTA    HL310873  -8.089  24.467  -9.140
    1XTA    HL410874  -8.052  24.619  -9.219
    1XTA    HL510875  -7.857  25.717  -9.234
    1XTA    HL610876  -7.729  25.611  -9.202
    1XTA    HL710877  -7.978  25.568  -9.375
    1XTA    HL810878  -7.857  25.445  -9.349
    1XTA    HL910879  -7.832  25.718  -9.484
    1XTA   HL1010880  -7.860  25.574  -9.564
    1XTA   HL1110881  -7.623  25.612  -9.602
    1XTA   HL1210882  -7.599  25.636  -9.425
    1XTA   HL1310883  -7.652  25.392  -9.588
    1XTA   HL1410884  -7.677  25.388  -9.414
    1XTA   HL1510885  -7.440  25.300  -9.485
    1XTA   HL1610886  -7.405  25.469  -9.530
    1XTA   HL1710887  -7.232  25.352  -9.354
    1XTA   HL1810888  -7.252  25.529  -9.394
    1XTA   HL1910889  -7.259  25.313  -9.082
    1XTA   HL2010890  -7.422  25.375  -9.087
    1XTA   HL2110891  -7.312  25.358  -8.866
    1XTA   HL2210892  -7.398  25.506  -8.902
    1XTA   HL2310893  -7.212  25.505  -8.883
    1XTA   HL2410894  -7.335  25.235  -8.400
    1XTA   HL2510895  -7.249  25.112  -8.320
    1XTA    CO810896  -7.301  25.640  -9.181
    1XTA    CO910897  -7.096  25.508  -9.165
    1XTA    OA610898  -7.267  25.704  -9.063
    1XTA   HL4210899  -7.407  25.647  -9.190
    1XTA   HL4310900  -7.265  25.695  -9.261
    1XTA   HL4810901  -7.065  25.613  -9.191
    1XTA   HL4910902  -7.048  25.454  -9.246
    1XTA     NT10903  -7.706  25.545  -4.942
    1XTA    CN110904  -7.769  25.462  -4.856
    1XTA     C110905  -7.724  25.464  -4.723
    1XTA     C210906  -7.787  25.381  -4.628
    1XTA     C310907  -7.903  25.311  -4.651
    1XTA     C410908  -7.941  25.299  -4.787
    1XTA     C510909  -7.877  25.370  -4.888
    1XTA    CN210910  -7.595  25.506  -5.008
    1XTA     C610911  -7.470  25.567  -4.976
    1XTA     C710912  -7.354  25.537  -5.042
    1XTA     C810913  -7.351  25.442  -5.139
    1XTA     C910914  -7.469  25.378  -5.175
    1XTA    C1010915  -7.590  25.406  -5.106
    1XTA    CN310916  -7.777  25.649  -4.993
    1XTA    C1110917  -7.768  25.772  -4.924
    1XTA    C1210918  -7.837  25.887  -4.968
    1XTA    C1310919  -7.913  25.876  -5.081
    1XTA    C1410920  -7.915  25.757  -5.157
    1XTA    C1510921  -7.852  25.642  -5.108
    1XTA     H110922  -7.651  25.540  -4.698
    1XTA     H210923  -7.746  25.370  -4.526
    1XTA     H310924  -8.022  25.232  -4.803
    1XTA     H410925  -7.915  25.366  -4.988
    1XTA     H510926  -7.478  25.649  -4.907
    1XTA     H610927  -7.258  25.583  -5.011
    1XTA     H710928  -7.478  25.295  -5.243
    1XTA     H810929  -7.678  25.342  -5.133
    1XTA     H910930  -7.717  25.785  -4.830
    1XTA    H1010931  -7.832  25.972  -4.900
    1XTA    H1110932  -7.973  25.754  -5.251
    1XTA    H1210933  -7.863  25.551  -5.154
    1XTA    OA110934  -7.954  25.238  -4.552
    1XTA    CO110935  -8.023  25.115  -4.581
    1XTA    OA210936  -7.233  25.433  -5.207
    1XTA    CO210937  -7.223  25.338  -5.313
    1XTA    CL110938  -7.081  25.355  -5.364
    1XTA    CL210939  -7.073  25.310  -5.511
    1XTA    CL310940  -6.940  25.340  -5.576
    1XTA    CL410941  -6.941  25.465  -5.651
    1XTA    CO310942  -6.819  25.498  -5.737
    1XTA    OA310943  -6.718  25.502  -5.651
    1XTA    CO410944  -6.590  25.542  -5.694
    1XTA    CT110945  -6.487  25.517  -5.581
    1XTA    CL510946  -6.352  25.570  -5.639
    1XTA    CL610947  -6.230  25.560  -5.548
    1XTA    OA410948  -7.999  25.970  -5.129
    1XTA    CO510949  -7.991  26.090  -5.059
    1XTA    HL110950  -8.058  26.167  -5.105
    1XTA    HL210951  -8.123  25.132  -4.629
    1XTA    HL310952  -7.974  25.039  -4.647
    1XTA    HL410953  -8.033  25.071  -4.482
    1XTA    HL510954  -7.232  25.240  -5.263
    1XTA    HL610955  -7.302  25.349  -5.391
    1XTA    HL710956  -7.017  25.299  -5.307
    1XTA    HL810957  -7.063  25.461  -5.359
    1XTA    HL910958  -7.154  25.350  -5.565
    1XTA   HL1010959  -7.090  25.198  -5.515
    1XTA   HL1110960  -6.860  25.336  -5.503
    1XTA   HL1210961  -6.910  25.263  -5.643
    1XTA   HL1310962  -6.939  25.548  -5.583
    1XTA   HL1410963  -7.030  25.470  -5.723
    1XTA   HL1510964  -6.797  25.421  -5.805
    1XTA   HL1610965  -6.840  25.594  -5.797
    1XTA   HL1710966  -6.553  25.478  -5.779
    1XTA   HL1810967  -6.585  25.650  -5.719
    1XTA   HL1910968  -6.369  25.675  -5.659
    1XTA   HL2010969  -6.328  25.519  -5.731
    1XTA   HL2110970  -6.235  25.473  -5.483
    1XTA   HL2210971  -6.233  25.642  -5.479
    1XTA   HL2310972  -6.143  25.562  -5.616
    1XTA   HL2410973  -7.887  26.109  -5.039
    1XTA   HL2510974  -8.025  26.070  -4.958
    1XTA    CO810975  -6.485  25.361  -5.559
    1XTA    CO910976  -6.523  25.579  -5.441
    1XTA    OA610977  -6.541  25.688  -5.454
    1XTA   HL4210978  -6.427  25.339  -5.472
    1XTA   HL4310979  -6.604  25.311  -5.525
    1XTA   HL4810980  -6.441  25.567  -5.371
    1XTA   HL4910981  -6.608  25.527  -5.394
    1XTA     NT10982  -7.686  28.525  -5.359
    1XTA    CN110983  -7.652  28.642  -5.303
    1XTA     C110984  -7.513  28.653  -5.274
    1XTA     C210985  -7.462  28.777  -5.231
    1XTA     C310986  -7.551  28.879  -5.202
    1XTA     C410987  -7.690  28.870  -5.234
    1XTA     C510988  -7.735  28.750  -5.291
    1XTA    CN210989  -7.664  28.492  -5.487
    1XTA     C610990  -7.591  28.375  -5.519
    1XTA     C710991  -7.570  28.338  -5.652
    1XTA     C810992  -7.615  28.418  -5.757
    1XTA     C910993  -7.683  28.535  -5.723
    1XTA    C1010994  -7.706  28.580  -5.589
    1XTA    CN310995  -7.802  28.470  -5.313
    1XTA    C1110996  -7.926  28.493  -5.366
    1XTA    C1210997  -8.038  28.429  -5.312
    1XTA    C1310998  -8.027  28.348  -5.197
    1XTA    C1410999  -7.899  28.320  -5.145
    1XTA    C1511000  -7.784  28.381  -5.208
    1XTA     H111001  -7.438  28.576  -5.310
    1XTA     H211002  -7.356  28.790  -5.206
    1XTA     H311003  -7.755  28.951  -5.207
    1XTA     H411004  -7.832  28.745  -5.328
    1XTA     H511005  -7.551  28.316  -5.444
    1XTA     H611006  -7.523  28.241  -5.663
    1XTA     H711007  -7.714  28.596  -5.807
    1XTA     H811008  -7.765  28.657  -5.559
    1XTA     H911009  -7.946  28.562  -5.445
    1XTA    H1011010  -8.141  28.446  -5.342
    1XTA    H1111011  -7.894  28.262  -5.062
    1XTA    H1211012  -7.684  28.354  -5.172
    1XTA    OA111013  -7.494  28.992  -5.148
    1XTA    CO111014  -7.573  29.109  -5.126
    1XTA    OA211015  -7.594  28.394  -5.888
    1XTA    CO211016  -7.571  28.267  -5.943
    1XTA    CL111017  -7.556  28.275  -6.097
    1XTA    CL211018  -7.681  28.326  -6.172
    1XTA    CL311019  -7.707  28.479  -6.178
    1XTA    CL411020  -7.821  28.513  -6.275
    1XTA    CO311021  -7.799  28.637  -6.363
    1XTA    OA311022  -7.820  28.753  -6.277
    1XTA    CO411023  -7.767  28.871  -6.334
    1XTA    CT111024  -7.822  28.998  -6.274
    1XTA    CL511025  -7.740  29.123  -6.316
    1XTA    CL611026  -7.713  29.139  -6.470
    1XTA    OA411027  -8.137  28.278  -5.142
    1XTA    CO511028  -8.265  28.290  -5.199
    1XTA    HL111029  -8.356  28.255  -5.145
    1XTA    HL211030  -7.511  29.176  -5.065
    1XTA    HL311031  -7.632  29.137  -5.215
    1XTA    HL411032  -7.657  29.099  -5.062
    1XTA    HL511033  -7.480  28.225  -5.905
    1XTA    HL611034  -7.648  28.192  -5.908
    1XTA    HL711035  -7.510  28.188  -6.138
    1XTA    HL811036  -7.483  28.358  -6.120
    1XTA    HL911037  -7.768  28.276  -6.127
    1XTA   HL1011038  -7.674  28.298  -6.280
    1XTA   HL1111039  -7.728  28.514  -6.083
    1XTA   HL1211040  -7.625  28.531  -6.222
    1XTA   HL1311041  -7.914  28.537  -6.217
    1XTA   HL1411042  -7.834  28.436  -6.354
    1XTA   HL1511043  -7.708  28.641  -6.413
    1XTA   HL1611044  -7.870  28.648  -6.443
    1XTA   HL1711045  -7.660  28.856  -6.329
    1XTA   HL1811046  -7.794  28.855  -6.438
    1XTA   HL1911047  -7.649  29.128  -6.254
    1XTA   HL2011048  -7.792  29.213  -6.278
    1XTA   HL2111049  -7.644  29.059  -6.500
    1XTA   HL2211050  -7.675  29.240  -6.502
    1XTA   HL2311051  -7.798  29.126  -6.535
    1XTA   HL2411052  -8.273  28.235  -5.295
    1XTA   HL2511053  -8.290  28.391  -5.217
    1XTA    CO811054  -7.828  28.996  -6.125
    1XTA    CO911055  -7.968  29.023  -6.312
    1XTA    OA611056  -7.708  28.953  -6.068
    1XTA   HL4211057  -7.913  28.941  -6.102
    1XTA   HL4311058  -7.851  29.096  -6.077
    1XTA   HL4811059  -8.018  28.924  -6.312
    1XTA   HL4911060  -7.965  29.056  -6.410
    1XTA     NT11061  -5.167  26.311 -10.748
    1XTA    CN111062  -5.112  26.215 -10.827
    1XTA     C111063  -5.026  26.251 -10.931
    1XTA     C211064  -4.953  26.152 -10.997
    1XTA     C311065  -4.985  26.019 -10.979
    1XTA     C411066  -5.089  25.982 -10.893
    1XTA     C511067  -5.147  26.080 -10.813
    1XTA    CN211068  -5.294  26.347 -10.737
    1XTA     C611069  -5.351  26.445 -10.821
    1XTA     C711070  -5.482  26.483 -10.788
    1XTA     C811071  -5.561  26.419 -10.696
    1XTA     C911072  -5.502  26.323 -10.611
    1XTA    C1011073  -5.367  26.287 -10.626
    1XTA    CN311074  -5.093  26.363 -10.649
    1XTA    C1111075  -5.090  26.506 -10.627
    1XTA    C1211076  -5.030  26.567 -10.516
    1XTA    C1311077  -4.956  26.479 -10.430
    1XTA    C1411078  -4.950  26.339 -10.453
    1XTA    C1511079  -5.027  26.279 -10.556
    1XTA     H111080  -4.997  26.358 -10.931
    1XTA     H211081  -4.879  26.183 -11.072
    1XTA     H311082  -5.112  25.876 -10.877
    1XTA     H411083  -5.213  26.061 -10.734
    1XTA     H511084  -5.295  26.497 -10.893
    1XTA     H611085  -5.537  26.567 -10.833
    1XTA     H711086  -5.561  26.283 -10.528
    1XTA     H811087  -5.319  26.206 -10.569
    1XTA     H911088  -5.139  26.568 -10.699
    1XTA    H1011089  -5.041  26.670 -10.490
    1XTA    H1111090  -4.899  26.277 -10.386
    1XTA    H1211091  -5.044  26.171 -10.571
    1XTA    OA111092  -4.910  25.922 -11.050
    1XTA    CO111093  -4.954  25.781 -11.031
    1XTA    OA211094  -5.688  26.460 -10.675
    1XTA    CO211095  -5.712  26.523 -10.552
    1XTA    CL111096  -5.650  26.660 -10.549
    1XTA    CL211097  -5.659  26.732 -10.412
    1XTA    CL311098  -5.565  26.848 -10.391
    1XTA    CL411099  -5.590  26.957 -10.487
    1XTA    CO311100  -5.505  27.075 -10.433
    1XTA    OA311101  -5.365  27.040 -10.441
    1XTA    CO411102  -5.278  27.145 -10.471
    1XTA    CT111103  -5.141  27.103 -10.479
    1XTA    CL511104  -5.106  26.999 -10.372
    1XTA    CL611105  -5.154  27.027 -10.225
    1XTA    OA411106  -4.884  26.530 -10.320
    1XTA    CO511107  -4.897  26.669 -10.301
    1XTA    HL111108  -4.999  26.691 -10.284
    1XTA    HL211109  -4.937  25.751 -10.926
    1XTA    HL311110  -5.061  25.760 -11.041
    1XTA    HL411111  -4.901  25.715 -11.100
    1XTA    HL511112  -5.820  26.533 -10.541
    1XTA    HL611113  -5.666  26.462 -10.473
    1XTA    HL711114  -5.691  26.720 -10.634
    1XTA    HL811115  -5.547  26.652 -10.582
    1XTA    HL911116  -5.633  26.660 -10.333
    1XTA   HL1011117  -5.772  26.749 -10.403
    1XTA   HL1111118  -5.574  26.888 -10.288
    1XTA   HL1211119  -5.457  26.822 -10.409
    1XTA   HL1311120  -5.695  26.977 -10.492
    1XTA   HL1411121  -5.556  26.929 -10.594
    1XTA   HL1511122  -5.517  27.170 -10.496
    1XTA   HL1611123  -5.536  27.109 -10.334
    1XTA   HL1711124  -5.296  27.199 -10.569
    1XTA   HL1811125  -5.300  27.218 -10.394
    1XTA   HL1911126  -4.993  26.985 -10.370
    1XTA   HL2011127  -5.141  26.905 -10.403
    1XTA   HL2111128  -5.111  27.115 -10.190
    1XTA   HL2211129  -5.118  26.948 -10.154
    1XTA   HL2311130  -5.260  27.042 -10.211
    1XTA   HL2411131  -4.873  26.716 -10.393
    1XTA   HL2511132  -4.843  26.704 -10.205
    1XTA    CO811133  -5.051  27.226 -10.451
    1XTA    CO911134  -5.111  27.049 -10.617
    1XTA    OA611135  -5.088  27.333 -10.536
    1XTA   HL4211136  -4.944  27.212 -10.454
    1XTA   HL4311137  -5.070  27.266 -10.356
    1XTA   HL4811138  -5.193  26.976 -10.630
    1XTA   HL4911139  -5.133  27.129 -10.682
    1XTA     NT11140  -8.153  27.343 -10.072
    1XTA    CN111141  -8.239  27.439 -10.108
    1XTA     C111142  -8.212  27.510 -10.227
    1XTA     C211143  -8.309  27.602 -10.277
    1XTA     C311144  -8.424  27.630 -10.202
    1XTA     C411145  -8.445  27.565 -10.077
    1XTA     C511146  -8.357  27.463 -10.032
    1XTA    CN211147  -8.120  27.243 -10.155
    1XTA     C611148  -8.174  27.114 -10.127
    1XTA     C711149  -8.138  27.009 -10.209
    1XTA     C811150  -8.046  27.019 -10.315
    1XTA     C911151  -7.987  27.146 -10.344
    1XTA    C1011152  -8.024  27.250 -10.262
    1XTA    CN311153  -8.085  27.351  -9.956
    1XTA    C1111154  -7.982  27.451  -9.950
    1XTA    C1211155  -7.884  27.458  -9.848
    1XTA    C1311156  -7.886  27.358  -9.744
    1XTA    C1411157  -7.996  27.260  -9.749
    1XTA    C1511158  -8.097  27.262  -9.852
    1XTA     H111159  -8.125  27.492 -10.281
    1XTA     H211160  -8.292  27.652 -10.370
    1XTA     H311161  -8.531  27.591 -10.013
    1XTA     H411162  -8.377  27.400  -9.948
    1XTA     H511163  -8.241  27.104 -10.047
    1XTA     H611164  -8.176  26.909 -10.185
    1XTA     H711165  -7.916  27.164 -10.429
    1XTA     H811166  -7.983  27.347 -10.261
    1XTA     H911167  -7.967  27.504 -10.036
    1XTA    H1011168  -7.805  27.525  -9.860
    1XTA    H1111169  -7.999  27.181  -9.676
    1XTA    H1211170  -8.177  27.190  -9.849
    1XTA    OA111171  -8.516  27.713 -10.260
    1XTA    CO111172  -8.609  27.779 -10.177
    1XTA    OA211173  -8.017  26.912 -10.391
    1XTA    CO211174  -7.885  26.865 -10.376
    1XTA    CL111175  -7.867  26.777 -10.255
    1XTA    CL211176  -7.731  26.714 -10.238
    1XTA    CL311177  -7.684  26.630 -10.362
    1XTA    CL411178  -7.596  26.514 -10.319
    1XTA    CO311179  -7.683  26.397 -10.275
    1XTA    OA311180  -7.598  26.306 -10.209
    1XTA    CO411181  -7.552  26.205 -10.297
    1XTA    CT111182  -7.437  26.125 -10.251
    1XTA    CL511183  -7.464  26.030 -10.123
    1XTA    CL611184  -7.603  25.959 -10.130
    1XTA    OA411185  -7.774  27.353  -9.661
    1XTA    CO511186  -7.752  27.232  -9.591
    1XTA    HL111187  -7.805  27.233  -9.500
    1XTA    HL211188  -8.676  27.835 -10.234
    1XTA    HL311189  -8.677  27.713 -10.123
    1XTA    HL411190  -8.561  27.853 -10.116
    1XTA    HL511191  -7.861  26.812 -10.468
    1XTA    HL611192  -7.807  26.949 -10.371
    1XTA    HL711193  -7.934  26.688 -10.257
    1XTA    HL811194  -7.889  26.832 -10.161
    1XTA    HL911195  -7.731  26.637 -10.156
    1XTA   HL1011196  -7.664  26.789 -10.205
    1XTA   HL1111197  -7.765  26.591 -10.426
    1XTA   HL1211198  -7.625  26.695 -10.434
    1XTA   HL1311199  -7.538  26.542 -10.233
    1XTA   HL1411200  -7.527  26.472 -10.394
    1XTA   HL1511201  -7.757  26.445 -10.206
    1XTA   HL1611202  -7.742  26.351 -10.353
    1XTA   HL1711203  -7.637  26.139 -10.320
    1XTA   HL1811204  -7.522  26.257 -10.391
    1XTA   HL1911205  -7.458  26.108 -10.042
    1XTA   HL2011206  -7.387  25.953 -10.111
    1XTA   HL2111207  -7.690  26.035 -10.131
    1XTA   HL2211208  -7.614  25.890 -10.056
    1XTA   HL2311209  -7.614  25.910 -10.220
    1XTA   HL2411210  -7.644  27.231  -9.569
    1XTA   HL2511211  -7.783  27.144  -9.652
    1XTA    CO811212  -7.323  26.217 -10.223
    1XTA    CO911213  -7.387  26.029 -10.375
    1XTA    OA611214  -7.229  26.143 -10.150
    1XTA   HL4211215  -7.365  26.294 -10.167
    1XTA   HL4311216  -7.277  26.246 -10.317
    1XTA   HL4811217  -7.425  25.931 -10.352
    1XTA   HL4911218  -7.285  26.003 -10.379
    1XTA     NT11219  -3.952  28.702  -8.553
    1XTA    CN111220  -4.020  28.685  -8.667
    1XTA     C111221  -4.098  28.788  -8.723
    1XTA     C211222  -4.155  28.767  -8.847
    1XTA     C311223  -4.159  28.641  -8.908
    1XTA     C411224  -4.103  28.534  -8.836
    1XTA     C511225  -4.032  28.555  -8.715
    1XTA    CN211226  -3.818  28.699  -8.546
    1XTA     C611227  -3.737  28.742  -8.652
    1XTA     C711228  -3.598  28.716  -8.646
    1XTA     C811229  -3.532  28.668  -8.533
    1XTA     C911230  -3.613  28.630  -8.425
    1XTA    C1011231  -3.751  28.643  -8.428
    1XTA    CN311232  -4.030  28.720  -8.444
    1XTA    C1111233  -4.077  28.601  -8.375
    1XTA    C1211234  -4.175  28.615  -8.276
    1XTA    C1311235  -4.222  28.740  -8.235
    1XTA    C1411236  -4.171  28.853  -8.302
    1XTA    C1511237  -4.069  28.848  -8.395
    1XTA     H111238  -4.111  28.880  -8.667
    1XTA     H211239  -4.203  28.849  -8.896
    1XTA     H311240  -4.115  28.432  -8.872
    1XTA     H411241  -3.986  28.473  -8.656
    1XTA     H511242  -3.766  28.797  -8.731
    1XTA     H611243  -3.544  28.732  -8.734
    1XTA     H711244  -3.568  28.587  -8.339
    1XTA     H811245  -3.809  28.613  -8.348
    1XTA     H911246  -4.038  28.499  -8.395
    1XTA    H1011247  -4.210  28.523  -8.231
    1XTA    H1111248  -4.215  28.946  -8.272
    1XTA    H1211249  -4.030  28.943  -8.439
    1XTA    OA111250  -4.226  28.618  -9.026
    1XTA    CO111251  -4.191  28.720  -9.121
    1XTA    OA211252  -3.398  28.634  -8.525
    1XTA    CO211253  -3.310  28.678  -8.621
    1XTA    CL111254  -3.164  28.636  -8.579
    1XTA    CL211255  -3.065  28.621  -8.696
    1XTA    CL311256  -3.079  28.705  -8.818
    1XTA    CL411257  -3.086  28.860  -8.808
    1XTA    CO311258  -3.088  28.936  -8.941
    1XTA    OA311259  -3.198  28.906  -9.022
    1XTA    CO411260  -3.324  28.922  -8.962
    1XTA    CT111261  -3.425  28.916  -9.076
    1XTA    CL511262  -3.403  29.030  -9.183
    1XTA    CL611263  -3.425  29.172  -9.132
    1XTA    OA411264  -4.306  28.753  -8.127
    1XTA    CO511265  -4.360  28.638  -8.067
    1XTA    HL111266  -4.286  28.580  -8.020
    1XTA    HL211267  -4.261  28.805  -9.110
    1XTA    HL311268  -4.091  28.752  -9.120
    1XTA    HL411269  -4.201  28.682  -9.226
    1XTA    HL511270  -3.331  28.628  -8.717
    1XTA    HL611271  -3.329  28.785  -8.634
    1XTA    HL711272  -3.161  28.544  -8.518
    1XTA    HL811273  -3.121  28.712  -8.516
    1XTA    HL911274  -3.054  28.513  -8.710
    1XTA   HL1011275  -2.967  28.662  -8.652
    1XTA   HL1111276  -2.987  28.696  -8.875
    1XTA   HL1211277  -3.153  28.670  -8.893
    1XTA   HL1311278  -3.008  28.883  -8.745
    1XTA   HL1411279  -3.171  28.897  -8.753
    1XTA   HL1511280  -3.086  29.047  -8.918
    1XTA   HL1611281  -3.002  28.904  -9.004
    1XTA   HL1711282  -3.343  28.845  -8.890
    1XTA   HL1811283  -3.335  29.023  -8.910
    1XTA   HL1911284  -3.471  29.014  -9.261
    1XTA   HL2011285  -3.301  29.015  -9.227
    1XTA   HL2111286  -3.532  29.201  -9.131
    1XTA   HL2211287  -3.366  29.223  -9.200
    1XTA   HL2311288  -3.386  29.203  -9.033
    1XTA   HL2411289  -4.416  28.579  -8.134
    1XTA   HL2511290  -4.428  28.663  -7.996
    1XTA    CO811291  -3.562  28.901  -9.036
    1XTA    CO911292  -3.438  28.786  -9.149
    1XTA    OA611293  -3.575  28.801  -9.090
    1XTA   HL4211294  -3.637  28.972  -9.085
    1XTA   HL4311295  -3.589  28.905  -8.933
    1XTA   HL4811296  -3.358  28.685  -9.091
    1XTA   HL4911297  -3.428  28.794  -9.256
    1XTA     NT11298  -2.037  25.758  -7.317
    1XTA    CN111299  -2.035  25.727  -7.445
    1XTA     C111300  -1.934  25.786  -7.526
    1XTA     C211301  -1.941  25.790  -7.671
    1XTA     C311302  -2.060  25.740  -7.731
    1XTA     C411303  -2.158  25.687  -7.649
    1XTA     C511304  -2.148  25.677  -7.510
    1XTA    CN211305  -2.060  25.886  -7.281
    1XTA     C611306  -2.186  25.944  -7.292
    1XTA     C711307  -2.211  26.080  -7.262
    1XTA     C811308  -2.099  26.159  -7.221
    1XTA     C911309  -1.969  26.097  -7.209
    1XTA    C1011310  -1.952  25.962  -7.245
    1XTA    CN311311  -2.023  25.658  -7.220
    1XTA    C1111312  -2.120  25.645  -7.115
    1XTA    C1211313  -2.113  25.533  -7.032
    1XTA    C1311314  -2.011  25.439  -7.046
    1XTA    C1411315  -1.916  25.452  -7.143
    1XTA    C1511316  -1.921  25.556  -7.235
    1XTA     H111317  -1.855  25.826  -7.484
    1XTA     H211318  -1.857  25.836  -7.723
    1XTA     H311319  -2.245  25.646  -7.696
    1XTA     H411320  -2.237  25.648  -7.451
    1XTA     H511321  -2.270  25.894  -7.329
    1XTA     H611322  -2.301  26.122  -7.288
    1XTA     H711323  -1.876  26.155  -7.176
    1XTA     H811324  -1.854  25.924  -7.246
    1XTA     H911325  -2.207  25.711  -7.104
    1XTA    H1011326  -2.194  25.505  -6.959
    1XTA    H1111327  -1.842  25.375  -7.151
    1XTA    H1211328  -1.847  25.560  -7.312
    1XTA    OA111329  -2.094  25.753  -7.865
    1XTA    CO111330  -1.985  25.754  -7.953
    1XTA    OA211331  -2.105  26.296  -7.204
    1XTA    CO211332  -2.228  26.350  -7.167
    1XTA    CL111333  -2.212  26.503  -7.150
    1XTA    CL211334  -2.337  26.576  -7.090
    1XTA    CL311335  -2.326  26.729  -7.095
    1XTA    CL411336  -2.368  26.790  -7.227
    1XTA    CO311337  -2.388  26.943  -7.227
    1XTA    OA311338  -2.503  26.968  -7.149
    1XTA    CO411339  -2.519  27.105  -7.133
    1XTA    CT111340  -2.613  27.141  -7.018
    1XTA    CL511341  -2.756  27.094  -7.062
    1XTA    CL611342  -2.858  27.089  -6.945
    1XTA    OA411343  -2.013  25.328  -6.963
    1XTA    CO511344  -1.958  25.220  -7.021
    1XTA    HL111345  -2.005  25.191  -7.112
    1XTA    HL211346  -1.948  25.658  -7.961
    1XTA    HL311347  -2.031  25.789  -8.051
    1XTA    HL411348  -1.908  25.822  -7.934
    1XTA    HL511349  -2.295  26.329  -7.243
    1XTA    HL611350  -2.260  26.293  -7.079
    1XTA    HL711351  -2.184  26.544  -7.248
    1XTA    HL811352  -2.132  26.527  -7.085
    1XTA    HL911353  -2.353  26.542  -6.982
    1XTA   HL1011354  -2.425  26.535  -7.142
    1XTA   HL1111355  -2.390  26.765  -7.012
    1XTA   HL1211356  -2.224  26.756  -7.071
    1XTA   HL1311357  -2.460  26.736  -7.260
    1XTA   HL1411358  -2.296  26.766  -7.304
    1XTA   HL1511359  -2.302  26.989  -7.179
    1XTA   HL1611360  -2.400  26.978  -7.332
    1XTA   HL1711361  -2.431  27.162  -7.115
    1XTA   HL1811362  -2.558  27.153  -7.217
    1XTA   HL1911363  -2.748  26.992  -7.111
    1XTA   HL2011364  -2.784  27.168  -7.135
    1XTA   HL2111365  -2.958  27.073  -6.968
    1XTA   HL2211366  -2.854  27.179  -6.882
    1XTA   HL2311367  -2.831  27.009  -6.877
    1XTA   HL2411368  -1.974  25.140  -6.955
    1XTA   HL2511369  -1.849  25.221  -7.031
    1XTA    CO811370  -2.605  27.293  -6.992
    1XTA    CO911371  -2.557  27.070  -6.894
    1XTA    OA611372  -2.648  27.325  -6.903
    1XTA   HL4211373  -2.649  27.354  -7.069
    1XTA   HL4311374  -2.496  27.314  -6.995
    1XTA   HL4811375  -2.560  26.929  -6.890
    1XTA   HL4911376  -2.625  27.099  -6.809
    1XTA     NT11377  -8.107  29.817  -8.485
    1XTA    CN111378  -8.196  29.756  -8.400
    1XTA     C111379  -8.159  29.646  -8.315
    1XTA     C211380  -8.252  29.586  -8.228
    1XTA     C311381  -8.388  29.630  -8.235
    1XTA     C411382  -8.423  29.737  -8.315
    1XTA     C511383  -8.331  29.804  -8.395
    1XTA    CN211384  -7.985  29.845  -8.437
    1XTA     C611385  -7.963  29.900  -8.312
    1XTA     C711386  -7.828  29.917  -8.264
    1XTA     C811387  -7.724  29.863  -8.337
    1XTA     C911388  -7.750  29.814  -8.470
    1XTA    C1011389  -7.877  29.799  -8.513
    1XTA    CN311390  -8.147  29.868  -8.606
    1XTA    C1111391  -8.161  29.782  -8.718
    1XTA    C1211392  -8.198  29.828  -8.847
    1XTA    C1311393  -8.220  29.966  -8.862
    1XTA    C1411394  -8.202  30.059  -8.754
    1XTA    C1511395  -8.169  30.009  -8.627
    1XTA     H111396  -8.055  29.622  -8.310
    1XTA     H211397  -8.217  29.498  -8.163
    1XTA     H311398  -8.524  29.775  -8.309
    1XTA     H411399  -8.369  29.872  -8.464
    1XTA     H511400  -8.046  29.931  -8.257
    1XTA     H611401  -7.813  29.956  -8.163
    1XTA     H711402  -7.665  29.790  -8.531
    1XTA     H811403  -7.891  29.754  -8.605
    1XTA     H911404  -8.151  29.674  -8.707
    1XTA    H1011405  -8.199  29.766  -8.929
    1XTA    H1111406  -8.227  30.166  -8.757
    1XTA    H1211407  -8.157  30.071  -8.539
    1XTA    OA111408  -8.488  29.581  -8.155
    1XTA    CO111409  -8.443  29.498  -8.046
    1XTA    OA211410  -7.603  29.879  -8.284
    1XTA    CO211411  -7.495  29.898  -8.379
    1XTA    CL111412  -7.366  29.944  -8.308
    1XTA    CL211413  -7.335  29.866  -8.181
    1XTA    CL311414  -7.337  29.713  -8.202
    1XTA    CL411415  -7.352  29.633  -8.078
    1XTA    CO311416  -7.412  29.497  -8.088
    1XTA    OA311417  -7.412  29.433  -7.959
    1XTA    CO411418  -7.476  29.307  -7.969
    1XTA    CT111419  -7.497  29.237  -7.828
    1XTA    CL511420  -7.383  29.257  -7.727
    1XTA    CL611421  -7.241  29.193  -7.766
    1XTA    OA411422  -8.236  30.007  -8.992
    1XTA    CO511423  -8.300  30.127  -9.022
    1XTA    HL111424  -8.399  30.127  -8.981
    1XTA    HL211425  -8.397  29.403  -8.077
    1XTA    HL311426  -8.365  29.550  -7.988
    1XTA    HL411427  -8.532  29.472  -7.996
    1XTA    HL511428  -7.475  29.807  -8.423
    1XTA    HL611429  -7.520  29.964  -8.466
    1XTA    HL711430  -7.364  30.053  -8.283
    1XTA    HL811431  -7.281  29.908  -8.373
    1XTA    HL911432  -7.410  29.898  -8.107
    1XTA   HL1011433  -7.234  29.894  -8.155
    1XTA   HL1111434  -7.406  29.675  -8.279
    1XTA   HL1211435  -7.229  29.698  -8.239
    1XTA   HL1311436  -7.402  29.699  -8.014
    1XTA   HL1411437  -7.257  29.617  -8.035
    1XTA   HL1511438  -7.517  29.504  -8.115
    1XTA   HL1611439  -7.366  29.438  -8.162
    1XTA   HL1711440  -7.575  29.314  -8.001
    1XTA   HL1811441  -7.416  29.239  -8.026
    1XTA   HL1911442  -7.408  29.219  -7.624
    1XTA   HL2011443  -7.361  29.365  -7.715
    1XTA   HL2111444  -7.156  29.270  -7.764
    1XTA   HL2211445  -7.238  29.153  -7.866
    1XTA   HL2311446  -7.220  29.107  -7.698
    1XTA   HL2411447  -8.304  30.136  -9.132
    1XTA   HL2511448  -8.262  30.217  -8.984
    1XTA    CO811449  -7.524  29.087  -7.839
    1XTA    CO911450  -7.619  29.300  -7.766
    1XTA    OA611451  -7.635  29.273  -7.657
    1XTA   HL4211452  -7.506  29.033  -7.743
    1XTA   HL4311453  -7.421  29.045  -7.928
    1XTA   HL4811454  -7.704  29.274  -7.823
    1XTA   HL4911455  -7.616  29.411  -7.766
    1XTA     NT11456  -2.374  24.598  -5.973
    1XTA    CN111457  -2.284  24.518  -5.908
    1XTA     C111458  -2.261  24.519  -5.771
    1XTA     C211459  -2.161  24.439  -5.715
    1XTA     C311460  -2.080  24.356  -5.791
    1XTA     C411461  -2.097  24.363  -5.937
    1XTA     C511462  -2.200  24.439  -5.994
    1XTA    CN211463  -2.502  24.572  -5.988
    1XTA     C611464  -2.580  24.573  -5.871
    1XTA     C711465  -2.724  24.548  -5.880
    1XTA     C811466  -2.782  24.514  -6.003
    1XTA     C911467  -2.703  24.522  -6.117
    1XTA    C1011468  -2.567  24.560  -6.117
    1XTA    CN311469  -2.335  24.727  -5.974
    1XTA    C1111470  -2.377  24.818  -5.875
    1XTA    C1211471  -2.322  24.946  -5.869
    1XTA    C1311472  -2.235  24.993  -5.971
    1XTA    C1411473  -2.197  24.906  -6.076
    1XTA    C1511474  -2.240  24.773  -6.074
    1XTA     H111475  -2.322  24.584  -5.709
    1XTA     H211476  -2.147  24.438  -5.603
    1XTA     H311477  -2.052  24.291  -5.996
    1XTA     H411478  -2.223  24.440  -6.102
    1XTA     H511479  -2.536  24.575  -5.770
    1XTA     H611480  -2.792  24.549  -5.789
    1XTA     H711481  -2.751  24.490  -6.210
    1XTA     H811482  -2.512  24.554  -6.212
    1XTA     H911483  -2.445  24.792  -5.793
    1XTA    H1011484  -2.355  25.013  -5.793
    1XTA    H1111485  -2.134  24.940  -6.153
    1XTA    H1211486  -2.220  24.698  -6.155
    1XTA    OA111487  -2.000  24.276  -5.719
    1XTA    CO111488  -1.924  24.176  -5.783
    1XTA    OA211489  -2.917  24.508  -6.033
    1XTA    CO211490  -3.012  24.536  -5.932
    1XTA    CL111491  -3.154  24.556  -5.990
    1XTA    CL211492  -3.158  24.680  -6.077
    1XTA    CL311493  -3.262  24.678  -6.183
    1XTA    CL411494  -3.270  24.811  -6.263
    1XTA    CO311495  -3.376  24.804  -6.374
    1XTA    OA311496  -3.333  24.881  -6.481
    1XTA    CO411497  -3.419  24.897  -6.591
    1XTA    CT111498  -3.347  24.978  -6.697
    1XTA    CL511499  -3.204  24.919  -6.726
    1XTA    CL611500  -3.207  24.776  -6.774
    1XTA    OA411501  -2.179  25.121  -5.965
    1XTA    CO511502  -2.214  25.206  -5.857
    1XTA    HL111503  -2.205  25.162  -5.759
    1XTA    HL211504  -1.996  24.106  -5.814
    1XTA    HL311505  -1.879  24.209  -5.870
    1XTA    HL411506  -1.857  24.126  -5.701
    1XTA    HL511507  -2.999  24.448  -5.870
    1XTA    HL611508  -2.995  24.628  -5.877
    1XTA    HL711509  -3.235  24.559  -5.918
    1XTA    HL811510  -3.175  24.475  -6.064
    1XTA    HL911511  -3.066  24.696  -6.132
    1XTA   HL1011512  -3.175  24.772  -6.016
    1XTA   HL1111513  -3.230  24.601  -6.255
    1XTA   HL1211514  -3.346  24.654  -6.123
    1XTA   HL1311515  -3.176  24.834  -6.307
    1XTA   HL1411516  -3.297  24.888  -6.196
    1XTA   HL1511517  -3.388  24.699  -6.418
    1XTA   HL1611518  -3.474  24.852  -6.337
    1XTA   HL1711519  -3.441  24.801  -6.630
    1XTA   HL1811520  -3.516  24.937  -6.579
    1XTA   HL1911521  -3.157  24.927  -6.633
    1XTA   HL2011522  -3.145  24.972  -6.802
    1XTA   HL2111523  -3.241  24.709  -6.694
    1XTA   HL2211524  -3.104  24.741  -6.795
    1XTA   HL2311525  -3.271  24.770  -6.863
    1XTA   HL2411526  -2.314  25.265  -5.864
    1XTA   HL2511527  -2.137  25.286  -5.848
    1XTA    CO811528  -3.332  25.122  -6.658
    1XTA    CO911529  -3.427  24.976  -6.822
    1XTA    OA611530  -3.557  25.032  -6.797
    1XTA   HL4211531  -3.428  25.157  -6.619
    1XTA   HL4311532  -3.277  25.128  -6.565
    1XTA   HL4811533  -3.445  24.877  -6.854
    1XTA   HL4911534  -3.379  25.041  -6.903
    1XTA     NT11535  -4.312  28.842  -6.128
    1XTA    CN111536  -4.338  28.948  -6.058
    1XTA     C111537  -4.470  28.979  -6.013
    1XTA     C211538  -4.487  29.094  -5.930
    1XTA     C311539  -4.383  29.185  -5.907
    1XTA     C411540  -4.265  29.165  -5.976
    1XTA     C511541  -4.239  29.052  -6.052
    1XTA    CN211542  -4.287  28.860  -6.261
    1XTA     C611543  -4.163  28.813  -6.308
    1XTA     C711544  -4.128  28.829  -6.445
    1XTA     C811545  -4.218  28.894  -6.532
    1XTA     C911546  -4.346  28.930  -6.490
    1XTA    C1011547  -4.378  28.913  -6.358
    1XTA    CN311548  -4.346  28.715  -6.092
    1XTA    C1111549  -4.434  28.646  -6.177
    1XTA    C1211550  -4.462  28.511  -6.157
    1XTA    C1311551  -4.395  28.436  -6.053
    1XTA    C1411552  -4.294  28.500  -5.976
    1XTA    C1511553  -4.273  28.641  -5.994
    1XTA     H111554  -4.545  28.899  -6.040
    1XTA     H211555  -4.591  29.114  -5.888
    1XTA     H311556  -4.180  29.227  -5.957
    1XTA     H411557  -4.140  29.050  -6.094
    1XTA     H511558  -4.101  28.769  -6.234
    1XTA     H611559  -4.035  28.804  -6.487
    1XTA     H711560  -4.412  28.979  -6.557
    1XTA     H811561  -4.477  28.937  -6.318
    1XTA     H911562  -4.488  28.703  -6.248
    1XTA    H1011563  -4.534  28.466  -6.223
    1XTA    H1111564  -4.247  28.442  -5.903
    1XTA    H1211565  -4.200  28.698  -5.934
    1XTA    OA111566  -4.402  29.302  -5.838
    1XTA    CO111567  -4.492  29.300  -5.738
    1XTA    OA211568  -4.173  28.913  -6.660
    1XTA    CO211569  -4.212  29.030  -6.723
    1XTA    CL111570  -4.315  29.022  -6.835
    1XTA    CL211571  -4.356  29.163  -6.884
    1XTA    CL311572  -4.460  29.154  -6.984
    1XTA    CL411573  -4.566  29.258  -6.962
    1XTA    CO311574  -4.687  29.236  -7.064
    1XTA    OA311575  -4.789  29.317  -7.028
    1XTA    CO411576  -4.896  29.310  -7.118
    1XTA    CT111577  -5.029  29.364  -7.062
    1XTA    CL511578  -5.080  29.268  -6.950
    1XTA    CL611579  -5.089  29.119  -6.990
    1XTA    OA411580  -4.428  28.305  -6.038
    1XTA    CO511581  -4.366  28.232  -5.930
    1XTA    HL111582  -4.397  28.285  -5.839
    1XTA    HL211583  -4.487  29.394  -5.690
    1XTA    HL311584  -4.598  29.292  -5.752
    1XTA    HL411585  -4.462  29.225  -5.669
    1XTA    HL511586  -4.245  29.087  -6.636
    1XTA    HL611587  -4.121  29.073  -6.760
    1XTA    HL711588  -4.407  28.967  -6.800
    1XTA    HL811589  -4.273  28.968  -6.917
    1XTA    HL911590  -4.264  29.201  -6.929
    1XTA   HL1011591  -4.378  29.235  -6.800
    1XTA   HL1111592  -4.417  29.146  -7.082
    1XTA   HL1211593  -4.507  29.053  -6.971
    1XTA   HL1311594  -4.538  29.369  -6.963
    1XTA   HL1411595  -4.607  29.251  -6.865
    1XTA   HL1511596  -4.638  29.278  -7.158
    1XTA   HL1611597  -4.704  29.129  -7.075
    1XTA   HL1711598  -4.877  29.375  -7.208
    1XTA   HL1811599  -4.901  29.215  -7.178
    1XTA   HL1911600  -5.185  29.306  -6.921
    1XTA   HL2011601  -5.027  29.291  -6.861
    1XTA   HL2111602  -5.150  29.101  -7.079
    1XTA   HL2211603  -5.129  29.071  -6.903
    1XTA   HL2311604  -4.995  29.059  -6.994
    1XTA   HL2411605  -4.263  28.227  -5.945
    1XTA   HL2511606  -4.388  28.130  -5.917
    1XTA    CO811607  -5.139  29.367  -7.174
    1XTA    CO911608  -5.023  29.508  -7.003
    1XTA    OA611609  -5.149  29.549  -6.956
    1XTA   HL4211610  -5.233  29.370  -7.124
    1XTA   HL4311611  -5.141  29.264  -7.209
    1XTA   HL4811612  -4.971  29.565  -7.077
    1XTA   HL4911613  -4.958  29.504  -6.914
    1XTA     NT11614  -2.539  25.908  -7.530
    1XTA    CN111615  -2.461  26.016  -7.550
    1XTA     C111616  -2.327  26.000  -7.581
    1XTA     C211617  -2.236  26.102  -7.599
    1XTA     C311618  -2.284  26.236  -7.582
    1XTA     C411619  -2.421  26.251  -7.556
    1XTA     C511620  -2.507  26.148  -7.544
    1XTA    CN211621  -2.534  25.846  -7.412
    1XTA     C611622  -2.488  25.713  -7.405
    1XTA     C711623  -2.463  25.656  -7.277
    1XTA     C811624  -2.494  25.725  -7.160
    1XTA     C911625  -2.545  25.857  -7.172
    1XTA    C1011626  -2.570  25.918  -7.297
    1XTA    CN311627  -2.612  25.870  -7.631
    1XTA    C1111628  -2.548  25.810  -7.738
    1XTA    C1211629  -2.617  25.763  -7.851
    1XTA    C1311630  -2.763  25.771  -7.856
    1XTA    C1411631  -2.827  25.832  -7.748
    1XTA    C1511632  -2.754  25.886  -7.637
    1XTA     H111633  -2.292  25.894  -7.583
    1XTA     H211634  -2.135  26.072  -7.625
    1XTA     H311635  -2.463  26.354  -7.535
    1XTA     H411636  -2.609  26.164  -7.509
    1XTA     H511637  -2.463  25.662  -7.497
    1XTA     H611638  -2.414  25.562  -7.277
    1XTA     H711639  -2.560  25.914  -7.084
    1XTA     H811640  -2.608  26.018  -7.306
    1XTA     H911641  -2.441  25.802  -7.729
    1XTA    H1011642  -2.563  25.720  -7.935
    1XTA    H1111643  -2.937  25.834  -7.737
    1XTA    H1211644  -2.805  25.936  -7.555
    1XTA    OA111645  -2.203  26.347  -7.580
    1XTA    CO111646  -2.071  26.321  -7.539
    1XTA    OA211647  -2.462  25.670  -7.037
    1XTA    CO211648  -2.432  25.766  -6.937
    1XTA    CL111649  -2.388  25.688  -6.814
    1XTA    CL211650  -2.327  25.781  -6.704
    1XTA    CL311651  -2.414  25.890  -6.651
    1XTA    CL411652  -2.527  25.832  -6.569
    1XTA    CO311653  -2.654  25.827  -6.647
    1XTA    OA311654  -2.767  25.790  -6.568
    1XTA    CO411655  -2.815  25.888  -6.480
    1XTA    CT111656  -2.948  25.853  -6.409
    1XTA    CL511657  -3.062  25.899  -6.497
    1XTA    CL611658  -3.045  25.859  -6.644
    1XTA    OA411659  -2.831  25.721  -7.963
    1XTA    CO511660  -2.760  25.631  -8.043
    1XTA    HL111661  -2.704  25.561  -7.987
    1XTA    HL211662  -2.009  26.260  -7.598
    1XTA    HL311663  -2.030  26.419  -7.528
    1XTA    HL411664  -2.069  26.271  -7.440
    1XTA    HL511665  -2.359  25.833  -6.968
    1XTA    HL611666  -2.512  25.834  -6.906
    1XTA    HL711667  -2.303  25.633  -6.839
    1XTA    HL811668  -2.468  25.629  -6.780
    1XTA    HL911669  -2.238  25.823  -6.744
    1XTA   HL1011670  -2.296  25.722  -6.614
    1XTA   HL1111671  -2.355  25.949  -6.590
    1XTA   HL1211672  -2.444  25.951  -6.739
    1XTA   HL1311673  -2.540  25.892  -6.478
    1XTA   HL1411674  -2.500  25.730  -6.533
    1XTA   HL1511675  -2.685  25.919  -6.692
    1XTA   HL1611676  -2.646  25.752  -6.725
    1XTA   HL1711677  -2.737  25.916  -6.406
    1XTA   HL1811678  -2.827  25.983  -6.537
    1XTA   HL1911679  -3.062  26.005  -6.512
    1XTA   HL2011680  -3.160  25.875  -6.459
    1XTA   HL2111681  -3.131  25.898  -6.705
    1XTA   HL2211682  -3.047  25.750  -6.664
    1XTA   HL2311683  -2.954  25.911  -6.694
    1XTA   HL2411684  -2.676  25.668  -8.098
    1XTA   HL2511685  -2.825  25.579  -8.106
    1XTA    CO811686  -2.948  25.910  -6.267
    1XTA    CO911687  -2.965  25.701  -6.389
    1XTA    OA611688  -3.092  25.655  -6.356
    1XTA   HL4211689  -2.887  25.850  -6.198
    1XTA   HL4311690  -3.050  25.918  -6.233
    1XTA   HL4811691  -2.885  25.655  -6.330
    1XTA   HL4911692  -2.932  25.648  -6.484
    1XTA     NT11693  -8.457  25.789  -6.776
    1XTA    CN111694  -8.496  25.710  -6.677
    1XTA     C111695  -8.557  25.588  -6.709
    1XTA     C211696  -8.608  25.497  -6.612
    1XTA     C311697  -8.597  25.533  -6.477
    1XTA     C411698  -8.540  25.656  -6.445
    1XTA     C511699  -8.496  25.745  -6.541
    1XTA    CN211700  -8.546  25.831  -6.878
    1XTA     C611701  -8.580  25.749  -6.989
    1XTA     C711702  -8.670  25.795  -7.090
    1XTA     C811703  -8.727  25.920  -7.080
    1XTA     C911704  -8.699  26.001  -6.961
    1XTA    C1011705  -8.610  25.959  -6.863
    1XTA    CN311706  -8.325  25.807  -6.800
    1XTA    C1111707  -8.255  25.911  -6.731
    1XTA    C1211708  -8.121  25.940  -6.767
    1XTA    C1311709  -8.056  25.863  -6.865
    1XTA    C1411710  -8.133  25.769  -6.937
    1XTA    C1511711  -8.263  25.739  -6.907
    1XTA     H111712  -8.569  25.556  -6.806
    1XTA     H211713  -8.652  25.403  -6.642
    1XTA     H311714  -8.530  25.678  -6.340
    1XTA     H411715  -8.446  25.832  -6.512
    1XTA     H511716  -8.523  25.656  -6.997
    1XTA     H611717  -8.703  25.732  -7.170
    1XTA     H711718  -8.738  26.102  -6.957
    1XTA     H811719  -8.588  26.022  -6.783
    1XTA     H911720  -8.309  25.957  -6.650
    1XTA    H1011721  -8.073  26.009  -6.700
    1XTA    H1111722  -8.069  25.716  -7.003
    1XTA    H1211723  -8.319  25.666  -6.963
    1XTA    OA111724  -8.645  25.455  -6.375
    1XTA    CO111725  -8.673  25.317  -6.400
    1XTA    OA211726  -8.807  25.959  -7.186
    1XTA    CO211727  -8.799  26.098  -7.218
    1XTA    CL111728  -8.924  26.158  -7.161
    1XTA    CL211729  -8.961  26.299  -7.196
    1XTA    CL311730  -9.048  26.372  -7.095
    1XTA    CL411731  -8.972  26.396  -6.961
    1XTA    CO311732  -9.066  26.449  -6.853
    1XTA    OA311733  -9.172  26.359  -6.823
    1XTA    CO411734  -9.262  26.421  -6.743
    1XTA    CT111735  -9.370  26.319  -6.703
    1XTA    CL511736  -9.473  26.307  -6.819
    1XTA    CL611737  -9.585  26.209  -6.787
    1XTA    OA411738  -7.926  25.884  -6.904
    1XTA    CO511739  -7.836  25.922  -6.799
    1XTA    HL111740  -7.848  26.031  -6.780
    1XTA    HL211741  -8.760  25.312  -6.465
    1XTA    HL311742  -8.590  25.259  -6.450
    1XTA    HL411743  -8.706  25.264  -6.306
    1XTA    HL511744  -8.703  26.137  -7.186
    1XTA    HL611745  -8.805  26.107  -7.326
    1XTA    HL711746  -8.921  26.145  -7.055
    1XTA    HL811747  -9.008  26.103  -7.193
    1XTA    HL911748  -9.028  26.297  -7.283
    1XTA   HL1011749  -8.865  26.350  -7.203
    1XTA   HL1111750  -9.072  26.472  -7.133
    1XTA   HL1211751  -9.142  26.309  -7.071
    1XTA   HL1311752  -8.898  26.471  -6.977
    1XTA   HL1411753  -8.916  26.305  -6.931
    1XTA   HL1511754  -9.008  26.477  -6.768
    1XTA   HL1611755  -9.116  26.539  -6.897
    1XTA   HL1711756  -9.211  26.461  -6.654
    1XTA   HL1811757  -9.310  26.497  -6.810
    1XTA   HL1911758  -9.417  26.267  -6.908
    1XTA   HL2011759  -9.506  26.399  -6.849
    1XTA   HL2111760  -9.543  26.115  -6.753
    1XTA   HL2211761  -9.644  26.191  -6.874
    1XTA   HL2311762  -9.645  26.237  -6.709
    1XTA   HL2411763  -7.740  25.887  -6.820
    1XTA   HL2511764  -7.864  25.867  -6.715
    1XTA    CO811765  -9.436  26.355  -6.572
    1XTA    CO911766  -9.305  26.181  -6.672
    1XTA    OA611767  -9.479  26.451  -6.588
    1XTA   HL4211768  -9.364  26.342  -6.493
    1XTA   HL4311769  -9.512  26.276  -6.554
    1XTA   HL4811770  -9.244  26.146  -6.799
    1XTA   HL4911771  -9.215  26.198  -6.609
    1XTA     NT11772  -6.482  26.861  -4.208
    1XTA    CN111773  -6.481  26.990  -4.255
    1XTA     C111774  -6.418  27.023  -4.377
    1XTA     C211775  -6.401  27.159  -4.426
    1XTA     C311776  -6.447  27.265  -4.350
    1XTA     C411777  -6.503  27.233  -4.224
    1XTA     C511778  -6.518  27.101  -4.179
    1XTA    CN211779  -6.564  26.772  -4.273
    1XTA     C611780  -6.521  26.648  -4.310
    1XTA     C711781  -6.607  26.553  -4.359
    1XTA     C811782  -6.743  26.575  -4.375
    1XTA     C911783  -6.790  26.702  -4.334
    1XTA    C1011784  -6.700  26.800  -4.281
    1XTA    CN311785  -6.387  26.817  -4.124
    1XTA    C1111786  -6.255  26.786  -4.178
    1XTA    C1211787  -6.159  26.746  -4.093
    1XTA    C1311788  -6.171  26.755  -3.953
    1XTA    C1411789  -6.294  26.804  -3.905
    1XTA    C1511790  -6.407  26.830  -3.984
    1XTA     H111791  -6.380  26.943  -4.433
    1XTA     H211792  -6.353  27.158  -4.522
    1XTA     H311793  -6.536  27.314  -4.164
    1XTA     H411794  -6.561  27.076  -4.083
    1XTA     H511795  -6.421  26.614  -4.293
    1XTA     H611796  -6.566  26.458  -4.391
    1XTA     H711797  -6.896  26.718  -4.335
    1XTA     H811798  -6.741  26.887  -4.241
    1XTA     H911799  -6.231  26.789  -4.286
    1XTA    H1011800  -6.072  26.692  -4.134
    1XTA    H1111801  -6.305  26.814  -3.797
    1XTA    H1211802  -6.493  26.855  -3.940
    1XTA    OA111803  -6.433  27.397  -4.382
    1XTA    CO111804  -6.408  27.439  -4.515
    1XTA    OA211805  -6.838  26.486  -4.421
    1XTA    CO211806  -6.782  26.364  -4.458
    1XTA    CL111807  -6.903  26.267  -4.478
    1XTA    CL211808  -6.867  26.120  -4.503
    1XTA    CL311809  -6.790  26.116  -4.637
    1XTA    CL411810  -6.776  25.974  -4.692
    1XTA    CO311811  -6.654  25.951  -4.785
    1XTA    OA311812  -6.639  26.062  -4.869
    1XTA    CO411813  -6.525  26.052  -4.949
    1XTA    CT111814  -6.527  26.173  -5.042
    1XTA    CL511815  -6.568  26.307  -4.963
    1XTA    CL611816  -6.463  26.354  -4.865
    1XTA    OA411817  -6.073  26.725  -3.860
    1XTA    CO511818  -5.972  26.636  -3.903
    1XTA    HL111819  -5.903  26.609  -3.828
    1XTA    HL211820  -6.320  27.379  -4.547
    1XTA    HL311821  -6.490  27.411  -4.579
    1XTA    HL411822  -6.373  27.540  -4.524
    1XTA    HL511823  -6.718  26.386  -4.544
    1XTA    HL611824  -6.723  26.324  -4.378
    1XTA    HL711825  -6.982  26.295  -4.550
    1XTA    HL811826  -6.957  26.264  -4.392
    1XTA    HL911827  -6.955  26.058  -4.505
    1XTA   HL1011828  -6.794  26.090  -4.424
    1XTA   HL1111829  -6.841  26.179  -4.709
    1XTA   HL1211830  -6.695  26.164  -4.619
    1XTA   HL1311831  -6.869  25.954  -4.747
    1XTA   HL1411832  -6.764  25.897  -4.615
    1XTA   HL1511833  -6.567  25.945  -4.728
    1XTA   HL1611834  -6.664  25.862  -4.855
    1XTA   HL1711835  -6.443  26.061  -4.877
    1XTA   HL1811836  -6.511  25.958  -5.002
    1XTA   HL1911837  -6.671  26.295  -4.915
    1XTA   HL2011838  -6.574  26.397  -5.033
    1XTA   HL2111839  -6.361  26.373  -4.908
    1XTA   HL2211840  -6.446  26.296  -4.781
    1XTA   HL2311841  -6.493  26.449  -4.814
    1XTA   HL2411842  -5.919  26.666  -3.994
    1XTA   HL2511843  -6.018  26.540  -3.929
    1XTA    CO811844  -6.631  26.143  -5.151
    1XTA    CO911845  -6.388  26.182  -5.109
    1XTA    OA611846  -6.388  26.269  -5.178
    1XTA   HL4211847  -6.647  26.238  -5.209
    1XTA   HL4311848  -6.761  26.123  -5.092
    1XTA   HL4811849  -6.359  26.091  -5.158
    1XTA   HL4911850  -6.320  26.189  -5.027
    1XTA     NT11851  -3.428  28.903 -11.358
    1XTA    CN111852  -3.353  28.817 -11.427
    1XTA     C111853  -3.274  28.734 -11.349
    1XTA     C211854  -3.187  28.646 -11.413
    1XTA     C311855  -3.184  28.638 -11.556
    1XTA     C411856  -3.257  28.731 -11.638
    1XTA     C511857  -3.338  28.819 -11.567
    1XTA    CN211858  -3.378  29.032 -11.345
    1XTA     C611859  -3.246  29.047 -11.281
    1XTA     C711860  -3.192  29.176 -11.291
    1XTA     C811861  -3.255  29.289 -11.349
    1XTA     C911862  -3.385  29.273 -11.390
    1XTA    C1011863  -3.443  29.144 -11.394
    1XTA    CN311864  -3.560  28.881 -11.349
    1XTA    C1111865  -3.637  28.849 -11.464
    1XTA    C1211866  -3.777  28.815 -11.453
    1XTA    C1311867  -3.843  28.827 -11.334
    1XTA    C1411868  -3.769  28.868 -11.218
    1XTA    C1511869  -3.630  28.879 -11.226
    1XTA     H111870  -3.275  28.737 -11.244
    1XTA     H211871  -3.127  28.576 -11.359
    1XTA     H311872  -3.247  28.729 -11.747
    1XTA     H411873  -3.392  28.890 -11.627
    1XTA     H511874  -3.199  28.963 -11.235
    1XTA     H611875  -3.094  29.188 -11.261
    1XTA     H711876  -3.438  29.353 -11.438
    1XTA     H811877  -3.540  29.131 -11.441
    1XTA     H911878  -3.580  28.831 -11.559
    1XTA    H1011879  -3.826  28.783 -11.542
    1XTA    H1111880  -3.818  28.882 -11.124
    1XTA    H1211881  -3.575  28.896 -11.140
    1XTA    OA111882  -3.089  28.553 -11.609
    1XTA    CO111883  -3.047  28.583 -11.742
    1XTA    OA211884  -3.188  29.413 -11.363
    1XTA    CO211885  -3.049  29.422 -11.314
    1XTA    CL111886  -2.959  29.340 -11.404
    1XTA    CL211887  -2.812  29.318 -11.374
    1XTA    CL311888  -2.731  29.255 -11.490
    1XTA    CL411889  -2.579  29.237 -11.463
    1XTA    CO311890  -2.500  29.185 -11.585
    1XTA    OA311891  -2.365  29.173 -11.546
    1XTA    CO411892  -2.278  29.151 -11.656
    1XTA    CT111893  -2.143  29.076 -11.621
    1XTA    CL511894  -2.174  28.928 -11.573
    1XTA    CL611895  -2.260  28.843 -11.666
    1XTA    OA411896  -3.976  28.814 -11.320
    1XTA    CO511897  -4.050  28.786 -11.435
    1XTA    HL111898  -4.021  28.697 -11.494
    1XTA    HL211899  -3.129  28.557 -11.814
    1XTA    HL311900  -3.015  28.692 -11.759
    1XTA    HL411901  -2.960  28.527 -11.770
    1XTA    HL511902  -3.017  29.530 -11.317
    1XTA    HL611903  -3.046  29.381 -11.216
    1XTA    HL711904  -2.966  29.399 -11.496
    1XTA    HL811905  -2.997  29.242 -11.433
    1XTA    HL911906  -2.797  29.263 -11.287
    1XTA   HL1011907  -2.757  29.410 -11.356
    1XTA   HL1111908  -2.781  29.154 -11.501
    1XTA   HL1211909  -2.741  29.306 -11.582
    1XTA   HL1311910  -2.562  29.163 -11.382
    1XTA   HL1411911  -2.533  29.327 -11.418
    1XTA   HL1511912  -2.533  29.086 -11.610
    1XTA   HL1611913  -2.516  29.265 -11.659
    1XTA   HL1711914  -2.325  29.102 -11.738
    1XTA   HL1811915  -2.247  29.247 -11.692
    1XTA   HL1911916  -2.229  28.938 -11.488
    1XTA   HL2011917  -2.083  28.882 -11.538
    1XTA   HL2111918  -2.217  28.847 -11.765
    1XTA   HL2211919  -2.369  28.870 -11.681
    1XTA   HL2311920  -2.272  28.738 -11.644
    1XTA   HL2411921  -4.035  28.870 -11.497
    1XTA   HL2511922  -4.157  28.787 -11.404
    1XTA    CO811923  -2.052  29.152 -11.523
    1XTA    CO911924  -2.062  29.069 -11.757
    1XTA    OA611925  -1.964  29.027 -11.737
    1XTA   HL4211926  -2.010  29.228 -11.573
    1XTA   HL4311927  -2.134  29.208 -11.431
    1XTA   HL4811928  -2.063  29.169 -11.789
    1XTA   HL4911929  -2.112  29.009 -11.837
    1XTA     NT11930  -4.611  32.612 -10.220
    1XTA    CN111931  -4.535  32.697 -10.294
    1XTA     C111932  -4.597  32.795 -10.367
    1XTA     C211933  -4.525  32.896 -10.435
    1XTA     C311934  -4.384  32.883 -10.439
    1XTA     C411935  -4.320  32.780 -10.366
    1XTA     C511936  -4.394  32.683 -10.298
    1XTA    CN211937  -4.600  32.606 -10.088
    1XTA     C611938  -4.704  32.664 -10.014
    1XTA     C711939  -4.714  32.636  -9.880
    1XTA     C811940  -4.607  32.574  -9.814
    1XTA     C911941  -4.497  32.524  -9.892
    1XTA    C1011942  -4.497  32.538 -10.029
    1XTA    CN311943  -4.653  32.507 -10.297
    1XTA    C1111944  -4.585  32.386 -10.288
    1XTA    C1211945  -4.616  32.276 -10.370
    1XTA    C1311946  -4.731  32.284 -10.450
    1XTA    C1411947  -4.815  32.397 -10.452
    1XTA    C1511948  -4.770  32.505 -10.374
    1XTA     H111949  -4.705  32.799 -10.357
    1XTA     H211950  -4.584  32.975 -10.481
    1XTA     H311951  -4.212  32.756 -10.370
    1XTA     H411952  -4.339  32.607 -10.238
    1XTA     H511953  -4.784  32.720 -10.070
    1XTA     H611954  -4.798  32.674  -9.823
    1XTA     H711955  -4.416  32.473  -9.845
    1XTA     H811956  -4.414  32.494 -10.082
    1XTA     H911957  -4.491  32.380 -10.229
    1XTA    H1011958  -4.552  32.194 -10.372
    1XTA    H1111959  -4.907  32.410 -10.508
    1XTA    H1211960  -4.818  32.598 -10.386
    1XTA    OA111961  -4.306  32.956 -10.526
    1XTA    CO111962  -4.375  33.070 -10.573
    1XTA    OA211963  -4.601  32.550  -9.682
    1XTA    CO211964  -4.725  32.537  -9.614
    1XTA    CL111965  -4.713  32.410  -9.525
    1XTA    CL211966  -4.848  32.343  -9.514
    1XTA    CL311967  -4.850  32.205  -9.467
    1XTA    CL411968  -4.810  32.104  -9.579
    1XTA    CO311969  -4.934  32.033  -9.644
    1XTA    OA311970  -4.894  31.942  -9.741
    1XTA    CO411971  -4.842  32.005  -9.852
    1XTA    CT111972  -4.812  31.912  -9.970
    1XTA    CL511973  -4.805  31.988 -10.103
    1XTA    CL611974  -4.766  31.916 -10.236
    1XTA    OA411975  -4.752  32.175 -10.534
    1XTA    CO511976  -4.822  32.203 -10.653
    1XTA    HL111977  -4.919  32.253 -10.628
    1XTA    HL211978  -4.304  33.133 -10.627
    1XTA    HL311979  -4.449  33.050 -10.651
    1XTA    HL411980  -4.420  33.128 -10.495
    1XTA    HL511981  -4.749  32.626  -9.555
    1XTA    HL611982  -4.807  32.516  -9.679
    1XTA    HL711983  -4.664  32.429  -9.423
    1XTA    HL811984  -4.644  32.333  -9.557
    1XTA    HL911985  -4.910  32.342  -9.600
    1XTA   HL1011986  -4.908  32.399  -9.438
    1XTA   HL1111987  -4.781  32.195  -9.383
    1XTA   HL1211988  -4.950  32.162  -9.428
    1XTA   HL1311989  -4.737  32.025  -9.539
    1XTA   HL1411990  -4.758  32.162  -9.660
    1XTA   HL1511991  -5.002  31.983  -9.565
    1XTA   HL1611992  -4.990  32.117  -9.686
    1XTA   HL1711993  -4.909  32.073  -9.900
    1XTA   HL1811994  -4.762  32.077  -9.843
    1XTA   HL1911995  -4.729  32.066 -10.094
    1XTA   HL2011996  -4.906  32.027 -10.122
    1XTA   HL2111997  -4.673  31.865 -10.241
    1XTA   HL2211998  -4.757  31.992 -10.315
    1XTA   HL2311999  -4.834  31.837 -10.262
    1XTA   HL2412000  -4.847  32.120 -10.713
    1XTA   HL2512001  -4.777  32.276 -10.726
    1XTA    CO812002  -4.922  31.809  -9.985
    1XTA    CO912003  -4.676  31.839  -9.930
    1XTA    OA612004  -5.042  31.876  -9.976
    1XTA   HL4212005  -4.928  31.734  -9.900
    1XTA   HL4312006  -4.932  31.769 -10.081
    1XTA   HL4812007  -4.648  31.749  -9.985
    1XTA   HL4912008  -4.686  31.808  -9.822
    1XTA     NT12009  -7.080  24.257  -9.867
    1XTA    CN112010  -6.983  24.224  -9.953
    1XTA     C112011  -6.997  24.235 -10.090
    1XTA     C212012  -6.885  24.201 -10.175
    1XTA     C312013  -6.763  24.165 -10.128
    1XTA     C412014  -6.745  24.162  -9.990
    1XTA     C512015  -6.855  24.187  -9.902
    1XTA    CN212016  -7.059  24.340  -9.763
    1XTA     C612017  -7.034  24.281  -9.637
    1XTA     C712018  -7.020  24.358  -9.521
    1XTA     C812019  -7.010  24.499  -9.538
    1XTA     C912020  -7.020  24.562  -9.664
    1XTA    C1012021  -7.039  24.477  -9.777
    1XTA    CN312022  -7.208  24.242  -9.902
    1XTA    C1112023  -7.277  24.331  -9.981
    1XTA    C1212024  -7.413  24.313 -10.016
    1XTA    C1312025  -7.480  24.194  -9.980
    1XTA    C1412026  -7.413  24.107  -9.892
    1XTA    C1512027  -7.278  24.129  -9.856
    1XTA     H112028  -7.088  24.259 -10.142
    1XTA     H212029  -6.899  24.202 -10.279
    1XTA     H312030  -6.650  24.131  -9.951
    1XTA     H412031  -6.834  24.174  -9.798
    1XTA     H512032  -7.035  24.175  -9.623
    1XTA     H612033  -7.023  24.305  -9.425
    1XTA     H712034  -7.001  24.666  -9.687
    1XTA     H812035  -7.060  24.509  -9.873
    1XTA     H912036  -7.222  24.414 -10.022
    1XTA    H1012037  -7.465  24.395 -10.067
    1XTA    H1112038  -7.472  24.026  -9.844
    1XTA    H1212039  -7.216  24.069  -9.789
    1XTA    OA112040  -6.664  24.135 -10.224
    1XTA    CO112041  -6.541  24.098 -10.168
    1XTA    OA212042  -6.981  24.588  -9.438
    1XTA    CO212043  -6.939  24.530  -9.313
    1XTA    CL112044  -6.915  24.643  -9.207
    1XTA    CL212045  -6.849  24.580  -9.087
    1XTA    CL312046  -6.836  24.687  -8.987
    1XTA    CL412047  -6.709  24.769  -9.016
    1XTA    CO312048  -6.669  24.864  -8.896
    1XTA    OA312049  -6.786  24.917  -8.846
    1XTA    CO412050  -6.762  24.959  -8.716
    1XTA    CT112051  -6.883  25.028  -8.657
    1XTA    CL512052  -6.834  25.103  -8.522
    1XTA    CL612053  -6.947  25.174  -8.453
    1XTA    OA412054  -7.616  24.177 -10.003
    1XTA    CO512055  -7.695  24.074  -9.939
    1XTA    HL112056  -7.650  23.978  -9.936
    1XTA    HL212057  -6.509  24.162 -10.087
    1XTA    HL312058  -6.537  23.998 -10.132
    1XTA    HL412059  -6.464  24.112 -10.236
    1XTA    HL512060  -7.012  24.459  -9.266
    1XTA    HL612061  -6.844  24.473  -9.331
    1XTA    HL712062  -7.003  24.698  -9.189
    1XTA    HL812063  -6.851  24.719  -9.245
    1XTA    HL912064  -6.754  24.541  -9.104
    1XTA   HL1012065  -6.918  24.514  -9.037
    1XTA   HL1112066  -6.922  24.752  -8.982
    1XTA   HL1212067  -6.828  24.643  -8.891
    1XTA   HL1312068  -6.733  24.834  -9.100
    1XTA   HL1412069  -6.622  24.711  -9.043
    1XTA   HL1512070  -6.614  24.803  -8.820
    1XTA   HL1612071  -6.615  24.941  -8.940
    1XTA   HL1712072  -6.734  24.873  -8.649
    1XTA   HL1812073  -6.684  25.025  -8.715
    1XTA   HL1912074  -6.761  25.184  -8.540
    1XTA   HL2012075  -6.777  25.037  -8.456
    1XTA   HL2112076  -7.010  25.233  -8.527
    1XTA   HL2212077  -6.909  25.250  -8.381
    1XTA   HL2312078  -7.020  25.113  -8.402
    1XTA   HL2412079  -7.796  24.068  -9.985
    1XTA   HL2512080  -7.698  24.105  -9.833
    1XTA    CO812081  -6.989  24.922  -8.618
    1XTA    CO912082  -6.938  25.129  -8.757
    1XTA    OA612083  -6.839  25.219  -8.802
    1XTA   HL4212084  -7.076  24.970  -8.574
    1XTA   HL4312085  -7.033  24.864  -8.706
    1XTA   HL4812086  -7.021  25.183  -8.716
    1XTA   HL4912087  -6.963  25.068  -8.842
    1XTA     NT12088  -1.493  30.831  -8.746
    1XTA    CN112089  -1.604  30.907  -8.744
    1XTA     C112090  -1.623  31.012  -8.837
    1XTA     C212091  -1.736  31.096  -8.829
    1XTA     C312092  -1.819  31.084  -8.717
    1XTA     C412093  -1.799  30.977  -8.628
    1XTA     C512094  -1.692  30.894  -8.640
    1XTA    CN212095  -1.502  30.717  -8.823
    1XTA     C612096  -1.517  30.730  -8.961
    1XTA     C712097  -1.522  30.614  -9.039
    1XTA     C812098  -1.520  30.483  -8.985
    1XTA     C912099  -1.503  30.471  -8.851
    1XTA    C1012100  -1.497  30.588  -8.768
    1XTA    CN312101  -1.373  30.885  -8.711
    1XTA    C1112102  -1.357  31.011  -8.654
    1XTA    C1212103  -1.235  31.067  -8.621
    1XTA    C1312104  -1.121  30.999  -8.646
    1XTA    C1412105  -1.126  30.873  -8.717
    1XTA    C1512106  -1.255  30.817  -8.744
    1XTA     H112107  -1.563  31.037  -8.921
    1XTA     H212108  -1.740  31.178  -8.890
    1XTA     H312109  -1.871  30.976  -8.539
    1XTA     H412110  -1.681  30.822  -8.563
    1XTA     H512111  -1.528  30.828  -9.004
    1XTA     H612112  -1.550  30.635  -9.140
    1XTA     H712113  -1.488  30.371  -8.805
    1XTA     H812114  -1.500  30.579  -8.661
    1XTA     H912115  -1.453  31.065  -8.641
    1XTA    H1012116  -1.235  31.166  -8.579
    1XTA    H1112117  -1.040  30.809  -8.747
    1XTA    H1212118  -1.267  30.724  -8.804
    1XTA    OA112119  -1.926  31.162  -8.685
    1XTA    CO112120  -1.984  31.230  -8.803
    1XTA    OA212121  -1.534  30.379  -9.071
    1XTA    CO212122  -1.532  30.251  -9.014
    1XTA    CL112123  -1.539  30.148  -9.126
    1XTA    CL212124  -1.537  30.012  -9.072
    1XTA    CL312125  -1.559  29.904  -9.169
    1XTA    CL412126  -1.589  29.777  -9.097
    1XTA    CO312127  -1.585  29.648  -9.186
    1XTA    OA312128  -1.666  29.663  -9.302
    1XTA    CO412129  -1.782  29.583  -9.307
    1XTA    CT112130  -1.861  29.619  -9.439
    1XTA    CL512131  -1.991  29.541  -9.445
    1XTA    CL612132  -2.001  29.401  -9.396
    1XTA    OA412133  -1.001  31.047  -8.599
    1XTA    CO512134  -0.883  30.985  -8.647
    1XTA    HL112135  -0.888  30.885  -8.610
    1XTA    HL212136  -2.060  31.309  -8.782
    1XTA    HL312137  -1.915  31.284  -8.873
    1XTA    HL412138  -2.038  31.157  -8.865
    1XTA    HL512139  -1.433  30.238  -8.963
    1XTA    HL612140  -1.614  30.226  -8.944
    1XTA    HL712141  -1.455  30.162  -9.188
    1XTA    HL812142  -1.625  30.165  -9.186
    1XTA    HL912143  -1.611  30.003  -8.995
    1XTA   HL1012144  -1.440  29.999  -9.021
    1XTA   HL1112145  -1.642  29.925  -9.240
    1XTA   HL1212146  -1.473  29.897  -9.229
    1XTA   HL1312147  -1.692  29.786  -9.064
    1XTA   HL1412148  -1.526  29.771  -9.008
    1XTA   HL1512149  -1.489  29.632  -9.226
    1XTA   HL1612150  -1.596  29.554  -9.133
    1XTA   HL1712151  -1.758  29.474  -9.298
    1XTA   HL1812152  -1.846  29.600  -9.219
    1XTA   HL1912153  -2.011  29.551  -9.549
    1XTA   HL2012154  -2.067  29.598  -9.397
    1XTA   HL2112155  -1.976  29.390  -9.285
    1XTA   HL2212156  -1.932  29.338  -9.458
    1XTA   HL2312157  -2.100  29.358  -9.405
    1XTA   HL2412158  -0.797  31.039  -8.606
    1XTA   HL2512159  -0.878  30.978  -8.760
    1XTA    CO812160  -1.767  29.590  -9.559
    1XTA    CO912161  -1.909  29.769  -9.437
    1XTA    OA612162  -1.715  29.492  -9.555
    1XTA   HL4212163  -1.699  29.677  -9.571
    1XTA   HL4312164  -1.836  29.595  -9.639
    1XTA   HL4812165  -1.800  29.844  -9.443
    1XTA   HL4912166  -1.981  29.788  -9.357
    1XTA     NT12167  -7.396  25.017  -7.884
    1XTA    CN112168  -7.401  24.909  -7.808
    1XTA     C112169  -7.521  24.879  -7.740
    1XTA     C212170  -7.527  24.770  -7.654
    1XTA     C312171  -7.410  24.691  -7.629
    1XTA     C412172  -7.292  24.720  -7.694
    1XTA     C512173  -7.287  24.823  -7.786
    1XTA    CN212174  -7.315  25.123  -7.861
    1XTA     C612175  -7.361  25.239  -7.797
    1XTA     C712176  -7.269  25.339  -7.760
    1XTA     C812177  -7.134  25.335  -7.794
    1XTA     C912178  -7.088  25.225  -7.870
    1XTA    C1012179  -7.175  25.112  -7.896
    1XTA    CN312180  -7.462  25.014  -8.001
    1XTA    C1112181  -7.582  25.085  -8.004
    1XTA    C1212182  -7.663  25.072  -8.115
    1XTA    C1312183  -7.627  24.988  -8.223
    1XTA    C1412184  -7.509  24.915  -8.220
    1XTA    C1512185  -7.420  24.939  -8.117
    1XTA     H112186  -7.608  24.948  -7.741
    1XTA     H212187  -7.624  24.754  -7.612
    1XTA     H312188  -7.204  24.666  -7.678
    1XTA     H412189  -7.186  24.838  -7.838
    1XTA     H512190  -7.466  25.254  -7.766
    1XTA     H612191  -7.310  25.421  -7.699
    1XTA     H712192  -6.979  25.229  -7.904
    1XTA     H812193  -7.138  25.030  -7.949
    1XTA     H912194  -7.609  25.140  -7.919
    1XTA    H1012195  -7.762  25.113  -8.109
    1XTA    H1112196  -7.494  24.836  -8.288
    1XTA    H1212197  -7.324  24.890  -8.118
    1XTA    OA112198  -7.414  24.579  -7.546
    1XTA    CO112199  -7.524  24.550  -7.472
    1XTA    OA212200  -7.055  25.436  -7.742
    1XTA    CO212201  -6.917  25.443  -7.770
    1XTA    CL112202  -6.891  25.567  -7.859
    1XTA    CL212203  -6.942  25.549  -8.004
    1XTA    CL312204  -6.905  25.663  -8.099
    1XTA    CL412205  -6.897  25.614  -8.243
    1XTA    CO312206  -7.033  25.573  -8.300
    1XTA    OA312207  -7.062  25.645  -8.421
    1XTA    CO412208  -7.097  25.780  -8.388
    1XTA    CT112209  -7.122  25.870  -8.506
    1XTA    CL512210  -7.179  26.015  -8.458
    1XTA    CL612211  -7.077  26.115  -8.399
    1XTA    OA412212  -7.722  24.976  -8.319
    1XTA    CO512213  -7.689  24.899  -8.431
    1XTA    HL112214  -7.596  24.936  -8.472
    1XTA    HL212215  -7.611  24.534  -7.534
    1XTA    HL312216  -7.523  24.462  -7.413
    1XTA    HL412217  -7.535  24.624  -7.398
    1XTA    HL512218  -6.865  25.462  -7.678
    1XTA    HL612219  -6.875  25.355  -7.819
    1XTA    HL712220  -6.788  25.569  -7.859
    1XTA    HL812221  -6.930  25.659  -7.807
    1XTA    HL912222  -7.051  25.548  -8.000
    1XTA   HL1012223  -6.929  25.451  -8.036
    1XTA   HL1112224  -6.960  25.752  -8.096
    1XTA   HL1212225  -6.811  25.697  -8.056
    1XTA   HL1312226  -6.836  25.526  -8.258
    1XTA   HL1412227  -6.849  25.695  -8.295
    1XTA   HL1512228  -7.038  25.463  -8.323
    1XTA   HL1612229  -7.114  25.603  -8.232
    1XTA   HL1712230  -7.189  25.777  -8.339
    1XTA   HL1812231  -7.018  25.831  -8.331
    1XTA   HL1912232  -7.268  25.998  -8.396
    1XTA   HL2012233  -7.215  26.061  -8.550
    1XTA   HL2112234  -7.036  26.053  -8.320
    1XTA   HL2212235  -7.115  26.213  -8.365
    1XTA   HL2312236  -6.987  26.136  -8.452
    1XTA   HL2412237  -7.763  24.906  -8.511
    1XTA   HL2512238  -7.673  24.794  -8.413
    1XTA    CO812239  -7.225  25.810  -8.603
    1XTA    CO912240  -6.992  25.875  -8.586
    1XTA    OA612241  -6.879  25.920  -8.514
    1XTA   HL4212242  -7.187  25.709  -8.628
    1XTA   HL4312243  -7.315  25.790  -8.557
    1XTA   HL4812244  -6.997  25.938  -8.671
    1XTA   HL4912245  -6.977  25.773  -8.619
    1XTA     NT12246  -1.654  28.785  -5.227
    1XTA    CN112247  -1.615  28.658  -5.228
    1XTA     C112248  -1.688  28.557  -5.291
    1XTA     C212249  -1.643  28.419  -5.279
    1XTA     C312250  -1.521  28.391  -5.208
    1XTA     C412251  -1.447  28.497  -5.148
    1XTA     C512252  -1.494  28.627  -5.162
    1XTA    CN212253  -1.720  28.832  -5.340
    1XTA     C612254  -1.861  28.825  -5.350
    1XTA     C712255  -1.929  28.871  -5.472
    1XTA     C812256  -1.848  28.931  -5.574
    1XTA     C912257  -1.708  28.949  -5.558
    1XTA    C1012258  -1.644  28.893  -5.446
    1XTA    CN312259  -1.669  28.852  -5.109
    1XTA    C1112260  -1.578  28.951  -5.071
    1XTA    C1212261  -1.597  29.023  -4.955
    1XTA    C1312262  -1.728  29.025  -4.896
    1XTA    C1412263  -1.816  28.919  -4.932
    1XTA    C1512264  -1.782  28.822  -5.032
    1XTA     H112265  -1.790  28.571  -5.326
    1XTA     H212266  -1.700  28.344  -5.322
    1XTA     H312267  -1.354  28.473  -5.109
    1XTA     H412268  -1.431  28.704  -5.136
    1XTA     H512269  -1.917  28.780  -5.269
    1XTA     H612270  -2.036  28.857  -5.469
    1XTA     H712271  -1.648  28.987  -5.633
    1XTA     H812272  -1.539  28.906  -5.432
    1XTA     H912273  -1.491  28.968  -5.132
    1XTA    H1012274  -1.531  29.108  -4.937
    1XTA    H1112275  -1.906  28.916  -4.879
    1XTA    H1212276  -1.854  28.754  -5.072
    1XTA    OA112277  -1.476  28.263  -5.193
    1XTA    CO112278  -1.518  28.171  -5.293
    1XTA    OA212279  -1.899  28.983  -5.687
    1XTA    CO212280  -2.044  28.996  -5.694
    1XTA    CL112281  -2.080  29.070  -5.829
    1XTA    CL212282  -2.089  28.994  -5.958
    1XTA    CL312283  -2.189  29.055  -6.065
    1XTA    CL412284  -2.236  28.952  -6.169
    1XTA    CO312285  -2.128  28.943  -6.278
    1XTA    OA312286  -2.108  29.060  -6.349
    1XTA    CO412287  -2.013  29.051  -6.449
    1XTA    CT112288  -1.888  29.140  -6.432
    1XTA    CL512289  -1.935  29.291  -6.420
    1XTA    CL612290  -1.825  29.398  -6.415
    1XTA    OA412291  -1.773  29.121  -4.809
    1XTA    CO512292  -1.679  29.217  -4.764
    1XTA    HL112293  -1.726  29.295  -4.703
    1XTA    HL212294  -1.454  28.084  -5.276
    1XTA    HL312295  -1.625  28.139  -5.292
    1XTA    HL412296  -1.494  28.215  -5.392
    1XTA    HL512297  -2.084  28.900  -5.689
    1XTA    HL612298  -2.076  29.064  -5.615
    1XTA    HL712299  -2.021  29.164  -5.831
    1XTA    HL812300  -2.178  29.109  -5.813
    1XTA    HL912301  -2.133  28.899  -5.919
    1XTA   HL1012302  -1.997  28.964  -6.002
    1XTA   HL1112303  -2.282  29.089  -6.020
    1XTA   HL1212304  -2.138  29.135  -6.120
    1XTA   HL1312305  -2.325  28.983  -6.206
    1XTA   HL1412306  -2.244  28.860  -6.110
    1XTA   HL1512307  -2.027  28.926  -6.246
    1XTA   HL1612308  -2.161  28.855  -6.339
    1XTA   HL1712309  -1.984  28.942  -6.463
    1XTA   HL1812310  -2.060  29.073  -6.541
    1XTA   HL1912311  -2.004  29.296  -6.328
    1XTA   HL2012312  -1.999  29.306  -6.510
    1XTA   HL2112313  -1.876  29.497  -6.412
    1XTA   HL2212314  -1.758  29.409  -6.496
    1XTA   HL2312315  -1.758  29.391  -6.330
    1XTA   HL2412316  -1.637  29.285  -4.844
    1XTA   HL2512317  -1.613  29.154  -4.704
    1XTA    CO812318  -1.799  29.100  -6.546
    1XTA    CO912319  -1.806  29.104  -6.300
    1XTA    OA612320  -1.822  29.179  -6.659
    1XTA   HL4212321  -1.814  28.997  -6.568
    1XTA   HL4312322  -1.693  29.132  -6.531
    1XTA   HL4812323  -1.857  29.135  -6.215
    1XTA   HL4912324  -1.711  29.157  -6.311
    1XTA     NT12325  -5.586  23.483  -9.749
    1XTA    CN112326  -5.627  23.411  -9.855
    1XTA     C112327  -5.532  23.349  -9.943
    1XTA     C212328  -5.570  23.272 -10.054
    1XTA     C312329  -5.708  23.240 -10.070
    1XTA     C412330  -5.805  23.289  -9.981
    1XTA     C512331  -5.763  23.381  -9.881
    1XTA    CN212332  -5.628  23.607  -9.728
    1XTA     C612333  -5.756  23.610  -9.655
    1XTA     C712334  -5.802  23.736  -9.620
    1XTA     C812335  -5.727  23.856  -9.658
    1XTA     C912336  -5.617  23.847  -9.740
    1XTA    C1012337  -5.557  23.723  -9.775
    1XTA    CN312338  -5.516  23.424  -9.647
    1XTA    C1112339  -5.584  23.338  -9.558
    1XTA    C1212340  -5.519  23.286  -9.441
    1XTA    C1312341  -5.380  23.320  -9.416
    1XTA    C1412342  -5.325  23.415  -9.498
    1XTA    C1512343  -5.380  23.462  -9.622
    1XTA     H112344  -5.431  23.383  -9.936
    1XTA     H212345  -5.503  23.235 -10.131
    1XTA     H312346  -5.910  23.259  -9.998
    1XTA     H412347  -5.834  23.429  -9.812
    1XTA     H512348  -5.812  23.519  -9.628
    1XTA     H612349  -5.896  23.744  -9.569
    1XTA     H712350  -5.566  23.935  -9.770
    1XTA     H812351  -5.461  23.726  -9.819
    1XTA     H912352  -5.687  23.317  -9.594
    1XTA    H1012353  -5.576  23.225  -9.373
    1XTA    H1112354  -5.226  23.436  -9.468
    1XTA    H1212355  -5.328  23.544  -9.681
    1XTA    OA112356  -5.746  23.164 -10.179
    1XTA    CO112357  -5.858  23.076 -10.164
    1XTA    OA212358  -5.764  23.986  -9.625
    1XTA    CO212359  -5.904  24.000  -9.608
    1XTA    CL112360  -5.922  24.151  -9.607
    1XTA    CL212361  -6.072  24.185  -9.617
    1XTA    CL312362  -6.091  24.324  -9.669
    1XTA    CL412363  -6.244  24.356  -9.690
    1XTA    CO312364  -6.301  24.296  -9.815
    1XTA    OA312365  -6.250  24.354  -9.933
    1XTA    CO412366  -6.164  24.262 -10.002
    1XTA    CT112367  -6.085  24.337 -10.110
    1XTA    CL512368  -5.980  24.432 -10.044
    1XTA    CL612369  -5.844  24.380  -9.979
    1XTA    OA412370  -5.309  23.281  -9.304
    1XTA    CO512371  -5.382  23.184  -9.227
    1XTA    HL112372  -5.470  23.233  -9.192
    1XTA    HL212373  -5.943  23.140 -10.179
    1XTA    HL312374  -5.860  22.996 -10.239
    1XTA    HL412375  -5.870  23.029 -10.069
    1XTA    HL512376  -5.935  23.941  -9.695
    1XTA    HL612377  -5.936  23.957  -9.516
    1XTA    HL712378  -5.875  24.200  -9.694
    1XTA    HL812379  -5.882  24.206  -9.524
    1XTA    HL912380  -6.118  24.184  -9.518
    1XTA   HL1012381  -6.124  24.110  -9.670
    1XTA   HL1112382  -6.048  24.398  -9.602
    1XTA   HL1212383  -6.044  24.345  -9.766
    1XTA   HL1312384  -6.260  24.462  -9.699
    1XTA   HL1412385  -6.294  24.314  -9.603
    1XTA   HL1512386  -6.295  24.183  -9.828
    1XTA   HL1612387  -6.410  24.321  -9.806
    1XTA   HL1712388  -6.092  24.218  -9.931
    1XTA   HL1812389  -6.220  24.176 -10.045
    1XTA   HL1912390  -6.021  24.485  -9.962
    1XTA   HL2012391  -5.934  24.504 -10.118
    1XTA   HL2112392  -5.798  24.472  -9.950
    1XTA   HL2212393  -5.790  24.333 -10.056
    1XTA   HL2312394  -5.858  24.327  -9.890
    1XTA   HL2412395  -5.320  23.170  -9.145
    1XTA   HL2512396  -5.409  23.089  -9.274
    1XTA    CO812397  -6.183  24.417 -10.196
    1XTA    CO912398  -6.016  24.239 -10.205
    1XTA    OA612399  -5.939  24.300 -10.310
    1XTA   HL4212400  -6.130  24.452 -10.283
    1XTA   HL4312401  -6.222  24.501 -10.140
    1XTA   HL4812402  -6.078  24.168 -10.242
    1XTA   HL4912403  -5.948  24.175 -10.141
    1XTA     NT12404  -2.908  30.792  -9.962
    1XTA    CN112405  -2.855  30.898  -9.894
    1XTA     C112406  -2.842  31.027  -9.961
    1XTA     C212407  -2.803  31.145  -9.908
    1XTA     C312408  -2.751  31.139  -9.777
    1XTA     C412409  -2.748  31.011  -9.711
    1XTA     C512410  -2.804  30.894  -9.766
    1XTA    CN212411  -3.009  30.727  -9.893
    1XTA     C612412  -2.995  30.590  -9.846
    1XTA     C712413  -3.106  30.529  -9.778
    1XTA     C812414  -3.218  30.598  -9.747
    1XTA     C912415  -3.236  30.731  -9.800
    1XTA    C1012416  -3.133  30.792  -9.881
    1XTA    CN312417  -2.841  30.722 -10.051
    1XTA    C1112418  -2.886  30.708 -10.186
    1XTA    C1212419  -2.802  30.643 -10.279
    1XTA    C1312420  -2.682  30.585 -10.242
    1XTA    C1412421  -2.638  30.605 -10.111
    1XTA    C1512422  -2.711  30.677 -10.019
    1XTA     H112423  -2.872  31.019 -10.063
    1XTA     H212424  -2.800  31.237  -9.969
    1XTA     H312425  -2.691  31.003  -9.623
    1XTA     H412426  -2.794  30.803  -9.718
    1XTA     H512427  -2.903  30.532  -9.861
    1XTA     H612428  -3.093  30.430  -9.736
    1XTA     H712429  -3.327  30.786  -9.778
    1XTA     H812430  -3.139  30.895  -9.911
    1XTA     H912431  -2.990  30.739 -10.211
    1XTA    H1012432  -2.837  30.635 -10.381
    1XTA    H1112433  -2.545  30.573 -10.078
    1XTA    H1212434  -2.676  30.692  -9.918
    1XTA    OA112435  -2.687  31.245  -9.716
    1XTA    CO112436  -2.723  31.375  -9.763
    1XTA    OA212437  -3.324  30.534  -9.679
    1XTA    CO212438  -3.351  30.401  -9.714
    1XTA    CL112439  -3.495  30.395  -9.762
    1XTA    CL212440  -3.523  30.502  -9.871
    1XTA    CL312441  -3.670  30.525  -9.890
    1XTA    CL412442  -3.710  30.627  -9.996
    1XTA    CO312443  -3.671  30.771  -9.971
    1XTA    OA312444  -3.690  30.801  -9.834
    1XTA    CO412445  -3.656  30.934  -9.794
    1XTA    CT112446  -3.666  30.963  -9.644
    1XTA    CL512447  -3.628  31.112  -9.627
    1XTA    CL612448  -3.609  31.165  -9.481
    1XTA    OA412449  -2.630  30.496 -10.332
    1XTA    CO512450  -2.491  30.488 -10.346
    1XTA    HL112451  -2.443  30.466 -10.254
    1XTA    HL212452  -2.837  31.386  -9.752
    1XTA    HL312453  -2.681  31.453  -9.699
    1XTA    HL412454  -2.699  31.404  -9.867
    1XTA    HL512455  -3.297  30.359  -9.808
    1XTA    HL612456  -3.302  30.347  -9.635
    1XTA    HL712457  -3.554  30.419  -9.678
    1XTA    HL812458  -3.524  30.294  -9.802
    1XTA    HL912459  -3.475  30.470  -9.959
    1XTA   HL1012460  -3.469  30.593  -9.848
    1XTA   HL1112461  -3.709  30.433  -9.923
    1XTA   HL1212462  -3.716  30.544  -9.794
    1XTA   HL1312463  -3.820  30.605 -10.003
    1XTA   HL1412464  -3.665  30.597 -10.095
    1XTA   HL1512465  -3.565  30.773 -10.006
    1XTA   HL1612466  -3.727  30.828 -10.045
    1XTA   HL1712467  -3.553  30.945  -9.830
    1XTA   HL1812468  -3.725  31.001  -9.845
    1XTA   HL1912469  -3.718  31.169  -9.662
    1XTA   HL2012470  -3.549  31.146  -9.691
    1XTA   HL2112471  -3.704  31.163  -9.428
    1XTA   HL2212472  -3.573  31.267  -9.481
    1XTA   HL2312473  -3.528  31.109  -9.436
    1XTA   HL2412474  -2.452  30.571 -10.388
    1XTA   HL2512475  -2.477  30.413 -10.422
    1XTA    CO812476  -3.599  30.870  -9.561
    1XTA    CO912477  -3.798  30.923  -9.575
    1XTA    OA612478  -3.692  30.841  -9.498
    1XTA   HL4212479  -3.526  30.908  -9.494
    1XTA   HL4312480  -3.555  30.790  -9.626
    1XTA   HL4812481  -3.888  30.865  -9.664
    1XTA   HL4912482  -3.840  31.005  -9.515
    1XTA     NT12483  -4.607  26.263  -4.271
    1XTA    CN112484  -4.648  26.297  -4.395
    1XTA     C112485  -4.656  26.205  -4.497
    1XTA     C212486  -4.701  26.244  -4.626
    1XTA     C312487  -4.743  26.376  -4.648
    1XTA     C412488  -4.739  26.471  -4.548
    1XTA     C512489  -4.690  26.431  -4.419
    1XTA    CN212490  -4.475  26.245  -4.236
    1XTA     C612491  -4.432  26.255  -4.101
    1XTA     C712492  -4.294  26.233  -4.069
    1XTA     C812493  -4.200  26.209  -4.168
    1XTA     C912494  -4.239  26.194  -4.302
    1XTA    C1012495  -4.374  26.220  -4.334
    1XTA    CN312496  -4.701  26.202  -4.194
    1XTA    C1112497  -4.705  26.068  -4.165
    1XTA    C1212498  -4.811  26.011  -4.101
    1XTA    C1312499  -4.916  26.092  -4.050
    1XTA    C1412500  -4.909  26.232  -4.068
    1XTA    C1512501  -4.801  26.284  -4.133
    1XTA     H112502  -4.644  26.096  -4.487
    1XTA     H212503  -4.702  26.168  -4.711
    1XTA     H312504  -4.776  26.567  -4.564
    1XTA     H412505  -4.685  26.497  -4.336
    1XTA     H512506  -4.511  26.264  -4.022
    1XTA     H612507  -4.267  26.252  -3.966
    1XTA     H712508  -4.162  26.161  -4.371
    1XTA     H812509  -4.403  26.209  -4.433
    1XTA     H912510  -4.623  26.004  -4.199
    1XTA    H1012511  -4.807  25.900  -4.091
    1XTA    H1112512  -4.979  26.299  -4.029
    1XTA    H1212513  -4.802  26.391  -4.144
    1XTA    OA112514  -4.788  26.409  -4.772
    1XTA    CO112515  -4.856  26.529  -4.794
    1XTA    OA212516  -4.064  26.195  -4.138
    1XTA    CO212517  -4.025  26.149  -4.010
    1XTA    CL112518  -3.876  26.111  -4.010
    1XTA    CL212519  -3.827  26.085  -3.865
    1XTA    CL312520  -3.772  26.198  -3.789
    1XTA    CL412521  -3.747  26.161  -3.650
    1XTA    CO312522  -3.703  26.286  -3.564
    1XTA    OA312523  -3.569  26.322  -3.595
    1XTA    CO412524  -3.530  26.441  -3.527
    1XTA    CT112525  -3.378  26.468  -3.549
    1XTA    CL512526  -3.328  26.589  -3.473
    1XTA    CL612527  -3.359  26.592  -3.324
    1XTA    OA412528  -5.028  26.041  -3.986
    1XTA    CO512529  -5.005  25.913  -3.925
    1XTA    HL112530  -5.107  25.885  -3.880
    1XTA    HL212531  -4.927  26.533  -4.713
    1XTA    HL312532  -4.784  26.604  -4.777
    1XTA    HL412533  -4.899  26.550  -4.888
    1XTA    HL512534  -4.040  26.227  -3.937
    1XTA    HL612535  -4.081  26.064  -3.970
    1XTA    HL712536  -3.814  26.188  -4.042
    1XTA    HL812537  -3.860  26.022  -4.072
    1XTA    HL912538  -3.754  26.002  -3.860
    1XTA   HL1012539  -3.920  26.041  -3.811
    1XTA   HL1112540  -3.678  26.227  -3.841
    1XTA   HL1212541  -3.828  26.287  -3.805
    1XTA   HL1312542  -3.676  26.084  -3.633
    1XTA   HL1412543  -3.837  26.120  -3.610
    1XTA   HL1512544  -3.759  26.376  -3.582
    1XTA   HL1612545  -3.700  26.271  -3.452
    1XTA   HL1712546  -3.589  26.524  -3.560
    1XTA   HL1812547  -3.547  26.413  -3.428
    1XTA   HL1912548  -3.383  26.668  -3.525
    1XTA   HL2012549  -3.225  26.610  -3.491
    1XTA   HL2112550  -3.322  26.680  -3.276
    1XTA   HL2212551  -3.308  26.509  -3.273
    1XTA   HL2312552  -3.465  26.583  -3.301
    1XTA   HL2412553  -4.921  25.904  -3.850
    1XTA   HL2512554  -4.983  25.848  -4.007
    1XTA    CO812555  -3.356  26.493  -3.698
    1XTA    CO912556  -3.303  26.346  -3.501
    1XTA    OA612557  -3.198  26.373  -3.479
    1XTA   HL4212558  -3.249  26.525  -3.697
    1XTA   HL4312559  -3.427  26.606  -3.742
    1XTA   HL4812560  -3.313  26.273  -3.573
    1XTA   HL4912561  -3.364  26.310  -3.413
    1XTA     NT12562  -1.302  31.430  -6.035
    1XTA    CN112563  -1.326  31.463  -6.164
    1XTA     C112564  -1.219  31.523  -6.240
    1XTA     C212565  -1.237  31.559  -6.378
    1XTA     C312566  -1.363  31.534  -6.435
    1XTA     C412567  -1.469  31.478  -6.363
    1XTA     C512568  -1.451  31.444  -6.220
    1XTA    CN212569  -1.238  31.317  -6.001
    1XTA     C612570  -1.315  31.201  -5.974
    1XTA     C712571  -1.255  31.086  -5.929
    1XTA     C812572  -1.114  31.072  -5.913
    1XTA     C912573  -1.038  31.186  -5.936
    1XTA    C1012574  -1.098  31.304  -5.981
    1XTA    CN312575  -1.328  31.519  -5.936
    1XTA    C1112576  -1.229  31.616  -5.903
    1XTA    C1212577  -1.257  31.713  -5.805
    1XTA    C1312578  -1.384  31.717  -5.745
    1XTA    C1412579  -1.484  31.620  -5.782
    1XTA    C1512580  -1.455  31.524  -5.877
    1XTA     H112581  -1.127  31.532  -6.192
    1XTA     H212582  -1.161  31.603  -6.436
    1XTA     H312583  -1.562  31.447  -6.415
    1XTA     H412584  -1.529  31.399  -6.164
    1XTA     H512585  -1.422  31.207  -5.976
    1XTA     H612586  -1.322  31.006  -5.915
    1XTA     H712587  -0.935  31.173  -5.924
    1XTA     H812588  -1.026  31.388  -5.991
    1XTA     H912589  -1.131  31.622  -5.951
    1XTA    H1012590  -1.181  31.782  -5.777
    1XTA    H1112591  -1.590  31.616  -5.736
    1XTA    H1212592  -1.540  31.463  -5.908
    1XTA    OA112593  -1.393  31.559  -6.565
    1XTA    CO112594  -1.283  31.574  -6.654
    1XTA    OA212595  -1.043  30.962  -5.879
    1XTA    CO212596  -1.125  30.854  -5.831
    1XTA    CL112597  -1.036  30.757  -5.751
    1XTA    CL212598  -0.962  30.822  -5.633
    1XTA    CL312599  -0.882  30.719  -5.545
    1XTA    CL412600  -0.848  30.785  -5.405
    1XTA    CO312601  -0.751  30.906  -5.416
    1XTA    OA312602  -0.700  30.951  -5.286
    1XTA    CO412603  -0.616  31.063  -5.305
    1XTA    CT112604  -0.547  31.122  -5.181
    1XTA    CL512605  -0.457  31.019  -5.099
    1XTA    CL612606  -0.530  30.894  -5.049
    1XTA    OA412607  -1.424  31.805  -5.649
    1XTA    CO512608  -1.314  31.858  -5.567
    1XTA    HL112609  -1.234  31.779  -5.554
    1XTA    HL212610  -1.202  31.499  -6.636
    1XTA    HL312611  -1.311  31.549  -6.756
    1XTA    HL412612  -1.239  31.673  -6.646
    1XTA    HL512613  -1.202  30.887  -5.762
    1XTA    HL612614  -1.164  30.807  -5.926
    1XTA    HL712615  -0.959  30.704  -5.807
    1XTA    HL812616  -1.094  30.678  -5.706
    1XTA    HL912617  -1.032  30.887  -5.580
    1XTA   HL1012618  -0.883  30.897  -5.667
    1XTA   HL1112619  -0.947  30.634  -5.526
    1XTA   HL1212620  -0.792  30.681  -5.598
    1XTA   HL1312621  -0.782  30.709  -5.362
    1XTA   HL1412622  -0.932  30.806  -5.333
    1XTA   HL1512623  -0.664  30.890  -5.471
    1XTA   HL1612624  -0.798  30.993  -5.462
    1XTA   HL1712625  -0.543  31.037  -5.382
    1XTA   HL1812626  -0.679  31.141  -5.343
    1XTA   HL1912627  -0.398  31.071  -5.020
    1XTA   HL2012628  -0.375  30.987  -5.160
    1XTA   HL2112629  -0.529  30.819  -5.126
    1XTA   HL2212630  -0.631  30.927  -5.022
    1XTA   HL2312631  -0.480  30.852  -4.965
    1XTA   HL2412632  -1.352  31.898  -5.469
    1XTA   HL2512633  -1.274  31.949  -5.618
    1XTA    CO812634  -0.649  31.182  -5.090
    1XTA    CO912635  -0.453  31.240  -5.226
    1XTA    OA612636  -0.609  31.271  -4.984
    1XTA   HL4212637  -0.718  31.114  -5.048
    1XTA   HL4312638  -0.715  31.235  -5.154
    1XTA   HL4812639  -0.427  31.208  -5.327
    1XTA   HL4912640  -0.508  31.328  -5.239
    1XTA     NT12641  -8.534  24.424  -3.958
    1XTA    CN112642  -8.438  24.348  -3.906
    1XTA     C112643  -8.452  24.208  -3.895
    1XTA     C212644  -8.352  24.134  -3.829
    1XTA     C312645  -8.236  24.191  -3.777
    1XTA     C412646  -8.222  24.333  -3.787
    1XTA     C512647  -8.318  24.407  -3.853
    1XTA    CN212648  -8.639  24.463  -3.885
    1XTA     C612649  -8.737  24.373  -3.845
    1XTA     C712650  -8.856  24.414  -3.783
    1XTA     C812651  -8.878  24.546  -3.756
    1XTA     C912652  -8.776  24.643  -3.795
    1XTA    C1012653  -8.667  24.596  -3.862
    1XTA    CN312654  -8.538  24.436  -4.093
    1XTA    C1112655  -8.461  24.533  -4.153
    1XTA    C1212656  -8.454  24.553  -4.294
    1XTA    C1312657  -8.548  24.486  -4.375
    1XTA    C1412658  -8.634  24.387  -4.318
    1XTA    C1512659  -8.627  24.363  -4.176
    1XTA     H112660  -8.527  24.146  -3.931
    1XTA     H212661  -8.360  24.026  -3.831
    1XTA     H312662  -8.142  24.385  -3.729
    1XTA     H412663  -8.316  24.517  -3.854
    1XTA     H512664  -8.708  24.275  -3.859
    1XTA     H612665  -8.939  24.344  -3.755
    1XTA     H712666  -8.768  24.747  -3.776
    1XTA     H812667  -8.587  24.666  -3.888
    1XTA     H912668  -8.389  24.591  -4.089
    1XTA    H1012669  -8.373  24.620  -4.331
    1XTA    H1112670  -8.701  24.322  -4.370
    1XTA    H1212671  -8.695  24.292  -4.130
    1XTA    OA112672  -8.154  24.113  -3.700
    1XTA    CO112673  -8.034  24.175  -3.652
    1XTA    OA212674  -8.984  24.592  -3.684
    1XTA    CO212675  -8.968  24.688  -3.588
    1XTA    CL112676  -9.109  24.750  -3.567
    1XTA    CL212677  -9.156  24.820  -3.697
    1XTA    CL312678  -9.055  24.924  -3.738
    1XTA    CL412679  -9.102  25.022  -3.836
    1XTA    CO312680  -8.987  25.088  -3.904
    1XTA    OA312681  -9.031  25.205  -3.977
    1XTA    CO412682  -8.926  25.296  -4.001
    1XTA    CT112683  -8.988  25.425  -4.050
    1XTA    CL512684  -9.029  25.397  -4.197
    1XTA    CL612685  -9.160  25.328  -4.230
    1XTA    OA412686  -8.549  24.487  -4.512
    1XTA    CO512687  -8.479  24.595  -4.577
    1XTA    HL112688  -8.505  24.625  -4.683
    1XTA    HL212689  -8.052  24.260  -3.586
    1XTA    HL312690  -7.971  24.101  -3.595
    1XTA    HL412691  -7.966  24.203  -3.732
    1XTA    HL512692  -8.932  24.639  -3.496
    1XTA    HL612693  -8.899  24.767  -3.622
    1XTA    HL712694  -9.107  24.819  -3.483
    1XTA    HL812695  -9.185  24.666  -3.558
    1XTA    HL912696  -9.247  24.874  -3.689
    1XTA   HL1012697  -9.174  24.747  -3.774
    1XTA   HL1112698  -9.019  24.963  -3.643
    1XTA   HL1212699  -8.969  24.861  -3.783
    1XTA   HL1312700  -9.170  25.091  -3.782
    1XTA   HL1412701  -9.165  24.979  -3.912
    1XTA   HL1512702  -8.911  25.112  -3.828
    1XTA   HL1612703  -8.932  25.016  -3.964
    1XTA   HL1712704  -8.896  25.316  -3.896
    1XTA   HL1812705  -8.838  25.268  -4.061
    1XTA   HL1912706  -8.949  25.337  -4.247
    1XTA   HL2012707  -9.033  25.494  -4.242
    1XTA   HL2112708  -9.187  25.333  -4.341
    1XTA   HL2212709  -9.236  25.379  -4.167
    1XTA   HL2312710  -9.163  25.227  -4.190
    1XTA   HL2412711  -8.367  24.569  -4.573
    1XTA   HL2512712  -8.499  24.688  -4.523
    1XTA    CO812713  -8.876  25.538  -4.035
    1XTA    CO912714  -9.110  25.460  -3.953
    1XTA    OA612715  -9.145  25.563  -3.947
    1XTA   HL4212716  -8.833  25.524  -3.937
    1XTA   HL4312717  -8.927  25.670  -4.045
    1XTA   HL4812718  -9.079  25.445  -3.852
    1XTA   HL4912719  -9.183  25.388  -3.962
    1XTA     NT12720  -7.881  25.094  -5.355
    1XTA    CN112721  -7.994  25.166  -5.348
    1XTA     C112722  -8.009  25.267  -5.251
    1XTA     C212723  -8.129  25.342  -5.246
    1XTA     C312724  -8.231  25.319  -5.344
    1XTA     C412725  -8.211  25.222  -5.448
    1XTA     C512726  -8.090  25.146  -5.443
    1XTA    CN212727  -7.862  24.994  -5.261
    1XTA     C612728  -7.887  24.858  -5.306
    1XTA     C712729  -7.863  24.750  -5.219
    1XTA     C812730  -7.816  24.766  -5.085
    1XTA     C912731  -7.792  24.896  -5.045
    1XTA    C1012732  -7.808  25.005  -5.132
    1XTA    CN312733  -7.776  25.129  -5.435
    1XTA    C1112734  -7.717  25.258  -5.423
    1XTA    C1212735  -7.605  25.286  -5.502
    1XTA    C1312736  -7.549  25.195  -5.594
    1XTA    C1412737  -7.612  25.071  -5.617
    1XTA    C1512738  -7.725  25.044  -5.537
    1XTA     H112739  -7.924  25.278  -5.182
    1XTA     H212740  -8.139  25.414  -5.165
    1XTA     H312741  -8.284  25.195  -5.518
    1XTA     H412742  -8.092  25.074  -5.519
    1XTA     H512743  -7.918  24.844  -5.414
    1XTA     H612744  -7.878  24.653  -5.250
    1XTA     H712745  -7.761  24.908  -4.942
    1XTA     H812746  -7.779  25.091  -5.095
    1XTA     H912747  -7.736  25.319  -5.338
    1XTA    H1012748  -7.556  25.374  -5.496
    1XTA    H1112749  -7.582  25.000  -5.693
    1XTA    H1212750  -7.774  24.944  -5.553
    1XTA    OA112751  -8.343  25.399  -5.340
    1XTA    CO112752  -8.466  25.354  -5.397
    1XTA    OA212753  -7.775  24.661  -5.003
    1XTA    CO212754  -7.781  24.529  -5.062
    1XTA    CL112755  -7.744  24.420  -4.960
    1XTA    CL212756  -7.606  24.422  -4.897
    1XTA    CL312757  -7.494  24.434  -5.003
    1XTA    CL412758  -7.351  24.402  -4.949
    1XTA    CO312759  -7.245  24.412  -5.068
    1XTA    OA312760  -7.272  24.330  -5.181
    1XTA    CO412761  -7.210  24.204  -5.160
    1XTA    CT112762  -7.228  24.092  -5.270
    1XTA    CL512763  -7.164  23.958  -5.228
    1XTA    CL612764  -7.011  23.946  -5.232
    1XTA    OA412765  -7.436  25.238  -5.657
    1XTA    CO512766  -7.377  25.153  -5.753
    1XTA    HL112767  -7.344  25.055  -5.714
    1XTA    HL212768  -8.505  25.291  -5.318
    1XTA    HL312769  -8.548  25.432  -5.405
    1XTA    HL412770  -8.450  25.316  -5.501
    1XTA    HL512771  -7.889  24.517  -5.092
    1XTA    HL612772  -7.720  24.523  -5.151
    1XTA    HL712773  -7.762  24.323  -5.023
    1XTA    HL812774  -7.824  24.422  -4.883
    1XTA    HL912775  -7.596  24.339  -4.828
    1XTA   HL1012776  -7.588  24.505  -4.830
    1XTA   HL1112777  -7.534  24.368  -5.084
    1XTA   HL1212778  -7.491  24.536  -5.041
    1XTA   HL1312779  -7.357  24.307  -4.889
    1XTA   HL1412780  -7.332  24.473  -4.868
    1XTA   HL1512781  -7.243  24.516  -5.096
    1XTA   HL1612782  -7.149  24.388  -5.019
    1XTA   HL1712783  -7.106  24.230  -5.161
    1XTA   HL1812784  -7.231  24.158  -5.057
    1XTA   HL1912785  -7.212  23.874  -5.282
    1XTA   HL2012786  -7.198  23.942  -5.123
    1XTA   HL2112787  -6.985  23.854  -5.179
    1XTA   HL2212788  -6.964  24.020  -5.177
    1XTA   HL2312789  -6.972  23.948  -5.335
    1XTA   HL2412790  -7.278  25.185  -5.780
    1XTA   HL2512791  -7.437  25.132  -5.842
    1XTA    CO812792  -7.178  24.139  -5.413
    1XTA    CO912793  -7.375  24.054  -5.284
    1XTA    OA612794  -7.434  24.043  -5.154
    1XTA   HL4212795  -7.072  24.157  -5.419
    1XTA   HL4312796  -7.214  24.242  -5.414
    1XTA   HL4812797  -7.383  23.971  -5.352
    1XTA   HL4912798  -7.430  24.141  -5.340
    1XTA     NT12799  -4.795  26.026  -7.426
    1XTA    CN112800  -4.824  25.944  -7.526
    1XTA     C112801  -4.956  25.909  -7.560
    1XTA     C212802  -4.975  25.810  -7.663
    1XTA     C312803  -4.869  25.762  -7.740
    1XTA     C412804  -4.737  25.796  -7.706
    1XTA     C512805  -4.714  25.891  -7.599
    1XTA    CN212806  -4.754  26.155  -7.454
    1XTA     C612807  -4.836  26.271  -7.455
    1XTA     C712808  -4.776  26.395  -7.475
    1XTA     C812809  -4.639  26.412  -7.507
    1XTA     C912810  -4.558  26.298  -7.514
    1XTA    C1012811  -4.616  26.171  -7.486
    1XTA    CN312812  -4.782  25.974  -7.301
    1XTA    C1112813  -4.702  25.863  -7.274
    1XTA    C1212814  -4.700  25.808  -7.147
    1XTA    C1312815  -4.759  25.872  -7.036
    1XTA    C1412816  -4.832  25.986  -7.058
    1XTA    C1512817  -4.850  26.030  -7.189
    1XTA     H112818  -5.034  25.961  -7.500
    1XTA     H212819  -5.074  25.778  -7.690
    1XTA     H312820  -4.653  25.770  -7.766
    1XTA     H412821  -4.615  25.921  -7.565
    1XTA     H512822  -4.938  26.268  -7.418
    1XTA     H612823  -4.847  26.478  -7.467
    1XTA     H712824  -4.450  26.301  -7.534
    1XTA     H812825  -4.546  26.085  -7.484
    1XTA     H912826  -4.645  25.814  -7.347
    1XTA    H1012827  -4.632  25.728  -7.125
    1XTA    H1112828  -4.882  26.038  -6.975
    1XTA    H1212829  -4.909  26.122  -7.212
    1XTA    OA112830  -4.883  25.669  -7.845
    1XTA    CO112831  -5.011  25.605  -7.858
    1XTA    OA212832  -4.594  26.543  -7.531
    1XTA    CO212833  -4.453  26.567  -7.540
    1XTA    CL112834  -4.427  26.688  -7.631
    1XTA    CL212835  -4.463  26.681  -7.777
    1XTA    CL312836  -4.604  26.736  -7.818
    1XTA    CL412837  -4.709  26.628  -7.859
    1XTA    CO312838  -4.836  26.691  -7.904
    1XTA    OA312839  -4.885  26.757  -7.795
    1XTA    CO412840  -4.969  26.681  -7.711
    1XTA    CT112841  -5.028  26.764  -7.596
    1XTA    CL512842  -4.918  26.839  -7.520
    1XTA    CL612843  -4.804  26.745  -7.471
    1XTA    OA412844  -4.742  25.839  -6.904
    1XTA    CO512845  -4.697  25.702  -6.876
    1XTA    HL112846  -4.595  25.684  -6.924
    1XTA    HL212847  -5.103  25.670  -7.883
    1XTA    HL312848  -5.002  25.528  -7.925
    1XTA    HL412849  -5.024  25.568  -7.757
    1XTA    HL512850  -4.407  26.583  -7.440
    1XTA    HL612851  -4.413  26.477  -7.580
    1XTA    HL712852  -4.320  26.713  -7.647
    1XTA    HL812853  -4.465  26.779  -7.588
    1XTA    HL912854  -4.451  26.581  -7.815
    1XTA   HL1012855  -4.387  26.736  -7.836
    1XTA   HL1112856  -4.643  26.808  -7.743
    1XTA   HL1212857  -4.592  26.798  -7.908
    1XTA   HL1312858  -4.719  26.561  -7.778
    1XTA   HL1412859  -4.668  26.566  -7.945
    1XTA   HL1512860  -4.829  26.753  -7.996
    1XTA   HL1612861  -4.909  26.616  -7.937
    1XTA   HL1712862  -5.062  26.644  -7.755
    1XTA   HL1812863  -4.914  26.590  -7.672
    1XTA   HL1912864  -4.962  26.888  -7.435
    1XTA   HL2012865  -4.871  26.913  -7.584
    1XTA   HL2112866  -4.770  26.706  -7.563
    1XTA   HL2212867  -4.837  26.678  -7.401
    1XTA   HL2312868  -4.708  26.795  -7.430
    1XTA   HL2412869  -4.777  25.639  -6.922
    1XTA   HL2512870  -4.701  25.689  -6.769
    1XTA    CO812871  -5.097  26.663  -7.495
    1XTA    CO912872  -5.133  26.874  -7.630
    1XTA    OA612873  -5.183  26.572  -7.563
    1XTA   HL4212874  -5.143  26.725  -7.416
    1XTA   HL4312875  -5.029  26.603  -7.441
    1XTA   HL4812876  -5.081  26.947  -7.691
    1XTA   HL4912877  -5.208  26.827  -7.690
    1XTA     NT12878  -5.576  26.111  -4.351
    1XTA    CN112879  -5.657  26.064  -4.258
    1XTA     C112880  -5.615  26.065  -4.123
    1XTA     C212881  -5.708  26.024  -4.026
    1XTA     C312882  -5.843  25.985  -4.060
    1XTA     C412883  -5.880  25.984  -4.194
    1XTA     C512884  -5.790  26.024  -4.294
    1XTA    CN212885  -5.605  26.210  -4.427
    1XTA     C612886  -5.647  26.184  -4.559
    1XTA     C712887  -5.673  26.292  -4.646
    1XTA     C812888  -5.656  26.420  -4.600
    1XTA     C912889  -5.600  26.452  -4.471
    1XTA    C1012890  -5.579  26.342  -4.384
    1XTA    CN312891  -5.462  26.039  -4.370
    1XTA    C1112892  -5.468  25.905  -4.416
    1XTA    C1212893  -5.346  25.832  -4.445
    1XTA    C1312894  -5.221  25.888  -4.409
    1XTA    C1412895  -5.221  26.020  -4.364
    1XTA    C1512896  -5.341  26.092  -4.337
    1XTA     H112897  -5.513  26.083  -4.106
    1XTA     H212898  -5.675  26.046  -3.930
    1XTA     H312899  -5.979  25.954  -4.226
    1XTA     H412900  -5.832  26.023  -4.396
    1XTA     H512901  -5.667  26.079  -4.592
    1XTA     H612902  -5.705  26.274  -4.745
    1XTA     H712903  -5.584  26.547  -4.430
    1XTA     H812904  -5.538  26.357  -4.281
    1XTA     H912905  -5.572  25.864  -4.433
    1XTA    H1012906  -5.350  25.730  -4.485
    1XTA    H1112907  -5.134  26.075  -4.343
    1XTA    H1212908  -5.331  26.193  -4.302
    1XTA    OA112909  -5.923  25.945  -3.959
    1XTA    CO112910  -6.008  26.047  -3.921
    1XTA    OA212911  -5.679  26.519  -4.687
    1XTA    CO212912  -5.558  26.555  -4.759
    1XTA    CL112913  -5.511  26.448  -4.864
    1XTA    CL212914  -5.381  26.479  -4.924
    1XTA    CL312915  -5.320  26.367  -5.005
    1XTA    CL412916  -5.159  26.377  -5.010
    1XTA    CO312917  -5.082  26.246  -5.017
    1XTA    OA312918  -5.145  26.191  -5.130
    1XTA    CO412919  -5.070  26.073  -5.166
    1XTA    CT112920  -5.090  26.037  -5.316
    1XTA    CL512921  -5.232  25.975  -5.345
    1XTA    CL612922  -5.354  26.064  -5.314
    1XTA    OA412923  -5.102  25.817  -4.437
    1XTA    CO512924  -4.979  25.879  -4.412
    1XTA    HL112925  -4.975  25.971  -4.471
    1XTA    HL212926  -5.946  26.137  -3.893
    1XTA    HL312927  -6.075  26.050  -4.006
    1XTA    HL412928  -6.060  26.028  -3.829
    1XTA    HL512929  -5.582  26.646  -4.813
    1XTA    HL612930  -5.483  26.583  -4.686
    1XTA    HL712931  -5.584  26.420  -4.947
    1XTA    HL812932  -5.511  26.353  -4.819
    1XTA    HL912933  -5.309  26.498  -4.844
    1XTA   HL1012934  -5.388  26.579  -4.966
    1XTA   HL1112935  -5.348  26.266  -4.959
    1XTA   HL1212936  -5.354  26.361  -5.113
    1XTA   HL1312937  -5.125  26.428  -4.922
    1XTA   HL1412938  -5.124  26.423  -5.094
    1XTA   HL1512939  -4.982  26.272  -5.032
    1XTA   HL1612940  -5.088  26.178  -4.934
    1XTA   HL1712941  -4.964  26.086  -5.148
    1XTA   HL1812942  -5.094  25.980  -5.107
    1XTA   HL1912943  -5.252  25.884  -5.287
    1XTA   HL2012944  -5.228  25.930  -5.447
    1XTA   HL2112945  -5.356  26.158  -5.376
    1XTA   HL2212946  -5.363  26.073  -5.205
    1XTA   HL2312947  -5.446  26.017  -5.347
    1XTA   HL2412948  -4.894  25.811  -4.429
    1XTA   HL2512949  -4.972  25.915  -4.307
    1XTA    CO812950  -4.989  25.936  -5.368
    1XTA    CO912951  -5.078  26.168  -5.395
    1XTA    OA612952  -5.086  26.148  -5.501
    1XTA   HL4212953  -5.021  25.918  -5.471
    1XTA   HL4312954  -4.860  26.000  -5.387
    1XTA   HL4812955  -4.977  26.219  -5.380
    1XTA   HL4912956  -5.143  26.248  -5.346
    1XTA     NT12957  -4.058  24.059  -5.986
    1XTA    CN112958  -4.113  24.134  -5.885
    1XTA     C112959  -4.079  24.272  -5.874
    1XTA     C212960  -4.146  24.354  -5.785
    1XTA     C312961  -4.253  24.304  -5.707
    1XTA     C412962  -4.291  24.171  -5.722
    1XTA     C512963  -4.220  24.090  -5.811
    1XTA    CN212964  -3.959  23.970  -5.962
    1XTA     C612965  -3.824  24.007  -5.974
    1XTA     C712966  -3.718  23.918  -5.950
    1XTA     C812967  -3.748  23.792  -5.892
    1XTA     C912968  -3.882  23.755  -5.872
    1XTA    C1012969  -3.983  23.841  -5.903
    1XTA    CN312970  -4.120  24.053  -6.107
    1XTA    C1112971  -4.091  24.136  -6.216
    1XTA    C1212972  -4.156  24.126  -6.342
    1XTA    C1312973  -4.250  24.022  -6.355
    1XTA    C1412974  -4.287  23.941  -6.243
    1XTA    C1512975  -4.219  23.957  -6.121
    1XTA     H112976  -4.019  24.315  -5.948
    1XTA     H212977  -4.122  24.459  -5.787
    1XTA     H312978  -4.370  24.133  -5.668
    1XTA     H412979  -4.252  23.988  -5.836
    1XTA     H512980  -3.798  24.109  -5.995
    1XTA     H612981  -3.615  23.947  -5.970
    1XTA     H712982  -3.909  23.658  -5.836
    1XTA     H812983  -4.084  23.811  -5.871
    1XTA     H912984  -4.019  24.212  -6.198
    1XTA    H1012985  -4.131  24.191  -6.423
    1XTA    H1112986  -4.364  23.859  -6.243
    1XTA    H1212987  -4.245  23.888  -6.033
    1XTA    OA112988  -4.322  24.380  -5.610
    1XTA    CO112989  -4.449  24.338  -5.570
    1XTA    OA212990  -3.646  23.706  -5.848
    1XTA    CO212991  -3.516  23.737  -5.889
    1XTA    CL112992  -3.438  23.670  -5.772
    1XTA    CL212993  -3.455  23.749  -5.649
    1XTA    CL312994  -3.394  23.892  -5.645
    1XTA    CL412995  -3.478  23.988  -5.563
    1XTA    CO312996  -3.577  24.062  -5.652
    1XTA    OA312997  -3.606  24.170  -5.576
    1XTA    CO412998  -3.717  24.250  -5.632
    1XTA    CT112999  -3.746  24.369  -5.538
    1XTA    CL513000  -3.617  24.452  -5.531
    1XTA    CL613001  -3.587  24.529  -5.666
    1XTA    OA413002  -4.300  24.000  -6.481
    1XTA    CO513003  -4.342  23.869  -6.511
    1XTA    HL113004  -4.258  23.792  -6.504
    1XTA    HL213005  -4.481  24.404  -5.490
    1XTA    HL313006  -4.534  24.344  -5.640
    1XTA    HL413007  -4.448  24.240  -5.528
    1XTA    HL513008  -3.499  23.697  -5.993
    1XTA    HL613009  -3.501  23.841  -5.879
    1XTA    HL713010  -3.333  23.676  -5.787
    1XTA    HL813011  -3.469  23.567  -5.766
    1XTA    HL913012  -3.419  23.697  -5.561
    1XTA   HL1013013  -3.560  23.742  -5.626
    1XTA   HL1113014  -3.300  23.880  -5.592
    1XTA   HL1213015  -3.373  23.924  -5.751
    1XTA   HL1313016  -3.405  24.060  -5.518
    1XTA   HL1413017  -3.527  23.934  -5.476
    1XTA   HL1513018  -3.535  24.084  -5.753
    1XTA   HL1613019  -3.659  23.992  -5.663
    1XTA   HL1713020  -3.695  24.282  -5.733
    1XTA   HL1813021  -3.815  24.193  -5.637
    1XTA   HL1913022  -3.535  24.385  -5.508
    1XTA   HL2013023  -3.630  24.532  -5.456
    1XTA   HL2113024  -3.478  24.555  -5.683
    1XTA   HL2213025  -3.631  24.624  -5.657
    1XTA   HL2313026  -3.625  24.470  -5.750
    1XTA   HL2413027  -4.378  23.860  -6.612
    1XTA   HL2513028  -4.423  23.834  -6.441
    1XTA    CO813029  -3.796  24.335  -5.394
    1XTA    CO913030  -3.864  24.451  -5.606
    1XTA    OA613031  -3.879  24.575  -5.543
    1XTA   HL4213032  -3.721  24.305  -5.326
    1XTA   HL4313033  -3.818  24.431  -5.345
    1XTA   HL4813034  -3.956  24.395  -5.607
    1XTA   HL4913035  -3.835  24.480  -5.708
    1XTA     NT13036  -6.295  28.658  -8.458
    1XTA    CN113037  -6.203  28.615  -8.368
    1XTA     C113038  -6.148  28.490  -8.378
    1XTA     C213039  -6.054  28.447  -8.284
    1XTA     C313040  -6.018  28.526  -8.173
    1XTA     C413041  -6.065  28.661  -8.176
    1XTA     C513042  -6.155  28.706  -8.276
    1XTA    CN213043  -6.255  28.716  -8.571
    1XTA     C613044  -6.216  28.637  -8.676
    1XTA     C713045  -6.169  28.694  -8.796
    1XTA     C813046  -6.156  28.832  -8.806
    1XTA     C913047  -6.177  28.911  -8.692
    1XTA    C1013048  -6.237  28.855  -8.573
    1XTA    CN313049  -6.431  28.667  -8.429
    1XTA    C1113050  -6.494  28.785  -8.386
    1XTA    C1213051  -6.628  28.793  -8.340
    1XTA    C1313052  -6.708  28.674  -8.352
    1XTA    C1413053  -6.648  28.553  -8.406
    1XTA    C1513054  -6.509  28.552  -8.445
    1XTA     H113055  -6.175  28.420  -8.455
    1XTA     H213056  -6.013  28.349  -8.308
    1XTA     H313057  -6.041  28.739  -8.101
    1XTA     H413058  -6.192  28.804  -8.283
    1XTA     H513059  -6.233  28.530  -8.670
    1XTA     H613060  -6.153  28.631  -8.886
    1XTA     H713061  -6.170  29.023  -8.689
    1XTA     H813062  -6.259  28.931  -8.492
    1XTA     H913063  -6.427  28.867  -8.379
    1XTA    H1013064  -6.669  28.886  -8.299
    1XTA    H1113065  -6.705  28.462  -8.412
    1XTA    H1213066  -6.464  28.461  -8.474
    1XTA    OA113067  -5.930  28.478  -8.080
    1XTA    CO113068  -5.951  28.524  -7.943
    1XTA    OA213069  -6.123  28.880  -8.932
    1XTA    CO213070  -6.084  29.021  -8.934
    1XTA    CL113071  -6.010  29.069  -9.062
    1XTA    CL213072  -5.988  29.219  -9.062
    1XTA    CL313073  -5.876  29.265  -8.973
    1XTA    CL413074  -5.743  29.225  -9.024
    1XTA    CO313075  -5.632  29.294  -8.942
    1XTA    OA313076  -5.500  29.275  -8.996
    1XTA    CO413077  -5.448  29.148  -8.966
    1XTA    CT113078  -5.299  29.140  -8.985
    1XTA    CL513079  -5.259  28.992  -8.982
    1XTA    CL613080  -5.112  28.963  -9.017
    1XTA    OA413081  -6.828  28.668  -8.288
    1XTA    CO513082  -6.937  28.606  -8.371
    1XTA    HL113083  -7.026  28.595  -8.310
    1XTA    HL213084  -5.937  28.627  -7.945
    1XTA    HL313085  -6.050  28.489  -7.914
    1XTA    HL413086  -5.879  28.469  -7.876
    1XTA    HL513087  -6.185  29.067  -8.916
    1XTA    HL613088  -6.021  29.047  -8.851
    1XTA    HL713089  -6.080  29.049  -9.147
    1XTA    HL813090  -5.921  29.009  -9.085
    1XTA    HL913091  -6.078  29.265  -9.025
    1XTA   HL1013092  -5.974  29.254  -9.160
    1XTA   HL1113093  -5.892  29.371  -8.971
    1XTA   HL1213094  -5.891  29.247  -8.865
    1XTA   HL1313095  -5.745  29.236  -9.133
    1XTA   HL1413096  -5.734  29.113  -9.011
    1XTA   HL1513097  -5.664  29.396  -8.924
    1XTA   HL1613098  -5.629  29.259  -8.839
    1XTA   HL1713099  -5.465  29.111  -8.864
    1XTA   HL1813100  -5.499  29.070  -9.032
    1XTA   HL1913101  -5.314  28.944  -9.063
    1XTA   HL2013102  -5.276  28.948  -8.876
    1XTA   HL2113103  -5.042  29.025  -8.959
    1XTA   HL2213104  -5.084  28.980  -9.116
    1XTA   HL2313105  -5.112  28.860  -9.002
    1XTA   HL2413106  -6.924  28.505  -8.409
    1XTA   HL2513107  -6.971  28.669  -8.453
    1XTA    CO813108  -5.227  29.223  -8.872
    1XTA    CO913109  -5.255  29.204  -9.130
    1XTA    OA613110  -5.219  29.364  -8.900
    1XTA   HL4213111  -5.126  29.184  -8.856
    1XTA   HL4313112  -5.270  29.210  -8.775
    1XTA   HL4813113  -5.306  29.304  -9.140
    1XTA   HL4913114  -5.150  29.222  -9.151
    1XTA     NT13115  -5.027  30.926 -11.434
    1XTA    CN113116  -4.943  31.019 -11.394
    1XTA     C113117  -4.831  31.052 -11.475
    1XTA     C213118  -4.746  31.156 -11.443
    1XTA     C313119  -4.767  31.238 -11.327
    1XTA     C413120  -4.875  31.202 -11.240
    1XTA     C513121  -4.967  31.099 -11.277
    1XTA    CN213122  -5.158  30.940 -11.407
    1XTA     C613123  -5.213  30.853 -11.305
    1XTA     C713124  -5.345  30.870 -11.265
    1XTA     C813125  -5.437  30.946 -11.345
    1XTA     C913126  -5.380  31.027 -11.450
    1XTA    C1013127  -5.239  31.028 -11.476
    1XTA    CN313128  -4.977  30.816 -11.497
    1XTA    C1113129  -4.900  30.728 -11.424
    1XTA    C1213130  -4.852  30.611 -11.488
    1XTA    C1313131  -4.870  30.578 -11.622
    1XTA    C1413132  -4.955  30.667 -11.695
    1XTA    C1513133  -5.011  30.779 -11.631
    1XTA     H113134  -4.824  30.988 -11.564
    1XTA     H213135  -4.666  31.182 -11.508
    1XTA     H313136  -4.895  31.257 -11.145
    1XTA     H413137  -5.042  31.075 -11.211
    1XTA     H513138  -5.146  30.797 -11.250
    1XTA     H613139  -5.377  30.810 -11.181
    1XTA     H713140  -5.437  31.091 -11.530
    1XTA     H813141  -5.202  31.091 -11.553
    1XTA     H913142  -4.887  30.736 -11.313
    1XTA    H1013143  -4.795  30.538 -11.431
    1XTA    H1113144  -4.998  30.638 -11.794
    1XTA    H1213145  -5.064  30.854 -11.685
    1XTA    OA113146  -4.689  31.354 -11.297
    1XTA    CO113147  -4.727  31.452 -11.388
    1XTA    OA213148  -5.569  30.942 -11.313
    1XTA    CO213149  -5.644  31.050 -11.361
    1XTA    CL113150  -5.793  31.021 -11.321
    1XTA    CL213151  -5.879  31.146 -11.329
    1XTA    CL313152  -5.842  31.249 -11.228
    1XTA    CL413153  -5.784  31.196 -11.095
    1XTA    CO313154  -5.777  31.309 -10.996
    1XTA    OA313155  -5.703  31.272 -10.882
    1XTA    CO413156  -5.723  31.359 -10.774
    1XTA    CT113157  -5.629  31.318 -10.661
    1XTA    CL513158  -5.483  31.365 -10.712
    1XTA    CL613159  -5.365  31.333 -10.621
    1XTA    OA413160  -4.829  30.455 -11.673
    1XTA    CO513161  -4.837  30.443 -11.813
    1XTA    HL113162  -4.794  30.350 -11.847
    1XTA    HL213163  -4.717  31.418 -11.489
    1XTA    HL313164  -4.828  31.486 -11.365
    1XTA    HL413165  -4.658  31.538 -11.394
    1XTA    HL513166  -5.610  31.135 -11.318
    1XTA    HL613167  -5.631  31.065 -11.469
    1XTA    HL713168  -5.800  30.984 -11.213
    1XTA    HL813169  -5.833  30.938 -11.377
    1XTA    HL913170  -5.990  31.124 -11.321
    1XTA   HL1013171  -5.865  31.186 -11.428
    1XTA   HL1113172  -5.768  31.316 -11.271
    1XTA   HL1213173  -5.933  31.318 -11.212
    1XTA   HL1313174  -5.690  31.145 -11.118
    1XTA   HL1413175  -5.853  31.120 -11.065
    1XTA   HL1513176  -5.731  31.393 -11.038
    1XTA   HL1613177  -5.882  31.323 -10.972
    1XTA   HL1713178  -5.702  31.456 -10.812
    1XTA   HL1813179  -5.829  31.358 -10.754
    1XTA   HL1913180  -5.484  31.468 -10.749
    1XTA   HL2013181  -5.459  31.309 -10.798
    1XTA   HL2113182  -5.375  31.391 -10.529
    1XTA   HL2213183  -5.271  31.368 -10.657
    1XTA   HL2313184  -5.354  31.229 -10.605
    1XTA   HL2413185  -4.781  30.526 -11.866
    1XTA   HL2513186  -4.938  30.443 -11.851
    1XTA    CO813187  -5.626  31.164 -10.627
    1XTA    CO913188  -5.669  31.401 -10.536
    1XTA    OA613189  -5.724  31.120 -10.630
    1XTA   HL4213190  -5.581  31.139 -10.530
    1XTA   HL4313191  -5.563  31.102 -10.701
    1XTA   HL4813192  -5.800  31.348 -10.498
    1XTA   HL4913193  -5.596  31.370 -10.460
    1XTA     NT13194  -6.889  30.427  -4.702
    1XTA    CN113195  -6.760  30.455  -4.667
    1XTA     C113196  -6.686  30.570  -4.704
    1XTA     C213197  -6.547  30.577  -4.673
    1XTA     C313198  -6.481  30.465  -4.624
    1XTA     C413199  -6.556  30.354  -4.584
    1XTA     C513200  -6.699  30.348  -4.602
    1XTA    CN213201  -6.985  30.440  -4.608
    1XTA     C613202  -7.040  30.323  -4.548
    1XTA     C713203  -7.129  30.330  -4.442
    1XTA     C813204  -7.179  30.462  -4.408
    1XTA     C913205  -7.132  30.578  -4.471
    1XTA    C1013206  -7.032  30.566  -4.567
    1XTA    CN313207  -6.926  30.412  -4.834
    1XTA    C1113208  -6.887  30.299  -4.904
    1XTA    C1213209  -6.900  30.299  -5.042
    1XTA    C1313210  -6.981  30.392  -5.108
    1XTA    C1413211  -7.028  30.499  -5.035
    1XTA    C1513212  -6.997  30.513  -4.903
    1XTA     H113213  -6.733  30.649  -4.750
    1XTA     H213214  -6.490  30.664  -4.700
    1XTA     H313215  -6.511  30.254  -4.554
    1XTA     H413216  -6.760  30.258  -4.596
    1XTA     H513217  -7.004  30.228  -4.576
    1XTA     H613218  -7.172  30.239  -4.401
    1XTA     H713219  -7.169  30.675  -4.437
    1XTA     H813220  -6.987  30.653  -4.608
    1XTA     H913221  -6.830  30.222  -4.849
    1XTA    H1013222  -6.862  30.218  -5.105
    1XTA    H1113223  -7.089  30.567  -5.084
    1XTA    H1213224  -7.031  30.598  -4.841
    1XTA    OA113225  -6.347  30.467  -4.594
    1XTA    CO113226  -6.306  30.566  -4.499
    1XTA    OA213227  -7.285  30.482  -4.322
    1XTA    CO213228  -7.399  30.397  -4.316
    1XTA    CL113229  -7.458  30.374  -4.452
    1XTA    CL213230  -7.496  30.503  -4.531
    1XTA    CL313231  -7.606  30.583  -4.459
    1XTA    CL413232  -7.742  30.522  -4.494
    1XTA    CO313233  -7.787  30.525  -4.637
    1XTA    OA313234  -7.927  30.509  -4.639
    1XTA    CO413235  -7.982  30.491  -4.772
    1XTA    CT113236  -8.003  30.335  -4.790
    1XTA    CL513237  -7.884  30.253  -4.852
    1XTA    CL613238  -7.819  30.307  -4.981
    1XTA    OA413239  -7.005  30.392  -5.248
    1XTA    CO513240  -6.960  30.292  -5.328
    1XTA    HL113241  -6.996  30.314  -5.429
    1XTA    HL213242  -6.302  30.663  -4.554
    1XTA    HL313243  -6.392  30.586  -4.428
    1XTA    HL413244  -6.210  30.545  -4.449
    1XTA    HL513245  -7.363  30.288  -4.289
    1XTA    HL613246  -7.472  30.433  -4.249
    1XTA    HL713247  -7.553  30.316  -4.438
    1XTA    HL813248  -7.392  30.319  -4.516
    1XTA    HL913249  -7.529  30.468  -4.626
    1XTA   HL1013250  -7.410  30.561  -4.535
    1XTA   HL1113251  -7.597  30.579  -4.352
    1XTA   HL1213252  -7.608  30.683  -4.502
    1XTA   HL1313253  -7.814  30.567  -4.422
    1XTA   HL1413254  -7.740  30.414  -4.465
    1XTA   HL1513255  -7.770  30.616  -4.690
    1XTA   HL1613256  -7.733  30.450  -4.684
    1XTA   HL1713257  -8.075  30.549  -4.782
    1XTA   HL1813258  -7.904  30.520  -4.846
    1XTA   HL1913259  -7.909  30.142  -4.864
    1XTA   HL2013260  -7.803  30.256  -4.773
    1XTA   HL2113261  -7.733  30.252  -5.004
    1XTA   HL2213262  -7.780  30.405  -4.961
    1XTA   HL2313263  -7.883  30.306  -5.073
    1XTA   HL2413264  -6.999  30.191  -5.302
    1XTA   HL2513265  -6.851  30.276  -5.332
    1XTA    CO813266  -8.128  30.310  -4.886
    1XTA    CO913267  -8.040  30.265  -4.650
    1XTA    OA613268  -8.121  30.361  -4.978
    1XTA   HL4213269  -8.216  30.354  -4.836
    1XTA   HL4313270  -8.140  30.195  -4.893
    1XTA   HL4813271  -8.129  30.343  -4.571
    1XTA   HL4913272  -8.089  30.176  -4.676
    1XTA     NT13273  -9.753  25.225  -7.530
    1XTA    CN113274  -9.638  25.244  -7.597
    1XTA     C113275  -9.541  25.321  -7.531
    1XTA     C213276  -9.433  25.371  -7.595
    1XTA     C313277  -9.412  25.341  -7.735
    1XTA     C413278  -9.505  25.260  -7.801
    1XTA     C513279  -9.621  25.209  -7.733
    1XTA    CN213280  -9.745  25.131  -7.427
    1XTA     C613281  -9.733  25.178  -7.290
    1XTA     C713282  -9.745  25.087  -7.184
    1XTA     C813283  -9.747  24.950  -7.213
    1XTA     C913284  -9.740  24.904  -7.347
    1XTA    C1013285  -9.735  24.992  -7.453
    1XTA    CN313286  -9.873  25.278  -7.585
    1XTA    C1113287  -9.975  25.199  -7.632
    1XTA    C1213288 -10.098  25.251  -7.678
    1XTA    C1313289 -10.114  25.391  -7.694
    1XTA    C1413290 -10.006  25.472  -7.649
    1XTA    C1513291  -9.891  25.418  -7.593
    1XTA     H113292  -9.562  25.354  -7.426
    1XTA     H213293  -9.380  25.448  -7.532
    1XTA     H313294  -9.490  25.238  -7.907
    1XTA     H413295  -9.696  25.143  -7.779
    1XTA     H513296  -9.729  25.292  -7.269
    1XTA     H613297  -9.762  25.127  -7.082
    1XTA     H713298  -9.743  24.797  -7.365
    1XTA     H813299  -9.742  24.963  -7.559
    1XTA     H913300  -9.969  25.091  -7.612
    1XTA    H1013301 -10.175  25.177  -7.702
    1XTA    H1113302 -10.001  25.578  -7.656
    1XTA    H1213303  -9.813  25.482  -7.556
    1XTA    OA113304  -9.318  25.398  -7.818
    1XTA    CO113305  -9.213  25.466  -7.744
    1XTA    OA213306  -9.745  24.856  -7.119
    1XTA    CO213307  -9.797  24.888  -6.991
    1XTA    CL113308  -9.853  24.765  -6.927
    1XTA    CL213309 -10.011  24.766  -6.936
    1XTA    CL313310 -10.072  24.877  -6.855
    1XTA    CL413311 -10.217  24.901  -6.902
    1XTA    CO313312 -10.291  25.006  -6.810
    1XTA    OA313313 -10.271  24.983  -6.672
    1XTA    CO413314 -10.314  25.106  -6.615
    1XTA    CT113315 -10.270  25.111  -6.464
    1XTA    CL513316 -10.192  24.989  -6.406
    1XTA    CL613317 -10.272  24.870  -6.366
    1XTA    OA413318 -10.225  25.448  -7.762
    1XTA    CO513319 -10.300  25.362  -7.836
    1XTA    HL113320 -10.381  25.415  -7.883
    1XTA    HL213321  -9.123  25.482  -7.805
    1XTA    HL313322  -9.256  25.563  -7.705
    1XTA    HL413323  -9.170  25.408  -7.656
    1XTA    HL513324  -9.725  24.943  -6.930
    1XTA    HL613325  -9.882  24.961  -7.016
    1XTA    HL713326  -9.829  24.771  -6.818
    1XTA    HL813327  -9.807  24.674  -6.969
    1XTA    HL913328 -10.060  24.672  -6.916
    1XTA   HL1013329 -10.033  24.791  -7.036
    1XTA   HL1113330 -10.079  24.843  -6.749
    1XTA   HL1213331 -10.020  24.974  -6.854
    1XTA   HL1313332 -10.279  24.812  -6.896
    1XTA   HL1413333 -10.207  24.951  -7.000
    1XTA   HL1513334 -10.261  25.103  -6.850
    1XTA   HL1613335 -10.396  25.015  -6.820
    1XTA   HL1713336 -10.282  25.193  -6.674
    1XTA   HL1813337 -10.419  25.114  -6.603
    1XTA   HL1913338 -10.153  25.020  -6.312
    1XTA   HL2013339 -10.101  24.962  -6.462
    1XTA   HL2113340 -10.202  24.783  -6.361
    1XTA   HL2213341 -10.336  24.858  -6.450
    1XTA   HL2313342 -10.327  24.879  -6.279
    1XTA   HL2413343 -10.337  25.278  -7.766
    1XTA   HL2513344 -10.237  25.328  -7.918
    1XTA    CO813345 -10.397  25.147  -6.378
    1XTA    CO913346 -10.171  25.226  -6.454
    1XTA    OA613347 -10.054  25.197  -6.521
    1XTA   HL4213348 -10.471  25.069  -6.397
    1XTA   HL4313349 -10.366  25.121  -6.275
    1XTA   HL4813350 -10.147  25.247  -6.358
    1XTA   HL4913351 -10.217  25.315  -6.493
    1XTA     NT13352  -4.026  28.093  -7.379
    1XTA    CN113353  -3.912  28.021  -7.351
    1XTA     C113354  -3.920  27.907  -7.268
    1XTA     C213355  -3.799  27.831  -7.251
    1XTA     C313356  -3.681  27.866  -7.315
    1XTA     C413357  -3.685  27.978  -7.403
    1XTA     C513358  -3.795  28.060  -7.420
    1XTA    CN213359  -4.065  28.120  -7.506
    1XTA     C613360  -4.096  28.253  -7.546
    1XTA     C713361  -4.132  28.267  -7.685
    1XTA     C813362  -4.144  28.159  -7.780
    1XTA     C913363  -4.118  28.032  -7.730
    1XTA    C1013364  -4.083  28.007  -7.591
    1XTA    CN313365  -4.090  28.157  -7.279
    1XTA    C1113366  -4.217  28.118  -7.229
    1XTA    C1213367  -4.280  28.189  -7.127
    1XTA    C1313368  -4.225  28.308  -7.078
    1XTA    C1413369  -4.097  28.336  -7.118
    1XTA    C1513370  -4.028  28.266  -7.219
    1XTA     H113371  -4.009  27.873  -7.220
    1XTA     H213372  -3.797  27.749  -7.177
    1XTA     H313373  -3.601  27.998  -7.460
    1XTA     H413374  -3.790  28.149  -7.473
    1XTA     H513375  -4.081  28.341  -7.481
    1XTA     H613376  -4.161  28.364  -7.724
    1XTA     H713377  -4.124  27.951  -7.799
    1XTA     H813378  -4.063  27.910  -7.556
    1XTA     H913379  -4.267  28.035  -7.270
    1XTA    H1013380  -4.380  28.158  -7.100
    1XTA    H1113381  -4.042  28.431  -7.083
    1XTA    H1213382  -3.928  28.285  -7.259
    1XTA    OA113383  -3.566  27.792  -7.302
    1XTA    CO113384  -3.446  27.830  -7.367
    1XTA    OA213385  -4.184  28.191  -7.912
    1XTA    CO213386  -4.230  28.081  -7.988
    1XTA    CL113387  -4.307  28.116  -8.111
    1XTA    CL213388  -4.218  28.152  -8.230
    1XTA    CL313389  -4.292  28.122  -8.364
    1XTA    CL413390  -4.242  28.211  -8.483
    1XTA    CO313391  -4.108  28.161  -8.540
    1XTA    OA313392  -3.996  28.186  -8.463
    1XTA    CO413393  -3.878  28.122  -8.515
    1XTA    CT113394  -3.770  28.133  -8.403
    1XTA    CL513395  -3.751  28.281  -8.362
    1XTA    CL613396  -3.635  28.332  -8.279
    1XTA    OA413397  -4.286  28.395  -6.990
    1XTA    CO513398  -4.413  28.358  -6.939
    1XTA    HL113399  -4.421  28.265  -6.884
    1XTA    HL213400  -3.463  27.814  -7.469
    1XTA    HL313401  -3.427  27.938  -7.350
    1XTA    HL413402  -3.349  27.777  -7.335
    1XTA    HL513403  -4.142  28.025  -8.016
    1XTA    HL613404  -4.300  28.032  -7.917
    1XTA    HL713405  -4.390  28.189  -8.094
    1XTA    HL813406  -4.365  28.030  -8.142
    1XTA    HL913407  -4.125  28.107  -8.246
    1XTA   HL1013408  -4.185  28.263  -8.219
    1XTA   HL1113409  -4.274  28.017  -8.398
    1XTA   HL1213410  -4.392  28.118  -8.345
    1XTA   HL1313411  -4.219  28.315  -8.449
    1XTA   HL1413412  -4.311  28.219  -8.560
    1XTA   HL1513413  -4.125  28.056  -8.557
    1XTA   HL1613414  -4.081  28.203  -8.642
    1XTA   HL1713415  -3.900  28.016  -8.537
    1XTA   HL1813416  -3.845  28.179  -8.607
    1XTA   HL1913417  -3.846  28.304  -8.310
    1XTA   HL2013418  -3.737  28.334  -8.456
    1XTA   HL2113419  -3.648  28.428  -8.232
    1XTA   HL2213420  -3.541  28.329  -8.336
    1XTA   HL2313421  -3.642  28.261  -8.196
    1XTA   HL2413422  -4.488  28.346  -7.016
    1XTA   HL2513423  -4.460  28.433  -6.873
    1XTA    CO813424  -3.634  28.096  -8.464
    1XTA    CO913425  -3.811  28.047  -8.281
    1XTA    OA613426  -3.829  27.942  -8.323
    1XTA   HL4213427  -3.646  28.002  -8.507
    1XTA   HL4313428  -3.549  28.070  -8.361
    1XTA   HL4813429  -3.904  28.093  -8.235
    1XTA   HL4913430  -3.718  28.045  -8.215
    1XTA     NT13431  -2.894  28.580 -12.442
    1XTA    CN113432  -2.790  28.542 -12.527
    1XTA     C113433  -2.812  28.476 -12.654
    1XTA     C213434  -2.703  28.442 -12.735
    1XTA     C313435  -2.572  28.458 -12.692
    1XTA     C413436  -2.552  28.513 -12.570
    1XTA     C513437  -2.655  28.556 -12.488
    1XTA    CN213438  -2.897  28.512 -12.329
    1XTA     C613439  -2.902  28.371 -12.333
    1XTA     C713440  -2.910  28.294 -12.218
    1XTA     C813441  -2.904  28.365 -12.085
    1XTA     C913442  -2.892  28.509 -12.083
    1XTA    C1013443  -2.892  28.578 -12.204
    1XTA    CN313444  -2.991  28.672 -12.467
    1XTA    C1113445  -2.971  28.808 -12.451
    1XTA    C1213446  -3.072  28.893 -12.497
    1XTA    C1313447  -3.196  28.851 -12.531
    1XTA    C1413448  -3.221  28.716 -12.553
    1XTA    C1513449  -3.119  28.628 -12.511
    1XTA     H113450  -2.917  28.467 -12.692
    1XTA     H213451  -2.727  28.403 -12.833
    1XTA     H313452  -2.456  28.533 -12.527
    1XTA     H413453  -2.633  28.591 -12.385
    1XTA     H513454  -2.917  28.321 -12.423
    1XTA     H613455  -2.931  28.189 -12.229
    1XTA     H713456  -2.881  28.558 -11.988
    1XTA     H813457  -2.881  28.684 -12.204
    1XTA     H913458  -2.881  28.849 -12.410
    1XTA    H1013459  -3.056  28.999 -12.509
    1XTA    H1113460  -3.310  28.663 -12.576
    1XTA    H1213461  -3.139  28.519 -12.524
    1XTA    OA113462  -2.466  28.429 -12.772
    1XTA    CO113463  -2.486  28.405 -12.909
    1XTA    OA213464  -2.922  28.299 -11.965
    1XTA    CO213465  -2.908  28.159 -11.967
    1XTA    CL113466  -3.046  28.091 -11.996
    1XTA    CL213467  -3.044  27.948 -11.959
    1XTA    CL313468  -3.167  27.878 -12.008
    1XTA    CL413469  -3.161  27.845 -12.156
    1XTA    CO313470  -3.279  27.755 -12.203
    1XTA    OA313471  -3.396  27.833 -12.203
    1XTA    CO413472  -3.516  27.757 -12.223
    1XTA    CT113473  -3.634  27.845 -12.268
    1XTA    CL513474  -3.650  27.972 -12.179
    1XTA    CL613475  -3.715  27.942 -12.044
    1XTA    OA413476  -3.303  28.933 -12.556
    1XTA    CO513477  -3.311  29.045 -12.476
    1XTA    HL113478  -3.397  29.109 -12.502
    1XTA    HL213479  -2.549  28.321 -12.933
    1XTA    HL313480  -2.513  28.501 -12.960
    1XTA    HL413481  -2.385  28.377 -12.952
    1XTA    HL513482  -2.842  28.114 -12.044
    1XTA    HL613483  -2.854  28.126 -11.873
    1XTA    HL713484  -3.079  28.103 -12.099
    1XTA    HL813485  -3.124  28.138 -11.932
    1XTA    HL913486  -3.030  27.935 -11.847
    1XTA   HL1013487  -2.963  27.884 -12.002
    1XTA   HL1113488  -3.188  27.795 -11.942
    1XTA   HL1213489  -3.254  27.944 -11.981
    1XTA   HL1313490  -3.067  27.798 -12.179
    1XTA   HL1413491  -3.178  27.940 -12.208
    1XTA   HL1513492  -3.261  27.730 -12.308
    1XTA   HL1613493  -3.293  27.669 -12.140
    1XTA   HL1713494  -3.493  27.678 -12.298
    1XTA   HL1813495  -3.532  27.697 -12.140
    1XTA   HL1913496  -3.704  28.052 -12.227
    1XTA   HL2013497  -3.549  28.015 -12.178
    1XTA   HL2113498  -3.821  27.915 -12.043
    1XTA   HL2213499  -3.713  28.016 -11.971
    1XTA   HL2313500  -3.678  27.853 -11.991
    1XTA   HL2413501  -3.227  29.108 -12.493
    1XTA   HL2513502  -3.327  29.008 -12.372
    1XTA    CO813503  -3.758  27.758 -12.273
    1XTA    CO913504  -3.606  27.907 -12.415
    1XTA    OA613505  -3.757  27.665 -12.336
    1XTA   HL4213506  -3.827  27.822 -12.329
    1XTA   HL4313507  -3.802  27.739 -12.178
    1XTA   HL4813508  -3.476  27.956 -12.418
    1XTA   HL4913509  -3.612  27.825 -12.485
    1XTA     NT13510  -7.881  27.121  -7.903
    1XTA    CN113511  -7.895  27.115  -8.035
    1XTA     C113512  -8.014  27.156  -8.091
    1XTA     C213513  -8.036  27.153  -8.227
    1XTA     C313514  -7.935  27.100  -8.311
    1XTA     C413515  -7.818  27.048  -8.256
    1XTA     C513516  -7.802  27.046  -8.117
    1XTA    CN213517  -7.816  27.227  -7.843
    1XTA     C613518  -7.864  27.280  -7.723
    1XTA     C713519  -7.798  27.394  -7.672
    1XTA     C813520  -7.693  27.458  -7.742
    1XTA     C913521  -7.653  27.413  -7.870
    1XTA    C1013522  -7.706  27.289  -7.916
    1XTA    CN313523  -7.904  27.007  -7.830
    1XTA    C1113524  -8.034  26.954  -7.815
    1XTA    C1213525  -8.046  26.826  -7.747
    1XTA    C1313526  -7.932  26.762  -7.696
    1XTA    C1413527  -7.807  26.826  -7.706
    1XTA    C1513528  -7.790  26.945  -7.769
    1XTA     H113529  -8.089  27.195  -8.030
    1XTA     H213530  -8.122  27.201  -8.263
    1XTA     H313531  -7.737  26.997  -8.313
    1XTA     H413532  -7.707  27.006  -8.079
    1XTA     H513533  -7.951  27.234  -7.677
    1XTA     H613534  -7.818  27.433  -7.573
    1XTA     H713535  -7.585  27.466  -7.930
    1XTA     H813536  -7.673  27.256  -8.014
    1XTA     H913537  -8.110  27.007  -7.870
    1XTA    H1013538  -8.137  26.779  -7.729
    1XTA    H1113539  -7.723  26.765  -7.658
    1XTA    H1213540  -7.695  26.991  -7.775
    1XTA    OA113541  -7.959  27.093  -8.449
    1XTA    CO113542  -7.897  26.980  -8.521
    1XTA    OA213543  -7.650  27.575  -7.691
    1XTA    CO213544  -7.563  27.651  -7.766
    1XTA    CL113545  -7.420  27.601  -7.745
    1XTA    CL213546  -7.318  27.681  -7.816
    1XTA    CL313547  -7.297  27.820  -7.756
    1XTA    CL413548  -7.184  27.901  -7.833
    1XTA    CO313549  -7.242  27.966  -7.960
    1XTA    OA313550  -7.358  28.038  -7.919
    1XTA    CO413551  -7.450  28.042  -8.030
    1XTA    CT113552  -7.581  28.103  -7.996
    1XTA    CL513553  -7.693  28.098  -8.100
    1XTA    CL613554  -7.715  27.947  -8.154
    1XTA    OA413555  -7.960  26.642  -7.626
    1XTA    CO513556  -7.864  26.536  -7.633
    1XTA    HL113557  -7.900  26.445  -7.584
    1XTA    HL213558  -7.917  26.882  -8.473
    1XTA    HL313559  -7.939  26.979  -8.628
    1XTA    HL413560  -7.783  26.990  -8.527
    1XTA    HL513561  -7.599  27.665  -7.868
    1XTA    HL613562  -7.573  27.758  -7.727
    1XTA    HL713563  -7.412  27.495  -7.775
    1XTA    HL813564  -7.409  27.606  -7.638
    1XTA    HL913565  -7.339  27.696  -7.922
    1XTA   HL1013566  -7.231  27.614  -7.798
    1XTA   HL1113567  -7.383  27.878  -7.747
    1XTA   HL1213568  -7.274  27.805  -7.651
    1XTA   HL1313569  -7.100  27.840  -7.864
    1XTA   HL1413570  -7.141  27.972  -7.768
    1XTA   HL1513571  -7.168  28.024  -8.011
    1XTA   HL1613572  -7.273  27.883  -8.020
    1XTA   HL1713573  -7.397  28.099  -8.116
    1XTA   HL1813574  -7.459  27.946  -8.067
    1XTA   HL1913575  -7.682  28.167  -8.175
    1XTA   HL2013576  -7.782  28.130  -8.059
    1XTA   HL2113577  -7.758  27.885  -8.077
    1XTA   HL2213578  -7.622  27.895  -8.179
    1XTA   HL2313579  -7.794  27.945  -8.234
    1XTA   HL2413580  -7.764  26.561  -7.594
    1XTA   HL2513581  -7.852  26.510  -7.740
    1XTA    CO813582  -7.549  28.251  -7.963
    1XTA    CO913583  -7.620  28.032  -7.863
    1XTA    OA613584  -7.495  28.334  -8.073
    1XTA   HL4213585  -7.471  28.254  -7.888
    1XTA   HL4313586  -7.637  28.298  -7.918
    1XTA   HL4813587  -7.609  27.920  -7.883
    1XTA   HL4913588  -7.535  28.037  -7.797
    1XTA     NT13589  -9.089  27.661  -8.673
    1XTA    CN113590  -9.069  27.658  -8.810
    1XTA     C113591  -9.178  27.626  -8.890
    1XTA     C213592  -9.164  27.619  -9.030
    1XTA     C313593  -9.038  27.639  -9.091
    1XTA     C413594  -8.928  27.664  -9.005
    1XTA     C513595  -8.939  27.677  -8.861
    1XTA    CN213596  -9.029  27.754  -8.589
    1XTA     C613597  -9.050  27.894  -8.609
    1XTA     C713598  -8.987  27.986  -8.522
    1XTA     C813599  -8.900  27.943  -8.416
    1XTA     C913600  -8.882  27.801  -8.396
    1XTA    C1013601  -8.940  27.714  -8.486
    1XTA    CN313602  -9.173  27.574  -8.618
    1XTA    C1113603  -9.156  27.433  -8.627
    1XTA    C1213604  -9.249  27.348  -8.566
    1XTA    C1313605  -9.362  27.399  -8.497
    1XTA    C1413606  -9.379  27.534  -8.490
    1XTA    C1513607  -9.284  27.626  -8.549
    1XTA     H113608  -9.266  27.598  -8.831
    1XTA     H213609  -9.239  27.581  -9.104
    1XTA     H313610  -8.825  27.665  -9.041
    1XTA     H413611  -8.855  27.698  -8.799
    1XTA     H513612  -9.117  27.936  -8.686
    1XTA     H613613  -8.997  28.092  -8.548
    1XTA     H713614  -8.834  27.770  -8.302
    1XTA     H813615  -8.937  27.608  -8.463
    1XTA     H913616  -9.077  27.399  -8.680
    1XTA    H1013617  -9.233  27.244  -8.561
    1XTA    H1113618  -9.459  27.573  -8.444
    1XTA    H1213619  -9.302  27.728  -8.549
    1XTA    OA113620  -9.024  27.625  -9.226
    1XTA    CO113621  -8.912  27.700  -9.279
    1XTA    OA213622  -8.860  28.029  -8.318
    1XTA    CO213623  -8.900  28.165  -8.322
    1XTA    CL113624  -8.828  28.247  -8.216
    1XTA    CL213625  -8.839  28.191  -8.075
    1XTA    CL313626  -8.737  28.244  -7.982
    1XTA    CL413627  -8.599  28.187  -8.001
    1XTA    CO313628  -8.520  28.235  -7.881
    1XTA    OA313629  -8.388  28.196  -7.879
    1XTA    CO413630  -8.383  28.060  -7.837
    1XTA    CT113631  -8.247  28.005  -7.840
    1XTA    CL513632  -8.192  28.021  -7.982
    1XTA    CL613633  -8.070  27.942  -8.018
    1XTA    OA413634  -9.456  27.316  -8.444
    1XTA    CO513635  -9.473  27.337  -8.306
    1XTA    HL113636  -9.535  27.269  -8.252
    1XTA    HL213637  -8.811  27.654  -9.274
    1XTA    HL313638  -8.945  27.720  -9.385
    1XTA    HL413639  -8.923  27.802  -9.246
    1XTA    HL513640  -8.889  28.211  -8.425
    1XTA    HL613641  -9.009  28.176  -8.326
    1XTA    HL713642  -8.851  28.351  -8.224
    1XTA    HL813643  -8.722  28.254  -8.240
    1XTA    HL913644  -8.851  28.085  -8.061
    1XTA   HL1013645  -8.936  28.234  -8.041
    1XTA   HL1113646  -8.728  28.355  -7.983
    1XTA   HL1213647  -8.765  28.225  -7.879
    1XTA   HL1313648  -8.541  28.230  -8.080
    1XTA   HL1413649  -8.591  28.081  -8.017
    1XTA   HL1513650  -8.515  28.345  -7.894
    1XTA   HL1613651  -8.578  28.202  -7.793
    1XTA   HL1713652  -8.427  28.051  -7.734
    1XTA   HL1813653  -8.454  28.008  -7.899
    1XTA   HL1913654  -8.173  28.122  -7.997
    1XTA   HL2013655  -8.272  27.997  -8.053
    1XTA   HL2113656  -7.980  27.967  -7.949
    1XTA   HL2213657  -8.034  27.969  -8.111
    1XTA   HL2313658  -8.092  27.836  -8.020
    1XTA   HL2413659  -9.518  27.440  -8.307
    1XTA   HL2513660  -9.381  27.342  -8.251
    1XTA    CO813661  -8.231  27.855  -7.805
    1XTA    CO913662  -8.170  28.083  -7.742
    1XTA    OA613663  -8.064  28.075  -7.753
    1XTA   HL4213664  -8.288  27.793  -7.881
    1XTA   HL4313665  -8.099  27.819  -7.785
    1XTA   HL4813666  -8.205  28.063  -7.643
    1XTA   HL4913667  -8.177  28.190  -7.748
    1XTA     NT13668  -3.356  31.380 -10.710
    1XTA    CN113669  -3.304  31.259 -10.661
    1XTA     C113670  -3.246  31.258 -10.532
    1XTA     C213671  -3.187  31.149 -10.482
    1XTA     C313672  -3.202  31.026 -10.551
    1XTA     C413673  -3.260  31.019 -10.678
    1XTA     C513674  -3.311  31.139 -10.734
    1XTA    CN213675  -3.449  31.455 -10.636
    1XTA     C613676  -3.479  31.588 -10.665
    1XTA     C713677  -3.579  31.664 -10.600
    1XTA     C813678  -3.662  31.603 -10.505
    1XTA     C913679  -3.630  31.470 -10.468
    1XTA    C1013680  -3.534  31.393 -10.539
    1XTA    CN313681  -3.281  31.429 -10.814
    1XTA    C1113682  -3.154  31.480 -10.788
    1XTA    C1213683  -3.075  31.523 -10.896
    1XTA    C1313684  -3.116  31.494 -11.027
    1XTA    C1413685  -3.240  31.433 -11.053
    1XTA    C1513686  -3.331  31.414 -10.945
    1XTA     H113687  -3.234  31.355 -10.481
    1XTA     H213688  -3.134  31.157 -10.383
    1XTA     H313689  -3.265  30.927 -10.732
    1XTA     H413690  -3.353  31.138 -10.836
    1XTA     H513691  -3.426  31.626 -10.748
    1XTA     H613692  -3.597  31.762 -10.643
    1XTA     H713693  -3.679  31.425 -10.386
    1XTA     H813694  -3.513  31.289 -10.512
    1XTA     H913695  -3.117  31.472 -10.694
    1XTA    H1013696  -2.975  31.558 -10.878
    1XTA    H1113697  -3.273  31.415 -11.155
    1XTA    H1213698  -3.429  31.373 -10.954
    1XTA    OA113699  -3.155  30.901 -10.510
    1XTA    CO113700  -3.026  30.921 -10.457
    1XTA    OA213701  -3.759  31.671 -10.442
    1XTA    CO213702  -3.815  31.613 -10.326
    1XTA    CL113703  -3.897  31.718 -10.251
    1XTA    CL213704  -3.911  31.681 -10.101
    1XTA    CL313705  -3.965  31.803 -10.027
    1XTA    CL413706  -3.995  31.791  -9.877
    1XTA    CO313707  -4.066  31.908  -9.826
    1XTA    OA313708  -4.190  31.925  -9.883
    1XTA    CO413709  -4.254  32.046  -9.846
    1XTA    CT113710  -4.385  32.053  -9.930
    1XTA    CL513711  -4.463  32.185  -9.904
    1XTA    CL613712  -4.480  32.231  -9.756
    1XTA    OA413713  -3.040  31.505 -11.134
    1XTA    CO513714  -2.910  31.560 -11.138
    1XTA    HL113715  -2.909  31.656 -11.088
    1XTA    HL213716  -2.975  30.825 -10.439
    1XTA    HL313717  -2.972  30.982 -10.522
    1XTA    HL413718  -3.030  30.972 -10.358
    1XTA    HL513719  -3.881  31.521 -10.338
    1XTA    HL613720  -3.730  31.592 -10.261
    1XTA    HL713721  -3.993  31.729 -10.307
    1XTA    HL813722  -3.834  31.810 -10.263
    1XTA    HL913723  -3.815  31.651 -10.049
    1XTA   HL1013724  -3.979  31.598 -10.094
    1XTA   HL1113725  -3.902  31.888 -10.039
    1XTA   HL1213726  -4.056  31.827 -10.081
    1XTA   HL1313727  -3.892  31.779  -9.834
    1XTA   HL1413728  -4.036  31.692  -9.847
    1XTA   HL1513729  -4.077  31.910  -9.717
    1XTA   HL1613730  -4.009  31.989  -9.846
    1XTA   HL1713731  -4.279  32.036  -9.743
    1XTA   HL1813732  -4.190  32.133  -9.855
    1XTA   HL1913733  -4.563  32.171  -9.951
    1XTA   HL2013734  -4.413  32.266  -9.963
    1XTA   HL2113735  -4.511  32.152  -9.693
    1XTA   HL2213736  -4.555  32.303  -9.754
    1XTA   HL2313737  -4.396  32.264  -9.712
    1XTA   HL2413738  -2.868  31.563 -11.236
    1XTA   HL2513739  -2.852  31.484 -11.084
    1XTA    CO813740  -4.474  31.924  -9.902
    1XTA    CO913741  -4.339  32.039 -10.076
    1XTA    OA613742  -4.574  31.937  -9.953
    1XTA   HL4213743  -4.495  31.905  -9.791
    1XTA   HL4313744  -4.426  31.829  -9.940
    1XTA   HL4813745  -4.279  31.914 -10.090
    1XTA   HL4913746  -4.426  32.035 -10.147
    1XTA     NT13747  -8.656  27.990  -6.325
    1XTA    CN113748  -8.640  27.860  -6.285
    1XTA     C113749  -8.527  27.780  -6.320
    1XTA     C213750  -8.528  27.642  -6.296
    1XTA     C313751  -8.628  27.579  -6.230
    1XTA     C413752  -8.742  27.652  -6.190
    1XTA     C513753  -8.746  27.793  -6.214
    1XTA    CN213754  -8.684  28.016  -6.453
    1XTA     C613755  -8.576  28.057  -6.535
    1XTA     C713756  -8.595  28.102  -6.666
    1XTA     C813757  -8.730  28.107  -6.721
    1XTA     C913758  -8.833  28.054  -6.642
    1XTA    C1013759  -8.814  28.017  -6.511
    1XTA    CN313760  -8.639  28.089  -6.237
    1XTA    C1113761  -8.511  28.128  -6.193
    1XTA    C1213762  -8.490  28.234  -6.104
    1XTA    C1313763  -8.602  28.310  -6.058
    1XTA    C1413764  -8.734  28.277  -6.103
    1XTA    C1513765  -8.751  28.170  -6.189
    1XTA     H113766  -8.442  27.822  -6.368
    1XTA     H213767  -8.440  27.587  -6.326
    1XTA     H313768  -8.818  27.610  -6.137
    1XTA     H413769  -8.838  27.849  -6.185
    1XTA     H513770  -8.475  28.068  -6.503
    1XTA     H613771  -8.508  28.128  -6.723
    1XTA     H713772  -8.928  28.037  -6.677
    1XTA     H813773  -8.894  27.983  -6.444
    1XTA     H913774  -8.433  28.067  -6.216
    1XTA    H1013775  -8.388  28.266  -6.081
    1XTA    H1113776  -8.823  28.333  -6.076
    1XTA    H1213777  -8.847  28.151  -6.226
    1XTA    OA113778  -8.611  27.444  -6.202
    1XTA    CO113779  -8.687  27.382  -6.107
    1XTA    OA213780  -8.754  28.134  -6.849
    1XTA    CO213781  -8.648  28.192  -6.925
    1XTA    CL113782  -8.567  28.080  -6.992
    1XTA    CL213783  -8.655  28.023  -7.101
    1XTA    CL313784  -8.607  27.878  -7.138
    1XTA    CL413785  -8.654  27.781  -7.033
    1XTA    CO313786  -8.616  27.639  -7.082
    1XTA    OA313787  -8.675  27.610  -7.202
    1XTA    CO413788  -8.647  27.482  -7.253
    1XTA    CT113789  -8.735  27.460  -7.378
    1XTA    CL513790  -8.885  27.480  -7.328
    1XTA    CL613791  -8.991  27.495  -7.440
    1XTA    OA413792  -8.597  28.419  -5.972
    1XTA    CO513793  -8.470  28.454  -5.919
    1XTA    HL113794  -8.421  28.381  -5.853
    1XTA    HL213795  -8.790  27.387  -6.133
    1XTA    HL313796  -8.650  27.278  -6.099
    1XTA    HL413797  -8.679  27.438  -6.017
    1XTA    HL513798  -8.685  28.252  -7.006
    1XTA    HL613799  -8.582  28.265  -6.866
    1XTA    HL713800  -8.539  28.003  -6.920
    1XTA    HL813801  -8.475  28.129  -7.030
    1XTA    HL913802  -8.631  28.079  -7.194
    1XTA   HL1013803  -8.769  28.023  -7.084
    1XTA   HL1113804  -8.658  27.861  -7.232
    1XTA   HL1213805  -8.495  27.864  -7.153
    1XTA   HL1313806  -8.761  27.798  -7.011
    1XTA   HL1413807  -8.611  27.805  -6.936
    1XTA   HL1513808  -8.512  27.636  -7.085
    1XTA   HL1613809  -8.642  27.582  -6.998
    1XTA   HL1713810  -8.540  27.477  -7.277
    1XTA   HL1813811  -8.671  27.408  -7.173
    1XTA   HL1913812  -8.894  27.570  -7.271
    1XTA   HL2013813  -8.921  27.391  -7.273
    1XTA   HL2113814  -9.001  27.397  -7.488
    1XTA   HL2213815  -8.978  27.567  -7.518
    1XTA   HL2313816  -9.079  27.522  -7.391
    1XTA   HL2413817  -8.492  28.548  -5.862
    1XTA   HL2513818  -8.395  28.474  -5.988
    1XTA    CO813819  -8.709  27.316  -7.431
    1XTA    CO913820  -8.700  27.565  -7.491
    1XTA    OA613821  -8.559  27.548  -7.536
    1XTA   HL4213822  -8.614  27.312  -7.485
    1XTA   HL4313823  -8.709  27.237  -7.353
    1XTA   HL4813824  -8.736  27.667  -7.452
    1XTA   HL4913825  -8.762  27.538  -7.578
    1XTA     NT13826  -4.078  28.130  -6.297
    1XTA    CN113827  -3.960  28.159  -6.235
    1XTA     C113828  -3.833  28.121  -6.288
    1XTA     C213829  -3.714  28.155  -6.223
    1XTA     C313830  -3.725  28.236  -6.107
    1XTA     C413831  -3.847  28.264  -6.042
    1XTA     C513832  -3.966  28.232  -6.111
    1XTA    CN213833  -4.122  28.001  -6.305
    1XTA     C613834  -4.151  27.945  -6.434
    1XTA     C713835  -4.180  27.806  -6.441
    1XTA     C813836  -4.177  27.715  -6.328
    1XTA     C913837  -4.149  27.776  -6.204
    1XTA    C1013838  -4.128  27.914  -6.193
    1XTA    CN313839  -4.127  28.226  -6.378
    1XTA    C1113840  -4.057  28.294  -6.479
    1XTA    C1213841  -4.115  28.389  -6.562
    1XTA    C1313842  -4.250  28.425  -6.543
    1XTA    C1413843  -4.326  28.363  -6.441
    1XTA    C1513844  -4.260  28.267  -6.360
    1XTA     H113845  -3.834  28.068  -6.381
    1XTA     H213846  -3.618  28.121  -6.262
    1XTA     H313847  -3.845  28.327  -5.955
    1XTA     H413848  -4.062  28.265  -6.073
    1XTA     H513849  -4.150  28.003  -6.528
    1XTA     H613850  -4.207  27.760  -6.538
    1XTA     H713851  -4.149  27.713  -6.118
    1XTA     H813852  -4.108  27.962  -6.107
    1XTA     H913853  -3.953  28.276  -6.506
    1XTA    H1013854  -4.051  28.422  -6.641
    1XTA    H1113855  -4.425  28.394  -6.418
    1XTA    H1213856  -4.318  28.212  -6.281
    1XTA    OA113857  -3.616  28.300  -6.042
    1XTA    CO113858  -3.513  28.345  -6.123
    1XTA    OA213859  -4.188  27.579  -6.345
    1XTA    CO213860  -4.290  27.531  -6.437
    1XTA    CL113861  -4.397  27.455  -6.350
    1XTA    CL213862  -4.461  27.544  -6.243
    1XTA    CL313863  -4.568  27.642  -6.288
    1XTA    CL413864  -4.515  27.778  -6.330
    1XTA    CO313865  -4.511  27.868  -6.196
    1XTA    OA313866  -4.637  27.919  -6.187
    1XTA    CO413867  -4.660  27.973  -6.063
    1XTA    CT113868  -4.805  28.019  -6.049
    1XTA    CL513869  -4.838  28.110  -5.930
    1XTA    CL613870  -4.783  28.257  -5.935
    1XTA    OA413871  -4.322  28.507  -6.622
    1XTA    CO513872  -4.253  28.597  -6.701
    1XTA    HL113873  -4.318  28.676  -6.738
    1XTA    HL213874  -3.475  28.264  -6.186
    1XTA    HL313875  -3.551  28.418  -6.190
    1XTA    HL413876  -3.427  28.386  -6.065
    1XTA    HL513877  -4.350  27.614  -6.487
    1XTA    HL613878  -4.238  27.452  -6.499
    1XTA    HL713879  -4.346  27.371  -6.299
    1XTA    HL813880  -4.481  27.415  -6.409
    1XTA    HL913881  -4.390  27.602  -6.180
    1XTA   HL1013882  -4.499  27.471  -6.175
    1XTA   HL1113883  -4.636  27.601  -6.358
    1XTA   HL1213884  -4.632  27.658  -6.201
    1XTA   HL1313885  -4.576  27.827  -6.407
    1XTA   HL1413886  -4.421  27.767  -6.380
    1XTA   HL1513887  -4.482  27.811  -6.109
    1XTA   HL1613888  -4.434  27.945  -6.203
    1XTA   HL1713889  -4.632  27.900  -5.982
    1XTA   HL1813890  -4.585  28.051  -6.045
    1XTA   HL1913891  -4.792  28.072  -5.845
    1XTA   HL2013892  -4.942  28.100  -5.913
    1XTA   HL2113893  -4.687  28.249  -5.982
    1XTA   HL2213894  -4.776  28.314  -5.842
    1XTA   HL2313895  -4.834  28.321  -6.009
    1XTA   HL2413896  -4.208  28.547  -6.792
    1XTA   HL2513897  -4.180  28.644  -6.640
    1XTA    CO813898  -4.886  27.885  -6.034
    1XTA    CO913899  -4.863  28.079  -6.183
    1XTA    OA613900  -4.997  28.114  -6.176
    1XTA   HL4213901  -4.987  27.899  -6.017
    1XTA   HL4313902  -4.877  27.834  -6.129
    1XTA   HL4813903  -4.828  28.019  -6.269
    1XTA   HL4913904  -4.814  28.175  -6.202
    1XTA     NT13905  -9.523  26.918  -8.160
    1XTA    CN113906  -9.564  26.948  -8.284
    1XTA     C113907  -9.668  27.030  -8.321
    1XTA     C213908  -9.693  27.054  -8.455
    1XTA     C313909  -9.617  26.990  -8.556
    1XTA     C413910  -9.522  26.900  -8.518
    1XTA     C513911  -9.491  26.880  -8.384
    1XTA    CN213912  -9.461  27.015  -8.079
    1XTA     C613913  -9.326  27.006  -8.043
    1XTA     C713914  -9.257  27.106  -7.976
    1XTA     C813915  -9.325  27.222  -7.931
    1XTA     C913916  -9.463  27.219  -7.949
    1XTA    C1013917  -9.530  27.121  -8.020
    1XTA    CN313918  -9.582  26.814  -8.100
    1XTA    C1113919  -9.505  26.699  -8.070
    1XTA    C1213920  -9.571  26.587  -8.009
    1XTA    C1313921  -9.714  26.587  -7.997
    1XTA    C1413922  -9.786  26.700  -8.028
    1XTA    C1513923  -9.722  26.813  -8.084
    1XTA     H113924  -9.729  27.089  -8.250
    1XTA     H213925  -9.761  27.133  -8.497
    1XTA     H313926  -9.474  26.841  -8.587
    1XTA     H413927  -9.418  26.807  -8.362
    1XTA     H513928  -9.277  26.918  -8.086
    1XTA     H613929  -9.159  27.074  -7.964
    1XTA     H713930  -9.526  27.305  -7.919
    1XTA     H813931  -9.639  27.134  -8.046
    1XTA     H913932  -9.405  26.705  -8.102
    1XTA    H1013933  -9.504  26.499  -7.989
    1XTA    H1113934  -9.896  26.698  -8.010
    1XTA    H1213935  -9.778  26.899  -8.108
    1XTA    OA113936  -9.630  27.014  -8.691
    1XTA    CO113937  -9.758  27.027  -8.737
    1XTA    OA213938  -9.247  27.305  -7.856
    1XTA    CO213939  -9.317  27.426  -7.815
    1XTA    CL113940  -9.221  27.523  -7.748
    1XTA    CL213941  -9.113  27.591  -7.830
    1XTA    CL313942  -9.168  27.693  -7.929
    1XTA    CL413943  -9.113  27.697  -8.072
    1XTA    CO313944  -9.136  27.571  -8.152
    1XTA    OA313945  -9.042  27.469  -8.116
    1XTA    CO413946  -8.918  27.468  -8.192
    1XTA    CT113947  -8.823  27.353  -8.142
    1XTA    CL513948  -8.882  27.219  -8.195
    1XTA    CL613949  -8.805  27.088  -8.150
    1XTA    OA413950  -9.790  26.477  -7.956
    1XTA    CO513951  -9.706  26.375  -7.898
    1XTA    HL113952  -9.632  26.345  -7.960
    1XTA    HL213953  -9.823  27.107  -8.689
    1XTA    HL313954  -9.747  27.064  -8.835
    1XTA    HL413955  -9.824  26.939  -8.724
    1XTA    HL513956  -9.362  27.471  -7.904
    1XTA    HL613957  -9.398  27.395  -7.745
    1XTA    HL713958  -9.161  27.489  -7.665
    1XTA    HL813959  -9.265  27.604  -7.696
    1XTA    HL913960  -9.060  27.517  -7.887
    1XTA   HL1013961  -9.056  27.644  -7.758
    1XTA   HL1113962  -9.274  27.686  -7.929
    1XTA   HL1213963  -9.141  27.789  -7.883
    1XTA   HL1313964  -9.008  27.719  -8.060
    1XTA   HL1413965  -9.162  27.787  -8.115
    1XTA   HL1513966  -9.231  27.535  -8.123
    1XTA   HL1613967  -9.140  27.582  -8.257
    1XTA   HL1713968  -8.943  27.462  -8.298
    1XTA   HL1813969  -8.853  27.554  -8.194
    1XTA   HL1913970  -8.886  27.238  -8.300
    1XTA   HL2013971  -8.976  27.206  -8.150
    1XTA   HL2113972  -8.842  27.055  -8.056
    1XTA   HL2213973  -8.703  27.116  -8.147
    1XTA   HL2313974  -8.806  27.010  -8.227
    1XTA   HL2413975  -9.760  26.291  -7.869
    1XTA   HL2513976  -9.668  26.411  -7.802
    1XTA    CO813977  -8.822  27.364  -7.991
    1XTA    CO913978  -8.677  27.378  -8.186
    1XTA    OA613979  -8.774  27.281  -7.939
    1XTA   HL4213980  -8.925  27.372  -7.955
    1XTA   HL4313981  -8.767  27.447  -7.954
    1XTA   HL4813982  -8.631  27.502  -8.166
    1XTA   HL4913983  -8.616  27.318  -8.125
    1XTA     NT13984  -9.287  28.598  -6.945
    1XTA    CN113985  -9.243  28.493  -7.018
    1XTA     C113986  -9.286  28.473  -7.149
    1XTA     C213987  -9.248  28.354  -7.224
    1XTA     C313988  -9.172  28.253  -7.155
    1XTA     C413989  -9.133  28.274  -7.021
    1XTA     C513990  -9.169  28.390  -6.956
    1XTA    CN213991  -9.202  28.676  -6.881
    1XTA     C613992  -9.198  28.672  -6.740
    1XTA     C713993  -9.104  28.754  -6.678
    1XTA     C813994  -9.005  28.825  -6.745
    1XTA     C913995  -8.996  28.819  -6.886
    1XTA    C1013996  -9.089  28.735  -6.953
    1XTA    CN313997  -9.410  28.656  -6.967
    1XTA    C1113998  -9.531  28.608  -6.908
    1XTA    C1213999  -9.652  28.670  -6.939
    1XTA    C1314000  -9.655  28.789  -7.019
    1XTA    C1414001  -9.529  28.836  -7.075
    1XTA    C1514002  -9.413  28.771  -7.049
    1XTA     H114003  -9.347  28.557  -7.197
    1XTA     H214004  -9.266  28.347  -7.325
    1XTA     H314005  -9.074  28.200  -6.975
    1XTA     H414006  -9.137  28.405  -6.849
    1XTA     H514007  -9.277  28.630  -6.687
    1XTA     H614008  -9.095  28.767  -6.572
    1XTA     H714009  -8.911  28.871  -6.936
    1XTA     H814010  -9.067  28.727  -7.057
    1XTA     H914011  -9.526  28.531  -6.836
    1XTA    H1014012  -9.745  28.632  -6.901
    1XTA    H1114013  -9.542  28.925  -7.132
    1XTA    H1214014  -9.320  28.817  -7.097
    1XTA    OA114015  -9.143  28.133  -7.213
    1XTA    CO114016  -9.006  28.093  -7.210
    1XTA    OA214017  -8.918  28.889  -6.661
    1XTA    CO214018  -8.844  28.995  -6.720
    1XTA    CL114019  -8.764  29.069  -6.608
    1XTA    CL214020  -8.665  29.174  -6.659
    1XTA    CL314021  -8.727  29.310  -6.700
    1XTA    CL414022  -8.718  29.351  -6.837
    1XTA    CO314023  -8.814  29.281  -6.934
    1XTA    OA314024  -8.947  29.270  -6.873
    1XTA    CO414025  -9.045  29.212  -6.961
    1XTA    CT114026  -9.188  29.220  -6.898
    1XTA    CL514027  -9.291  29.167  -6.998
    1XTA    CL614028  -9.428  29.166  -6.939
    1XTA    OA414029  -9.776  28.848  -7.042
    1XTA    CO514030  -9.792  28.949  -7.138
    1XTA    HL114031  -9.724  29.032  -7.117
    1XTA    HL214032  -8.990  27.996  -7.261
    1XTA    HL314033  -8.934  28.169  -7.239
    1XTA    HL414034  -8.974  28.065  -7.115
    1XTA    HL514035  -8.771  28.959  -6.793
    1XTA    HL614036  -8.903  29.063  -6.785
    1XTA    HL714037  -8.716  28.987  -6.553
    1XTA    HL814038  -8.842  29.109  -6.540
    1XTA    HL914039  -8.617  29.129  -6.746
    1XTA   HL1014040  -8.588  29.185  -6.579
    1XTA   HL1114041  -8.831  29.323  -6.663
    1XTA   HL1214042  -8.673  29.389  -6.644
    1XTA   HL1314043  -8.609  29.344  -6.862
    1XTA   HL1414044  -8.733  29.454  -6.850
    1XTA   HL1514045  -8.831  29.329  -7.030
    1XTA   HL1614046  -8.777  29.180  -6.955
    1XTA   HL1714047  -9.042  29.250  -7.062
    1XTA   HL1814048  -9.019  29.111  -6.991
    1XTA   HL1914049  -9.268  29.063  -7.022
    1XTA   HL2014050  -9.280  29.227  -7.087
    1XTA   HL2114051  -9.432  29.103  -6.849
    1XTA   HL2214052  -9.512  29.142  -6.992
    1XTA   HL2314053  -9.465  29.267  -6.921
    1XTA   HL2414054  -9.892  28.984  -7.142
    1XTA   HL2514055  -9.756  28.921  -7.234
    1XTA    CO814056  -9.208  29.368  -6.881
    1XTA    CO914057  -9.180  29.137  -6.761
    1XTA    OA614058  -9.200  29.438  -7.000
    1XTA   HL4214059  -9.118  29.406  -6.838
    1XTA   HL4314060  -9.297  29.407  -6.828
    1XTA   HL4814061  -9.205  29.034  -6.803
    1XTA   HL4914062  -9.078  29.148  -6.722
    1XTA     NT14063  -4.135  29.396  -9.017
    1XTA    CN114064  -4.041  29.491  -8.987
    1XTA     C114065  -4.076  29.631  -8.976
    1XTA     C214066  -3.981  29.731  -8.953
    1XTA     C314067  -3.844  29.698  -8.942
    1XTA     C414068  -3.809  29.563  -8.943
    1XTA     C514069  -3.905  29.457  -8.962
    1XTA    CN214070  -4.268  29.422  -9.022
    1XTA     C614071  -4.344  29.410  -8.908
    1XTA     C714072  -4.483  29.437  -8.910
    1XTA     C814073  -4.536  29.497  -9.026
    1XTA     C914074  -4.458  29.529  -9.136
    1XTA    C1014075  -4.322  29.484  -9.135
    1XTA    CN314076  -4.102  29.275  -9.073
    1XTA    C1114077  -4.059  29.169  -8.988
    1XTA    C1214078  -4.020  29.045  -9.047
    1XTA    C1314079  -4.012  29.029  -9.187
    1XTA    C1414080  -4.043  29.143  -9.267
    1XTA    C1514081  -4.096  29.261  -9.209
    1XTA     H114082  -4.182  29.663  -8.984
    1XTA     H214083  -3.998  29.838  -8.949
    1XTA     H314084  -3.712  29.527  -8.940
    1XTA     H414085  -3.861  29.360  -8.971
    1XTA     H514086  -4.299  29.363  -8.818
    1XTA     H614087  -4.543  29.413  -8.827
    1XTA     H714088  -4.493  29.570  -9.228
    1XTA     H814089  -4.259  29.507  -9.217
    1XTA     H914090  -4.058  29.178  -8.879
    1XTA    H1014091  -3.989  28.963  -8.977
    1XTA    H1114092  -4.055  29.141  -9.376
    1XTA    H1214093  -4.131  29.346  -9.267
    1XTA    OA114094  -3.749  29.802  -8.917
    1XTA    CO114095  -3.630  29.763  -8.848
    1XTA    OA214096  -4.669  29.516  -9.043
    1XTA    CO214097  -4.740  29.399  -9.011
    1XTA    CL114098  -4.813  29.344  -9.142
    1XTA    CL214099  -4.908  29.452  -9.195
    1XTA    CL314100  -4.996  29.405  -9.307
    1XTA    CL414101  -4.927  29.449  -9.439
    1XTA    CO314102  -4.987  29.369  -9.555
    1XTA    OA314103  -4.972  29.227  -9.533
    1XTA    CO414104  -4.981  29.146  -9.650
    1XTA    CT114105  -4.981  28.992  -9.618
    1XTA    CL514106  -4.835  28.951  -9.583
    1XTA    CL614107  -4.792  28.981  -9.444
    1XTA    OA414108  -3.960  28.909  -9.238
    1XTA    CO514109  -3.963  28.898  -9.383
    1XTA    HL114110  -3.944  28.797  -9.411
    1XTA    HL214111  -3.571  29.689  -8.905
    1XTA    HL314112  -3.577  29.856  -8.860
    1XTA    HL414113  -3.648  29.750  -8.739
    1XTA    HL514114  -4.692  29.323  -8.961
    1XTA    HL614115  -4.823  29.421  -8.949
    1XTA    HL714116  -4.872  29.263  -9.100
    1XTA    HL814117  -4.751  29.297  -9.217
    1XTA    HL914118  -4.858  29.539  -9.227
    1XTA   HL1014119  -4.967  29.483  -9.108
    1XTA   HL1114120  -5.006  29.300  -9.302
    1XTA   HL1214121  -5.098  29.451  -9.288
    1XTA   HL1314122  -4.818  29.428  -9.428
    1XTA   HL1414123  -4.944  29.556  -9.457
    1XTA   HL1514124  -5.096  29.386  -9.566
    1XTA   HL1614125  -4.944  29.396  -9.648
    1XTA   HL1714126  -5.080  29.177  -9.694
    1XTA   HL1814127  -4.898  29.169  -9.713
    1XTA   HL1914128  -4.766  28.986  -9.659
    1XTA   HL2014129  -4.841  28.840  -9.586
    1XTA   HL2114130  -4.779  29.092  -9.439
    1XTA   HL2214131  -4.693  28.942  -9.432
    1XTA   HL2314132  -4.850  28.941  -9.353
    1XTA   HL2414133  -3.889  28.964  -9.416
    1XTA   HL2514134  -4.062  28.926  -9.423
    1XTA    CO814135  -5.029  28.917  -9.744
    1XTA    CO914136  -5.079  28.948  -9.495
    1XTA    OA614137  -5.181  28.961  -9.518
    1XTA   HL4214138  -4.970  28.954  -9.826
    1XTA   HL4314139  -5.165  28.956  -9.762
    1XTA   HL4814140  -5.049  29.008  -9.407
    1XTA   HL4914141  -5.065  28.849  -9.478
    1XTA     NT14142  -5.819  29.524  -9.433
    1XTA    CN114143  -5.698  29.559  -9.393
    1XTA     C114144  -5.619  29.502  -9.291
    1XTA     C214145  -5.491  29.549  -9.258
    1XTA     C314146  -5.433  29.656  -9.323
    1XTA     C414147  -5.511  29.713  -9.426
    1XTA     C514148  -5.641  29.668  -9.463
    1XTA    CN214149  -5.821  29.403  -9.496
    1XTA     C614150  -5.841  29.286  -9.415
    1XTA     C714151  -5.853  29.167  -9.479
    1XTA     C814152  -5.842  29.158  -9.621
    1XTA     C914153  -5.814  29.267  -9.700
    1XTA    C1014154  -5.810  29.396  -9.636
    1XTA    CN314155  -5.925  29.583  -9.367
    1XTA    C1114156  -6.004  29.672  -9.441
    1XTA    C1214157  -6.109  29.742  -9.378
    1XTA    C1314158  -6.135  29.731  -9.242
    1XTA    C1414159  -6.050  29.642  -9.167
    1XTA    C1514160  -5.948  29.569  -9.227
    1XTA     H114161  -5.660  29.415  -9.245
    1XTA     H214162  -5.439  29.492  -9.188
    1XTA     H314163  -5.472  29.799  -9.476
    1XTA     H414164  -5.685  29.716  -9.543
    1XTA     H514165  -5.846  29.299  -9.304
    1XTA     H614166  -5.882  29.084  -9.417
    1XTA     H714167  -5.789  29.248  -9.808
    1XTA     H814168  -5.780  29.489  -9.688
    1XTA     H914169  -5.979  29.687  -9.550
    1XTA    H1014170  -6.165  29.800  -9.452
    1XTA    H1114171  -6.054  29.634  -9.061
    1XTA    H1214172  -5.892  29.502  -9.159
    1XTA    OA114173  -5.304  29.704  -9.295
    1XTA    CO114174  -5.268  29.821  -9.357
    1XTA    OA214175  -5.833  29.036  -9.686
    1XTA    CO214176  -5.880  28.918  -9.623
    1XTA    CL114177  -5.870  28.815  -9.735
    1XTA    CL214178  -5.727  28.773  -9.763
    1XTA    CL314179  -5.677  28.677  -9.654
    1XTA    CL414180  -5.531  28.645  -9.661
    1XTA    CO314181  -5.489  28.583  -9.800
    1XTA    OA314182  -5.356  28.539  -9.790
    1XTA    CO414183  -5.255  28.635  -9.819
    1XTA    CT114184  -5.112  28.593  -9.776
    1XTA    CL514185  -5.118  28.528  -9.633
    1XTA    CL614186  -5.155  28.618  -9.516
    1XTA    OA414187  -6.237  29.806  -9.188
    1XTA    CO514188  -6.242  29.822  -9.050
    1XTA    HL114189  -6.144  29.858  -9.026
    1XTA    HL214190  -5.349  29.889  -9.339
    1XTA    HL314191  -5.167  29.851  -9.313
    1XTA    HL414192  -5.246  29.801  -9.458
    1XTA    HL514193  -5.816  28.888  -9.536
    1XTA    HL614194  -5.982  28.934  -9.583
    1XTA    HL714195  -5.901  28.877  -9.819
    1XTA    HL814196  -5.925  28.716  -9.719
    1XTA    HL914197  -5.660  28.862  -9.764
    1XTA   HL1014198  -5.718  28.722  -9.857
    1XTA   HL1114199  -5.692  28.717  -9.553
    1XTA   HL1214200  -5.736  28.585  -9.658
    1XTA   HL1314201  -5.509  28.564  -9.598
    1XTA   HL1414202  -5.463  28.732  -9.629
    1XTA   HL1514203  -5.547  28.496  -9.834
    1XTA   HL1614204  -5.507  28.660  -9.864
    1XTA   HL1714205  -5.261  28.671  -9.918
    1XTA   HL1814206  -5.284  28.718  -9.759
    1XTA   HL1914207  -5.026  28.484  -9.615
    1XTA   HL2014208  -5.179  28.437  -9.643
    1XTA   HL2114209  -5.067  28.657  -9.472
    1XTA   HL2214210  -5.220  28.552  -9.453
    1XTA   HL2314211  -5.207  28.706  -9.556
    1XTA   HL2414212  -6.277  29.740  -8.990
    1XTA   HL2514213  -6.311  29.903  -9.020
    1XTA    CO814214  -5.003  28.709  -9.802
    1XTA    CO914215  -5.071  28.483  -9.879
    1XTA    OA614216  -5.027  28.778  -9.720
    1XTA   HL4214217  -5.025  28.747  -9.898
    1XTA   HL4314218  -4.899  28.681  -9.796
    1XTA   HL4814219  -5.087  28.526 -10.012
    1XTA   HL4914220  -5.130  28.397  -9.860
    1XTA     NT14221  -5.989  26.859  -4.522
    1XTA    CN114222  -5.919  26.917  -4.423
    1XTA     C114223  -5.780  26.934  -4.451
    1XTA     C214224  -5.692  27.007  -4.369
    1XTA     C314225  -5.746  27.074  -4.258
    1XTA     C414226  -5.886  27.061  -4.232
    1XTA     C514227  -5.973  26.974  -4.307
    1XTA    CN214228  -6.035  26.731  -4.506
    1XTA     C614229  -6.172  26.698  -4.497
    1XTA     C714230  -6.220  26.563  -4.479
    1XTA     C814231  -6.126  26.461  -4.463
    1XTA     C914232  -5.991  26.492  -4.482
    1XTA    C1014233  -5.947  26.627  -4.507
    1XTA    CN314234  -6.033  26.932  -4.621
    1XTA    C1114235  -5.986  26.909  -4.752
    1XTA    C1214236  -6.037  26.974  -4.867
    1XTA    C1314237  -6.135  27.078  -4.849
    1XTA    C1414238  -6.174  27.113  -4.720
    1XTA    C1514239  -6.114  27.049  -4.611
    1XTA     H114240  -5.742  26.891  -4.534
    1XTA     H214241  -5.585  27.003  -4.392
    1XTA     H314242  -5.919  27.116  -4.139
    1XTA     H414243  -6.080  26.972  -4.281
    1XTA     H514244  -6.252  26.774  -4.506
    1XTA     H614245  -6.328  26.539  -4.479
    1XTA     H714246  -5.919  26.412  -4.483
    1XTA     H814247  -5.850  26.662  -4.510
    1XTA     H914248  -5.920  26.825  -4.761
    1XTA    H1014249  -6.000  26.938  -4.969
    1XTA    H1114250  -6.234  27.196  -4.690
    1XTA    H1214251  -6.133  27.086  -4.508
    1XTA    OA114252  -5.663  27.150  -4.175
    1XTA    CO114253  -5.522  27.125  -4.191
    1XTA    OA214254  -6.175  26.334  -4.434
    1XTA    CO214255  -6.087  26.225  -4.463
    1XTA    CL114256  -6.106  26.158  -4.608
    1XTA    CL214257  -6.090  26.258  -4.723
    1XTA    CL314258  -6.095  26.187  -4.860
    1XTA    CL414259  -5.962  26.127  -4.902
    1XTA    CO314260  -5.968  26.048  -5.030
    1XTA    OA314261  -6.077  25.954  -5.026
    1XTA    CO414262  -6.045  25.835  -4.950
    1XTA    CT114263  -6.150  25.717  -4.959
    1XTA    CL514264  -6.285  25.781  -4.955
    1XTA    CL614265  -6.403  25.681  -4.969
    1XTA    OA414266  -6.197  27.141  -4.951
    1XTA    CO514267  -6.171  27.094  -5.081
    1XTA    HL114268  -6.218  27.153  -5.158
    1XTA    HL214269  -5.502  27.017  -4.207
    1XTA    HL314270  -5.502  27.188  -4.283
    1XTA    HL414271  -5.452  27.152  -4.109
    1XTA    HL514272  -5.987  26.245  -4.428
    1XTA    HL614273  -6.130  26.147  -4.395
    1XTA    HL714274  -6.203  26.111  -4.626
    1XTA    HL814275  -6.020  26.095  -4.628
    1XTA    HL914276  -5.996  26.312  -4.720
    1XTA   HL1014277  -6.167  26.334  -4.728
    1XTA   HL1114278  -6.168  26.106  -4.841
    1XTA   HL1214279  -6.131  26.258  -4.937
    1XTA   HL1314280  -5.912  26.068  -4.823
    1XTA   HL1414281  -5.888  26.209  -4.920
    1XTA   HL1514282  -5.974  26.117  -5.118
    1XTA   HL1614283  -5.885  25.988  -5.059
    1XTA   HL1714284  -5.944  25.805  -4.979
    1XTA   HL1814285  -6.038  25.866  -4.846
    1XTA   HL1914286  -6.292  25.866  -5.022
    1XTA   HL2014287  -6.292  25.834  -4.861
    1XTA   HL2114288  -6.399  25.602  -4.894
    1XTA   HL2214289  -6.400  25.638  -5.074
    1XTA   HL2314290  -6.495  25.722  -4.951
    1XTA   HL2414291  -6.196  26.990  -5.092
    1XTA   HL2514292  -6.062  27.094  -5.100
    1XTA    CO814293  -6.129  25.613  -4.848
    1XTA    CO914294  -6.126  25.632  -5.087
    1XTA    OA614295  -5.987  25.605  -5.109
    1XTA   HL4214296  -6.208  25.534  -4.856
    1XTA   HL4314297  -6.027  25.568  -4.867
    1XTA   HL4814298  -6.165  25.690  -5.174
    1XTA   HL4914299  -6.205  25.553  -5.091
    1XTA     NT14300  -4.294  28.889  -5.516
    1XTA    CN114301  -4.235  28.808  -5.420
    1XTA     C114302  -4.303  28.777  -5.300
    1XTA     C214303  -4.243  28.696  -5.199
    1XTA     C314304  -4.119  28.640  -5.231
    1XTA     C414305  -4.053  28.662  -5.354
    1XTA     C514306  -4.107  28.750  -5.448
    1XTA    CN214307  -4.410  28.849  -5.579
    1XTA     C614308  -4.535  28.918  -5.550
    1XTA     C714309  -4.648  28.886  -5.632
    1XTA     C814310  -4.634  28.786  -5.731
    1XTA     C914311  -4.509  28.720  -5.753
    1XTA    C1014312  -4.396  28.753  -5.679
    1XTA    CN314313  -4.241  29.012  -5.527
    1XTA    C1114314  -4.245  29.097  -5.414
    1XTA    C1214315  -4.202  29.228  -5.423
    1XTA    C1314316  -4.167  29.283  -5.548
    1XTA    C1414317  -4.165  29.198  -5.660
    1XTA    C1514318  -4.206  29.063  -5.650
    1XTA     H114319  -4.403  28.813  -5.287
    1XTA     H214320  -4.295  28.678  -5.103
    1XTA     H314321  -3.960  28.607  -5.376
    1XTA     H414322  -4.055  28.763  -5.545
    1XTA     H514323  -4.546  28.979  -5.460
    1XTA     H614324  -4.736  28.931  -5.618
    1XTA     H714325  -4.502  28.645  -5.826
    1XTA     H814326  -4.300  28.713  -5.710
    1XTA     H914327  -4.293  29.050  -5.323
    1XTA    H1014328  -4.203  29.293  -5.339
    1XTA    H1114329  -4.144  29.236  -5.755
    1XTA    H1214330  -4.216  29.001  -5.735
    1XTA    OA114331  -4.056  28.559  -5.141
    1XTA    CO114332  -4.139  28.468  -5.064
    1XTA    OA214333  -4.734  28.754  -5.816
    1XTA    CO214334  -4.858  28.824  -5.815
    1XTA    CL114335  -4.957  28.753  -5.908
    1XTA    CL214336  -5.087  28.701  -5.838
    1XTA    CL314337  -5.158  28.610  -5.941
    1XTA    CL414338  -5.285  28.542  -5.888
    1XTA    CO314339  -5.391  28.648  -5.850
    1XTA    OA314340  -5.502  28.563  -5.818
    1XTA    CO414341  -5.504  28.528  -5.674
    1XTA    CT114342  -5.624  28.439  -5.645
    1XTA    CL514343  -5.580  28.359  -5.522
    1XTA    CL614344  -5.551  28.433  -5.392
    1XTA    OA414345  -4.146  29.419  -5.548
    1XTA    CO514346  -4.150  29.490  -5.673
    1XTA    HL114347  -4.078  29.467  -5.749
    1XTA    HL214348  -4.189  28.392  -5.122
    1XTA    HL314349  -4.095  28.407  -4.988
    1XTA    HL414350  -4.218  28.520  -5.005
    1XTA    HL514351  -4.882  28.832  -5.708
    1XTA    HL614352  -4.832  28.923  -5.859
    1XTA    HL714353  -4.901  28.675  -5.962
    1XTA    HL814354  -4.986  28.820  -5.986
    1XTA    HL914355  -5.155  28.786  -5.821
    1XTA   HL1014356  -5.060  28.638  -5.751
    1XTA   HL1114357  -5.198  28.662  -6.022
    1XTA   HL1214358  -5.094  28.536  -5.985
    1XTA   HL1314359  -5.258  28.483  -5.803
    1XTA   HL1414360  -5.320  28.480  -5.971
    1XTA   HL1514361  -5.376  28.713  -5.761
    1XTA   HL1614362  -5.416  28.713  -5.936
    1XTA   HL1714363  -5.412  28.470  -5.651
    1XTA   HL1814364  -5.510  28.612  -5.612
    1XTA   HL1914365  -5.501  28.286  -5.544
    1XTA   HL2014366  -5.667  28.303  -5.493
    1XTA   HL2114367  -5.642  28.485  -5.360
    1XTA   HL2214368  -5.471  28.509  -5.404
    1XTA   HL2314369  -5.526  28.371  -5.306
    1XTA   HL2414370  -4.140  29.593  -5.659
    1XTA   HL2514371  -4.251  29.483  -5.719
    1XTA    CO814372  -5.648  28.347  -5.766
    1XTA    CO914373  -5.752  28.519  -5.639
    1XTA    OA614374  -5.864  28.445  -5.599
    1XTA   HL4214375  -5.660  28.410  -5.848
    1XTA   HL4314376  -5.733  28.293  -5.747
    1XTA   HL4814377  -5.762  28.566  -5.732
    1XTA   HL4914378  -5.748  28.604  -5.569
    1XTA     NT14379  -6.619  29.978  -7.227
    1XTA    CN114380  -6.749  29.935  -7.244
    1XTA     C114381  -6.788  29.800  -7.276
    1XTA     C214382  -6.924  29.763  -7.291
    1XTA     C314383  -7.020  29.863  -7.279
    1XTA     C414384  -6.978  29.997  -7.245
    1XTA     C514385  -6.847  30.035  -7.233
    1XTA    CN214386  -6.528  29.939  -7.315
    1XTA     C614387  -6.430  29.844  -7.273
    1XTA     C714388  -6.341  29.799  -7.371
    1XTA     C814389  -6.349  29.839  -7.507
    1XTA     C914390  -6.444  29.930  -7.547
    1XTA    C1014391  -6.533  29.977  -7.451
    1XTA    CN314392  -6.584  30.082  -7.143
    1XTA    C1114393  -6.637  30.085  -7.016
    1XTA    C1214394  -6.622  30.199  -6.933
    1XTA    C1314395  -6.548  30.310  -6.974
    1XTA    C1414396  -6.488  30.305  -7.105
    1XTA    C1514397  -6.505  30.192  -7.186
    1XTA     H114398  -6.717  29.719  -7.272
    1XTA     H214399  -6.954  29.664  -7.309
    1XTA     H314400  -7.041  30.083  -7.235
    1XTA     H414401  -6.829  30.142  -7.226
    1XTA     H514402  -6.416  29.794  -7.179
    1XTA     H614403  -6.264  29.725  -7.346
    1XTA     H714404  -6.453  29.964  -7.647
    1XTA     H814405  -6.613  30.045  -7.472
    1XTA     H914406  -6.695  29.998  -6.982
    1XTA    H1014407  -6.667  30.194  -6.831
    1XTA    H1114408  -6.440  30.393  -7.147
    1XTA    H1214409  -6.471  30.201  -7.288
    1XTA    OA114410  -7.152  29.825  -7.301
    1XTA    CO114411  -7.251  29.927  -7.291
    1XTA    OA214412  -6.256  29.815  -7.602
    1XTA    CO214413  -6.135  29.754  -7.560
    1XTA    CL114414  -6.069  29.722  -7.694
    1XTA    CL214415  -5.945  29.641  -7.677
    1XTA    CL314416  -5.849  29.641  -7.794
    1XTA    CL414417  -5.721  29.589  -7.750
    1XTA    CO314418  -5.637  29.689  -7.676
    1XTA    OA314419  -5.598  29.790  -7.768
    1XTA    CO414420  -5.502  29.868  -7.710
    1XTA    CT114421  -5.451  29.964  -7.817
    1XTA    CL514422  -5.572  30.056  -7.845
    1XTA    CL614423  -5.536  30.164  -7.952
    1XTA    OA414424  -6.536  30.427  -6.902
    1XTA    CO514425  -6.648  30.476  -6.837
    1XTA    HL114426  -6.724  30.491  -6.923
    1XTA    HL214427  -7.238  29.967  -7.190
    1XTA    HL314428  -7.243  30.016  -7.363
    1XTA    HL414429  -7.353  29.893  -7.295
    1XTA    HL514430  -6.078  29.819  -7.489
    1XTA    HL614431  -6.154  29.655  -7.512
    1XTA    HL714432  -6.051  29.818  -7.751
    1XTA    HL814433  -6.142  29.680  -7.764
    1XTA    HL914434  -5.979  29.539  -7.652
    1XTA   HL1014435  -5.886  29.666  -7.590
    1XTA   HL1114436  -5.872  29.582  -7.887
    1XTA   HL1214437  -5.833  29.746  -7.832
    1XTA   HL1314438  -5.671  29.558  -7.833
    1XTA   HL1414439  -5.744  29.497  -7.693
    1XTA   HL1514440  -5.695  29.729  -7.591
    1XTA   HL1614441  -5.543  29.642  -7.636
    1XTA   HL1714442  -5.539  29.927  -7.633
    1XTA   HL1814443  -5.427  29.803  -7.674
    1XTA   HL1914444  -5.617  30.097  -7.754
    1XTA   HL2014445  -5.641  29.999  -7.895
    1XTA   HL2114446  -5.505  30.117  -8.041
    1XTA   HL2214447  -5.463  30.229  -7.907
    1XTA   HL2314448  -5.629  30.222  -7.965
    1XTA   HL2414449  -6.612  30.578  -6.801
    1XTA   HL2514450  -6.699  30.416  -6.764
    1XTA    CO814451  -5.400  29.881  -7.940
    1XTA    CO914452  -5.324  30.042  -7.776
    1XTA    OA614453  -5.294  29.795  -7.906
    1XTA   HL4214454  -5.371  29.953  -8.022
    1XTA   HL4314455  -5.476  29.819  -7.993
    1XTA   HL4814456  -5.294  30.101  -7.855
    1XTA   HL4914457  -5.237  29.983  -7.759
    1XTA     NT14458  -6.857  25.887  -6.480
    1XTA    CN114459  -6.760  25.857  -6.571
    1XTA     C114460  -6.795  25.823  -6.708
    1XTA     C214461  -6.694  25.782  -6.793
    1XTA     C314462  -6.561  25.762  -6.753
    1XTA     C414463  -6.525  25.798  -6.615
    1XTA     C514464  -6.625  25.840  -6.527
    1XTA    CN214465  -6.963  25.798  -6.465
    1XTA     C614466  -7.079  25.815  -6.539
    1XTA     C714467  -7.192  25.732  -6.513
    1XTA     C814468  -7.187  25.626  -6.421
    1XTA     C914469  -7.069  25.614  -6.345
    1XTA    C1014470  -6.955  25.692  -6.378
    1XTA    CN314471  -6.858  25.997  -6.399
    1XTA    C1114472  -6.787  25.993  -6.277
    1XTA    C1214473  -6.776  26.111  -6.202
    1XTA    C1314474  -6.841  26.229  -6.236
    1XTA    C1414475  -6.910  26.231  -6.357
    1XTA    C1514476  -6.926  26.116  -6.442
    1XTA     H114477  -6.897  25.828  -6.731
    1XTA     H214478  -6.724  25.750  -6.893
    1XTA     H314479  -6.424  25.789  -6.585
    1XTA     H414480  -6.609  25.862  -6.425
    1XTA     H514481  -7.073  25.888  -6.619
    1XTA     H614482  -7.279  25.759  -6.563
    1XTA     H714483  -7.050  25.533  -6.271
    1XTA     H814484  -6.864  25.683  -6.322
    1XTA     H914485  -6.733  25.906  -6.257
    1XTA    H1014486  -6.710  26.115  -6.114
    1XTA    H1114487  -6.955  26.322  -6.382
    1XTA    H1214488  -6.979  26.135  -6.531
    1XTA    OA114489  -6.460  25.727  -6.835
    1XTA    CO114490  -6.506  25.673  -6.958
    1XTA    OA214491  -7.300  25.560  -6.383
    1XTA    CO214492  -7.300  25.466  -6.276
    1XTA    CL114493  -7.447  25.465  -6.216
    1XTA    CL214494  -7.476  25.351  -6.123
    1XTA    CL314495  -7.610  25.381  -6.051
    1XTA    CL414496  -7.609  25.373  -5.895
    1XTA    CO314497  -7.708  25.471  -5.826
    1XTA    OA314498  -7.666  25.604  -5.842
    1XTA    CO414499  -7.779  25.689  -5.826
    1XTA    CT114500  -7.739  25.835  -5.839
    1XTA    CL514501  -7.872  25.914  -5.831
    1XTA    CL614502  -7.859  26.066  -5.843
    1XTA    OA414503  -6.839  26.326  -6.143
    1XTA    CO514504  -6.857  26.454  -6.197
    1XTA    HL114505  -6.783  26.494  -6.271
    1XTA    HL214506  -6.569  25.586  -6.932
    1XTA    HL314507  -6.559  25.744  -7.022
    1XTA    HL414508  -6.415  25.640  -7.010
    1XTA    HL514509  -7.289  25.368  -6.316
    1XTA    HL614510  -7.231  25.484  -6.195
    1XTA    HL714511  -7.516  25.462  -6.306
    1XTA    HL814512  -7.461  25.561  -6.169
    1XTA    HL914513  -7.409  25.344  -6.036
    1XTA   HL1014514  -7.489  25.249  -6.174
    1XTA   HL1114515  -7.636  25.481  -6.080
    1XTA   HL1214516  -7.686  25.315  -6.090
    1XTA   HL1314517  -7.506  25.397  -5.860
    1XTA   HL1414518  -7.634  25.269  -5.859
    1XTA   HL1514519  -7.816  25.460  -5.870
    1XTA   HL1614520  -7.718  25.447  -5.716
    1XTA   HL1714521  -7.852  25.670  -5.903
    1XTA   HL1814522  -7.829  25.666  -5.731
    1XTA   HL1914523  -7.921  25.890  -5.741
    1XTA   HL2014524  -7.934  25.876  -5.913
    1XTA   HL2114525  -7.815  26.115  -5.752
    1XTA   HL2214526  -7.958  26.112  -5.852
    1XTA   HL2314527  -7.796  26.085  -5.936
    1XTA   HL2414528  -6.847  26.515  -6.109
    1XTA   HL2514529  -6.956  26.476  -6.245
    1XTA    CO814530  -7.678  25.853  -5.982
    1XTA    CO914531  -7.644  25.882  -5.724
    1XTA    OA614532  -7.765  25.824  -6.088
    1XTA   HL4214533  -7.589  25.794  -5.984
    1XTA   HL4314534  -7.636  25.952  -5.989
    1XTA   HL4814535  -7.590  25.976  -5.752
    1XTA   HL4914536  -7.710  25.893  -5.633
    1XTA     NT14537  -5.893  22.896  -5.220
    1XTA    CN114538  -5.844  23.019  -5.245
    1XTA     C114539  -5.752  23.037  -5.347
    1XTA     C214540  -5.706  23.163  -5.376
    1XTA     C314541  -5.764  23.276  -5.306
    1XTA     C414542  -5.839  23.255  -5.191
    1XTA     C514543  -5.877  23.126  -5.160
    1XTA    CN214544  -6.003  22.848  -5.288
    1XTA     C614545  -6.125  22.854  -5.227
    1XTA     C714546  -6.238  22.804  -5.289
    1XTA     C814547  -6.227  22.753  -5.423
    1XTA     C914548  -6.098  22.740  -5.484
    1XTA    C1014549  -5.987  22.787  -5.412
    1XTA    CN314550  -5.817  22.812  -5.144
    1XTA    C1114551  -5.686  22.783  -5.180
    1XTA    C1214552  -5.605  22.708  -5.090
    1XTA    C1314553  -5.660  22.664  -4.968
    1XTA    C1414554  -5.790  22.696  -4.936
    1XTA    C1514555  -5.870  22.771  -5.023
    1XTA     H114556  -5.729  22.944  -5.405
    1XTA     H214557  -5.646  23.180  -5.462
    1XTA     H314558  -5.864  23.335  -5.119
    1XTA     H414559  -5.935  23.099  -5.076
    1XTA     H514560  -6.122  22.904  -5.130
    1XTA     H614561  -6.333  22.826  -5.246
    1XTA     H714562  -6.087  22.694  -5.583
    1XTA     H814563  -5.889  22.787  -5.450
    1XTA     H914564  -5.635  22.823  -5.270
    1XTA    H1014565  -5.496  22.696  -5.112
    1XTA    H1114566  -5.828  22.660  -4.835
    1XTA    H1214567  -5.959  22.813  -4.987
    1XTA    OA114568  -5.729  23.406  -5.322
    1XTA    CO114569  -5.691  23.443  -5.456
    1XTA    OA214570  -6.335  22.705  -5.494
    1XTA    CO214571  -6.464  22.721  -5.429
    1XTA    CL114572  -6.583  22.667  -5.515
    1XTA    CL214573  -6.622  22.757  -5.630
    1XTA    CL314574  -6.692  22.881  -5.579
    1XTA    CL414575  -6.690  22.999  -5.680
    1XTA    CO314576  -6.765  22.969  -5.803
    1XTA    OA314577  -6.737  23.051  -5.913
    1XTA    CO414578  -6.605  23.031  -5.972
    1XTA    CT114579  -6.617  23.026  -6.122
    1XTA    CL514580  -6.647  23.168  -6.159
    1XTA    CL614581  -6.656  23.197  -6.315
    1XTA    OA414582  -5.589  22.612  -4.869
    1XTA    CO514583  -5.454  22.576  -4.897
    1XTA    HL114584  -5.401  22.665  -4.922
    1XTA    HL214585  -5.719  23.376  -5.540
    1XTA    HL314586  -5.734  23.544  -5.483
    1XTA    HL414587  -5.582  23.455  -5.459
    1XTA    HL514588  -6.474  22.683  -5.331
    1XTA    HL614589  -6.460  22.835  -5.423
    1XTA    HL714590  -6.672  22.632  -5.459
    1XTA    HL814591  -6.540  22.574  -5.564
    1XTA    HL914592  -6.682  22.699  -5.705
    1XTA   HL1014593  -6.531  22.784  -5.680
    1XTA   HL1114594  -6.786  22.851  -5.559
    1XTA   HL1214595  -6.635  22.915  -5.486
    1XTA   HL1314596  -6.583  23.019  -5.705
    1XTA   HL1414597  -6.729  23.090  -5.630
    1XTA   HL1514598  -6.729  22.866  -5.828
    1XTA   HL1614599  -6.875  22.982  -5.777
    1XTA   HL1714600  -6.538  23.110  -5.934
    1XTA   HL1814601  -6.577  22.925  -5.937
    1XTA   HL1914602  -6.567  23.238  -6.127
    1XTA   HL2014603  -6.737  23.202  -6.105
    1XTA   HL2114604  -6.704  23.118  -6.374
    1XTA   HL2214605  -6.555  23.206  -6.349
    1XTA   HL2314606  -6.713  23.286  -6.328
    1XTA   HL2414607  -5.443  22.510  -4.979
    1XTA   HL2514608  -5.404  22.529  -4.814
    1XTA    CO814609  -6.742  22.935  -6.154
    1XTA    CO914610  -6.499  22.960  -6.196
    1XTA    OA614611  -6.380  23.033  -6.173
    1XTA   HL4214612  -6.736  22.840  -6.097
    1XTA   HL4314613  -6.833  22.984  -6.131
    1XTA   HL4814614  -6.516  22.944  -6.298
    1XTA   HL4914615  -6.486  22.852  -6.159
    1XTA     NT14616  -4.222  29.858  -9.397
    1XTA    CN114617  -4.149  29.917  -9.492
    1XTA     C114618  -4.197  29.950  -9.619
    1XTA     C214619  -4.114  30.009  -9.714
    1XTA     C314620  -3.978  30.041  -9.681
    1XTA     C414621  -3.928  30.012  -9.551
    1XTA     C514622  -4.018  29.954  -9.464
    1XTA    CN214623  -4.267  29.917  -9.280
    1XTA     C614624  -4.205  29.898  -9.161
    1XTA     C714625  -4.246  29.974  -9.044
    1XTA     C814626  -4.361  30.051  -9.047
    1XTA     C914627  -4.422  30.069  -9.172
    1XTA    C1014628  -4.377  29.999  -9.287
    1XTA    CN314629  -4.270  29.737  -9.432
    1XTA    C1114630  -4.189  29.627  -9.436
    1XTA    C1214631  -4.233  29.501  -9.477
    1XTA    C1314632  -4.367  29.483  -9.514
    1XTA    C1414633  -4.451  29.598  -9.511
    1XTA    C1514634  -4.403  29.724  -9.477
    1XTA     H114635  -4.294  29.918  -9.650
    1XTA     H214636  -4.152  30.024  -9.815
    1XTA     H314637  -3.830  30.040  -9.518
    1XTA     H414638  -3.975  29.924  -9.365
    1XTA     H514639  -4.123  29.827  -9.146
    1XTA     H614640  -4.192  29.954  -8.958
    1XTA     H714641  -4.511  30.137  -9.166
    1XTA     H814642  -4.420  30.006  -9.384
    1XTA     H914643  -4.090  29.629  -9.388
    1XTA    H1014644  -4.161  29.423  -9.483
    1XTA    H1114645  -4.558  29.593  -9.539
    1XTA    H1214646  -4.462  29.816  -9.484
    1XTA    OA114647  -3.921  30.124  -9.772
    1XTA    CO114648  -3.781  30.133  -9.760
    1XTA    OA214649  -4.410  30.111  -8.937
    1XTA    CO214650  -4.361  30.084  -8.809
    1XTA    CL114651  -4.446  30.131  -8.690
    1XTA    CL214652  -4.389  30.117  -8.550
    1XTA    CL314653  -4.251  30.167  -8.502
    1XTA    CL414654  -4.262  30.193  -8.354
    1XTA    CO314655  -4.126  30.212  -8.295
    1XTA    OA314656  -4.150  30.218  -8.149
    1XTA    CO414657  -4.166  30.093  -8.084
    1XTA    CT114658  -4.171  30.123  -7.931
    1XTA    CL514659  -4.177  29.995  -7.854
    1XTA    CL614660  -4.291  29.893  -7.885
    1XTA    OA414661  -4.421  29.361  -9.539
    1XTA    CO514662  -4.564  29.342  -9.512
    1XTA    HL114663  -4.593  29.243  -9.524
    1XTA    HL214664  -3.740  30.204  -9.684
    1XTA    HL314665  -3.734  30.043  -9.750
    1XTA    HL414666  -3.742  30.174  -9.855
    1XTA    HL514667  -4.340  29.978  -8.797
    1XTA    HL614668  -4.268  30.134  -8.793
    1XTA    HL714669  -4.547  30.091  -8.691
    1XTA    HL814670  -4.472  30.233  -8.712
    1XTA    HL914671  -4.388  30.008  -8.542
    1XTA   HL1014672  -4.465  30.147  -8.476
    1XTA   HL1114673  -4.176  30.086  -8.521
    1XTA   HL1214674  -4.231  30.255  -8.567
    1XTA   HL1314675  -4.312  30.112  -8.303
    1XTA   HL1414676  -4.318  30.282  -8.337
    1XTA   HL1514677  -4.067  30.126  -8.321
    1XTA   HL1614678  -4.087  30.312  -8.332
    1XTA   HL1714679  -4.269  30.071  -8.113
    1XTA   HL1814680  -4.093  30.025  -8.119
    1XTA   HL1914681  -4.176  30.015  -7.744
    1XTA   HL2014682  -4.079  29.954  -7.870
    1XTA   HL2114683  -4.383  29.944  -7.894
    1XTA   HL2214684  -4.310  29.810  -7.815
    1XTA   HL2314685  -4.275  29.852  -7.990
    1XTA   HL2414686  -4.629  29.392  -9.582
    1XTA   HL2514687  -4.591  29.369  -9.412
    1XTA    CO814688  -4.299  30.202  -7.891
    1XTA    CO914689  -4.047  30.188  -7.882
    1XTA    OA614690  -4.298  30.219  -7.752
    1XTA   HL4214691  -4.384  30.149  -7.915
    1XTA   HL4314692  -4.309  30.295  -7.945
    1XTA   HL4814693  -4.041  30.291  -7.921
    1XTA   HL4914694  -4.048  30.201  -7.773
    1XTA     NT14695  -3.583  30.058 -11.522
    1XTA    CN114696  -3.550  30.041 -11.655
    1XTA     C114697  -3.528  29.913 -11.716
    1XTA     C214698  -3.511  29.897 -11.855
    1XTA     C314699  -3.498  30.017 -11.929
    1XTA     C414700  -3.508  30.147 -11.871
    1XTA     C514701  -3.542  30.157 -11.735
    1XTA    CN214702  -3.492  30.023 -11.427
    1XTA     C614703  -3.474  29.884 -11.391
    1XTA     C714704  -3.366  29.854 -11.309
    1XTA     C814705  -3.278  29.949 -11.252
    1XTA     C914706  -3.300  30.081 -11.287
    1XTA    C1014707  -3.402  30.117 -11.374
    1XTA    CN314708  -3.709  30.083 -11.494
    1XTA    C1114709  -3.798  29.985 -11.442
    1XTA    C1214710  -3.933  30.014 -11.410
    1XTA    C1314711  -3.975  30.144 -11.437
    1XTA    C1414712  -3.893  30.243 -11.495
    1XTA    C1514713  -3.755  30.215 -11.518
    1XTA     H114714  -3.534  29.819 -11.655
    1XTA     H214715  -3.506  29.802 -11.906
    1XTA     H314716  -3.497  30.236 -11.926
    1XTA     H414717  -3.545  30.257 -11.693
    1XTA     H514718  -3.542  29.810 -11.431
    1XTA     H614719  -3.348  29.752 -11.284
    1XTA     H714720  -3.240  30.160 -11.246
    1XTA     H814721  -3.411  30.216 -11.410
    1XTA     H914722  -3.770  29.887 -11.415
    1XTA    H1014723  -3.997  29.940 -11.361
    1XTA    H1114724  -3.938  30.341 -11.517
    1XTA    H1214725  -3.692  30.300 -11.555
    1XTA    OA114726  -3.478  30.016 -12.067
    1XTA    CO114727  -3.478  29.898 -12.144
    1XTA    OA214728  -3.171  29.913 -11.171
    1XTA    CO214729  -3.048  29.989 -11.178
    1XTA    CL114730  -2.934  29.939 -11.270
    1XTA    CL214731  -2.957  29.974 -11.424
    1XTA    CL314732  -2.870  29.906 -11.528
    1XTA    CL414733  -2.883  29.749 -11.526
    1XTA    CO314734  -2.751  29.680 -11.573
    1XTA    OA314735  -2.693  29.715 -11.691
    1XTA    CO414736  -2.762  29.655 -11.802
    1XTA    CT114737  -2.710  29.714 -11.936
    1XTA    CL514738  -2.555  29.707 -11.930
    1XTA    CL614739  -2.472  29.729 -12.063
    1XTA    OA414740  -4.104  30.163 -11.393
    1XTA    CO514741  -4.192  30.244 -11.470
    1XTA    HL114742  -4.294  30.218 -11.444
    1XTA    HL214743  -3.388  29.839 -12.113
    1XTA    HL314744  -3.574  29.852 -12.141
    1XTA    HL414745  -3.452  29.923 -12.246
    1XTA    HL514746  -3.059  30.098 -11.179
    1XTA    HL614747  -3.019  29.970 -11.075
    1XTA    HL714748  -2.925  29.830 -11.253
    1XTA    HL814749  -2.842  29.993 -11.237
    1XTA    HL914750  -2.925  30.079 -11.434
    1XTA   HL1014751  -3.064  29.966 -11.438
    1XTA   HL1114752  -2.872  29.945 -11.630
    1XTA   HL1214753  -2.771  29.916 -11.497
    1XTA   HL1314754  -2.958  29.724 -11.602
    1XTA   HL1414755  -2.910  29.721 -11.419
    1XTA   HL1514756  -2.677  29.703 -11.494
    1XTA   HL1614757  -2.769  29.571 -11.578
    1XTA   HL1714758  -2.727  29.552 -11.801
    1XTA   HL1814759  -2.865  29.673 -11.794
    1XTA   HL1914760  -2.511  29.613 -11.895
    1XTA   HL2014761  -2.524  29.775 -11.853
    1XTA   HL2114762  -2.366  29.717 -12.045
    1XTA   HL2214763  -2.478  29.831 -12.105
    1XTA   HL2314764  -2.499  29.652 -12.137
    1XTA   HL2414765  -4.182  30.217 -11.572
    1XTA   HL2514766  -4.184  30.347 -11.443
    1XTA    CO814767  -2.764  29.860 -11.960
    1XTA    CO914768  -2.766  29.630 -12.059
    1XTA    OA614769  -2.905  29.864 -11.964
    1XTA   HL4214770  -2.725  29.896 -12.061
    1XTA   HL4314771  -2.721  29.932 -11.895
    1XTA   HL4814772  -2.868  29.634 -12.050
    1XTA   HL4914773  -2.735  29.526 -12.052
    1XTA     NT14774  -3.315  30.623  -3.314
    1XTA    CN114775  -3.324  30.598  -3.180
    1XTA     C114776  -3.440  30.649  -3.108
    1XTA     C214777  -3.454  30.633  -2.972
    1XTA     C314778  -3.366  30.549  -2.904
    1XTA     C414779  -3.252  30.498  -2.970
    1XTA     C514780  -3.232  30.521  -3.104
    1XTA    CN214781  -3.424  30.600  -3.386
    1XTA     C614782  -3.504  30.707  -3.424
    1XTA     C714783  -3.618  30.683  -3.499
    1XTA     C814784  -3.650  30.552  -3.540
    1XTA     C914785  -3.580  30.445  -3.487
    1XTA    C1014786  -3.462  30.467  -3.416
    1XTA    CN314787  -3.195  30.632  -3.370
    1XTA    C1114788  -3.176  30.567  -3.492
    1XTA    C1214789  -3.057  30.568  -3.562
    1XTA    C1314790  -2.959  30.657  -3.517
    1XTA    C1414791  -2.974  30.729  -3.399
    1XTA    C1514792  -3.092  30.715  -3.324
    1XTA     H114793  -3.519  30.706  -3.161
    1XTA     H214794  -3.536  30.677  -2.923
    1XTA     H314795  -3.169  30.440  -2.928
    1XTA     H414796  -3.153  30.479  -3.166
    1XTA     H514797  -3.472  30.807  -3.390
    1XTA     H614798  -3.673  30.768  -3.533
    1XTA     H714799  -3.614  30.348  -3.496
    1XTA     H814800  -3.405  30.377  -3.392
    1XTA     H914801  -3.251  30.509  -3.533
    1XTA    H1014802  -3.043  30.507  -3.655
    1XTA    H1114803  -2.897  30.796  -3.365
    1XTA    H1214804  -3.096  30.774  -3.239
    1XTA    OA114805  -3.375  30.535  -2.766
    1XTA    CO114806  -3.262  30.484  -2.696
    1XTA    OA214807  -3.762  30.533  -3.620
    1XTA    CO214808  -3.761  30.418  -3.712
    1XTA    CL114809  -3.669  30.443  -3.831
    1XTA    CL214810  -3.515  30.458  -3.816
    1XTA    CL314811  -3.441  30.476  -3.956
    1XTA    CL414812  -3.290  30.477  -3.933
    1XTA    CO314813  -3.230  30.416  -4.062
    1XTA    OA314814  -3.239  30.519  -4.159
    1XTA    CO414815  -3.206  30.469  -4.281
    1XTA    CT114816  -3.194  30.595  -4.377
    1XTA    CL514817  -3.054  30.666  -4.365
    1XTA    CL614818  -3.028  30.739  -4.236
    1XTA    OA414819  -2.834  30.666  -3.578
    1XTA    CO514820  -2.805  30.563  -3.674
    1XTA    HL114821  -2.708  30.572  -3.721
    1XTA    HL214822  -3.275  30.473  -2.589
    1XTA    HL314823  -3.230  30.387  -2.746
    1XTA    HL414824  -3.185  30.564  -2.717
    1XTA    HL514825  -3.725  30.325  -3.661
    1XTA    HL614826  -3.863  30.404  -3.744
    1XTA    HL714827  -3.709  30.528  -3.895
    1XTA    HL814828  -3.684  30.350  -3.884
    1XTA    HL914829  -3.479  30.370  -3.765
    1XTA   HL1014830  -3.478  30.545  -3.765
    1XTA   HL1114831  -3.485  30.390  -4.012
    1XTA   HL1214832  -3.459  30.563  -4.016
    1XTA   HL1314833  -3.271  30.425  -3.840
    1XTA   HL1414834  -3.250  30.579  -3.909
    1XTA   HL1514835  -3.128  30.395  -4.044
    1XTA   HL1614836  -3.272  30.321  -4.084
    1XTA   HL1714837  -3.112  30.419  -4.289
    1XTA   HL1814838  -3.285  30.404  -4.317
    1XTA   HL1914839  -3.050  30.741  -4.443
    1XTA   HL2014840  -2.986  30.591  -4.385
    1XTA   HL2114841  -3.016  30.659  -4.166
    1XTA   HL2214842  -3.112  30.805  -4.210
    1XTA   HL2314843  -2.926  30.783  -4.242
    1XTA   HL2414844  -2.868  30.578  -3.766
    1XTA   HL2514845  -2.813  30.457  -3.629
    1XTA    CO814846  -3.307  30.683  -4.388
    1XTA    CO914847  -3.226  30.560  -4.526
    1XTA    OA614848  -3.297  30.696  -4.499
    1XTA   HL4214849  -3.297  30.788  -4.341
    1XTA   HL4314850  -3.404  30.636  -4.373
    1XTA   HL4814851  -3.302  30.451  -4.548
    1XTA   HL4914852  -3.150  30.576  -4.600
    1XTA     NT14853  -5.830  31.157  -4.937
    1XTA    CN114854  -5.938  31.115  -5.010
    1XTA     C114855  -5.913  31.082  -5.148
    1XTA     C214856  -6.020  31.042  -5.228
    1XTA     C314857  -6.153  31.043  -5.182
    1XTA     C414858  -6.178  31.075  -5.048
    1XTA     C514859  -6.071  31.122  -4.966
    1XTA    CN214860  -5.764  31.060  -4.866
    1XTA     C614861  -5.808  31.039  -4.732
    1XTA     C714862  -5.730  30.957  -4.654
    1XTA     C814863  -5.636  30.868  -4.706
    1XTA     C914864  -5.613  30.864  -4.851
    1XTA    C1014865  -5.671  30.971  -4.929
    1XTA    CN314866  -5.790  31.287  -4.950
    1XTA    C1114867  -5.781  31.374  -4.843
    1XTA    C1214868  -5.735  31.509  -4.858
    1XTA    C1314869  -5.699  31.557  -4.983
    1XTA    C1414870  -5.716  31.470  -5.097
    1XTA    C1514871  -5.762  31.338  -5.081
    1XTA     H114872  -5.818  31.076  -5.192
    1XTA     H214873  -5.990  31.014  -5.329
    1XTA     H314874  -6.286  31.078  -5.009
    1XTA     H414875  -6.094  31.164  -4.864
    1XTA     H514876  -5.887  31.096  -4.670
    1XTA     H614877  -5.757  30.955  -4.551
    1XTA     H714878  -5.539  30.800  -4.886
    1XTA     H814879  -5.659  30.992  -5.037
    1XTA     H914880  -5.806  31.327  -4.749
    1XTA    H1014881  -5.723  31.580  -4.777
    1XTA    H1114882  -5.693  31.499  -5.194
    1XTA    H1214883  -5.789  31.283  -5.175
    1XTA    OA114884  -6.250  31.002  -5.264
    1XTA    CO114885  -6.216  30.999  -5.401
    1XTA    OA214886  -5.562  30.775  -4.645
    1XTA    CO214887  -5.513  30.798  -4.513
    1XTA    CL114888  -5.467  30.668  -4.442
    1XTA    CL214889  -5.412  30.690  -4.301
    1XTA    CL314890  -5.368  30.563  -4.224
    1XTA    CL414891  -5.298  30.613  -4.093
    1XTA    CO314892  -5.182  30.521  -4.059
    1XTA    OA314893  -5.237  30.394  -4.045
    1XTA    CO414894  -5.187  30.302  -4.135
    1XTA    CT114895  -5.246  30.162  -4.127
    1XTA    CL514896  -5.225  30.098  -3.980
    1XTA    CL614897  -5.081  30.089  -3.936
    1XTA    OA414898  -5.677  31.692  -5.000
    1XTA    CO514899  -5.631  31.731  -5.130
    1XTA    HL114900  -5.603  31.837  -5.134
    1XTA    HL214901  -6.298  30.960  -5.457
    1XTA    HL314902  -6.190  31.098  -5.439
    1XTA    HL414903  -6.135  30.932  -5.426
    1XTA    HL514904  -5.429  30.863  -4.515
    1XTA    HL614905  -5.588  30.850  -4.452
    1XTA    HL714906  -5.396  30.609  -4.507
    1XTA    HL814907  -5.552  30.604  -4.434
    1XTA    HL914908  -5.483  30.742  -4.246
    1XTA   HL1014909  -5.320  30.757  -4.317
    1XTA   HL1114910  -5.440  30.487  -4.210
    1XTA   HL1214911  -5.304  30.515  -4.290
    1XTA   HL1314912  -5.384  30.611  -4.028
    1XTA   HL1414913  -5.259  30.717  -4.098
    1XTA   HL1514914  -5.096  30.522  -4.128
    1XTA   HL1614915  -5.140  30.539  -3.958
    1XTA   HL1714916  -5.216  30.332  -4.233
    1XTA   HL1814917  -5.077  30.301  -4.145
    1XTA   HL1914918  -5.268  29.998  -3.964
    1XTA   HL2014919  -5.281  30.159  -3.906
    1XTA   HL2114920  -5.029  30.182  -3.936
    1XTA   HL2214921  -5.022  30.020  -3.997
    1XTA   HL2314922  -5.073  30.054  -3.838
    1XTA   HL2414923  -5.697  31.700  -5.206
    1XTA   HL2514924  -5.539  31.686  -5.150
    1XTA    CO814925  -5.194  30.069  -4.237
    1XTA    CO914926  -5.400  30.174  -4.148
    1XTA    OA614927  -5.249  29.935  -4.235
    1XTA   HL4214928  -5.093  30.042  -4.217
    1XTA   HL4314929  -5.199  30.118  -4.330
    1XTA   HL4814930  -5.436  30.074  -4.113
    1XTA   HL4914931  -5.421  30.186  -4.259
    1XTA     NT14932  -7.933  24.561  -5.706
    1XTA    CN114933  -7.817  24.583  -5.635
    1XTA     C114934  -7.776  24.489  -5.538
    1XTA     C214935  -7.661  24.505  -5.463
    1XTA     C314936  -7.572  24.608  -5.490
    1XTA     C414937  -7.604  24.700  -5.583
    1XTA     C514938  -7.730  24.692  -5.652
    1XTA    CN214939  -8.036  24.644  -5.694
    1XTA     C614940  -8.128  24.631  -5.592
    1XTA     C714941  -8.242  24.707  -5.585
    1XTA     C814942  -8.263  24.808  -5.680
    1XTA     C914943  -8.160  24.834  -5.775
    1XTA    C1014944  -8.053  24.753  -5.785
    1XTA    CN314945  -7.946  24.472  -5.803
    1XTA    C1114946  -8.014  24.349  -5.781
    1XTA    C1214947  -8.035  24.262  -5.894
    1XTA    C1314948  -7.995  24.300  -6.026
    1XTA    C1414949  -7.923  24.420  -6.042
    1XTA    C1514950  -7.894  24.504  -5.930
    1XTA     H114951  -7.848  24.409  -5.505
    1XTA     H214952  -7.634  24.420  -5.402
    1XTA     H314953  -7.532  24.776  -5.586
    1XTA     H414954  -7.752  24.763  -5.730
    1XTA     H514955  -8.121  24.554  -5.519
    1XTA     H614956  -8.307  24.682  -5.502
    1XTA     H714957  -8.162  24.896  -5.864
    1XTA     H814958  -7.983  24.766  -5.865
    1XTA     H914959  -8.053  24.331  -5.676
    1XTA    H1014960  -8.087  24.169  -5.882
    1XTA    H1114961  -7.897  24.462  -6.142
    1XTA    H1214962  -7.830  24.591  -5.942
    1XTA    OA114963  -7.446  24.619  -5.430
    1XTA    CO114964  -7.359  24.511  -5.443
    1XTA    OA214965  -8.376  24.885  -5.683
    1XTA    CO214966  -8.344  25.022  -5.708
    1XTA    CL114967  -8.395  25.077  -5.846
    1XTA    CL214968  -8.385  25.229  -5.840
    1XTA    CL314969  -8.430  25.316  -5.958
    1XTA    CL414970  -8.341  25.285  -6.079
    1XTA    CO314971  -8.370  25.382  -6.192
    1XTA    OA314972  -8.255  25.370  -6.273
    1XTA    CO414973  -8.271  25.424  -6.403
    1XTA    CT114974  -8.129  25.446  -6.472
    1XTA    CL514975  -8.134  25.509  -6.617
    1XTA    CL614976  -8.212  25.422  -6.713
    1XTA    OA414977  -8.023  24.236  -6.136
    1XTA    CO514978  -8.066  24.097  -6.127
    1XTA    HL114979  -7.974  24.053  -6.086
    1XTA    HL214980  -7.265  24.536  -5.389
    1XTA    HL314981  -7.408  24.431  -5.392
    1XTA    HL414982  -7.326  24.495  -5.554
    1XTA    HL514983  -8.397  25.068  -5.624
    1XTA    HL614984  -8.237  25.046  -5.692
    1XTA    HL714985  -8.503  25.052  -5.853
    1XTA    HL814986  -8.344  25.034  -5.928
    1XTA    HL914987  -8.279  25.240  -5.818
    1XTA   HL1014988  -8.440  25.261  -5.743
    1XTA   HL1114989  -8.537  25.306  -5.985
    1XTA   HL1214990  -8.414  25.420  -5.938
    1XTA   HL1314991  -8.341  25.180  -6.108
    1XTA   HL1414992  -8.241  25.311  -6.050
    1XTA   HL1514993  -8.457  25.346  -6.250
    1XTA   HL1614994  -8.397  25.484  -6.158
    1XTA   HL1714995  -8.335  25.358  -6.462
    1XTA   HL1814996  -8.326  25.513  -6.409
    1XTA   HL1914997  -8.036  25.527  -6.652
    1XTA   HL2014998  -8.187  25.604  -6.610
    1XTA   HL2114999  -8.312  25.402  -6.666
    1XTA   HL2215000  -8.157  25.335  -6.749
    1XTA   HL2315001  -8.233  25.488  -6.797
    1XTA   HL2415002  -8.096  24.056  -6.224
    1XTA   HL2515003  -8.145  24.075  -6.052
    1XTA    CO815004  -8.067  25.306  -6.491
    1XTA    CO915005  -8.052  25.530  -6.361
    1XTA    OA615006  -7.978  25.303  -6.549
    1XTA   HL4215007  -8.143  25.230  -6.513
    1XTA   HL4315008  -8.047  25.275  -6.393
    1XTA   HL4815009  -8.109  25.659  -6.347
    1XTA   HL4915010  -8.054  25.489  -6.257
    1XTA     NT15011  -2.570  27.275  -8.043
    1XTA    CN115012  -2.565  27.390  -8.114
    1XTA     C115013  -2.495  27.389  -8.239
    1XTA     C215014  -2.483  27.511  -8.314
    1XTA     C315015  -2.540  27.628  -8.262
    1XTA     C415016  -2.615  27.627  -8.146
    1XTA     C515017  -2.627  27.506  -8.072
    1XTA    CN215018  -2.541  27.274  -7.910
    1XTA     C615019  -2.641  27.264  -7.810
    1XTA     C715020  -2.612  27.259  -7.667
    1XTA     C815021  -2.480  27.274  -7.634
    1XTA     C915022  -2.378  27.276  -7.733
    1XTA    C1015023  -2.406  27.276  -7.871
    1XTA    CN315024  -2.637  27.167  -8.095
    1XTA    C1115025  -2.772  27.185  -8.136
    1XTA    C1215026  -2.844  27.070  -8.176
    1XTA    C1315027  -2.781  26.946  -8.180
    1XTA    C1415028  -2.649  26.928  -8.140
    1XTA    C1515029  -2.578  27.039  -8.092
    1XTA     H115030  -2.454  27.289  -8.273
    1XTA     H215031  -2.432  27.514  -8.408
    1XTA     H315032  -2.659  27.717  -8.108
    1XTA     H415033  -2.679  27.505  -7.978
    1XTA     H515034  -2.742  27.264  -7.838
    1XTA     H615035  -2.692  27.250  -7.602
    1XTA     H715036  -2.269  27.282  -7.695
    1XTA     H815037  -2.327  27.290  -7.944
    1XTA     H915038  -2.819  27.286  -8.140
    1XTA    H1015039  -2.940  27.082  -8.221
    1XTA    H1115040  -2.601  26.832  -8.139
    1XTA    H1215041  -2.481  27.032  -8.057
    1XTA    OA115042  -2.526  27.748  -8.327
    1XTA    CO115043  -2.458  27.752  -8.459
    1XTA    OA215044  -2.442  27.283  -7.500
    1XTA    CO215045  -2.328  27.376  -7.477
    1XTA    CL115046  -2.339  27.431  -7.334
    1XTA    CL215047  -2.468  27.520  -7.310
    1XTA    CL315048  -2.433  27.658  -7.364
    1XTA    CL415049  -2.558  27.737  -7.377
    1XTA    CO315050  -2.530  27.889  -7.378
    1XTA    OA315051  -2.638  27.955  -7.434
    1XTA    CO415052  -2.601  28.084  -7.479
    1XTA    CT115053  -2.708  28.188  -7.440
    1XTA    CL515054  -2.697  28.207  -7.288
    1XTA    CL615055  -2.776  28.326  -7.243
    1XTA    OA415056  -2.867  26.841  -8.217
    1XTA    CO515057  -2.818  26.704  -8.197
    1XTA    HL115058  -2.713  26.685  -8.220
    1XTA    HL215059  -2.354  27.707  -8.446
    1XTA    HL315060  -2.499  27.684  -8.538
    1XTA    HL415061  -2.446  27.859  -8.497
    1XTA    HL515062  -2.228  27.342  -7.498
    1XTA    HL615063  -2.333  27.467  -7.544
    1XTA    HL715064  -2.249  27.483  -7.303
    1XTA    HL815065  -2.346  27.344  -7.273
    1XTA    HL915066  -2.490  27.538  -7.201
    1XTA   HL1015067  -2.558  27.471  -7.350
    1XTA   HL1115068  -2.355  27.702  -7.303
    1XTA   HL1215069  -2.394  27.651  -7.464
    1XTA   HL1315070  -2.631  27.713  -7.296
    1XTA   HL1415071  -2.611  27.709  -7.466
    1XTA   HL1515072  -2.516  27.941  -7.281
    1XTA   HL1615073  -2.437  27.907  -7.435
    1XTA   HL1715074  -2.497  28.114  -7.448
    1XTA   HL1815075  -2.595  28.086  -7.585
    1XTA   HL1915076  -2.595  28.215  -7.253
    1XTA   HL2015077  -2.743  28.124  -7.237
    1XTA   HL2115078  -2.882  28.326  -7.267
    1XTA   HL2215079  -2.732  28.419  -7.261
    1XTA   HL2315080  -2.775  28.330  -7.127
    1XTA   HL2415081  -2.870  26.642  -8.271
    1XTA   HL2515082  -2.838  26.675  -8.094
    1XTA    CO815083  -2.852  28.146  -7.486
    1XTA    CO915084  -2.673  28.326  -7.510
    1XTA    OA615085  -2.537  28.358  -7.520
    1XTA   HL4215086  -2.858  28.048  -7.451
    1XTA   HL4315087  -2.843  28.153  -7.596
    1XTA   HL4815088  -2.728  28.408  -7.470
    1XTA   HL4915089  -2.708  28.318  -7.615
    1XTA     NT15090  -3.702  26.779  -7.843
    1XTA    CN115091  -3.708  26.720  -7.726
    1XTA     C115092  -3.652  26.795  -7.624
    1XTA     C215093  -3.623  26.733  -7.507
    1XTA     C315094  -3.649  26.598  -7.488
    1XTA     C415095  -3.704  26.518  -7.590
    1XTA     C515096  -3.735  26.580  -7.709
    1XTA    CN215097  -3.627  26.710  -7.933
    1XTA     C615098  -3.490  26.684  -7.909
    1XTA     C715099  -3.415  26.613  -8.001
    1XTA     C815100  -3.467  26.560  -8.118
    1XTA     C915101  -3.599  26.595  -8.155
    1XTA    C1015102  -3.675  26.662  -8.057
    1XTA    CN315103  -3.774  26.880  -7.892
    1XTA    C1115104  -3.901  26.854  -7.946
    1XTA    C1215105  -3.981  26.954  -8.006
    1XTA    C1315106  -3.940  27.085  -7.995
    1XTA    C1415107  -3.815  27.115  -7.931
    1XTA    C1515108  -3.728  27.013  -7.882
    1XTA     H115109  -3.627  26.900  -7.641
    1XTA     H215110  -3.585  26.792  -7.427
    1XTA     H315111  -3.707  26.411  -7.576
    1XTA     H415112  -3.765  26.517  -7.790
    1XTA     H515113  -3.432  26.722  -7.828
    1XTA     H615114  -3.314  26.598  -7.966
    1XTA     H715115  -3.643  26.570  -8.249
    1XTA     H815116  -3.770  26.700  -8.081
    1XTA     H915117  -3.933  26.749  -7.931
    1XTA    H1015118  -4.080  26.937  -8.047
    1XTA    H1115119  -3.777  27.218  -7.930
    1XTA    H1215120  -3.627  27.041  -7.851
    1XTA    OA115121  -3.610  26.543  -7.361
    1XTA    CO115122  -3.665  26.413  -7.331
    1XTA    OA215123  -3.394  26.492  -8.207
    1XTA    CO215124  -3.267  26.547  -8.239
    1XTA    CL115125  -3.277  26.656  -8.345
    1XTA    CL215126  -3.148  26.734  -8.359
    1XTA    CL315127  -3.143  26.819  -8.486
    1XTA    CL415128  -3.261  26.915  -8.484
    1XTA    CO315129  -3.263  27.015  -8.606
    1XTA    OA315130  -3.220  26.959  -8.726
    1XTA    CO415131  -3.202  27.058  -8.823
    1XTA    CT115132  -3.145  26.993  -8.944
    1XTA    CL515133  -3.249  26.897  -9.005
    1XTA    CL615134  -3.376  26.968  -9.039
    1XTA    OA415135  -4.020  27.184  -8.040
    1XTA    CO515136  -3.974  27.313  -8.063
    1XTA    HL115137  -3.959  27.367  -7.970
    1XTA    HL215138  -3.635  26.336  -7.402
    1XTA    HL315139  -3.619  26.376  -7.242
    1XTA    HL415140  -3.772  26.429  -7.321
    1XTA    HL515141  -3.210  26.579  -8.155
    1XTA    HL615142  -3.203  26.466  -8.290
    1XTA    HL715143  -3.365  26.717  -8.321
    1XTA    HL815144  -3.302  26.612  -8.438
    1XTA    HL915145  -3.062  26.666  -8.373
    1XTA   HL1015146  -3.116  26.793  -8.273
    1XTA   HL1115147  -3.052  26.882  -8.496
    1XTA   HL1215148  -3.151  26.754  -8.569
    1XTA   HL1315149  -3.276  26.970  -8.389
    1XTA   HL1415150  -3.352  26.862  -8.482
    1XTA   HL1515151  -3.364  27.051  -8.614
    1XTA   HL1615152  -3.206  27.108  -8.580
    1XTA   HL1715153  -3.298  27.107  -8.825
    1XTA   HL1815154  -3.135  27.138  -8.792
    1XTA   HL1915155  -3.254  26.818  -8.932
    1XTA   HL2015156  -3.218  26.847  -9.100
    1XTA   HL2115157  -3.433  26.999  -8.957
    1XTA   HL2215158  -3.441  26.893  -9.086
    1XTA   HL2315159  -3.367  27.051  -9.112
    1XTA   HL2415160  -4.039  27.384  -8.126
    1XTA   HL2515161  -3.885  27.295  -8.126
    1XTA    CO815162  -3.015  26.929  -8.906
    1XTA    CO915163  -3.097  27.096  -9.048
    1XTA    OA615164  -2.935  26.870  -9.014
    1XTA   HL4215165  -3.049  26.841  -8.844
    1XTA   HL4315166  -2.943  26.990  -8.854
    1XTA   HL4815167  -3.039  27.173  -8.990
    1XTA   HL4915168  -3.037  27.049  -9.126
    1XTA     NT15169  -8.207  25.861 -11.203
    1XTA    CN115170  -8.184  25.967 -11.117
    1XTA     C115171  -8.074  25.969 -11.033
    1XTA     C215172  -8.048  26.082 -10.953
    1XTA     C315173  -8.129  26.194 -10.953
    1XTA     C415174  -8.243  26.183 -11.031
    1XTA     C515175  -8.260  26.083 -11.124
    1XTA    CN215176  -8.145  25.845 -11.321
    1XTA     C615177  -8.027  25.762 -11.320
    1XTA     C715178  -7.951  25.738 -11.438
    1XTA     C815179  -8.003  25.789 -11.559
    1XTA     C915180  -8.124  25.870 -11.552
    1XTA    C1015181  -8.198  25.901 -11.439
    1XTA    CN315182  -8.281  25.754 -11.161
    1XTA    C1115183  -8.398  25.730 -11.233
    1XTA    C1215184  -8.480  25.616 -11.208
    1XTA    C1315185  -8.431  25.522 -11.114
    1XTA    C1415186  -8.311  25.549 -11.048
    1XTA    C1515187  -8.230  25.656 -11.073
    1XTA     H115188  -8.003  25.883 -11.029
    1XTA     H215189  -7.957  26.080 -10.891
    1XTA     H315190  -8.309  26.270 -11.031
    1XTA     H415191  -8.341  26.091 -11.196
    1XTA     H515192  -7.986  25.725 -11.232
    1XTA     H615193  -7.855  25.686 -11.436
    1XTA     H715194  -8.149  25.922 -11.647
    1XTA     H815195  -8.289  25.947 -11.447
    1XTA     H915196  -8.431  25.806 -11.311
    1XTA    H1015197  -8.577  25.595 -11.259
    1XTA    H1115198  -8.284  25.466 -10.972
    1XTA    H1215199  -8.134  25.659 -11.026
    1XTA    OA115200  -8.113  26.306 -10.877
    1XTA    CO115201  -7.987  26.318 -10.805
    1XTA    OA215202  -7.935  25.769 -11.675
    1XTA    CO215203  -8.010  25.785 -11.794
    1XTA    CL115204  -7.956  25.673 -11.886
    1XTA    CL215205  -7.999  25.530 -11.834
    1XTA    CL315206  -8.139  25.524 -11.770
    1XTA    CL415207  -8.174  25.379 -11.735
    1XTA    CO315208  -8.290  25.376 -11.627
    1XTA    OA315209  -8.397  25.426 -11.704
    1XTA    CO415210  -8.502  25.464 -11.617
    1XTA    CT115211  -8.590  25.566 -11.692
    1XTA    CL515212  -8.505  25.687 -11.737
    1XTA    CL615213  -8.414  25.758 -11.635
    1XTA    OA415214  -8.524  25.416 -11.087
    1XTA    CO515215  -8.494  25.326 -10.983
    1XTA    HL115216  -8.509  25.369 -10.882
    1XTA    HL215217  -7.911  26.357 -10.872
    1XTA    HL315218  -8.002  26.398 -10.741
    1XTA    HL415219  -7.936  26.238 -10.761
    1XTA    HL515220  -8.117  25.773 -11.779
    1XTA    HL615221  -8.000  25.883 -11.838
    1XTA    HL715222  -7.856  25.678 -11.919
    1XTA    HL815223  -8.004  25.683 -11.982
    1XTA    HL915224  -7.929  25.490 -11.764
    1XTA   HL1015225  -8.012  25.460 -11.921
    1XTA   HL1115226  -8.130  25.580 -11.681
    1XTA   HL1215227  -8.216  25.572 -11.829
    1XTA   HL1315228  -8.086  25.337 -11.696
    1XTA   HL1415229  -8.206  25.318 -11.818
    1XTA   HL1515230  -8.313  25.277 -11.607
    1XTA   HL1615231  -8.276  25.433 -11.537
    1XTA   HL1715232  -8.547  25.371 -11.583
    1XTA   HL1815233  -8.459  25.505 -11.528
    1XTA   HL1915234  -8.557  25.765 -11.789
    1XTA   HL2015235  -8.432  25.652 -11.810
    1XTA   HL2115236  -8.374  25.846 -11.679
    1XTA   HL2215237  -8.325  25.705 -11.606
    1XTA   HL2315238  -8.470  25.778 -11.543
    1XTA   HL2415239  -8.392  25.295 -10.994
    1XTA   HL2515240  -8.560  25.242 -10.982
    1XTA    CO815241  -8.714  25.601 -11.605
    1XTA    CO915242  -8.645  25.488 -11.822
    1XTA    OA615243  -8.782  25.517 -11.585
    1XTA   HL4215244  -8.763  25.686 -11.642
    1XTA   HL4315245  -8.667  25.626 -11.508
    1XTA   HL4815246  -8.541  25.465 -11.913
    1XTA   HL4915247  -8.700  25.388 -11.818
    1XTA     NT15248  -8.364  27.335  -9.328
    1XTA    CN115249  -8.430  27.448  -9.300
    1XTA     C115250  -8.426  27.507  -9.170
    1XTA     C215251  -8.482  27.630  -9.147
    1XTA     C315252  -8.554  27.699  -9.246
    1XTA     C415253  -8.563  27.642  -9.373
    1XTA     C515254  -8.493  27.522  -9.404
    1XTA    CN215255  -8.426  27.220  -9.351
    1XTA     C615256  -8.406  27.161  -9.476
    1XTA     C715257  -8.454  27.031  -9.502
    1XTA     C815258  -8.527  26.958  -9.405
    1XTA     C915259  -8.537  27.011  -9.278
    1XTA    C1015260  -8.486  27.143  -9.246
    1XTA    CN315261  -8.232  27.337  -9.317
    1XTA    C1115262  -8.147  27.381  -9.422
    1XTA    C1215263  -8.005  27.369  -9.405
    1XTA    C1315264  -7.954  27.318  -9.283
    1XTA    C1415265  -8.044  27.271  -9.184
    1XTA    C1515266  -8.183  27.270  -9.203
    1XTA     H115267  -8.375  27.461  -9.087
    1XTA     H215268  -8.477  27.668  -9.049
    1XTA     H315269  -8.619  27.680  -9.453
    1XTA     H415270  -8.497  27.485  -9.503
    1XTA     H515271  -8.353  27.209  -9.558
    1XTA     H615272  -8.445  26.986  -9.600
    1XTA     H715273  -8.572  26.952  -9.195
    1XTA     H815274  -8.497  27.176  -9.144
    1XTA     H915275  -8.192  27.410  -9.514
    1XTA    H1015276  -7.943  27.407  -9.483
    1XTA    H1115277  -8.010  27.220  -9.092
    1XTA    H1215278  -8.242  27.238  -9.114
    1XTA    OA115279  -8.626  27.810  -9.216
    1XTA    CO115280  -8.605  27.889  -9.096
    1XTA    OA215281  -8.580  26.836  -9.438
    1XTA    CO215282  -8.482  26.730  -9.465
    1XTA    CL115283  -8.540  26.588  -9.431
    1XTA    CL215284  -8.450  26.483  -9.501
    1XTA    CL315285  -8.486  26.337  -9.481
    1XTA    CL415286  -8.408  26.230  -9.556
    1XTA    CO315287  -8.417  26.239  -9.708
    1XTA    OA315288  -8.385  26.110  -9.761
    1XTA    CO415289  -8.392  26.116  -9.899
    1XTA    CT115290  -8.429  25.982  -9.949
    1XTA    CL515291  -8.459  25.976 -10.102
    1XTA    CL615292  -8.359  26.048 -10.194
    1XTA    OA415293  -7.818  27.322  -9.265
    1XTA    CO515294  -7.774  27.273  -9.139
    1XTA    HL115295  -7.816  27.336  -9.060
    1XTA    HL215296  -8.493  27.895  -9.083
    1XTA    HL315297  -8.636  27.990  -9.110
    1XTA    HL415298  -8.648  27.840  -9.006
    1XTA    HL515299  -8.451  26.725  -9.567
    1XTA    HL615300  -8.397  26.743  -9.400
    1XTA    HL715301  -8.646  26.580  -9.466
    1XTA    HL815302  -8.539  26.571  -9.325
    1XTA    HL915303  -8.351  26.502  -9.464
    1XTA   HL1015304  -8.437  26.507  -9.606
    1XTA   HL1115305  -8.492  26.304  -9.380
    1XTA   HL1215306  -8.593  26.341  -9.522
    1XTA   HL1315307  -8.455  26.136  -9.527
    1XTA   HL1415308  -8.308  26.202  -9.531
    1XTA   HL1515309  -8.515  26.270  -9.748
    1XTA   HL1615310  -8.361  26.322  -9.751
    1XTA   HL1715311  -8.475  26.177  -9.926
    1XTA   HL1815312  -8.299  26.153  -9.952
    1XTA   HL1915313  -8.553  26.018 -10.122
    1XTA   HL2015314  -8.458  25.865 -10.132
    1XTA   HL2115315  -8.260  26.010 -10.173
    1XTA   HL2215316  -8.367  26.155 -10.166
    1XTA   HL2315317  -8.375  26.031 -10.308
    1XTA   HL2415318  -7.668  27.290  -9.137
    1XTA   HL2515319  -7.793  27.165  -9.134
    1XTA    CO815320  -8.553  25.933  -9.889
    1XTA    CO915321  -8.323  25.881  -9.907
    1XTA    OA615322  -8.597  25.792  -9.906
    1XTA   HL4215323  -8.640  25.991  -9.916
    1XTA   HL4315324  -8.553  25.950  -9.784
    1XTA   HL4815325  -8.337  25.855  -9.801
    1XTA   HL4915326  -8.353  25.792  -9.952
    1XTA     NT15327  -2.945  26.507  -5.430
    1XTA    CN115328  -3.050  26.441  -5.487
    1XTA     C115329  -3.099  26.472  -5.616
    1XTA     C215330  -3.213  26.410  -5.664
    1XTA     C315331  -3.271  26.298  -5.597
    1XTA     C415332  -3.217  26.264  -5.471
    1XTA     C515333  -3.106  26.333  -5.417
    1XTA    CN215334  -2.966  26.605  -5.341
    1XTA     C615335  -2.937  26.580  -5.211
    1XTA     C715336  -2.973  26.676  -5.120
    1XTA     C815337  -3.018  26.803  -5.152
    1XTA     C915338  -3.035  26.830  -5.289
    1XTA    C1015339  -3.016  26.727  -5.386
    1XTA    CN315340  -2.825  26.518  -5.492
    1XTA    C1115341  -2.720  26.439  -5.436
    1XTA    C1215342  -2.589  26.445  -5.492
    1XTA    C1315343  -2.560  26.525  -5.605
    1XTA    C1415344  -2.666  26.609  -5.659
    1XTA    C1515345  -2.797  26.605  -5.604
    1XTA     H115346  -3.057  26.548  -5.667
    1XTA     H215347  -3.253  26.446  -5.757
    1XTA     H315348  -3.265  26.181  -5.417
    1XTA     H415349  -3.065  26.299  -5.322
    1XTA     H515350  -2.893  26.482  -5.182
    1XTA     H615351  -2.975  26.654  -5.016
    1XTA     H715352  -3.054  26.935  -5.315
    1XTA     H815353  -3.027  26.736  -5.488
    1XTA     H915354  -2.743  26.373  -5.352
    1XTA    H1015355  -2.507  26.390  -5.455
    1XTA    H1115356  -2.652  26.660  -5.760
    1XTA    H1215357  -2.885  26.664  -5.641
    1XTA    OA115358  -3.379  26.232  -5.649
    1XTA    CO115359  -3.423  26.247  -5.782
    1XTA    OA215360  -3.041  26.906  -5.062
    1XTA    CO215361  -2.929  26.976  -5.007
    1XTA    CL115362  -2.819  27.029  -5.102
    1XTA    CL215363  -2.726  27.117  -5.018
    1XTA    CL315364  -2.600  27.128  -5.096
    1XTA    CL415365  -2.612  27.231  -5.214
    1XTA    CO315366  -2.487  27.224  -5.298
    1XTA    OA315367  -2.377  27.267  -5.218
    1XTA    CO415368  -2.253  27.288  -5.289
    1XTA    CT115369  -2.137  27.320  -5.191
    1XTA    CL515370  -2.088  27.196  -5.104
    1XTA    CL615371  -2.189  27.122  -5.014
    1XTA    OA415372  -2.427  26.517  -5.638
    1XTA    CO515373  -2.397  26.556  -5.766
    1XTA    HL115374  -2.440  26.497  -5.842
    1XTA    HL215375  -3.517  26.193  -5.802
    1XTA    HL315376  -3.440  26.355  -5.795
    1XTA    HL415377  -3.356  26.204  -5.854
    1XTA    HL515378  -2.969  27.058  -4.945
    1XTA    HL615379  -2.879  26.906  -4.931
    1XTA    HL715380  -2.869  27.083  -5.187
    1XTA    HL815381  -2.771  26.945  -5.153
    1XTA    HL915382  -2.712  27.056  -4.927
    1XTA   HL1015383  -2.772  27.215  -4.988
    1XTA   HL1115384  -2.518  27.160  -5.026
    1XTA   HL1215385  -2.571  27.035  -5.147
    1XTA   HL1315386  -2.638  27.336  -5.193
    1XTA   HL1415387  -2.685  27.192  -5.280
    1XTA   HL1515388  -2.466  27.118  -5.337
    1XTA   HL1615389  -2.488  27.294  -5.384
    1XTA   HL1715390  -2.226  27.194  -5.338
    1XTA   HL1815391  -2.249  27.363  -5.358
    1XTA   HL1915392  -2.012  27.240  -5.043
    1XTA   HL2015393  -2.037  27.124  -5.176
    1XTA   HL2115394  -2.251  27.190  -4.955
    1XTA   HL2215395  -2.132  27.054  -4.943
    1XTA   HL2315396  -2.269  27.079  -5.084
    1XTA   HL2415397  -2.290  26.550  -5.766
    1XTA   HL2515398  -2.412  26.663  -5.772
    1XTA    CO815399  -2.183  27.433  -5.098
    1XTA    CO915400  -2.022  27.376  -5.277
    1XTA    OA615401  -1.993  27.310  -5.360
    1XTA   HL4215402  -2.192  27.527  -5.156
    1XTA   HL4315403  -2.309  27.403  -5.050
    1XTA   HL4815404  -1.933  27.387  -5.215
    1XTA   HL4915405  -2.035  27.476  -5.312
    1XTA     NT15406  -8.944  28.896  -9.313
    1XTA    CN115407  -8.847  28.936  -9.396
    1XTA     C115408  -8.858  28.906  -9.535
    1XTA     C215409  -8.751  28.924  -9.619
    1XTA     C315410  -8.627  28.979  -9.577
    1XTA     C415411  -8.619  29.020  -9.441
    1XTA     C515412  -8.727  28.991  -9.352
    1XTA    CN215413  -8.927  28.778  -9.243
    1XTA     C615414  -8.844  28.765  -9.126
    1XTA     C715415  -8.837  28.639  -9.069
    1XTA     C815416  -8.922  28.533  -9.110
    1XTA     C915417  -9.003  28.551  -9.222
    1XTA    C1015418  -9.003  28.669  -9.289
    1XTA    CN315419  -9.020  28.998  -9.266
    1XTA    C1115420  -8.975  29.080  -9.165
    1XTA    C1215421  -9.057  29.179  -9.109
    1XTA    C1315422  -9.178  29.208  -9.168
    1XTA    C1415423  -9.229  29.134  -9.276
    1XTA    C1515424  -9.146  29.029  -9.328
    1XTA     H115425  -8.953  28.858  -9.573
    1XTA     H215426  -8.758  28.883  -9.721
    1XTA     H315427  -8.528  29.072  -9.403
    1XTA     H415428  -8.706  29.004  -9.241
    1XTA     H515429  -8.785  28.843  -9.079
    1XTA     H615430  -8.770  28.618  -8.984
    1XTA     H715431  -9.059  28.461  -9.251
    1XTA     H815432  -9.075  28.674  -9.371
    1XTA     H915433  -8.878  29.060  -9.129
    1XTA    H1015434  -9.031  29.229  -9.013
    1XTA    H1115435  -9.332  29.139  -9.315
    1XTA    H1215436  -9.191  28.968  -9.403
    1XTA    OA115437  -8.538  29.003  -9.677
    1XTA    CO115438  -8.420  29.064  -9.636
    1XTA    OA215439  -8.930  28.404  -9.063
    1XTA    CO215440  -8.830  28.376  -8.964
    1XTA    CL115441  -8.859  28.238  -8.901
    1XTA    CL215442  -8.738  28.166  -8.836
    1XTA    CL315443  -8.664  28.247  -8.722
    1XTA    CL415444  -8.562  28.355  -8.773
    1XTA    CO315445  -8.486  28.420  -8.653
    1XTA    OA315446  -8.402  28.523  -8.704
    1XTA    CO415447  -8.297  28.559  -8.614
    1XTA    CT115448  -8.207  28.657  -8.685
    1XTA    CL515449  -8.287  28.785  -8.731
    1XTA    CL615450  -8.212  28.896  -8.802
    1XTA    OA415451  -9.271  29.293  -9.123
    1XTA    CO515452  -9.254  29.357  -9.000
    1XTA    HL115453  -9.336  29.427  -9.004
    1XTA    HL215454  -8.357  28.996  -9.577
    1XTA    HL315455  -8.367  29.080  -9.730
    1XTA    HL415456  -8.432  29.166  -9.592
    1XTA    HL515457  -8.737  28.373  -9.015
    1XTA    HL615458  -8.812  28.452  -8.891
    1XTA    HL715459  -8.892  28.178  -8.986
    1XTA    HL815460  -8.942  28.255  -8.826
    1XTA    HL915461  -8.673  28.130  -8.918
    1XTA   HL1015462  -8.778  28.077  -8.778
    1XTA   HL1115463  -8.728  28.297  -8.643
    1XTA   HL1215464  -8.606  28.182  -8.665
    1XTA   HL1315465  -8.628  28.424  -8.827
    1XTA   HL1415466  -8.499  28.307  -8.846
    1XTA   HL1515467  -8.551  28.467  -8.594
    1XTA   HL1615468  -8.437  28.339  -8.597
    1XTA   HL1715469  -8.332  28.610  -8.526
    1XTA   HL1815470  -8.251  28.468  -8.579
    1XTA   HL1915471  -8.344  28.842  -8.664
    1XTA   HL2015472  -8.370  28.746  -8.794
    1XTA   HL2115473  -8.163  28.860  -8.896
    1XTA   HL2215474  -8.150  28.954  -8.732
    1XTA   HL2315475  -8.280  28.981  -8.843
    1XTA   HL2415476  -9.156  29.409  -8.999
    1XTA   HL2515477  -9.261  29.282  -8.917
    1XTA    CO815478  -8.151  28.592  -8.810
    1XTA    CO915479  -8.085  28.704  -8.596
    1XTA    OA615480  -8.122  28.754  -8.509
    1XTA   HL4215481  -8.201  28.500  -8.825
    1XTA   HL4315482  -8.179  28.663  -8.934
    1XTA   HL4815483  -8.013  28.767  -8.656
    1XTA   HL4915484  -8.026  28.618  -8.573
    1XTA     NT15485  -5.246  28.315  -8.474
    1XTA    CN115486  -5.308  28.429  -8.463
    1XTA     C115487  -5.336  28.482  -8.339
    1XTA     C215488  -5.410  28.601  -8.329
    1XTA     C315489  -5.451  28.671  -8.443
    1XTA     C415490  -5.412  28.619  -8.570
    1XTA     C515491  -5.349  28.495  -8.580
    1XTA    CN215492  -5.303  28.201  -8.443
    1XTA     C615493  -5.289  28.147  -8.314
    1XTA     C715494  -5.361  28.033  -8.275
    1XTA     C815495  -5.440  27.969  -8.374
    1XTA     C915496  -5.471  28.036  -8.492
    1XTA    C1015497  -5.399  28.148  -8.531
    1XTA    CN315498  -5.113  28.314  -8.510
    1XTA    C1115499  -5.071  28.298  -8.644
    1XTA    C1215500  -4.930  28.287  -8.661
    1XTA    C1315501  -4.834  28.284  -8.559
    1XTA    C1415502  -4.883  28.308  -8.430
    1XTA    C1515503  -5.019  28.335  -8.409
    1XTA     H115504  -5.301  28.432  -8.253
    1XTA     H215505  -5.432  28.643  -8.224
    1XTA     H315506  -5.436  28.679  -8.658
    1XTA     H415507  -5.330  28.443  -8.671
    1XTA     H515508  -5.224  28.181  -8.236
    1XTA     H615509  -5.339  27.992  -8.180
    1XTA     H715510  -5.548  27.993  -8.562
    1XTA     H815511  -5.426  28.199  -8.629
    1XTA     H915512  -5.138  28.299  -8.729
    1XTA    H1015513  -4.894  28.283  -8.762
    1XTA    H1115514  -4.812  28.322  -8.353
    1XTA    H1215515  -5.044  28.357  -8.306
    1XTA    OA115516  -5.522  28.788  -8.430
    1XTA    CO115517  -5.554  28.873  -8.541
    1XTA    OA215518  -5.499  27.852  -8.344
    1XTA    CO215519  -5.466  27.793  -8.220
    1XTA    CL115520  -5.527  27.656  -8.204
    1XTA    CL215521  -5.684  27.666  -8.217
    1XTA    CL315522  -5.741  27.530  -8.185
    1XTA    CL415523  -5.890  27.526  -8.202
    1XTA    CO315524  -5.958  27.405  -8.128
    1XTA    OA315525  -6.013  27.312  -8.216
    1XTA    CO415526  -5.913  27.213  -8.245
    1XTA    CT115527  -5.974  27.099  -8.336
    1XTA    CL515528  -6.066  27.008  -8.252
    1XTA    CL615529  -6.154  26.909  -8.333
    1XTA    OA415530  -4.701  28.285  -8.599
    1XTA    CO515531  -4.609  28.275  -8.494
    1XTA    HL115532  -4.625  28.353  -8.416
    1XTA    HL215533  -5.645  28.936  -8.513
    1XTA    HL315534  -5.465  28.945  -8.544
    1XTA    HL415535  -5.582  28.831  -8.638
    1XTA    HL515536  -5.358  27.779  -8.209
    1XTA    HL615537  -5.494  27.865  -8.137
    1XTA    HL715538  -5.498  27.613  -8.099
    1XTA    HL815539  -5.492  27.574  -8.278
    1XTA    HL915540  -5.714  27.706  -8.319
    1XTA   HL1015541  -5.716  27.735  -8.140
    1XTA   HL1115542  -5.697  27.444  -8.239
    1XTA   HL1215543  -5.718  27.504  -8.079
    1XTA   HL1315544  -5.918  27.511  -8.303
    1XTA   HL1415545  -5.936  27.628  -8.173
    1XTA   HL1515546  -5.899  27.370  -8.042
    1XTA   HL1615547  -6.048  27.443  -8.069
    1XTA   HL1715548  -5.830  27.267  -8.286
    1XTA   HL1815549  -5.875  27.180  -8.150
    1XTA   HL1915550  -6.132  27.079  -8.210
    1XTA   HL2015551  -6.015  26.965  -8.171
    1XTA   HL2115552  -6.213  26.968  -8.402
    1XTA   HL2215553  -6.219  26.849  -8.267
    1XTA   HL2315554  -6.099  26.837  -8.396
    1XTA   HL2415555  -4.509  28.287  -8.542
    1XTA   HL2515556  -4.612  28.173  -8.454
    1XTA    CO815557  -5.850  27.025  -8.397
    1XTA    CO915558  -6.042  27.165  -8.455
    1XTA    OA615559  -6.142  27.188  -8.420
    1XTA   HL4215560  -5.877  26.919  -8.421
    1XTA   HL4315561  -5.730  27.040  -8.315
    1XTA   HL4815562  -6.056  27.091  -8.535
    1XTA   HL4915563  -5.984  27.251  -8.486
    1XTA     NT15564  -9.310  28.260  -4.028
    1XTA    CN115565  -9.179  28.279  -4.017
    1XTA     C115566  -9.089  28.183  -4.062
    1XTA     C215567  -8.952  28.202  -4.056
    1XTA     C315568  -8.905  28.324  -4.007
    1XTA     C415569  -8.997  28.423  -3.957
    1XTA     C515570  -9.134  28.399  -3.958
    1XTA    CN215571  -9.378  28.183  -3.943
    1XTA     C615572  -9.402  28.222  -3.804
    1XTA     C715573  -9.463  28.136  -3.718
    1XTA     C815574  -9.515  28.013  -3.757
    1XTA     C915575  -9.494  27.974  -3.889
    1XTA    C1015576  -9.428  28.059  -3.981
    1XTA    CN315577  -9.372  28.294  -4.145
    1XTA    C1115578  -9.433  28.420  -4.145
    1XTA    C1215579  -9.495  28.470  -4.257
    1XTA    C1315580  -9.499  28.385  -4.376
    1XTA    C1415581  -9.441  28.258  -4.374
    1XTA    C1515582  -9.378  28.213  -4.257
    1XTA     H115583  -9.118  28.088  -4.102
    1XTA     H215584  -8.882  28.123  -4.087
    1XTA     H315585  -8.946  28.511  -3.923
    1XTA     H415586  -9.200  28.467  -3.913
    1XTA     H515587  -9.360  28.315  -3.772
    1XTA     H615588  -9.452  28.171  -3.618
    1XTA     H715589  -9.518  27.873  -3.914
    1XTA     H815590  -9.423  28.014  -4.074
    1XTA     H915591  -9.436  28.482  -4.048
    1XTA    H1015592  -9.550  28.565  -4.246
    1XTA    H1115593  -9.427  28.201  -4.472
    1XTA    H1215594  -9.324  28.115  -4.249
    1XTA    OA115595  -8.769  28.348  -3.996
    1XTA    CO115596  -8.674  28.287  -4.088
    1XTA    OA215597  -9.563  27.917  -3.672
    1XTA    CO215598  -9.560  27.942  -3.533
    1XTA    CL115599  -9.612  27.828  -3.448
    1XTA    CL215600  -9.754  27.800  -3.477
    1XTA    CL315601  -9.851  27.902  -3.424
    1XTA    CL415602  -9.883  27.862  -3.276
    1XTA    CO315603  -9.957  27.974  -3.209
    1XTA    OA315604  -9.870  28.081  -3.207
    1XTA    CO415605  -9.949  28.204  -3.218
    1XTA    CT115606  -9.864  28.330  -3.200
    1XTA    CL515607  -9.827  28.332  -3.047
    1XTA    CL615608  -9.739  28.224  -2.999
    1XTA    OA415609  -9.563  28.439  -4.482
    1XTA    CO515610  -9.567  28.354  -4.597
    1XTA    HL115611  -9.606  28.258  -4.574
    1XTA    HL215612  -8.700  28.180  -4.125
    1XTA    HL315613  -8.668  28.346  -4.177
    1XTA    HL415614  -8.582  28.289  -4.039
    1XTA    HL515615  -9.457  27.963  -3.497
    1XTA    HL615616  -9.619  28.028  -3.515
    1XTA    HL715617  -9.595  27.854  -3.347
    1XTA    HL815618  -9.547  27.745  -3.475
    1XTA    HL915619  -9.771  27.705  -3.432
    1XTA   HL1015620  -9.767  27.781  -3.578
    1XTA   HL1115621  -9.792  28.002  -3.433
    1XTA   HL1215622  -9.940  27.915  -3.488
    1XTA   HL1315623  -9.789  27.827  -3.220
    1XTA   HL1415624  -9.948  27.775  -3.260
    1XTA   HL1515625 -10.051  28.002  -3.265
    1XTA   HL1615626  -9.981  27.951  -3.109
    1XTA   HL1715627 -10.002  28.218  -3.308
    1XTA   HL1815628 -10.022  28.202  -3.131
    1XTA   HL1915629  -9.914  28.359  -2.976
    1XTA   HL2015630  -9.768  28.426  -3.034
    1XTA   HL2115631  -9.655  28.209  -3.069
    1XTA   HL2215632  -9.797  28.131  -2.998
    1XTA   HL2315633  -9.694  28.243  -2.902
    1XTA   HL2415634  -9.461  28.337  -4.627
    1XTA   HL2515635  -9.623  28.393  -4.679
    1XTA    CO815636  -9.948  28.459  -3.241
    1XTA    CO915637  -9.748  28.333  -3.306
    1XTA    OA615638 -10.002  28.442  -3.335
    1XTA   HL4215639  -9.879  28.540  -3.245
    1XTA   HL4315640 -10.014  28.492  -3.164
    1XTA   HL4815641  -9.793  28.349  -3.439
    1XTA   HL4915642  -9.703  28.231  -3.306
    1XTA     NT15643  -3.891  23.404  -7.184
    1XTA    CN115644  -3.970  23.345  -7.276
    1XTA     C115645  -4.037  23.428  -7.370
    1XTA     C215646  -4.121  23.370  -7.463
    1XTA     C315647  -4.153  23.233  -7.445
    1XTA     C415648  -4.103  23.153  -7.337
    1XTA     C515649  -4.004  23.210  -7.258
    1XTA    CN215650  -3.947  23.487  -7.091
    1XTA     C615651  -3.974  23.623  -7.130
    1XTA     C715652  -4.034  23.708  -7.036
    1XTA     C815653  -4.063  23.655  -6.904
    1XTA     C915654  -4.032  23.526  -6.861
    1XTA    C1015655  -3.971  23.439  -6.962
    1XTA    CN315656  -3.753  23.412  -7.198
    1XTA    C1115657  -3.689  23.416  -7.325
    1XTA    C1215658  -3.551  23.438  -7.338
    1XTA    C1315659  -3.474  23.470  -7.226
    1XTA    C1415660  -3.530  23.449  -7.104
    1XTA    C1515661  -3.665  23.421  -7.085
    1XTA     H115662  -4.028  23.532  -7.372
    1XTA     H215663  -4.171  23.435  -7.532
    1XTA     H315664  -4.131  23.049  -7.340
    1XTA     H415665  -3.956  23.157  -7.180
    1XTA     H515666  -3.940  23.659  -7.225
    1XTA     H615667  -4.046  23.814  -7.072
    1XTA     H715668  -4.056  23.490  -6.759
    1XTA     H815669  -3.954  23.339  -6.934
    1XTA     H915670  -3.739  23.427  -7.417
    1XTA    H1015671  -3.512  23.456  -7.444
    1XTA    H1115672  -3.467  23.461  -7.015
    1XTA    H1215673  -3.713  23.406  -6.991
    1XTA    OA115674  -4.245  23.180  -7.530
    1XTA    CO115675  -4.335  23.263  -7.597
    1XTA    OA215676  -4.127  23.737  -6.817
    1XTA    CO215677  -4.264  23.763  -6.842
    1XTA    CL115678  -4.355  23.639  -6.802
    1XTA    CL215679  -4.500  23.680  -6.817
    1XTA    CL315680  -4.603  23.580  -6.773
    1XTA    CL415681  -4.600  23.452  -6.844
    1XTA    CO315682  -4.745  23.403  -6.849
    1XTA    OA315683  -4.800  23.377  -6.722
    1XTA    CO415684  -4.937  23.376  -6.727
    1XTA    CT115685  -4.990  23.322  -6.590
    1XTA    CL515686  -5.152  23.322  -6.587
    1XTA    CL615687  -5.212  23.214  -6.677
    1XTA    OA415688  -3.346  23.517  -7.238
    1XTA    CO515689  -3.313  23.611  -7.343
    1XTA    HL115690  -3.286  23.544  -7.427
    1XTA    HL215691  -4.393  23.195  -7.655
    1XTA    HL315692  -4.402  23.312  -7.526
    1XTA    HL415693  -4.270  23.326  -7.650
    1XTA    HL515694  -4.286  23.848  -6.791
    1XTA    HL615695  -4.282  23.781  -6.944
    1XTA    HL715696  -4.318  23.618  -6.704
    1XTA    HL815697  -4.332  23.551  -6.858
    1XTA    HL915698  -4.526  23.706  -6.918
    1XTA   HL1015699  -4.514  23.778  -6.770
    1XTA   HL1115700  -4.587  23.568  -6.664
    1XTA   HL1215701  -4.694  23.635  -6.773
    1XTA   HL1315702  -4.537  23.374  -6.795
    1XTA   HL1415703  -4.572  23.469  -6.946
    1XTA   HL1515704  -4.807  23.471  -6.892
    1XTA   HL1615705  -4.749  23.314  -6.909
    1XTA   HL1715706  -4.982  23.477  -6.748
    1XTA   HL1815707  -4.978  23.314  -6.803
    1XTA   HL1915708  -5.186  23.425  -6.615
    1XTA   HL2015709  -5.191  23.298  -6.490
    1XTA   HL2115710  -5.184  23.205  -6.780
    1XTA   HL2215711  -5.317  23.239  -6.673
    1XTA   HL2315712  -5.193  23.112  -6.639
    1XTA   HL2415713  -3.230  23.661  -7.301
    1XTA   HL2515714  -3.396  23.671  -7.376
    1XTA    CO815715  -4.934  23.399  -6.471
    1XTA    CO915716  -4.942  23.174  -6.561
    1XTA    OA615717  -4.982  23.531  -6.494
    1XTA   HL4215718  -4.828  23.398  -6.477
    1XTA   HL4315719  -4.966  23.359  -6.372
    1XTA   HL4815720  -4.991  23.130  -6.480
    1XTA   HL4915721  -4.838  23.180  -6.524
    1XTA     NT15722  -2.104  27.429 -11.240
    1XTA    CN115723  -1.999  27.509 -11.270
    1XTA     C115724  -1.939  27.503 -11.395
    1XTA     C215725  -1.851  27.606 -11.436
    1XTA     C315726  -1.813  27.717 -11.354
    1XTA     C415727  -1.866  27.717 -11.228
    1XTA     C515728  -1.960  27.615 -11.188
    1XTA    CN215729  -2.234  27.458 -11.267
    1XTA     C615730  -2.304  27.388 -11.362
    1XTA     C715731  -2.433  27.417 -11.398
    1XTA     C815732  -2.498  27.527 -11.335
    1XTA     C915733  -2.430  27.599 -11.230
    1XTA    C1015734  -2.295  27.561 -11.197
    1XTA    CN315735  -2.074  27.318 -11.175
    1XTA    C1115736  -2.088  27.317 -11.033
    1XTA    C1215737  -2.045  27.208 -10.957
    1XTA    C1315738  -1.980  27.101 -11.021
    1XTA    C1415739  -1.961  27.105 -11.163
    1XTA    C1515740  -2.011  27.212 -11.241
    1XTA     H115741  -1.967  27.422 -11.459
    1XTA     H215742  -1.808  27.592 -11.538
    1XTA     H315743  -1.853  27.789 -11.147
    1XTA     H415744  -2.000  27.625 -11.092
    1XTA     H515745  -2.255  27.308 -11.415
    1XTA     H615746  -2.488  27.368 -11.480
    1XTA     H715747  -2.485  27.685 -11.176
    1XTA     H815748  -2.229  27.617 -11.121
    1XTA     H915749  -2.137  27.398 -10.987
    1XTA    H1015750  -2.046  27.213 -10.850
    1XTA    H1115751  -1.910  27.021 -11.213
    1XTA    H1215752  -1.998  27.214 -11.343
    1XTA    OA115753  -1.718  27.803 -11.404
    1XTA    CO115754  -1.663  27.890 -11.306
    1XTA    OA215755  -2.621  27.570 -11.381
    1XTA    CO215756  -2.689  27.687 -11.322
    1XTA    CL115757  -2.829  27.702 -11.390
    1XTA    CL215758  -2.800  27.732 -11.541
    1XTA    CL315759  -2.732  27.868 -11.564
    1XTA    CL415760  -2.733  27.907 -11.713
    1XTA    CO315761  -2.646  27.820 -11.801
    1XTA    OA315762  -2.507  27.834 -11.771
    1XTA    CO415763  -2.450  27.742 -11.682
    1XTA    CT115764  -2.298  27.777 -11.680
    1XTA    CL515765  -2.246  27.923 -11.640
    1XTA    CL615766  -2.289  28.042 -11.731
    1XTA    OA415767  -1.948  26.988 -10.951
    1XTA    CO515768  -1.872  27.009 -10.833
    1XTA    HL115769  -1.925  27.084 -10.776
    1XTA    HL215770  -1.573  27.943 -11.334
    1XTA    HL315771  -1.741  27.964 -11.286
    1XTA    HL415772  -1.642  27.850 -11.209
    1XTA    HL515773  -2.696  27.664 -11.220
    1XTA    HL615774  -2.619  27.778 -11.323
    1XTA    HL715775  -2.885  27.782 -11.336
    1XTA    HL815776  -2.894  27.616 -11.376
    1XTA    HL915777  -2.897  27.719 -11.596
    1XTA   HL1015778  -2.744  27.658 -11.584
    1XTA   HL1115779  -2.805  27.937 -11.516
    1XTA   HL1215780  -2.633  27.860 -11.522
    1XTA   HL1315781  -2.700  28.013 -11.730
    1XTA   HL1415782  -2.836  27.915 -11.746
    1XTA   HL1515783  -2.677  27.717 -11.800
    1XTA   HL1615784  -2.659  27.849 -11.906
    1XTA   HL1715785  -2.497  27.743 -11.583
    1XTA   HL1815786  -2.456  27.643 -11.724
    1XTA   HL1915787  -2.140  27.922 -11.622
    1XTA   HL2015788  -2.291  27.944 -11.538
    1XTA   HL2115789  -2.393  28.074 -11.724
    1XTA   HL2215790  -2.261  28.013 -11.831
    1XTA   HL2315791  -2.232  28.129 -11.695
    1XTA   HL2415792  -1.767  27.040 -10.851
    1XTA   HL2515793  -1.863  26.922 -10.767
    1XTA    CO815794  -2.221  27.736 -11.789
    1XTA    CO915795  -2.228  27.678 -11.598
    1XTA    OA615796  -2.209  27.631 -11.739
    1XTA   HL4215797  -2.130  27.792 -11.806
    1XTA   HL4315798  -2.260  27.730 -11.889
    1XTA   HL4815799  -2.318  27.593 -11.524
    1XTA   HL4915800  -2.139  27.727 -11.552
    1XTA     NT15801  -6.127  26.603  -9.136
    1XTA    CN115802  -6.046  26.495  -9.159
    1XTA     C115803  -5.985  26.433  -9.048
    1XTA     C215804  -5.887  26.332  -9.062
    1XTA     C315805  -5.843  26.296  -9.188
    1XTA     C415806  -5.901  26.354  -9.303
    1XTA     C515807  -6.003  26.447  -9.285
    1XTA    CN215808  -6.258  26.573  -9.150
    1XTA     C615809  -6.320  26.561  -9.279
    1XTA     C715810  -6.460  26.547  -9.285
    1XTA     C815811  -6.535  26.508  -9.173
    1XTA     C915812  -6.466  26.512  -9.049
    1XTA    C1015813  -6.332  26.538  -9.038
    1XTA    CN315814  -6.073  26.725  -9.153
    1XTA    C1115815  -5.953  26.757  -9.091
    1XTA    C1215816  -5.883  26.880  -9.119
    1XTA    C1315817  -5.943  26.972  -9.205
    1XTA    C1415818  -6.066  26.948  -9.262
    1XTA    C1515819  -6.133  26.824  -9.238
    1XTA     H115820  -6.027  26.462  -8.955
    1XTA     H215821  -5.855  26.284  -8.970
    1XTA     H315822  -5.883  26.324  -9.409
    1XTA     H415823  -6.040  26.504  -9.369
    1XTA     H515824  -6.254  26.587  -9.363
    1XTA     H615825  -6.510  26.559  -9.380
    1XTA     H715826  -6.518  26.488  -8.954
    1XTA     H815827  -6.275  26.545  -8.948
    1XTA     H915828  -5.905  26.677  -9.026
    1XTA    H1015829  -5.784  26.901  -9.077
    1XTA    H1115830  -6.111  27.019  -9.327
    1XTA    H1215831  -6.220  26.798  -9.298
    1XTA    OA115832  -5.732  26.214  -9.191
    1XTA    CO115833  -5.684  26.190  -9.321
    1XTA    OA215834  -6.673  26.491  -9.187
    1XTA    CO215835  -6.738  26.438  -9.077
    1XTA    CL115836  -6.870  26.359  -9.099
    1XTA    CL215837  -6.947  26.353  -8.966
    1XTA    CL315838  -6.874  26.288  -8.848
    1XTA    CL415839  -6.789  26.386  -8.771
    1XTA    CO315840  -6.757  26.327  -8.627
    1XTA    OA315841  -6.705  26.191  -8.641
    1XTA    CO415842  -6.672  26.127  -8.513
    1XTA    CT115843  -6.641  25.980  -8.525
    1XTA    CL515844  -6.598  25.925  -8.383
    1XTA    CL615845  -6.684  25.974  -8.257
    1XTA    OA415846  -5.871  27.087  -9.215
    1XTA    CO515847  -5.927  27.193  -9.290
    1XTA    HL115848  -6.034  27.218  -9.255
    1XTA    HL215849  -5.660  26.272  -9.390
    1XTA    HL315850  -5.585  26.136  -9.310
    1XTA    HL415851  -5.750  26.130  -9.381
    1XTA    HL515852  -6.668  26.355  -9.045
    1XTA    HL615853  -6.744  26.519  -9.007
    1XTA    HL715854  -6.849  26.257  -9.143
    1XTA    HL815855  -6.929  26.400  -9.180
    1XTA    HL915856  -7.039  26.293  -8.973
    1XTA   HL1015857  -6.966  26.455  -8.943
    1XTA   HL1115858  -6.949  26.251  -8.786
    1XTA   HL1215859  -6.818  26.203  -8.884
    1XTA   HL1315860  -6.825  26.492  -8.768
    1XTA   HL1415861  -6.693  26.390  -8.823
    1XTA   HL1515862  -6.692  26.386  -8.566
    1XTA   HL1615863  -6.846  26.320  -8.565
    1XTA   HL1715864  -6.578  26.172  -8.484
    1XTA   HL1815865  -6.746  26.149  -8.441
    1XTA   HL1915866  -6.497  25.953  -8.364
    1XTA   HL2015867  -6.603  25.813  -8.398
    1XTA   HL2115868  -6.649  25.922  -8.166
    1XTA   HL2215869  -6.784  25.928  -8.275
    1XTA   HL2315870  -6.694  26.086  -8.233
    1XTA   HL2415871  -5.917  27.167  -9.394
    1XTA   HL2515872  -5.870  27.279  -9.271
    1XTA    CO815873  -6.526  25.958  -8.629
    1XTA    CO915874  -6.762  25.904  -8.592
    1XTA    OA615875  -6.482  25.826  -8.601
    1XTA   HL4215876  -6.446  26.032  -8.607
    1XTA   HL4315877  -6.557  25.974  -8.733
    1XTA   HL4815878  -6.739  25.799  -8.592
    1XTA   HL4915879  -6.775  25.922  -8.699
    1XTA     NT15880  -6.884  25.021 -11.608
    1XTA    CN115881  -6.985  24.962 -11.671
    1XTA     C115882  -6.964  24.920 -11.810
    1XTA     C215883  -7.074  24.863 -11.876
    1XTA     C315884  -7.186  24.817 -11.806
    1XTA     C415885  -7.199  24.845 -11.669
    1XTA     C515886  -7.098  24.921 -11.602
    1XTA    CN215887  -6.833  25.134 -11.660
    1XTA     C615888  -6.882  25.262 -11.628
    1XTA     C715889  -6.818  25.373 -11.679
    1XTA     C815890  -6.702  25.362 -11.757
    1XTA     C915891  -6.649  25.239 -11.788
    1XTA    C1015892  -6.718  25.125 -11.743
    1XTA    CN315893  -6.824  24.959 -11.507
    1XTA    C1115894  -6.786  25.021 -11.386
    1XTA    C1215895  -6.715  24.955 -11.293
    1XTA    C1315896  -6.670  24.826 -11.317
    1XTA    C1415897  -6.703  24.751 -11.435
    1XTA    C1515898  -6.785  24.822 -11.530
    1XTA     H115899  -6.878  24.936 -11.877
    1XTA     H215900  -7.071  24.849 -11.982
    1XTA     H315901  -7.284  24.813 -11.616
    1XTA     H415902  -7.116  24.933 -11.496
    1XTA     H515903  -6.969  25.277 -11.561
    1XTA     H615904  -6.857  25.469 -11.646
    1XTA     H715905  -6.558  25.226 -11.843
    1XTA     H815906  -6.672  25.031 -11.770
    1XTA     H915907  -6.799  25.126 -11.366
    1XTA    H1015908  -6.683  24.998 -11.199
    1XTA    H1115909  -6.643  24.660 -11.447
    1XTA    H1215910  -6.820  24.769 -11.621
    1XTA    OA115911  -7.295  24.765 -11.871
    1XTA    CO115912  -7.354  24.661 -11.799
    1XTA    OA215913  -6.623  25.474 -11.799
    1XTA    CO215914  -6.554  25.472 -11.926
    1XTA    CL115915  -6.649  25.470 -12.038
    1XTA    CL215916  -6.597  25.457 -12.174
    1XTA    CL315917  -6.707  25.509 -12.269
    1XTA    CL415918  -6.687  25.450 -12.411
    1XTA    CO315919  -6.779  25.521 -12.516
    1XTA    OA315920  -6.727  25.641 -12.571
    1XTA    CO415921  -6.792  25.684 -12.691
    1XTA    CT115922  -6.716  25.803 -12.758
    1XTA    CL515923  -6.784  25.847 -12.888
    1XTA    CL615924  -6.924  25.904 -12.879
    1XTA    OA415925  -6.589  24.767 -11.227
    1XTA    CO515926  -6.453  24.749 -11.262
    1XTA    HL115927  -6.409  24.847 -11.271
    1XTA    HL215928  -7.274  24.601 -11.763
    1XTA    HL315929  -7.411  24.701 -11.714
    1XTA    HL415930  -7.414  24.597 -11.870
    1XTA    HL515931  -6.494  25.561 -11.918
    1XTA    HL615932  -6.483  25.398 -11.938
    1XTA    HL715933  -6.697  25.560 -12.029
    1XTA    HL815934  -6.731  25.398 -12.025
    1XTA    HL915935  -6.563  25.357 -12.184
    1XTA   HL1015936  -6.499  25.507 -12.196
    1XTA   HL1115937  -6.804  25.477 -12.231
    1XTA   HL1215938  -6.707  25.620 -12.268
    1XTA   HL1315939  -6.712  25.340 -12.408
    1XTA   HL1415940  -6.583  25.462 -12.442
    1XTA   HL1515941  -6.782  25.448 -12.601
    1XTA   HL1615942  -6.882  25.535 -12.484
    1XTA   HL1715943  -6.794  25.602 -12.761
    1XTA   HL1815944  -6.896  25.710 -12.668
    1XTA   HL1915945  -6.789  25.759 -12.952
    1XTA   HL2015946  -6.726  25.925 -12.940
    1XTA   HL2115947  -6.934  25.983 -12.808
    1XTA   HL2215948  -6.993  25.826 -12.850
    1XTA   HL2315949  -6.952  25.927 -12.978
    1XTA   HL2415950  -6.446  24.689 -11.350
    1XTA   HL2515951  -6.408  24.702 -11.172
    1XTA    CO815952  -6.567  25.767 -12.789
    1XTA    CO915953  -6.701  25.913 -12.658
    1XTA    OA615954  -6.626  26.035 -12.693
    1XTA   HL4215955  -6.513  25.863 -12.810
    1XTA   HL4315956  -6.537  25.728 -12.689
    1XTA   HL4815957  -6.662  25.884 -12.563
    1XTA   HL4915958  -6.808  25.950 -12.641
    1XTA     NT15959  -8.447  24.852  -8.521
    1XTA    CN115960  -8.462  24.788  -8.639
    1XTA     C115961  -8.373  24.813  -8.746
    1XTA     C215962  -8.385  24.744  -8.869
    1XTA     C315963  -8.491  24.657  -8.885
    1XTA     C415964  -8.587  24.643  -8.784
    1XTA     C515965  -8.571  24.704  -8.658
    1XTA    CN215966  -8.335  24.824  -8.455
    1XTA     C615967  -8.323  24.704  -8.381
    1XTA     C715968  -8.207  24.677  -8.315
    1XTA     C815969  -8.095  24.757  -8.340
    1XTA     C915970  -8.108  24.878  -8.403
    1XTA    C1015971  -8.220  24.904  -8.479
    1XTA    CN315972  -8.531  24.946  -8.486
    1XTA    C1115973  -8.534  25.073  -8.548
    1XTA    C1215974  -8.623  25.171  -8.505
    1XTA    C1315975  -8.726  25.144  -8.407
    1XTA    C1415976  -8.730  25.013  -8.351
    1XTA    C1515977  -8.636  24.915  -8.392
    1XTA     H115978  -8.297  24.890  -8.728
    1XTA     H215979  -8.314  24.757  -8.953
    1XTA     H315980  -8.672  24.584  -8.811
    1XTA     H415981  -8.648  24.697  -8.582
    1XTA     H515982  -8.400  24.630  -8.383
    1XTA     H615983  -8.203  24.593  -8.253
    1XTA     H715984  -8.020  24.940  -8.414
    1XTA     H815985  -8.224  24.993  -8.538
    1XTA     H915986  -8.457  25.105  -8.623
    1XTA    H1015987  -8.634  25.271  -8.557
    1XTA    H1115988  -8.792  24.985  -8.267
    1XTA    H1215989  -8.646  24.808  -8.364
    1XTA    OA115990  -8.523  24.596  -9.003
    1XTA    CO115991  -8.414  24.524  -9.060
    1XTA    OA215992  -7.966  24.736  -8.292
    1XTA    CO215993  -7.933  24.603  -8.257
    1XTA    CL115994  -7.803  24.601  -8.182
    1XTA    CL215995  -7.778  24.499  -8.067
    1XTA    CL315996  -7.628  24.504  -8.021
    1XTA    CL415997  -7.607  24.385  -7.928
    1XTA    CO315998  -7.472  24.406  -7.867
    1XTA    OA315999  -7.376  24.394  -7.977
    1XTA    CO416000  -7.242  24.412  -7.935
    1XTA    CT116001  -7.144  24.338  -8.025
    1XTA    CL516002  -7.010  24.328  -7.963
    1XTA    CL616003  -6.938  24.452  -7.910
    1XTA    OA416004  -8.818  25.239  -8.377
    1XTA    CO516005  -8.950  25.199  -8.336
    1XTA    HL116006  -8.989  25.169  -8.429
    1XTA    HL216007  -8.352  24.478  -8.981
    1XTA    HL316008  -8.444  24.436  -9.119
    1XTA    HL416009  -8.342  24.587  -9.115
    1XTA    HL516010  -8.005  24.575  -8.190
    1XTA    HL616011  -7.930  24.516  -8.336
    1XTA    HL716012  -7.781  24.700  -8.137
    1XTA    HL816013  -7.734  24.580  -8.261
    1XTA    HL916014  -7.811  24.393  -8.078
    1XTA   HL1016015  -7.843  24.530  -7.983
    1XTA   HL1116016  -7.559  24.493  -8.101
    1XTA   HL1216017  -7.605  24.600  -7.976
    1XTA   HL1316018  -7.612  24.282  -7.973
    1XTA   HL1416019  -7.674  24.384  -7.849
    1XTA   HL1516020  -7.456  24.508  -7.836
    1XTA   HL1616021  -7.434  24.328  -7.802
    1XTA   HL1716022  -7.220  24.517  -7.923
    1XTA   HL1816023  -7.241  24.370  -7.832
    1XTA   HL1916024  -6.940  24.285  -8.032
    1XTA   HL2016025  -7.017  24.261  -7.873
    1XTA   HL2116026  -6.985  24.511  -7.828
    1XTA   HL2216027  -6.905  24.519  -7.993
    1XTA   HL2316028  -6.840  24.420  -7.863
    1XTA   HL2416029  -9.001  25.296  -8.315
    1XTA   HL2516030  -8.959  25.122  -8.264
    1XTA    CO816031  -7.146  24.418  -8.157
    1XTA    CO916032  -7.183  24.192  -8.057
    1XTA    OA616033  -7.111  24.557  -8.154
    1XTA   HL4216034  -7.250  24.415  -8.190
    1XTA   HL4316035  -7.102  24.369  -8.237
    1XTA   HL4816036  -7.281  24.208  -8.094
    1XTA   HL4916037  -7.190  24.141  -7.960
    1XTA     NT16038  -1.097  27.330  -6.762
    1XTA    CN116039  -1.216  27.339  -6.812
    1XTA     C116040  -1.255  27.254  -6.917
    1XTA     C216041  -1.380  27.265  -6.975
    1XTA     C316042  -1.469  27.367  -6.938
    1XTA     C416043  -1.435  27.454  -6.825
    1XTA     C516044  -1.307  27.434  -6.762
    1XTA    CN216045  -1.070  27.247  -6.662
    1XTA     C616046  -1.056  27.299  -6.531
    1XTA     C716047  -1.030  27.224  -6.418
    1XTA     C816048  -1.023  27.086  -6.438
    1XTA     C916049  -1.042  27.030  -6.562
    1XTA    C1016050  -1.071  27.106  -6.674
    1XTA    CN316051  -0.997  27.390  -6.828
    1XTA    C1116052  -0.914  27.307  -6.906
    1XTA    C1216053  -0.805  27.367  -6.971
    1XTA    C1316054  -0.775  27.508  -6.957
    1XTA    C1416055  -0.857  27.585  -6.881
    1XTA    C1516056  -0.968  27.527  -6.818
    1XTA     H116057  -1.185  27.176  -6.945
    1XTA     H216058  -1.396  27.199  -7.056
    1XTA     H316059  -1.504  27.521  -6.782
    1XTA     H416060  -1.290  27.473  -6.665
    1XTA     H516061  -1.047  27.405  -6.513
    1XTA     H616062  -1.030  27.277  -6.321
    1XTA     H716063  -1.028  26.925  -6.585
    1XTA     H816064  -1.079  27.057  -6.770
    1XTA     H916065  -0.936  27.202  -6.919
    1XTA    H1016066  -0.740  27.310  -7.032
    1XTA    H1116067  -0.852  27.692  -6.884
    1XTA    H1216068  -1.023  27.594  -6.766
    1XTA    OA116069  -1.595  27.368  -6.997
    1XTA    CO116070  -1.683  27.472  -6.973
    1XTA    OA216071  -0.997  27.006  -6.329
    1XTA    CO216072  -1.034  26.864  -6.337
    1XTA    CL116073  -0.998  26.799  -6.202
    1XTA    CL216074  -1.058  26.871  -6.081
    1XTA    CL316075  -1.206  26.842  -6.061
    1XTA    CL416076  -1.255  26.897  -5.933
    1XTA    CO316077  -1.247  27.047  -5.906
    1XTA    OA316078  -1.317  27.077  -5.788
    1XTA    CO416079  -1.278  27.199  -5.726
    1XTA    CT116080  -1.366  27.222  -5.603
    1XTA    CL516081  -1.333  27.348  -5.524
    1XTA    CL616082  -1.184  27.386  -5.492
    1XTA    OA416083  -0.674  27.557  -7.032
    1XTA    CO516084  -0.617  27.679  -6.992
    1XTA    HL116085  -0.690  27.756  -7.037
    1XTA    HL216086  -1.658  27.566  -7.018
    1XTA    HL316087  -1.779  27.433  -7.003
    1XTA    HL416088  -1.692  27.493  -6.864
    1XTA    HL516089  -1.141  26.841  -6.354
    1XTA    HL616090  -0.976  26.815  -6.417
    1XTA    HL716091  -0.893  26.808  -6.191
    1XTA    HL816092  -1.017  26.689  -6.193
    1XTA    HL916093  -1.046  26.983  -6.090
    1XTA   HL1016094  -0.997  26.839  -5.994
    1XTA   HL1116095  -1.274  26.871  -6.140
    1XTA   HL1216096  -1.217  26.733  -6.059
    1XTA   HL1316097  -1.199  26.840  -5.855
    1XTA   HL1416098  -1.357  26.877  -5.915
    1XTA   HL1516099  -1.142  27.077  -5.892
    1XTA   HL1616100  -1.276  27.107  -5.985
    1XTA   HL1716101  -1.172  27.198  -5.694
    1XTA   HL1816102  -1.293  27.280  -5.793
    1XTA   HL1916103  -1.387  27.353  -5.425
    1XTA   HL2016104  -1.374  27.444  -5.573
    1XTA   HL2116105  -1.128  27.378  -5.577
    1XTA   HL2216106  -1.130  27.319  -5.425
    1XTA   HL2316107  -1.190  27.489  -5.447
    1XTA   HL2416108  -0.527  27.697  -7.048
    1XTA   HL2516109  -0.605  27.696  -6.885
    1XTA    CO816110  -1.368  27.098  -5.509
    1XTA    CO916111  -1.504  27.236  -5.658
    1XTA    OA616112  -1.252  27.089  -5.428
    1XTA   HL4216113  -1.380  27.004  -5.570
    1XTA   HL4316114  -1.451  27.102  -5.444
    1XTA   HL4816115  -1.524  27.335  -5.693
    1XTA   HL4916116  -1.529  27.173  -5.738
    1XTA     NT16117  -6.017  30.422  -7.238
    1XTA    CN116118  -6.015  30.302  -7.168
    1XTA     C116119  -6.101  30.196  -7.194
    1XTA     C216120  -6.080  30.071  -7.127
    1XTA     C316121  -5.980  30.054  -7.034
    1XTA     C416122  -5.905  30.169  -6.996
    1XTA     C516123  -5.926  30.292  -7.058
    1XTA    CN216124  -6.138  30.480  -7.264
    1XTA     C616125  -6.197  30.458  -7.390
    1XTA     C716126  -6.320  30.509  -7.416
    1XTA     C816127  -6.395  30.582  -7.329
    1XTA     C916128  -6.328  30.618  -7.205
    1XTA    C1016129  -6.197  30.570  -7.171
    1XTA    CN316130  -5.906  30.463  -7.307
    1XTA    C1116131  -5.841  30.367  -7.381
    1XTA    C1216132  -5.733  30.393  -7.464
    1XTA    C1316133  -5.694  30.534  -7.480
    1XTA    C1416134  -5.755  30.628  -7.392
    1XTA    C1516135  -5.866  30.598  -7.310
    1XTA     H116136  -6.173  30.194  -7.278
    1XTA     H216137  -6.138  29.990  -7.163
    1XTA     H316138  -5.833  30.158  -6.915
    1XTA     H416139  -5.858  30.366  -7.023
    1XTA     H516140  -6.133  30.402  -7.462
    1XTA     H616141  -6.349  30.481  -7.516
    1XTA     H716142  -6.378  30.676  -7.129
    1XTA     H816143  -6.144  30.592  -7.076
    1XTA     H916144  -5.866  30.267  -7.386
    1XTA    H1016145  -5.697  30.311  -7.527
    1XTA    H1116146  -5.709  30.727  -7.385
    1XTA    H1216147  -5.909  30.670  -7.247
    1XTA    OA116148  -5.949  29.938  -6.964
    1XTA    CO116149  -6.033  29.832  -6.986
    1XTA    OA216150  -6.527  30.603  -7.359
    1XTA    CO216151  -6.617  30.601  -7.250
    1XTA    CL116152  -6.756  30.549  -7.293
    1XTA    CL216153  -6.759  30.415  -7.356
    1XTA    CL316154  -6.902  30.357  -7.369
    1XTA    CL416155  -7.000  30.429  -7.468
    1XTA    CO316156  -6.951  30.404  -7.608
    1XTA    OA316157  -6.853  30.501  -7.630
    1XTA    CO416158  -6.808  30.523  -7.761
    1XTA    CT116159  -6.775  30.674  -7.802
    1XTA    CL516160  -6.898  30.764  -7.810
    1XTA    CL616161  -6.883  30.904  -7.872
    1XTA    OA416162  -5.597  30.575  -7.562
    1XTA    CO516163  -5.571  30.488  -7.681
    1XTA    HL116164  -5.541  30.390  -7.660
    1XTA    HL216165  -5.990  29.754  -6.923
    1XTA    HL316166  -6.140  29.849  -6.971
    1XTA    HL416167  -6.028  29.800  -7.091
    1XTA    HL516168  -6.582  30.519  -7.180
    1XTA    HL616169  -6.629  30.699  -7.207
    1XTA    HL716170  -6.804  30.626  -7.350
    1XTA    HL816171  -6.824  30.568  -7.207
    1XTA    HL916172  -6.694  30.347  -7.299
    1XTA   HL1016173  -6.710  30.419  -7.455
    1XTA   HL1116174  -6.874  30.256  -7.407
    1XTA   HL1216175  -6.942  30.345  -7.271
    1XTA   HL1316176  -7.017  30.536  -7.448
    1XTA   HL1416177  -7.096  30.377  -7.462
    1XTA   HL1516178  -6.899  30.310  -7.620
    1XTA   HL1616179  -7.041  30.409  -7.669
    1XTA   HL1716180  -6.712  30.462  -7.769
    1XTA   HL1816181  -6.878  30.472  -7.841
    1XTA   HL1916182  -6.944  30.753  -7.713
    1XTA   HL2016183  -6.975  30.724  -7.885
    1XTA   HL2116184  -6.787  30.948  -7.851
    1XTA   HL2216185  -6.950  30.981  -7.833
    1XTA   HL2316186  -6.903  30.893  -7.975
    1XTA   HL2416187  -5.494  30.536  -7.741
    1XTA   HL2516188  -5.659  30.475  -7.744
    1XTA    CO816189  -6.671  30.683  -7.901
    1XTA    CO916190  -6.669  30.728  -7.706
    1XTA    OA616191  -6.607  30.749  -7.844
    1XTA   HL4216192  -6.710  30.731  -7.987
    1XTA   HL4316193  -6.626  30.590  -7.937
    1XTA   HL4816194  -6.587  30.639  -7.635
    1XTA   HL4916195  -6.694  30.821  -7.655
    1XTA     NT16196  -5.073  25.327  -5.981
    1XTA    CN116197  -5.137  25.296  -6.093
    1XTA     C116198  -5.127  25.356  -6.217
    1XTA     C216199  -5.213  25.320  -6.326
    1XTA     C316200  -5.315  25.226  -6.313
    1XTA     C416201  -5.330  25.172  -6.180
    1XTA     C516202  -5.242  25.200  -6.076
    1XTA    CN216203  -4.947  25.292  -5.968
    1XTA     C616204  -4.845  25.392  -5.983
    1XTA     C716205  -4.706  25.365  -5.963
    1XTA     C816206  -4.675  25.235  -5.932
    1XTA     C916207  -4.772  25.134  -5.920
    1XTA    C1016208  -4.906  25.158  -5.936
    1XTA    CN316209  -5.127  25.403  -5.882
    1XTA    C1116210  -5.178  25.530  -5.913
    1XTA    C1216211  -5.232  25.614  -5.815
    1XTA    C1316212  -5.235  25.569  -5.685
    1XTA    C1416213  -5.188  25.443  -5.652
    1XTA    C1516214  -5.136  25.357  -5.754
    1XTA     H116215  -5.051  25.436  -6.231
    1XTA     H216216  -5.215  25.376  -6.416
    1XTA     H316217  -5.405  25.098  -6.167
    1XTA     H416218  -5.260  25.144  -5.980
    1XTA     H516219  -4.886  25.483  -6.017
    1XTA     H616220  -4.629  25.438  -5.981
    1XTA     H716221  -4.736  25.033  -5.894
    1XTA     H816222  -4.981  25.077  -5.930
    1XTA     H916223  -5.176  25.582  -6.012
    1XTA    H1016224  -5.265  25.709  -5.847
    1XTA    H1116225  -5.208  25.415  -5.553
    1XTA    H1216226  -5.116  25.251  -5.731
    1XTA    OA116227  -5.394  25.200  -6.419
    1XTA    CO116228  -5.504  25.113  -6.394
    1XTA    OA216229  -4.550  25.196  -5.891
    1XTA    CO216230  -4.476  25.302  -5.824
    1XTA    CL116231  -4.340  25.265  -5.781
    1XTA    CL216232  -4.237  25.283  -5.887
    1XTA    CL316233  -4.096  25.285  -5.830
    1XTA    CL416234  -4.058  25.163  -5.738
    1XTA    CO316235  -4.057  25.033  -5.824
    1XTA    OA316236  -4.003  24.931  -5.736
    1XTA    CO416237  -4.083  24.905  -5.619
    1XTA    CT116238  -4.003  24.805  -5.531
    1XTA    CL516239  -4.081  24.778  -5.402
    1XTA    CL616240  -4.196  24.684  -5.424
    1XTA    OA416241  -5.279  25.657  -5.582
    1XTA    CO516242  -5.296  25.613  -5.450
    1XTA    HL116243  -5.359  25.526  -5.438
    1XTA    HL216244  -5.483  25.012  -6.359
    1XTA    HL316245  -5.580  25.149  -6.327
    1XTA    HL416246  -5.550  25.100  -6.486
    1XTA    HL516247  -4.471  25.384  -5.888
    1XTA    HL616248  -4.534  25.352  -5.745
    1XTA    HL716249  -4.344  25.166  -5.736
    1XTA    HL816250  -4.304  25.339  -5.706
    1XTA    HL916251  -4.245  25.378  -5.936
    1XTA   HL1016252  -4.245  25.215  -5.968
    1XTA   HL1116253  -4.018  25.286  -5.907
    1XTA   HL1216254  -4.087  25.375  -5.771
    1XTA   HL1316255  -4.139  25.150  -5.661
    1XTA   HL1416256  -3.961  25.191  -5.700
    1XTA   HL1516257  -4.154  25.017  -5.873
    1XTA   HL1616258  -3.981  25.053  -5.898
    1XTA   HL1716259  -4.120  24.991  -5.568
    1XTA   HL1816260  -4.175  24.842  -5.652
    1XTA   HL1916261  -4.131  24.875  -5.372
    1XTA   HL2016262  -4.000  24.750  -5.333
    1XTA   HL2116263  -4.266  24.690  -5.337
    1XTA   HL2216264  -4.158  24.581  -5.439
    1XTA   HL2316265  -4.255  24.716  -5.516
    1XTA   HL2416266  -5.339  25.696  -5.387
    1XTA   HL2516267  -5.192  25.592  -5.414
    1XTA    CO816268  -3.872  24.880  -5.486
    1XTA    CO916269  -3.964  24.676  -5.601
    1XTA    OA616270  -3.883  24.989  -5.390
    1XTA   HL4216271  -3.826  24.907  -5.579
    1XTA   HL4316272  -3.808  24.810  -5.434
    1XTA   HL4816273  -4.046  24.631  -5.640
    1XTA   HL4916274  -3.908  24.704  -5.693
    1XTA     NT16275  -9.160  26.615 -11.102
    1XTA    CN116276  -9.064  26.530 -11.063
    1XTA     C116277  -9.076  26.463 -10.939
    1XTA     C216278  -8.976  26.380 -10.898
    1XTA     C316279  -8.859  26.355 -10.976
    1XTA     C416280  -8.844  26.431 -11.095
    1XTA     C516281  -8.951  26.506 -11.142
    1XTA    CN216282  -9.131  26.735 -11.147
    1XTA     C616283  -9.052  26.821 -11.068
    1XTA     C716284  -9.010  26.945 -11.119
    1XTA     C816285  -9.043  26.987 -11.246
    1XTA     C916286  -9.130  26.907 -11.325
    1XTA    C1016287  -9.172  26.782 -11.278
    1XTA    CN316288  -9.283  26.569 -11.112
    1XTA    C1116289  -9.381  26.628 -11.030
    1XTA    C1216290  -9.515  26.591 -11.046
    1XTA    C1316291  -9.559  26.495 -11.140
    1XTA    C1416292  -9.455  26.437 -11.219
    1XTA    C1516293  -9.320  26.471 -11.207
    1XTA     H116294  -9.159  26.457 -10.873
    1XTA     H216295  -8.983  26.316 -10.813
    1XTA     H316296  -8.758  26.434 -11.160
    1XTA     H416297  -8.945  26.560 -11.234
    1XTA     H516298  -9.023  26.793 -10.973
    1XTA     H616299  -8.965  27.019 -11.054
    1XTA     H716300  -9.163  26.925 -11.424
    1XTA     H816301  -9.235  26.713 -11.334
    1XTA     H916302  -9.348  26.710 -10.966
    1XTA    H1016303  -9.587  26.633 -10.973
    1XTA    H1116304  -9.479  26.364 -11.290
    1XTA    H1216305  -9.252  26.426 -11.273
    1XTA    OA116306  -8.774  26.256 -10.937
    1XTA    CO116307  -8.643  26.269 -10.989
    1XTA    OA216308  -9.002  27.107 -11.291
    1XTA    CO216309  -8.980  27.113 -11.430
    1XTA    CL116310  -8.909  27.249 -11.457
    1XTA    CL216311  -8.971  27.377 -11.415
    1XTA    CL316312  -8.876  27.494 -11.390
    1XTA    CL416313  -8.935  27.606 -11.314
    1XTA    CO316314  -8.853  27.728 -11.270
    1XTA    OA316315  -8.891  27.785 -11.148
    1XTA    CO416316  -8.826  27.712 -11.045
    1XTA    CT116317  -8.874  27.746 -10.904
    1XTA    CL516318  -9.028  27.761 -10.888
    1XTA    CL616319  -9.092  27.617 -10.891
    1XTA    OA416320  -9.689  26.464 -11.134
    1XTA    CO516321  -9.722  26.355 -11.217
    1XTA    HL116322  -9.667  26.266 -11.200
    1XTA    HL216323  -8.635  26.229 -11.093
    1XTA    HL316324  -8.611  26.377 -10.981
    1XTA    HL416325  -8.568  26.209 -10.940
    1XTA    HL516326  -8.907  27.033 -11.455
    1XTA    HL616327  -9.067  27.097 -11.489
    1XTA    HL716328  -8.881  27.251 -11.569
    1XTA    HL816329  -8.812  27.244 -11.404
    1XTA    HL916330  -9.015  27.349 -11.320
    1XTA   HL1016331  -9.057  27.403 -11.477
    1XTA   HL1116332  -8.786  27.460 -11.335
    1XTA   HL1216333  -8.839  27.534 -11.489
    1XTA   HL1316334  -8.978  27.563 -11.224
    1XTA   HL1416335  -9.018  27.642 -11.362
    1XTA   HL1516336  -8.746  27.712 -11.279
    1XTA   HL1616337  -8.869  27.804 -11.352
    1XTA   HL1716338  -8.837  27.605 -11.067
    1XTA   HL1816339  -8.718  27.728 -11.056
    1XTA   HL1916340  -9.063  27.821 -10.974
    1XTA   HL2016341  -9.069  27.801 -10.789
    1XTA   HL2116342  -9.079  27.576 -10.987
    1XTA   HL2216343  -9.198  27.615 -10.868
    1XTA   HL2316344  -9.046  27.545 -10.818
    1XTA   HL2416345  -9.722  26.391 -11.324
    1XTA   HL2516346  -9.829  26.335 -11.193
    1XTA    CO816347  -8.813  27.864 -10.854
    1XTA    CO916348  -8.811  27.671 -10.785
    1XTA    OA616349  -8.794  27.797 -10.728
    1XTA   HL4216350  -8.881  27.948 -10.850
    1XTA   HL4316351  -8.723  27.893 -10.907
    1XTA   HL4816352  -8.715  27.623 -10.804
    1XTA   HL4916353  -8.878  27.609 -10.732
    1XTA     NT16354  -3.622  24.535  -5.035
    1XTA    CN116355  -3.601  24.668  -5.058
    1XTA     C116356  -3.542  24.742  -4.966
    1XTA     C216357  -3.502  24.875  -5.002
    1XTA     C316358  -3.538  24.940  -5.124
    1XTA     C416359  -3.603  24.856  -5.216
    1XTA     C516360  -3.639  24.723  -5.188
    1XTA    CN216361  -3.737  24.495  -4.987
    1XTA     C616362  -3.746  24.440  -4.857
    1XTA     C716363  -3.869  24.382  -4.816
    1XTA     C816364  -3.988  24.376  -4.895
    1XTA     C916365  -3.978  24.435  -5.021
    1XTA    C1016366  -3.856  24.493  -5.065
    1XTA    CN316367  -3.529  24.434  -5.063
    1XTA    C1116368  -3.433  24.401  -4.965
    1XTA    C1216369  -3.342  24.300  -4.991
    1XTA    C1316370  -3.343  24.230  -5.115
    1XTA    C1416371  -3.425  24.283  -5.220
    1XTA    C1516372  -3.526  24.376  -5.191
    1XTA     H116373  -3.526  24.704  -4.864
    1XTA     H216374  -3.453  24.936  -4.925
    1XTA     H316375  -3.623  24.889  -5.318
    1XTA     H416376  -3.675  24.663  -5.273
    1XTA     H516377  -3.661  24.449  -4.787
    1XTA     H616378  -3.870  24.334  -4.723
    1XTA     H716379  -4.066  24.422  -5.079
    1XTA     H816380  -3.842  24.528  -5.166
    1XTA     H916381  -3.433  24.447  -4.864
    1XTA    H1016382  -3.265  24.273  -4.924
    1XTA    H1116383  -3.412  24.253  -5.327
    1XTA    H1216384  -3.595  24.418  -5.268
    1XTA    OA116385  -3.519  25.076  -5.137
    1XTA    CO116386  -3.535  25.119  -5.271
    1XTA    OA216387  -4.106  24.331  -4.855
    1XTA    CO216388  -4.104  24.263  -4.726
    1XTA    CL116389  -4.043  24.123  -4.740
    1XTA    CL216390  -3.946  24.087  -4.622
    1XTA    CL316391  -3.860  23.966  -4.638
    1XTA    CL416392  -3.771  23.970  -4.763
    1XTA    CO316393  -3.673  24.080  -4.776
    1XTA    OA316394  -3.603  24.085  -4.653
    1XTA    CO416395  -3.511  24.197  -4.667
    1XTA    CT116396  -3.404  24.183  -4.557
    1XTA    CL516397  -3.329  24.054  -4.584
    1XTA    CL616398  -3.239  24.037  -4.701
    1XTA    OA416399  -3.243  24.132  -5.140
    1XTA    CO516400  -3.245  24.061  -5.264
    1XTA    HL116401  -3.342  24.007  -5.287
    1XTA    HL216402  -3.461  25.073  -5.336
    1XTA    HL316403  -3.634  25.105  -5.315
    1XTA    HL416404  -3.521  25.230  -5.282
    1XTA    HL516405  -4.067  24.325  -4.649
    1XTA    HL616406  -4.207  24.242  -4.695
    1XTA    HL716407  -3.999  24.107  -4.837
    1XTA    HL816408  -4.128  24.051  -4.733
    1XTA    HL916409  -3.996  24.093  -4.522
    1XTA   HL1016410  -3.875  24.165  -4.605
    1XTA   HL1116411  -3.801  23.943  -4.548
    1XTA   HL1216412  -3.923  23.882  -4.653
    1XTA   HL1316413  -3.831  23.965  -4.851
    1XTA   HL1416414  -3.713  23.884  -4.744
    1XTA   HL1516415  -3.606  24.052  -4.861
    1XTA   HL1616416  -3.717  24.175  -4.803
    1XTA   HL1716417  -3.453  24.194  -4.757
    1XTA   HL1816418  -3.570  24.289  -4.658
    1XTA   HL1916419  -3.403  23.974  -4.586
    1XTA   HL2016420  -3.265  24.047  -4.495
    1XTA   HL2116421  -3.295  24.052  -4.789
    1XTA   HL2216422  -3.195  23.933  -4.687
    1XTA   HL2316423  -3.160  24.111  -4.698
    1XTA   HL2416424  -3.168  23.997  -5.262
    1XTA   HL2516425  -3.208  24.122  -5.356
    1XTA    CO816426  -3.457  24.190  -4.413
    1XTA    CO916427  -3.315  24.307  -4.579
    1XTA    OA616428  -3.373  24.186  -4.345
    1XTA   HL4216429  -3.526  24.109  -4.386
    1XTA   HL4316430  -3.515  24.288  -4.403
    1XTA   HL4816431  -3.229  24.295  -4.692
    1XTA   HL4916432  -3.248  24.300  -4.496
    1XTA     NT16433  -2.443  26.567  -9.467
    1XTA    CN116434  -2.387  26.602  -9.348
    1XTA     C116435  -2.307  26.718  -9.338
    1XTA     C216436  -2.242  26.754  -9.216
    1XTA     C316437  -2.244  26.663  -9.108
    1XTA     C416438  -2.325  26.546  -9.123
    1XTA     C516439  -2.401  26.517  -9.241
    1XTA    CN216440  -2.529  26.657  -9.515
    1XTA     C616441  -2.479  26.762  -9.593
    1XTA     C716442  -2.562  26.866  -9.646
    1XTA     C816443  -2.699  26.854  -9.628
    1XTA     C916444  -2.751  26.754  -9.552
    1XTA    C1016445  -2.670  26.656  -9.490
    1XTA    CN316446  -2.436  26.445  -9.524
    1XTA    C1116447  -2.314  26.400  -9.583
    1XTA    C1216448  -2.313  26.273  -9.642
    1XTA    C1316449  -2.420  26.184  -9.632
    1XTA    C1416450  -2.541  26.229  -9.577
    1XTA    C1516451  -2.548  26.356  -9.520
    1XTA     H116452  -2.292  26.793  -9.417
    1XTA     H216453  -2.171  26.832  -9.212
    1XTA     H316454  -2.329  26.473  -9.039
    1XTA     H416455  -2.461  26.432  -9.253
    1XTA     H516456  -2.376  26.762  -9.617
    1XTA     H616457  -2.528  26.949  -9.708
    1XTA     H716458  -2.861  26.756  -9.543
    1XTA     H816459  -2.713  26.571  -9.440
    1XTA     H916460  -2.232  26.473  -9.593
    1XTA    H1016461  -2.214  26.252  -9.695
    1XTA    H1116462  -2.625  26.163  -9.570
    1XTA    H1216463  -2.635  26.383  -9.466
    1XTA    OA116464  -2.198  26.689  -8.985
    1XTA    CO116465  -2.121  26.811  -8.978
    1XTA    OA216466  -2.783  26.948  -9.690
    1XTA    CO216467  -2.924  26.935  -9.683
    1XTA    CL116468  -2.971  26.815  -9.762
    1XTA    CL216469  -3.123  26.790  -9.741
    1XTA    CL316470  -3.163  26.714  -9.615
    1XTA    CL416471  -3.089  26.576  -9.598
    1XTA    CO316472  -3.119  26.503  -9.469
    1XTA    OA316473  -3.057  26.379  -9.473
    1XTA    CO416474  -3.153  26.279  -9.504
    1XTA    CT116475  -3.079  26.155  -9.550
    1XTA    CL516476  -3.002  26.072  -9.442
    1XTA    CL616477  -2.878  26.149  -9.375
    1XTA    OA416478  -2.411  26.051  -9.671
    1XTA    CO516479  -2.286  25.987  -9.661
    1XTA    HL116480  -2.241  26.004  -9.567
    1XTA    HL216481  -2.177  26.903  -9.005
    1XTA    HL316482  -2.087  26.831  -8.876
    1XTA    HL416483  -2.023  26.807  -9.021
    1XTA    HL516484  -2.958  26.937  -9.578
    1XTA    HL616485  -2.957  27.017  -9.741
    1XTA    HL716486  -2.906  26.732  -9.753
    1XTA    HL816487  -2.960  26.826  -9.869
    1XTA    HL916488  -3.170  26.744  -9.828
    1XTA   HL1016489  -3.171  26.885  -9.739
    1XTA   HL1116490  -3.122  26.780  -9.537
    1XTA   HL1216491  -3.270  26.701  -9.604
    1XTA   HL1316492  -2.978  26.592  -9.597
    1XTA   HL1416493  -3.109  26.507  -9.680
    1XTA   HL1516494  -3.078  26.557  -9.387
    1XTA   HL1616495  -3.228  26.494  -9.462
    1XTA   HL1716496  -3.217  26.260  -9.415
    1XTA   HL1816497  -3.220  26.297  -9.584
    1XTA   HL1916498  -2.980  25.971  -9.475
    1XTA   HL2016499  -3.063  26.045  -9.360
    1XTA   HL2116500  -2.857  26.081  -9.292
    1XTA   HL2216501  -2.906  26.258  -9.357
    1XTA   HL2316502  -2.793  26.162  -9.442
    1XTA   HL2416503  -2.222  26.039  -9.739
    1XTA   HL2516504  -2.288  25.885  -9.700
    1XTA    CO816505  -2.975  26.203  -9.652
    1XTA    CO916506  -3.181  26.060  -9.609
    1XTA    OA616507  -3.288  26.026  -9.524
    1XTA   HL4216508  -3.029  26.264  -9.724
    1XTA   HL4316509  -2.907  26.274  -9.608
    1XTA   HL4816510  -3.137  25.960  -9.628
    1XTA   HL4916511  -3.202  26.094  -9.710
    1XTA     NT16512  -3.049  28.096  -9.810
    1XTA    CN116513  -3.138  28.059  -9.716
    1XTA     C116514  -3.090  28.026  -9.584
    1XTA     C216515  -3.176  27.976  -9.487
    1XTA     C316516  -3.309  27.957  -9.511
    1XTA     C416517  -3.355  27.990  -9.636
    1XTA     C516518  -3.274  28.048  -9.737
    1XTA    CN216519  -3.000  28.225  -9.822
    1XTA     C616520  -3.000  28.299  -9.949
    1XTA     C716521  -2.949  28.422  -9.966
    1XTA     C816522  -2.904  28.486  -9.848
    1XTA     C916523  -2.905  28.418  -9.722
    1XTA    C1016524  -2.952  28.287  -9.711
    1XTA    CN316525  -2.994  28.002  -9.891
    1XTA    C1116526  -3.077  27.934  -9.984
    1XTA    C1216527  -3.037  27.821 -10.056
    1XTA    C1316528  -2.905  27.779 -10.047
    1XTA    C1416529  -2.815  27.848  -9.962
    1XTA    C1516530  -2.855  27.968  -9.893
    1XTA     H116531  -2.980  28.028  -9.551
    1XTA     H216532  -3.146  27.943  -9.392
    1XTA     H316533  -3.463  27.975  -9.640
    1XTA     H416534  -3.309  28.075  -9.838
    1XTA     H516535  -3.043  28.247 -10.042
    1XTA     H616536  -2.957  28.459 -10.068
    1XTA     H716537  -2.873  28.461  -9.624
    1XTA     H816538  -2.940  28.242  -9.620
    1XTA     H916539  -3.185  27.951  -9.994
    1XTA    H1016540  -3.105  27.772 -10.119
    1XTA    H1116541  -2.713  27.821  -9.955
    1XTA    H1216542  -2.791  28.032  -9.832
    1XTA    OA116543  -3.382  27.924  -9.401
    1XTA    CO116544  -3.521  27.922  -9.412
    1XTA    OA216545  -2.849  28.614  -9.853
    1XTA    CO216546  -2.888  28.701  -9.960
    1XTA    CL116547  -2.864  28.848  -9.920
    1XTA    CL216548  -2.962  28.897  -9.813
    1XTA    CL316549  -3.070  28.977  -9.872
    1XTA    CL416550  -3.161  28.896  -9.962
    1XTA    CO316551  -3.275  28.983 -10.004
    1XTA    OA316552  -3.361  28.910 -10.085
    1XTA    CO416553  -3.320  28.897 -10.225
    1XTA    CT116554  -3.416  28.803 -10.306
    1XTA    CL516555  -3.389  28.841 -10.455
    1XTA    CL616556  -3.253  28.811 -10.511
    1XTA    OA416557  -2.870  27.670 -10.120
    1XTA    CO516558  -2.729  27.650 -10.146
    1XTA    HL116559  -2.686  27.742 -10.196
    1XTA    HL216560  -3.550  27.900  -9.313
    1XTA    HL316561  -3.567  28.020  -9.423
    1XTA    HL416562  -3.579  27.856  -9.485
    1XTA    HL516563  -2.823  28.675 -10.047
    1XTA    HL616564  -2.990  28.674  -9.985
    1XTA    HL716565  -2.880  28.919 -10.004
    1XTA    HL816566  -2.764  28.858  -9.884
    1XTA    HL916567  -2.908  28.967  -9.749
    1XTA   HL1016568  -3.001  28.815  -9.745
    1XTA   HL1116569  -3.132  29.009  -9.789
    1XTA   HL1216570  -3.039  29.078  -9.915
    1XTA   HL1316571  -3.222  28.833  -9.893
    1XTA   HL1416572  -3.122  28.837 -10.046
    1XTA   HL1516573  -3.324  29.014  -9.914
    1XTA   HL1616574  -3.244  29.069 -10.066
    1XTA   HL1716575  -3.336  28.985 -10.275
    1XTA   HL1816576  -3.217  28.872 -10.237
    1XTA   HL1916577  -3.411  28.945 -10.480
    1XTA   HL2016578  -3.456  28.780 -10.511
    1XTA   HL2116579  -3.200  28.905 -10.515
    1XTA   HL2216580  -3.253  28.766 -10.609
    1XTA   HL2316581  -3.194  28.738 -10.462
    1XTA   HL2416582  -2.729  27.555 -10.205
    1XTA   HL2516583  -2.676  27.630 -10.053
    1XTA    CO816584  -3.559  28.835 -10.279
    1XTA    CO916585  -3.387  28.657 -10.286
    1XTA    OA616586  -3.388  28.624 -10.182
    1XTA   HL4216587  -3.575  28.941 -10.252
    1XTA   HL4316588  -3.638  28.825 -10.393
    1XTA   HL4816589  -3.290  28.627 -10.321
    1XTA   HL4916590  -3.448  28.594 -10.355
    1XTA     NT16591  -5.169  23.508 -10.831
    1XTA    CN116592  -5.150  23.388 -10.894
    1XTA     C116593  -5.038  23.383 -10.973
    1XTA     C216594  -5.016  23.266 -11.043
    1XTA     C316595  -5.107  23.159 -11.046
    1XTA     C416596  -5.224  23.165 -10.962
    1XTA     C516597  -5.245  23.282 -10.891
    1XTA    CN216598  -5.176  23.524 -10.696
    1XTA     C616599  -5.297  23.513 -10.635
    1XTA     C716600  -5.315  23.536 -10.493
    1XTA     C816601  -5.199  23.559 -10.419
    1XTA     C916602  -5.072  23.553 -10.480
    1XTA    C1016603  -5.058  23.542 -10.617
    1XTA    CN316604  -5.215  23.619 -10.902
    1XTA    C1116605  -5.352  23.626 -10.934
    1XTA    C1216606  -5.392  23.734 -11.014
    1XTA    C1316607  -5.299  23.825 -11.071
    1XTA    C1416608  -5.162  23.819 -11.042
    1XTA    C1516609  -5.123  23.718 -10.949
    1XTA     H116610  -4.961  23.462 -10.968
    1XTA     H216611  -4.926  23.261 -11.099
    1XTA     H316612  -5.282  23.078 -10.953
    1XTA     H416613  -5.326  23.291 -10.818
    1XTA     H516614  -5.386  23.500 -10.699
    1XTA     H616615  -5.417  23.534 -10.449
    1XTA     H716616  -4.992  23.582 -10.411
    1XTA     H816617  -4.958  23.557 -10.651
    1XTA     H916618  -5.427  23.549 -10.908
    1XTA    H1016619  -5.500  23.735 -11.039
    1XTA    H1116620  -5.096  23.891 -11.081
    1XTA    H1216621  -5.018  23.703 -10.926
    1XTA    OA116622  -5.088  23.049 -11.127
    1XTA    CO116623  -5.204  22.977 -11.162
    1XTA    OA216624  -5.203  23.593 -10.286
    1XTA    CO216625  -5.324  23.600 -10.230
    1XTA    CL116626  -5.303  23.639 -10.084
    1XTA    CL216627  -5.218  23.760 -10.066
    1XTA    CL316628  -5.254  23.835  -9.936
    1XTA    CL416629  -5.153  23.950  -9.911
    1XTA    CO316630  -5.194  24.022  -9.784
    1XTA    OA316631  -5.216  23.926  -9.683
    1XTA    CO416632  -5.186  23.975  -9.555
    1XTA    CT116633  -5.235  23.891  -9.441
    1XTA    CL516634  -5.182  23.746  -9.432
    1XTA    CL616635  -5.034  23.729  -9.401
    1XTA    OA416636  -5.339  23.931 -11.148
    1XTA    CO516637  -5.478  23.965 -11.135
    1XTA    HL116638  -5.527  23.890 -11.198
    1XTA    HL216639  -5.193  22.896 -11.237
    1XTA    HL316640  -5.224  22.910 -11.078
    1XTA    HL416641  -5.290  23.036 -11.190
    1XTA    HL516642  -5.396  23.670 -10.281
    1XTA    HL616643  -5.380  23.504 -10.233
    1XTA    HL716644  -5.251  23.562 -10.022
    1XTA    HL816645  -5.400  23.674 -10.040
    1XTA    HL916646  -5.217  23.825 -10.151
    1XTA   HL1016647  -5.113  23.725 -10.057
    1XTA   HL1116648  -5.354  23.887  -9.942
    1XTA   HL1216649  -5.266  23.776  -9.847
    1XTA   HL1316650  -5.160  24.004 -10.007
    1XTA   HL1416651  -5.059  23.897  -9.899
    1XTA   HL1516652  -5.113  24.090  -9.762
    1XTA   HL1616653  -5.276  24.092  -9.792
    1XTA   HL1716654  -5.073  23.989  -9.554
    1XTA   HL1816655  -5.226  24.072  -9.540
    1XTA   HL1916656  -5.192  23.705  -9.532
    1XTA   HL2016657  -5.247  23.691  -9.363
    1XTA   HL2116658  -4.993  23.634  -9.426
    1XTA   HL2216659  -5.027  23.738  -9.292
    1XTA   HL2316660  -4.982  23.811  -9.458
    1XTA   HL2416661  -5.499  24.060 -11.178
    1XTA   HL2516662  -5.506  23.970 -11.028
    1XTA    CO816663  -5.384  23.876  -9.456
    1XTA    CO916664  -5.211  23.963  -9.302
    1XTA    OA616665  -5.296  24.079  -9.302
    1XTA   HL4216666  -5.413  23.980  -9.485
    1XTA   HL4316667  -5.406  23.823  -9.553
    1XTA   HL4816668  -5.114  24.016  -9.295
    1XTA   HL4916669  -5.232  23.904  -9.220
    1XTA     NT16670  -3.178  25.241 -10.714
    1XTA    CN116671  -3.081  25.300 -10.783
    1XTA     C116672  -3.107  25.403 -10.878
    1XTA     C216673  -3.006  25.459 -10.959
    1XTA     C316674  -2.874  25.411 -10.950
    1XTA     C416675  -2.843  25.314 -10.846
    1XTA     C516676  -2.945  25.260 -10.768
    1XTA    CN216677  -3.177  25.253 -10.578
    1XTA     C616678  -3.185  25.132 -10.504
    1XTA     C716679  -3.186  25.138 -10.364
    1XTA     C816680  -3.166  25.255 -10.295
    1XTA     C916681  -3.149  25.376 -10.369
    1XTA    C1016682  -3.152  25.380 -10.511
    1XTA    CN316683  -3.270  25.167 -10.774
    1XTA    C1116684  -3.407  25.188 -10.744
    1XTA    C1216685  -3.500  25.115 -10.820
    1XTA    C1316686  -3.463  25.030 -10.929
    1XTA    C1416687  -3.330  25.017 -10.958
    1XTA    C1516688  -3.235  25.086 -10.880
    1XTA     H116689  -3.204  25.443 -10.882
    1XTA     H216690  -3.030  25.537 -11.034
    1XTA     H316691  -2.738  25.292 -10.838
    1XTA     H416692  -2.925  25.191 -10.692
    1XTA     H516693  -3.210  25.042 -10.551
    1XTA     H616694  -3.206  25.046 -10.311
    1XTA     H716695  -3.150  25.470 -10.323
    1XTA     H816696  -3.130  25.478 -10.567
    1XTA     H916697  -3.448  25.254 -10.663
    1XTA    H1016698  -3.609  25.116 -10.800
    1XTA    H1116699  -3.295  24.951 -11.032
    1XTA    H1216700  -3.128  25.080 -10.907
    1XTA    OA116701  -2.782  25.470 -11.034
    1XTA    CO116702  -2.642  25.459 -10.997
    1XTA    OA216703  -3.155  25.257 -10.161
    1XTA    CO216704  -3.113  25.377 -10.098
    1XTA    CL116705  -3.114  25.362  -9.949
    1XTA    CL216706  -3.047  25.483  -9.892
    1XTA    CL316707  -3.101  25.512  -9.749
    1XTA    CL416708  -3.039  25.639  -9.689
    1XTA    CO316709  -3.100  25.679  -9.553
    1XTA    OA316710  -3.237  25.708  -9.572
    1XTA    CO416711  -3.312  25.745  -9.450
    1XTA    CT116712  -3.435  25.827  -9.488
    1XTA    CL516713  -3.534  25.738  -9.557
    1XTA    CL616714  -3.657  25.802  -9.633
    1XTA    OA416715  -3.574  24.976 -10.994
    1XTA    CO516716  -3.553  24.879 -11.089
    1XTA    HL116717  -3.505  24.798 -11.055
    1XTA    HL216718  -2.588  25.532 -11.055
    1XTA    HL316719  -2.636  25.470 -10.885
    1XTA    HL416720  -2.603  25.364 -11.017
    1XTA    HL516721  -3.013  25.399 -10.145
    1XTA    HL616722  -3.181  25.458 -10.122
    1XTA    HL716723  -3.070  25.265  -9.922
    1XTA    HL816724  -3.213  25.360  -9.904
    1XTA    HL916725  -3.072  25.563  -9.962
    1XTA   HL1016726  -2.943  25.481  -9.887
    1XTA   HL1116727  -3.213  25.521  -9.745
    1XTA   HL1216728  -3.080  25.437  -9.673
    1XTA   HL1316729  -3.068  25.715  -9.765
    1XTA   HL1416730  -2.932  25.640  -9.689
    1XTA   HL1516731  -3.088  25.605  -9.472
    1XTA   HL1616732  -3.046  25.761  -9.511
    1XTA   HL1716733  -3.342  25.651  -9.402
    1XTA   HL1816734  -3.245  25.810  -9.395
    1XTA   HL1916735  -3.576  25.681  -9.479
    1XTA   HL2016736  -3.475  25.678  -9.624
    1XTA   HL2116737  -3.701  25.894  -9.588
    1XTA   HL2216738  -3.750  25.747  -9.631
    1XTA   HL2316739  -3.629  25.822  -9.737
    1XTA   HL2416740  -3.493  24.915 -11.175
    1XTA   HL2516741  -3.653  24.854 -11.127
    1XTA    CO816742  -3.382  25.940  -9.577
    1XTA    CO916743  -3.509  25.893  -9.366
    1XTA    OA616744  -3.560  25.807  -9.307
    1XTA   HL4216745  -3.461  26.008  -9.597
    1XTA   HL4316746  -3.344  25.894  -9.706
    1XTA   HL4816747  -3.586  25.956  -9.405
    1XTA   HL4916748  -3.450  25.964  -9.313
    1XTA     NT16749  -6.000  25.051  -8.111
    1XTA    CN116750  -6.064  24.929  -8.078
    1XTA     C116751  -6.186  24.891  -8.134
    1XTA     C216752  -6.237  24.757  -8.111
    1XTA     C316753  -6.174  24.670  -8.016
    1XTA     C416754  -6.059  24.717  -7.952
    1XTA     C516755  -6.001  24.847  -7.981
    1XTA    CN216756  -5.999  25.157  -8.026
    1XTA     C616757  -6.083  25.262  -8.060
    1XTA     C716758  -6.100  25.368  -7.968
    1XTA     C816759  -6.013  25.373  -7.852
    1XTA     C916760  -5.929  25.263  -7.821
    1XTA    C1016761  -5.917  25.154  -7.914
    1XTA    CN316762  -5.926  25.069  -8.222
    1XTA    C1116763  -5.785  25.098  -8.223
    1XTA    C1216764  -5.710  25.105  -8.339
    1XTA    C1316765  -5.776  25.104  -8.467
    1XTA    C1416766  -5.913  25.080  -8.473
    1XTA    C1516767  -5.985  25.059  -8.350
    1XTA     H116768  -6.244  24.957  -8.201
    1XTA     H216769  -6.330  24.735  -8.165
    1XTA     H316770  -6.018  24.658  -7.875
    1XTA     H416771  -5.912  24.883  -7.934
    1XTA     H516772  -6.141  25.250  -8.153
    1XTA     H616773  -6.173  25.444  -8.001
    1XTA     H716774  -5.863  25.272  -7.734
    1XTA     H816775  -5.843  25.080  -7.902
    1XTA     H916776  -5.730  25.098  -8.127
    1XTA    H1016777  -5.604  25.114  -8.321
    1XTA    H1116778  -5.973  25.083  -8.561
    1XTA    H1216779  -6.089  25.043  -8.352
    1XTA    OA116780  -6.230  24.543  -7.998
    1XTA    CO116781  -6.164  24.457  -7.905
    1XTA    OA216782  -6.022  25.481  -7.760
    1XTA    CO216783  -6.035  25.603  -7.826
    1XTA    CL116784  -5.954  25.699  -7.739
    1XTA    CL216785  -5.957  25.854  -7.772
    1XTA    CL316786  -5.918  25.877  -7.923
    1XTA    CL416787  -5.784  25.805  -7.963
    1XTA    CO316788  -5.754  25.859  -8.107
    1XTA    OA316789  -5.868  25.839  -8.195
    1XTA    CO416790  -5.890  25.698  -8.233
    1XTA    CT116791  -5.960  25.694  -8.369
    1XTA    CL516792  -5.929  25.554  -8.428
    1XTA    CL616793  -5.999  25.437  -8.363
    1XTA    OA416794  -5.701  25.119  -8.579
    1XTA    CO516795  -5.758  25.197  -8.679
    1XTA    HL116796  -5.781  25.294  -8.641
    1XTA    HL216797  -6.063  24.450  -7.927
    1XTA    HL316798  -6.184  24.493  -7.805
    1XTA    HL416799  -6.207  24.355  -7.913
    1XTA    HL516800  -5.994  25.601  -7.926
    1XTA    HL616801  -6.137  25.628  -7.829
    1XTA    HL716802  -5.856  25.667  -7.756
    1XTA    HL816803  -5.983  25.693  -7.634
    1XTA    HL916804  -5.885  25.916  -7.709
    1XTA   HL1016805  -6.058  25.894  -7.753
    1XTA   HL1116806  -5.994  25.847  -7.992
    1XTA   HL1216807  -5.909  25.987  -7.938
    1XTA   HL1316808  -5.803  25.699  -7.958
    1XTA   HL1416809  -5.695  25.836  -7.894
    1XTA   HL1516810  -5.754  25.969  -8.094
    1XTA   HL1616811  -5.658  25.839  -8.156
    1XTA   HL1716812  -5.792  25.651  -8.230
    1XTA   HL1816813  -5.951  25.649  -8.156
    1XTA   HL1916814  -5.821  25.534  -8.427
    1XTA   HL2016815  -5.965  25.552  -8.532
    1XTA   HL2116816  -5.975  25.342  -8.409
    1XTA   HL2216817  -6.107  25.444  -8.380
    1XTA   HL2316818  -5.973  25.430  -8.251
    1XTA   HL2416819  -5.844  25.157  -8.731
    1XTA   HL2516820  -5.685  25.220  -8.756
    1XTA    CO816821  -5.886  25.798  -8.462
    1XTA    CO916822  -6.107  25.725  -8.356
    1XTA    OA616823  -5.895  25.785  -8.572
    1XTA   HL4216824  -5.780  25.792  -8.440
    1XTA   HL4316825  -5.929  25.895  -8.449
    1XTA   HL4816826  -6.179  25.641  -8.265
    1XTA   HL4916827  -6.112  25.825  -8.313
    1XTA     NT16828  -7.461  24.657  -6.598
    1XTA    CN116829  -7.362  24.747  -6.569
    1XTA     C116830  -7.289  24.757  -6.447
    1XTA     C216831  -7.182  24.851  -6.426
    1XTA     C316832  -7.152  24.944  -6.527
    1XTA     C416833  -7.228  24.934  -6.645
    1XTA     C516834  -7.325  24.839  -6.668
    1XTA    CN216835  -7.579  24.677  -6.543
    1XTA     C616836  -7.593  24.639  -6.407
    1XTA     C716837  -7.719  24.631  -6.351
    1XTA     C816838  -7.835  24.674  -6.421
    1XTA     C916839  -7.817  24.718  -6.554
    1XTA    C1016840  -7.687  24.722  -6.613
    1XTA    CN316841  -7.431  24.534  -6.649
    1XTA    C1116842  -7.456  24.420  -6.574
    1XTA    C1216843  -7.430  24.297  -6.632
    1XTA    C1316844  -7.359  24.287  -6.754
    1XTA    C1416845  -7.328  24.406  -6.827
    1XTA    C1516846  -7.364  24.536  -6.776
    1XTA     H116847  -7.323  24.687  -6.368
    1XTA     H216848  -7.133  24.865  -6.330
    1XTA     H316849  -7.224  25.013  -6.716
    1XTA     H416850  -7.377  24.829  -6.762
    1XTA     H516851  -7.513  24.608  -6.350
    1XTA     H616852  -7.724  24.588  -6.249
    1XTA     H716853  -7.913  24.755  -6.604
    1XTA     H816854  -7.686  24.740  -6.715
    1XTA     H916855  -7.508  24.425  -6.479
    1XTA    H1016856  -7.459  24.209  -6.586
    1XTA    H1116857  -7.273  24.398  -6.917
    1XTA    H1216858  -7.337  24.631  -6.827
    1XTA    OA116859  -7.068  25.047  -6.512
    1XTA    CO116860  -6.986  25.060  -6.398
    1XTA    OA216861  -7.947  24.679  -6.353
    1XTA    CO216862  -8.035  24.785  -6.377
    1XTA    CL116863  -8.142  24.793  -6.271
    1XTA    CL216864  -8.082  24.798  -6.121
    1XTA    CL316865  -7.988  24.920  -6.093
    1XTA    CL416866  -8.051  25.055  -6.120
    1XTA    CO316867  -7.949  25.157  -6.154
    1XTA    OA316868  -7.891  25.118  -6.281
    1XTA    CO416869  -7.800  25.210  -6.337
    1XTA    CT116870  -7.778  25.179  -6.480
    1XTA    CL516871  -7.709  25.034  -6.496
    1XTA    CL616872  -7.571  25.027  -6.445
    1XTA    OA416873  -7.323  24.168  -6.810
    1XTA    CO516874  -7.215  24.104  -6.731
    1XTA    HL116875  -7.178  24.012  -6.781
    1XTA    HL216876  -7.042  25.095  -6.303
    1XTA    HL316877  -6.921  24.983  -6.365
    1XTA    HL416878  -6.909  25.136  -6.417
    1XTA    HL516879  -7.980  24.878  -6.377
    1XTA    HL616880  -8.086  24.784  -6.474
    1XTA    HL716881  -8.194  24.699  -6.285
    1XTA    HL816882  -8.217  24.881  -6.287
    1XTA    HL916883  -8.023  24.713  -6.099
    1XTA   HL1016884  -8.152  24.801  -6.035
    1XTA   HL1116885  -7.961  24.929  -5.994
    1XTA   HL1216886  -7.904  24.913  -6.157
    1XTA   HL1316887  -8.109  25.075  -6.029
    1XTA   HL1416888  -8.119  25.050  -6.201
    1XTA   HL1516889  -7.983  25.258  -6.162
    1XTA   HL1616890  -7.869  25.163  -6.086
    1XTA   HL1716891  -7.834  25.308  -6.327
    1XTA   HL1816892  -7.714  25.193  -6.271
    1XTA   HL1916893  -7.698  25.020  -6.602
    1XTA   HL2016894  -7.763  24.955  -6.437
    1XTA   HL2116895  -7.523  24.930  -6.466
    1XTA   HL2216896  -7.571  25.039  -6.336
    1XTA   HL2316897  -7.516  25.110  -6.486
    1XTA   HL2416898  -7.247  24.082  -6.640
    1XTA   HL2516899  -7.136  24.177  -6.725
    1XTA    CO816900  -7.688  25.300  -6.532
    1XTA    CO916901  -7.910  25.183  -6.554
    1XTA    OA616902  -7.663  25.280  -6.633
    1XTA   HL4216903  -7.596  25.304  -6.469
    1XTA   HL4316904  -7.734  25.398  -6.534
    1XTA   HL4816905  -7.991  25.076  -6.529
    1XTA   HL4916906  -7.888  25.165  -6.656
    1XTA     NT16907  -5.508  28.621  -4.872
    1XTA    CN116908  -5.462  28.682  -4.984
    1XTA     C116909  -5.546  28.769  -5.058
    1XTA     C216910  -5.507  28.822  -5.181
    1XTA     C316911  -5.379  28.793  -5.226
    1XTA     C416912  -5.290  28.708  -5.154
    1XTA     C516913  -5.330  28.651  -5.033
    1XTA    CN216914  -5.521  28.487  -4.886
    1XTA     C616915  -5.432  28.397  -4.821
    1XTA     C716916  -5.455  28.265  -4.834
    1XTA     C816917  -5.559  28.213  -4.909
    1XTA     C916918  -5.656  28.303  -4.967
    1XTA    C1016919  -5.631  28.443  -4.958
    1XTA    CN316920  -5.525  28.697  -4.759
    1XTA    C1116921  -5.613  28.647  -4.666
    1XTA    C1216922  -5.630  28.714  -4.538
    1XTA    C1316923  -5.561  28.833  -4.511
    1XTA    C1416924  -5.478  28.884  -4.609
    1XTA    C1516925  -5.461  28.818  -4.732
    1XTA     H116926  -5.643  28.789  -5.022
    1XTA     H216927  -5.587  28.878  -5.238
    1XTA     H316928  -5.193  28.685  -5.194
    1XTA     H416929  -5.266  28.585  -4.980
    1XTA     H516930  -5.350  28.438  -4.760
    1XTA     H616931  -5.401  28.202  -4.764
    1XTA     H716932  -5.737  28.259  -5.018
    1XTA     H816933  -5.703  28.519  -5.000
    1XTA     H916934  -5.650  28.547  -4.675
    1XTA    H1016935  -5.696  28.677  -4.461
    1XTA    H1116936  -5.416  28.971  -4.593
    1XTA    H1216937  -5.393  28.858  -4.807
    1XTA    OA116938  -5.334  28.837  -5.346
    1XTA    CO116939  -5.397  28.945  -5.405
    1XTA    OA216940  -5.581  28.077  -4.917
    1XTA    CO216941  -5.471  27.991  -4.948
    1XTA    CL116942  -5.394  28.043  -5.077
    1XTA    CL216943  -5.465  28.025  -5.211
    1XTA    CL316944  -5.377  28.006  -5.333
    1XTA    CL416945  -5.291  28.133  -5.370
    1XTA    CO316946  -5.188  28.087  -5.471
    1XTA    OA316947  -5.085  28.003  -5.414
    1XTA    CO416948  -5.007  27.942  -5.519
    1XTA    CT116949  -4.876  27.889  -5.474
    1XTA    CL516950  -4.804  28.005  -5.393
    1XTA    CL616951  -4.796  28.148  -5.458
    1XTA    OA416952  -5.595  28.889  -4.390
    1XTA    CO516953  -5.522  29.011  -4.353
    1XTA    HL116954  -5.514  29.074  -4.444
    1XTA    HL216955  -5.395  29.039  -5.354
    1XTA    HL316956  -5.331  28.942  -5.496
    1XTA    HL416957  -5.498  28.920  -5.441
    1XTA    HL516958  -5.413  27.980  -4.864
    1XTA    HL616959  -5.523  27.893  -4.972
    1XTA    HL716960  -5.300  27.980  -5.076
    1XTA    HL816961  -5.360  28.148  -5.071
    1XTA    HL916962  -5.525  28.119  -5.217
    1XTA   HL1016963  -5.529  27.935  -5.212
    1XTA   HL1116964  -5.320  27.917  -5.306
    1XTA   HL1216965  -5.446  27.965  -5.409
    1XTA   HL1316966  -5.251  28.198  -5.293
    1XTA   HL1416967  -5.362  28.183  -5.432
    1XTA   HL1516968  -5.237  28.036  -5.550
    1XTA   HL1616969  -5.121  28.162  -5.505
    1XTA   HL1716970  -5.067  27.859  -5.557
    1XTA   HL1816971  -5.011  28.004  -5.610
    1XTA   HL1916972  -4.707  27.970  -5.354
    1XTA   HL2016973  -4.868  28.015  -5.307
    1XTA   HL2116974  -4.706  28.201  -5.412
    1XTA   HL2216975  -4.887  28.206  -5.439
    1XTA   HL2316976  -4.784  28.152  -5.564
    1XTA   HL2416977  -5.429  28.965  -4.327
    1XTA   HL2516978  -5.567  29.059  -4.270
    1XTA    CO816979  -4.783  27.851  -5.589
    1XTA    CO916980  -4.910  27.767  -5.380
    1XTA    OA616981  -4.836  27.772  -5.638
    1XTA   HL4216982  -4.683  27.833  -5.538
    1XTA   HL4316983  -4.763  27.936  -5.657
    1XTA   HL4816984  -4.983  27.810  -5.262
    1XTA   HL4916985  -4.971  27.701  -5.442
    1XTA     NT16986  -3.797  26.174  -4.911
    1XTA    CN116987  -3.672  26.167  -4.857
    1XTA     C116988  -3.624  26.253  -4.757
    1XTA     C216989  -3.495  26.236  -4.703
    1XTA     C316990  -3.403  26.134  -4.752
    1XTA     C416991  -3.457  26.045  -4.851
    1XTA     C516992  -3.582  26.068  -4.910
    1XTA    CN216993  -3.830  26.258  -5.015
    1XTA     C616994  -3.774  26.385  -5.029
    1XTA     C716995  -3.816  26.478  -5.124
    1XTA     C816996  -3.927  26.455  -5.198
    1XTA     C916997  -3.995  26.334  -5.177
    1XTA    C1016998  -3.951  26.235  -5.083
    1XTA    CN316999  -3.891  26.111  -4.845
    1XTA    C1117000  -3.928  25.978  -4.876
    1XTA    C1217001  -4.038  25.919  -4.823
    1XTA    C1317002  -4.121  25.990  -4.733
    1XTA    C1417003  -4.090  26.124  -4.697
    1XTA    C1517004  -3.980  26.184  -4.762
    1XTA     H117005  -3.690  26.330  -4.713
    1XTA     H217006  -3.458  26.302  -4.628
    1XTA     H317007  -3.394  25.968  -4.890
    1XTA     H417008  -3.608  25.997  -4.987
    1XTA     H517009  -3.694  26.425  -4.971
    1XTA     H617010  -3.762  26.567  -5.138
    1XTA     H717011  -4.087  26.315  -5.232
    1XTA     H817012  -4.009  26.146  -5.060
    1XTA     H917013  -3.871  25.921  -4.948
    1XTA    H1017014  -4.065  25.822  -4.853
    1XTA    H1117015  -4.160  26.175  -4.639
    1XTA    H1217016  -3.960  26.293  -4.733
    1XTA    OA117017  -3.290  26.103  -4.680
    1XTA    CO117018  -3.180  26.038  -4.738
    1XTA    OA217019  -3.958  26.550  -5.289
    1XTA    CO217020  -4.093  26.555  -5.344
    1XTA    CL117021  -4.120  26.683  -5.421
    1XTA    CL217022  -4.065  26.679  -5.555
    1XTA    CL317023  -4.086  26.803  -5.644
    1XTA    CL417024  -4.027  26.931  -5.585
    1XTA    CO317025  -3.877  26.932  -5.569
    1XTA    OA317026  -3.830  27.060  -5.544
    1XTA    CO417027  -3.683  27.058  -5.542
    1XTA    CT117028  -3.626  27.193  -5.505
    1XTA    CL517029  -3.471  27.186  -5.520
    1XTA    CL617030  -3.408  27.104  -5.406
    1XTA    OA417031  -4.236  25.931  -4.694
    1XTA    CO517032  -4.316  25.996  -4.594
    1XTA    HL117033  -4.352  26.096  -4.619
    1XTA    HL217034  -3.124  26.117  -4.788
    1XTA    HL317035  -3.112  25.997  -4.657
    1XTA    HL417036  -3.189  25.956  -4.808
    1XTA    HL517037  -4.112  26.463  -5.407
    1XTA    HL617038  -4.158  26.551  -5.255
    1XTA    HL717039  -4.065  26.768  -5.377
    1XTA    HL817040  -4.229  26.703  -5.418
    1XTA    HL917041  -4.103  26.591  -5.600
    1XTA   HL1017042  -3.963  26.644  -5.563
    1XTA   HL1117043  -4.035  26.785  -5.739
    1XTA   HL1217044  -4.194  26.823  -5.666
    1XTA   HL1317045  -4.067  26.936  -5.483
    1XTA   HL1417046  -4.063  27.014  -5.650
    1XTA   HL1517047  -3.867  26.848  -5.495
    1XTA   HL1617048  -3.834  26.895  -5.661
    1XTA   HL1717049  -3.646  26.977  -5.476
    1XTA   HL1817050  -3.647  27.033  -5.639
    1XTA   HL1917051  -3.421  27.283  -5.530
    1XTA   HL2017052  -3.448  27.142  -5.617
    1XTA   HL2117053  -3.302  27.098  -5.415
    1XTA   HL2217054  -3.448  27.007  -5.416
    1XTA   HL2317055  -3.419  27.144  -5.308
    1XTA   HL2417056  -4.262  25.983  -4.507
    1XTA   HL2517057  -4.408  25.937  -4.580
    1XTA    CO817058  -3.663  27.231  -5.355
    1XTA    CO917059  -3.687  27.303  -5.595
    1XTA    OA617060  -3.794  27.312  -5.575
    1XTA   HL4217061  -3.605  27.315  -5.328
    1XTA   HL4317062  -3.792  27.288  -5.354
    1XTA   HL4817063  -3.666  27.273  -5.695
    1XTA   HL4917064  -3.629  27.397  -5.594
    1XTA     NT17065  -7.575  26.657 -11.979
    1XTA    CN117066  -7.708  26.656 -11.966
    1XTA     C117067  -7.776  26.770 -11.913
    1XTA     C217068  -7.916  26.771 -11.909
    1XTA     C317069  -7.995  26.661 -11.952
    1XTA     C417070  -7.930  26.540 -11.998
    1XTA     C517071  -7.788  26.545 -12.002
    1XTA    CN217072  -7.504  26.581 -11.900
    1XTA     C617073  -7.436  26.467 -11.938
    1XTA     C717074  -7.355  26.401 -11.845
    1XTA     C817075  -7.336  26.444 -11.712
    1XTA     C917076  -7.406  26.559 -11.672
    1XTA    C1017077  -7.490  26.625 -11.765
    1XTA    CN317078  -7.521  26.758 -12.056
    1XTA    C1117079  -7.535  26.772 -12.198
    1XTA    C1217080  -7.484  26.877 -12.269
    1XTA    C1317081  -7.393  26.965 -12.207
    1XTA    C1417082  -7.366  26.955 -12.066
    1XTA    C1517083  -7.433  26.852 -11.997
    1XTA     H117084  -7.716  26.858 -11.888
    1XTA     H217085  -7.953  26.863 -11.877
    1XTA     H317086  -7.979  26.451 -12.038
    1XTA     H417087  -7.745  26.462 -12.050
    1XTA     H517088  -7.431  26.443 -12.045
    1XTA     H617089  -7.288  26.328 -11.889
    1XTA     H717090  -7.401  26.581 -11.567
    1XTA     H817091  -7.541  26.713 -11.749
    1XTA     H917092  -7.593  26.700 -12.247
    1XTA    H1017093  -7.509  26.896 -12.371
    1XTA    H1117094  -7.312  27.024 -12.003
    1XTA    H1217095  -7.416  26.851 -11.896
    1XTA    OA117096  -8.128  26.677 -11.952
    1XTA    CO117097  -8.200  26.605 -12.046
    1XTA    OA217098  -7.256  26.387 -11.618
    1XTA    CO217099  -7.198  26.267 -11.661
    1XTA    CL117100  -7.091  26.223 -11.562
    1XTA    CL217101  -6.968  26.304 -11.567
    1XTA    CL317102  -6.905  26.340 -11.430
    1XTA    CL417103  -6.776  26.426 -11.441
    1XTA    CO317104  -6.691  26.432 -11.312
    1XTA    OA317105  -6.765  26.508 -11.215
    1XTA    CO417106  -6.727  26.482 -11.078
    1XTA    CT117107  -6.849  26.453 -10.990
    1XTA    CL517108  -6.950  26.573 -11.006
    1XTA    CL617109  -7.066  26.573 -11.110
    1XTA    OA417110  -7.333  27.068 -12.275
    1XTA    CO517111  -7.300  27.025 -12.403
    1XTA    HL117112  -7.373  27.024 -12.479
    1XTA    HL217113  -8.177  26.639 -12.150
    1XTA    HL317114  -8.198  26.503 -12.031
    1XTA    HL417115  -8.312  26.628 -12.031
    1XTA    HL517116  -7.259  26.180 -11.675
    1XTA    HL617117  -7.153  26.286 -11.759
    1XTA    HL717118  -7.067  26.119 -11.584
    1XTA    HL817119  -7.141  26.213 -11.464
    1XTA    HL917120  -6.988  26.398 -11.621
    1XTA   HL1017121  -6.891  26.254 -11.622
    1XTA   HL1117122  -6.987  26.396 -11.378
    1XTA   HL1217123  -6.886  26.245 -11.378
    1XTA   HL1317124  -6.804  26.530 -11.473
    1XTA   HL1417125  -6.708  26.394 -11.518
    1XTA   HL1517126  -6.669  26.336 -11.261
    1XTA   HL1617127  -6.590  26.475 -11.321
    1XTA   HL1717128  -6.666  26.394 -11.070
    1XTA   HL1817129  -6.665  26.572 -11.050
    1XTA   HL1917130  -6.897  26.660 -11.034
    1XTA   HL2017131  -6.983  26.604 -10.913
    1XTA   HL2117132  -7.118  26.668 -11.129
    1XTA   HL2217133  -7.149  26.506 -11.075
    1XTA   HL2317134  -7.038  26.528 -11.204
    1XTA   HL2417135  -7.251  26.926 -12.412
    1XTA   HL2517136  -7.225  27.103 -12.422
    1XTA    CO817137  -6.817  26.432 -10.842
    1XTA    CO917138  -6.906  26.323 -11.036
    1XTA    OA617139  -7.000  26.261 -10.949
    1XTA   HL4217140  -6.754  26.348 -10.843
    1XTA   HL4317141  -6.906  26.404 -10.787
    1XTA   HL4817142  -6.831  26.237 -11.057
    1XTA   HL4917143  -6.950  26.339 -11.132
    1XTA     NT17144  -5.973  26.630  -5.732
    1XTA    CN117145  -5.857  26.619  -5.670
    1XTA     C117146  -5.748  26.714  -5.673
    1XTA     C217147  -5.630  26.686  -5.602
    1XTA     C317148  -5.612  26.565  -5.530
    1XTA     C417149  -5.718  26.472  -5.528
    1XTA     C517150  -5.834  26.499  -5.605
    1XTA    CN217151  -6.052  26.738  -5.702
    1XTA     C617152  -6.136  26.716  -5.590
    1XTA     C717153  -6.231  26.817  -5.560
    1XTA     C817154  -6.238  26.935  -5.643
    1XTA     C917155  -6.153  26.947  -5.756
    1XTA    C1017156  -6.057  26.852  -5.786
    1XTA    CN317157  -5.989  26.562  -5.850
    1XTA    C1117158  -5.900  26.586  -5.956
    1XTA    C1217159  -5.901  26.505  -6.071
    1XTA    C1317160  -6.003  26.408  -6.086
    1XTA    C1417161  -6.088  26.380  -5.975
    1XTA    C1517162  -6.086  26.460  -5.860
    1XTA     H117163  -5.759  26.806  -5.720
    1XTA     H217164  -5.554  26.766  -5.605
    1XTA     H317165  -5.701  26.372  -5.483
    1XTA     H417166  -5.909  26.427  -5.613
    1XTA     H517167  -6.136  26.628  -5.529
    1XTA     H617168  -6.300  26.807  -5.479
    1XTA     H717169  -6.136  27.039  -5.815
    1XTA     H817170  -5.989  26.859  -5.868
    1XTA     H917171  -5.829  26.658  -5.943
    1XTA    H1017172  -5.835  26.529  -6.145
    1XTA    H1117173  -6.168  26.312  -5.989
    1XTA    H1217174  -6.144  26.449  -5.771
    1XTA    OA117175  -5.493  26.549  -5.459
    1XTA    CO117176  -5.474  26.432  -5.384
    1XTA    OA217177  -6.314  27.042  -5.596
    1XTA    CO217178  -6.276  27.171  -5.641
    1XTA    CL117179  -6.348  27.283  -5.562
    1XTA    CL217180  -6.293  27.420  -5.589
    1XTA    CL317181  -6.364  27.536  -5.514
    1XTA    CL417182  -6.383  27.525  -5.364
    1XTA    CO317183  -6.486  27.629  -5.313
    1XTA    OA317184  -6.527  27.588  -5.185
    1XTA    CO417185  -6.624  27.488  -5.174
    1XTA    CT117186  -6.627  27.426  -5.036
    1XTA    CL517187  -6.485  27.391  -4.984
    1XTA    CL617188  -6.475  27.365  -4.834
    1XTA    OA417189  -6.012  26.335  -6.206
    1XTA    CO517190  -6.105  26.228  -6.206
    1XTA    HL117191  -6.207  26.261  -6.203
    1XTA    HL217192  -5.370  26.443  -5.346
    1XTA    HL317193  -5.551  26.432  -5.314
    1XTA    HL417194  -5.490  26.337  -5.437
    1XTA    HL517195  -6.165  27.162  -5.637
    1XTA    HL617196  -6.290  27.170  -5.748
    1XTA    HL717197  -6.334  27.253  -5.461
    1XTA    HL817198  -6.454  27.277  -5.575
    1XTA    HL917199  -6.315  27.444  -5.694
    1XTA   HL1017200  -6.189  27.412  -5.563
    1XTA   HL1117201  -6.306  27.625  -5.533
    1XTA   HL1217202  -6.468  27.540  -5.549
    1XTA   HL1317203  -6.284  27.521  -5.316
    1XTA   HL1417204  -6.424  27.433  -5.348
    1XTA   HL1517205  -6.443  27.731  -5.334
    1XTA   HL1617206  -6.580  27.620  -5.384
    1XTA   HL1717207  -6.712  27.548  -5.186
    1XTA   HL1817208  -6.599  27.414  -5.252
    1XTA   HL1917209  -6.419  27.476  -5.012
    1XTA   HL2017210  -6.452  27.299  -5.032
    1XTA   HL2117211  -6.383  27.311  -4.805
    1XTA   HL2217212  -6.553  27.299  -4.795
    1XTA   HL2317213  -6.464  27.461  -4.780
    1XTA   HL2417214  -6.083  26.142  -6.140
    1XTA   HL2517215  -6.093  26.170  -6.303
    1XTA    CO817216  -6.706  27.298  -5.052
    1XTA    CO917217  -6.703  27.518  -4.936
    1XTA    OA617218  -6.829  27.337  -5.097
    1XTA   HL4217219  -6.734  27.247  -4.956
    1XTA   HL4317220  -6.666  27.227  -5.127
    1XTA   HL4817221  -6.795  27.535  -4.994
    1XTA   HL4917222  -6.720  27.454  -4.851
    1XTA     NT17223  -6.532  29.714 -11.534
    1XTA    CN117224  -6.596  29.772 -11.639
    1XTA     C117225  -6.702  29.861 -11.616
    1XTA     C217226  -6.764  29.930 -11.721
    1XTA     C317227  -6.738  29.897 -11.856
    1XTA     C417228  -6.638  29.800 -11.879
    1XTA     C517229  -6.566  29.742 -11.773
    1XTA    CN217230  -6.444  29.779 -11.458
    1XTA     C617231  -6.448  29.755 -11.316
    1XTA     C717232  -6.342  29.799 -11.236
    1XTA     C817233  -6.231  29.869 -11.292
    1XTA     C917234  -6.227  29.890 -11.433
    1XTA    C1017235  -6.331  29.849 -11.517
    1XTA    CN317236  -6.548  29.579 -11.518
    1XTA    C1117237  -6.673  29.533 -11.487
    1XTA    C1217238  -6.700  29.396 -11.491
    1XTA    C1317239  -6.591  29.303 -11.500
    1XTA    C1417240  -6.457  29.349 -11.521
    1XTA    C1517241  -6.437  29.490 -11.536
    1XTA     H117242  -6.722  29.894 -11.515
    1XTA     H217243  -6.830  30.008 -11.691
    1XTA     H317244  -6.616  29.773 -11.983
    1XTA     H417245  -6.482  29.671 -11.798
    1XTA     H517246  -6.529  29.701 -11.278
    1XTA     H617247  -6.344  29.772 -11.138
    1XTA     H717248  -6.146  29.940 -11.467
    1XTA     H817249  -6.320  29.869 -11.622
    1XTA     H917250  -6.752  29.595 -11.469
    1XTA    H1017251  -6.801  29.369 -11.478
    1XTA    H1117252  -6.371  29.277 -11.525
    1XTA    H1217253  -6.338  29.523 -11.568
    1XTA    OA117254  -6.807  29.969 -11.953
    1XTA    CO117255  -6.738  29.981 -12.078
    1XTA    OA217256  -6.115  29.886 -11.224
    1XTA    CO217257  -6.129  29.879 -11.077
    1XTA    CL117258  -5.999  29.905 -11.004
    1XTA    CL217259  -6.001  29.882 -10.852
    1XTA    CL317260  -5.873  29.914 -10.792
    1XTA    CL417261  -5.886  29.928 -10.642
    1XTA    CO317262  -5.763  29.989 -10.570
    1XTA    OA317263  -5.727  30.106 -10.623
    1XTA    CO417264  -5.628  30.170 -10.549
    1XTA    CT117265  -5.591  30.308 -10.615
    1XTA    CL517266  -5.444  30.342 -10.587
    1XTA    CL617267  -5.386  30.318 -10.447
    1XTA    OA417268  -6.617  29.165 -11.490
    1XTA    CO517269  -6.747  29.127 -11.547
    1XTA    HL117270  -6.729  29.017 -11.562
    1XTA    HL217271  -6.725  29.876 -12.128
    1XTA    HL317272  -6.799  30.038 -12.152
    1XTA    HL417273  -6.644  30.029 -12.063
    1XTA    HL517274  -6.208  29.953 -11.039
    1XTA    HL617275  -6.163  29.775 -11.051
    1XTA    HL717276  -5.971  30.011 -11.023
    1XTA    HL817277  -5.917  29.847 -11.042
    1XTA    HL917278  -6.030  29.780 -10.835
    1XTA   HL1017279  -6.071  29.953 -10.810
    1XTA   HL1117280  -5.799  29.833 -10.819
    1XTA   HL1217281  -5.831  30.005 -10.839
    1XTA   HL1317282  -5.930  29.833 -10.587
    1XTA   HL1417283  -5.963  30.006 -10.634
    1XTA   HL1517284  -5.779  29.992 -10.462
    1XTA   HL1617285  -5.670  29.924 -10.583
    1XTA   HL1717286  -5.652  30.167 -10.442
    1XTA   HL1817287  -5.531  30.114 -10.549
    1XTA   HL1917288  -5.423  30.446 -10.605
    1XTA   HL2017289  -5.393  30.286 -10.661
    1XTA   HL2117290  -5.284  30.348 -10.428
    1XTA   HL2217291  -5.393  30.216 -10.416
    1XTA   HL2317292  -5.445  30.372 -10.375
    1XTA   HL2417293  -6.741  29.166 -11.650
    1XTA   HL2517294  -6.839  29.143 -11.483
    1XTA    CO817295  -5.698  30.407 -10.561
    1XTA    CO917296  -5.601  30.290 -10.764
    1XTA    OA617297  -5.566  30.405 -10.836
    1XTA   HL4217298  -5.695  30.411 -10.455
    1XTA   HL4317299  -5.664  30.503 -10.602
    1XTA   HL4817300  -5.700  30.264 -10.784
    1XTA   HL4917301  -5.551  30.201 -10.804
    1XTA     NT17302   0.172  30.370 -10.246
    1XTA    CN117303   0.126  30.415 -10.131
    1XTA     C117304   0.207  30.427 -10.018
    1XTA     C217305   0.147  30.470  -9.898
    1XTA     C317306   0.011  30.476  -9.882
    1XTA     C417307  -0.065  30.472  -9.997
    1XTA     C517308  -0.011  30.451 -10.124
    1XTA    CN217309   0.110  30.254 -10.295
    1XTA     C617310   0.040  30.257 -10.420
    1XTA     C717311  -0.030  30.142 -10.471
    1XTA     C817312  -0.052  30.030 -10.389
    1XTA     C917313   0.021  30.029 -10.271
    1XTA    C1017314   0.110  30.134 -10.226
    1XTA    CN317315   0.290  30.416 -10.297
    1XTA    C1117316   0.319  30.548 -10.299
    1XTA    C1217317   0.433  30.602 -10.365
    1XTA    C1317318   0.513  30.511 -10.438
    1XTA    C1417319   0.483  30.374 -10.434
    1XTA    C1517320   0.375  30.326 -10.363
    1XTA     H117321   0.312  30.412 -10.020
    1XTA     H217322   0.198  30.497  -9.815
    1XTA     H317323  -0.173  30.486  -9.999
    1XTA     H417324  -0.075  30.447 -10.210
    1XTA     H517325   0.049  30.354 -10.470
    1XTA     H617326  -0.077  30.157 -10.562
    1XTA     H717327   0.008  29.944 -10.211
    1XTA     H817328   0.163  30.118 -10.135
    1XTA     H917329   0.246  30.612 -10.253
    1XTA    H1017330   0.454  30.705 -10.342
    1XTA    H1117331   0.552  30.300 -10.484
    1XTA    H1217332   0.347  30.224 -10.365
    1XTA    OA117333  -0.041  30.495  -9.760
    1XTA    CO117334  -0.168  30.559  -9.750
    1XTA    OA217335  -0.136  29.923 -10.417
    1XTA    CO217336  -0.237  29.894 -10.317
    1XTA    CL117337  -0.335  29.802 -10.376
    1XTA    CL217338  -0.437  29.882 -10.467
    1XTA    CL317339  -0.527  29.965 -10.379
    1XTA    CL417340  -0.626  29.886 -10.283
    1XTA    CO317341  -0.719  29.774 -10.347
    1XTA    OA317342  -0.647  29.655 -10.369
    1XTA    CO417343  -0.685  29.568 -10.263
    1XTA    CT117344  -0.625  29.425 -10.291
    1XTA    CL517345  -0.471  29.444 -10.315
    1XTA    CL617346  -0.381  29.501 -10.200
    1XTA    OA417347   0.626  30.553 -10.501
    1XTA    CO517348   0.672  30.688 -10.475
    1XTA    HL117349   0.771  30.696 -10.517
    1XTA    HL217350  -0.175  30.657  -9.799
    1XTA    HL317351  -0.243  30.491  -9.792
    1XTA    HL417352  -0.182  30.579  -9.642
    1XTA    HL517353  -0.199  29.849 -10.218
    1XTA    HL617354  -0.274  29.993 -10.292
    1XTA    HL717355  -0.378  29.734 -10.298
    1XTA    HL817356  -0.285  29.730 -10.439
    1XTA    HL917357  -0.499  29.822 -10.530
    1XTA   HL1017358  -0.387  29.948 -10.542
    1XTA   HL1117359  -0.474  30.036 -10.315
    1XTA   HL1217360  -0.587  30.026 -10.441
    1XTA   HL1317361  -0.685  29.962 -10.235
    1XTA   HL1417362  -0.572  29.844 -10.202
    1XTA   HL1517363  -0.811  29.761 -10.294
    1XTA   HL1617364  -0.744  29.823 -10.436
    1XTA   HL1717365  -0.641  29.608 -10.171
    1XTA   HL1817366  -0.791  29.555 -10.242
    1XTA   HL1917367  -0.461  29.519 -10.395
    1XTA   HL2017368  -0.413  29.363 -10.353
    1XTA   HL2117369  -0.344  29.422 -10.133
    1XTA   HL2217370  -0.435  29.581 -10.146
    1XTA   HL2317371  -0.293  29.555 -10.242
    1XTA   HL2417372   0.693  30.689 -10.365
    1XTA   HL2517373   0.601  30.769 -10.503
    1XTA    CO817374  -0.682  29.375 -10.433
    1XTA    CO917375  -0.641  29.325 -10.176
    1XTA    OA617376  -0.632  29.423 -10.522
    1XTA   HL4217377  -0.791  29.396 -10.430
    1XTA   HL4317378  -0.683  29.263 -10.438
    1XTA   HL4817379  -0.573  29.204 -10.199
    1XTA   HL4917380  -0.615  29.365 -10.077
    1XTA     NT17381  -5.388  25.743  -9.909
    1XTA    CN117382  -5.505  25.694  -9.960
    1XTA     C117383  -5.586  25.600  -9.890
    1XTA     C217384  -5.691  25.533  -9.955
    1XTA     C317385  -5.726  25.557 -10.091
    1XTA     C417386  -5.647  25.653 -10.166
    1XTA     C517387  -5.543  25.721 -10.099
    1XTA    CN217388  -5.381  25.876  -9.880
    1XTA     C617389  -5.275  25.953  -9.929
    1XTA     C717390  -5.274  26.095  -9.911
    1XTA     C817391  -5.371  26.157  -9.825
    1XTA     C917392  -5.469  26.073  -9.771
    1XTA    C1017393  -5.469  25.934  -9.790
    1XTA    CN317394  -5.292  25.659  -9.868
    1XTA    C1117395  -5.246  25.662  -9.731
    1XTA    C1217396  -5.130  25.585  -9.694
    1XTA    C1317397  -5.074  25.503  -9.791
    1XTA    C1417398  -5.134  25.492  -9.921
    1XTA    C1517399  -5.238  25.570  -9.966
    1XTA     H117400  -5.572  25.564  -9.787
    1XTA     H217401  -5.745  25.454  -9.895
    1XTA     H317402  -5.676  25.678 -10.261
    1XTA     H417403  -5.488  25.793 -10.161
    1XTA     H517404  -5.191  25.910  -9.975
    1XTA     H617405  -5.191  26.148  -9.953
    1XTA     H717406  -5.546  26.112  -9.712
    1XTA     H817407  -5.541  25.868  -9.740
    1XTA     H917408  -5.288  25.717  -9.648
    1XTA    H1017409  -5.083  25.581  -9.595
    1XTA    H1117410  -5.077  25.437  -9.999
    1XTA    H1217411  -5.269  25.573 -10.070
    1XTA    OA117412  -5.817  25.489 -10.165
    1XTA    CO117413  -5.933  25.444 -10.090
    1XTA    OA217414  -5.382  26.297  -9.803
    1XTA    CO217415  -5.261  26.367  -9.833
    1XTA    CL117416  -5.261  26.403  -9.986
    1XTA    CL217417  -5.161  26.508 -10.022
    1XTA    CL317418  -5.011  26.473  -9.990
    1XTA    CL417419  -4.955  26.360 -10.075
    1XTA    CO317420  -4.805  26.341 -10.046
    1XTA    OA317421  -4.778  26.329  -9.908
    1XTA    CO417422  -4.792  26.192  -9.867
    1XTA    CT117423  -4.743  26.167  -9.728
    1XTA    CL517424  -4.748  26.019  -9.686
    1XTA    CL617425  -4.885  25.953  -9.667
    1XTA    OA417426  -4.975  25.409  -9.768
    1XTA    CO517427  -4.922  25.395  -9.634
    1XTA    HL117428  -5.011  25.409  -9.571
    1XTA    HL217429  -5.969  25.515 -10.021
    1XTA    HL317430  -6.009  25.423 -10.165
    1XTA    HL417431  -5.921  25.358 -10.032
    1XTA    HL517432  -5.252  26.461  -9.782
    1XTA    HL617433  -5.170  26.310  -9.802
    1XTA    HL717434  -5.365  26.433 -10.016
    1XTA    HL817435  -5.251  26.325 -10.049
    1XTA    HL917436  -5.188  26.600  -9.969
    1XTA   HL1017437  -5.177  26.538 -10.117
    1XTA   HL1117438  -4.948  26.557  -9.994
    1XTA   HL1217439  -5.003  26.443  -9.884
    1XTA   HL1317440  -4.963  26.368 -10.182
    1XTA   HL1417441  -5.012  26.270 -10.038
    1XTA   HL1517442  -4.778  26.251 -10.093
    1XTA   HL1617443  -4.752  26.427 -10.089
    1XTA   HL1717444  -4.895  26.166  -9.881
    1XTA   HL1817445  -4.741  26.120  -9.939
    1XTA   HL1917446  -4.692  25.999  -9.592
    1XTA   HL2017447  -4.688  25.972  -9.765
    1XTA   HL2117448  -4.944  26.023  -9.604
    1XTA   HL2217449  -4.873  25.858  -9.616
    1XTA   HL2317450  -4.941  25.931  -9.765
    1XTA   HL2417451  -4.842  25.472  -9.609
    1XTA   HL2517452  -4.880  25.300  -9.622
    1XTA    CO817453  -4.781  26.257  -9.624
    1XTA    CO917454  -4.603  26.224  -9.711
    1XTA    OA617455  -4.682  26.310  -9.615
    1XTA   HL4217456  -4.824  26.201  -9.539
    1XTA   HL4317457  -4.852  26.324  -9.657
    1XTA   HL4817458  -4.552  26.303  -9.812
    1XTA   HL4917459  -4.541  26.150  -9.669
    1XTA     NT17460  -4.555  29.229  -8.342
    1XTA    CN117461  -4.438  29.275  -8.402
    1XTA     C117462  -4.331  29.189  -8.441
    1XTA     C217463  -4.218  29.236  -8.507
    1XTA     C317464  -4.201  29.371  -8.522
    1XTA     C417465  -4.304  29.466  -8.481
    1XTA     C517466  -4.428  29.415  -8.431
    1XTA    CN217467  -4.550  29.191  -8.213
    1XTA     C617468  -4.605  29.277  -8.116
    1XTA     C717469  -4.614  29.231  -7.981
    1XTA     C817470  -4.559  29.103  -7.938
    1XTA     C917471  -4.506  29.022  -8.039
    1XTA    C1017472  -4.502  29.069  -8.173
    1XTA    CN317473  -4.660  29.193  -8.425
    1XTA    C1117474  -4.679  29.063  -8.457
    1XTA    C1217475  -4.786  29.027  -8.544
    1XTA    C1317476  -4.876  29.125  -8.591
    1XTA    C1417477  -4.852  29.259  -8.556
    1XTA    C1517478  -4.749  29.292  -8.468
    1XTA     H117479  -4.345  29.084  -8.426
    1XTA     H217480  -4.139  29.172  -8.553
    1XTA     H317481  -4.296  29.570  -8.505
    1XTA     H417482  -4.497  29.486  -8.415
    1XTA     H517483  -4.642  29.375  -8.139
    1XTA     H617484  -4.643  29.301  -7.902
    1XTA     H717485  -4.460  28.925  -8.031
    1XTA     H817486  -4.456  29.002  -8.256
    1XTA     H917487  -4.608  28.983  -8.422
    1XTA    H1017488  -4.801  28.926  -8.579
    1XTA    H1117489  -4.912  29.334  -8.594
    1XTA    H1217490  -4.740  29.387  -8.431
    1XTA    OA117491  -4.087  29.399  -8.600
    1XTA    CO117492  -4.014  29.516  -8.558
    1XTA    OA217493  -4.556  29.064  -7.808
    1XTA    CO217494  -4.639  29.137  -7.715
    1XTA    CL117495  -4.660  29.063  -7.589
    1XTA    CL217496  -4.760  29.126  -7.489
    1XTA    CL317497  -4.909  29.108  -7.501
    1XTA    CL417498  -4.946  28.968  -7.460
    1XTA    CO317499  -5.081  28.927  -7.524
    1XTA    OA317500  -5.205  28.968  -7.460
    1XTA    CO417501  -5.227  29.104  -7.472
    1XTA    CT117502  -5.380  29.146  -7.461
    1XTA    CL517503  -5.427  29.148  -7.305
    1XTA    CL617504  -5.462  29.009  -7.249
    1XTA    OA417505  -4.988  29.091  -8.665
    1XTA    CO517506  -5.048  28.959  -8.630
    1XTA    HL117507  -5.155  28.944  -8.657
    1XTA    HL217508  -3.924  29.517  -8.619
    1XTA    HL317509  -4.076  29.598  -8.581
    1XTA    HL417510  -3.997  29.522  -8.450
    1XTA    HL517511  -4.606  29.239  -7.707
    1XTA    HL617512  -4.744  29.154  -7.760
    1XTA    HL717513  -4.568  29.036  -7.538
    1XTA    HL817514  -4.699  28.967  -7.618
    1XTA    HL917515  -4.744  29.229  -7.464
    1XTA   HL1017516  -4.736  29.089  -7.388
    1XTA   HL1117517  -4.952  29.179  -7.435
    1XTA   HL1217518  -4.938  29.122  -7.605
    1XTA   HL1317519  -4.951  28.960  -7.357
    1XTA   HL1417520  -4.874  28.891  -7.488
    1XTA   HL1517521  -5.075  28.946  -7.631
    1XTA   HL1617522  -5.086  28.820  -7.526
    1XTA   HL1717523  -5.176  29.151  -7.384
    1XTA   HL1817524  -5.180  29.138  -7.567
    1XTA   HL1917525  -5.516  29.211  -7.285
    1XTA   HL2017526  -5.352  29.189  -7.235
    1XTA   HL2117527  -5.536  28.955  -7.309
    1XTA   HL2217528  -5.503  29.022  -7.148
    1XTA   HL2317529  -5.375  28.946  -7.257
    1XTA   HL2417530  -5.032  28.944  -8.527
    1XTA   HL2517531  -4.996  28.880  -8.687
    1XTA    CO817532  -5.461  29.048  -7.552
    1XTA    CO917533  -5.392  29.294  -7.509
    1XTA    OA617534  -5.322  29.360  -7.458
    1XTA   HL4217535  -5.560  29.090  -7.553
    1XTA   HL4317536  -5.465  28.914  -7.514
    1XTA   HL4817537  -5.496  29.324  -7.510
    1XTA   HL4917538  -5.358  29.292  -7.610
    1XTA     NT17539  -5.749  31.021  -7.590
    1XTA    CN117540  -5.784  30.972  -7.709
    1XTA     C117541  -5.781  30.829  -7.734
    1XTA     C217542  -5.830  30.774  -7.852
    1XTA     C317543  -5.884  30.855  -7.951
    1XTA     C417544  -5.890  30.994  -7.925
    1XTA     C517545  -5.837  31.056  -7.809
    1XTA    CN217546  -5.842  31.031  -7.489
    1XTA     C617547  -5.926  30.925  -7.456
    1XTA     C717548  -6.012  30.919  -7.349
    1XTA     C817549  -6.014  31.037  -7.268
    1XTA     C917550  -5.931  31.145  -7.304
    1XTA    C1017551  -5.837  31.142  -7.414
    1XTA    CN317552  -5.622  31.064  -7.572
    1XTA    C1117553  -5.569  31.179  -7.632
    1XTA    C1217554  -5.435  31.217  -7.608
    1XTA    C1317555  -5.352  31.139  -7.531
    1XTA    C1417556  -5.407  31.021  -7.471
    1XTA    C1517557  -5.542  30.983  -7.486
    1XTA     H117558  -5.747  30.765  -7.660
    1XTA     H217559  -5.821  30.665  -7.861
    1XTA     H317560  -5.938  31.057  -7.997
    1XTA     H417561  -5.862  31.159  -7.796
    1XTA     H517562  -5.915  30.829  -7.500
    1XTA     H617563  -6.070  30.831  -7.314
    1XTA     H717564  -5.943  31.237  -7.250
    1XTA     H817565  -5.775  31.230  -7.438
    1XTA     H917566  -5.629  31.244  -7.692
    1XTA    H1017567  -5.398  31.314  -7.646
    1XTA    H1117568  -5.347  30.952  -7.421
    1XTA    H1217569  -5.575  30.885  -7.443
    1XTA    OA117570  -5.938  30.808  -8.072
    1XTA    CO117571  -5.919  30.669  -8.101
    1XTA    OA217572  -6.091  31.056  -7.161
    1XTA    CO217573  -6.197  30.963  -7.140
    1XTA    CL117574  -6.303  31.033  -7.056
    1XTA    CL217575  -6.424  30.939  -7.031
    1XTA    CL317576  -6.529  31.019  -6.949
    1XTA    CL417577  -6.672  30.956  -6.948
    1XTA    CO317578  -6.789  31.032  -6.881
    1XTA    OA317579  -6.898  30.942  -6.876
    1XTA    CO417580  -7.013  30.995  -6.817
    1XTA    CT117581  -7.125  30.881  -6.797
    1XTA    CL517582  -7.203  30.882  -6.664
    1XTA    CL617583  -7.119  30.862  -6.541
    1XTA    OA417584  -5.216  31.164  -7.518
    1XTA    CO517585  -5.157  31.124  -7.394
    1XTA    HL117586  -5.196  31.177  -7.309
    1XTA    HL217587  -5.962  30.592  -8.036
    1XTA    HL317588  -5.958  30.641  -8.195
    1XTA    HL417589  -5.810  30.648  -8.100
    1XTA    HL517590  -6.248  30.939  -7.236
    1XTA    HL617591  -6.154  30.876  -7.092
    1XTA    HL717592  -6.330  31.122  -7.106
    1XTA    HL817593  -6.252  31.077  -6.971
    1XTA    HL917594  -6.395  30.857  -6.970
    1XTA   HL1017595  -6.461  30.897  -7.123
    1XTA   HL1117596  -6.499  31.033  -6.842
    1XTA   HL1217597  -6.537  31.122  -6.995
    1XTA   HL1317598  -6.674  30.845  -6.918
    1XTA   HL1417599  -6.701  30.943  -7.055
    1XTA   HL1517600  -6.764  31.059  -6.777
    1XTA   HL1617601  -6.816  31.128  -6.932
    1XTA   HL1717602  -6.992  31.036  -6.719
    1XTA   HL1817603  -7.045  31.072  -6.880
    1XTA   HL1917604  -7.285  30.806  -6.658
    1XTA   HL2017605  -7.242  30.984  -6.662
    1XTA   HL2117606  -7.158  30.893  -6.444
    1XTA   HL2217607  -7.027  30.922  -6.548
    1XTA   HL2317608  -7.090  30.759  -6.546
    1XTA   HL2417609  -5.057  31.152  -7.409
    1XTA   HL2517610  -5.168  31.016  -7.373
    1XTA    CO817611  -7.063  30.751  -6.826
    1XTA    CO917612  -7.226  30.898  -6.911
    1XTA    OA617613  -7.137  30.631  -6.828
    1XTA   HL4217614  -6.999  30.728  -6.743
    1XTA   HL4317615  -6.999  30.756  -6.920
    1XTA   HL4817616  -7.290  30.812  -6.886
    1XTA   HL4917617  -7.185  30.881  -7.011
    1XTA     NT17618  -3.003  27.733  -6.367
    1XTA    CN117619  -3.070  27.639  -6.305
    1XTA     C117620  -3.198  27.660  -6.249
    1XTA     C217621  -3.264  27.560  -6.176
    1XTA     C317622  -3.213  27.427  -6.176
    1XTA     C417623  -3.083  27.401  -6.227
    1XTA     C517624  -3.015  27.509  -6.282
    1XTA    CN217625  -3.050  27.782  -6.480
    1XTA     C617626  -3.083  27.916  -6.495
    1XTA     C717627  -3.133  27.965  -6.619
    1XTA     C817628  -3.167  27.881  -6.724
    1XTA     C917629  -3.121  27.744  -6.711
    1XTA    C1017630  -3.071  27.701  -6.585
    1XTA    CN317631  -2.887  27.787  -6.314
    1XTA    C1117632  -2.871  27.798  -6.176
    1XTA    C1217633  -2.753  27.843  -6.114
    1XTA    C1317634  -2.648  27.882  -6.198
    1XTA    C1417635  -2.663  27.881  -6.339
    1XTA    C1517636  -2.778  27.827  -6.399
    1XTA     H117637  -3.248  27.752  -6.282
    1XTA     H217638  -3.367  27.579  -6.129
    1XTA     H317639  -3.036  27.310  -6.211
    1XTA     H417640  -2.912  27.495  -6.311
    1XTA     H517641  -3.077  27.990  -6.417
    1XTA     H617642  -3.144  28.068  -6.639
    1XTA     H717643  -3.144  27.675  -6.790
    1XTA     H817644  -3.051  27.591  -6.579
    1XTA     H917645  -2.953  27.770  -6.114
    1XTA    H1017646  -2.725  27.833  -6.004
    1XTA    H1117647  -2.587  27.914  -6.401
    1XTA    H1217648  -2.798  27.826  -6.505
    1XTA    OA117649  -3.300  27.328  -6.131
    1XTA    CO117650  -3.256  27.199  -6.166
    1XTA    OA217651  -3.221  27.938  -6.840
    1XTA    CO217652  -3.307  27.846  -6.913
    1XTA    CL117653  -3.379  27.927  -7.017
    1XTA    CL217654  -3.484  28.018  -6.965
    1XTA    CL317655  -3.558  28.097  -7.078
    1XTA    CL417656  -3.590  28.242  -7.038
    1XTA    CO317657  -3.660  28.324  -7.148
    1XTA    OA317658  -3.724  28.435  -7.099
    1XTA    CO417659  -3.636  28.525  -7.039
    1XTA    CT117660  -3.709  28.649  -6.975
    1XTA    CL517661  -3.828  28.606  -6.888
    1XTA    CL617662  -3.803  28.488  -6.791
    1XTA    OA417663  -2.542  27.924  -6.130
    1XTA    CO517664  -2.415  27.947  -6.190
    1XTA    HL117665  -2.361  28.002  -6.117
    1XTA    HL217666  -3.222  27.195  -6.266
    1XTA    HL317667  -3.170  27.158  -6.101
    1XTA    HL417668  -3.342  27.133  -6.141
    1XTA    HL517669  -3.244  27.773  -6.955
    1XTA    HL617670  -3.380  27.793  -6.852
    1XTA    HL717671  -3.432  27.855  -7.084
    1XTA    HL817672  -3.311  27.971  -7.089
    1XTA    HL917673  -3.431  28.095  -6.905
    1XTA   HL1017674  -3.545  27.965  -6.893
    1XTA   HL1117675  -3.499  28.093  -7.169
    1XTA   HL1217676  -3.652  28.049  -7.103
    1XTA   HL1317677  -3.497  28.289  -6.999
    1XTA   HL1417678  -3.652  28.250  -6.952
    1XTA   HL1517679  -3.585  28.354  -7.217
    1XTA   HL1617680  -3.743  28.272  -7.192
    1XTA   HL1717681  -3.581  28.484  -6.952
    1XTA   HL1817682  -3.550  28.562  -7.103
    1XTA   HL1917683  -3.911  28.575  -6.959
    1XTA   HL2017684  -3.860  28.701  -6.840
    1XTA   HL2117685  -3.898  28.468  -6.742
    1XTA   HL2217686  -3.736  28.513  -6.709
    1XTA   HL2317687  -3.776  28.389  -6.832
    1XTA   HL2417688  -2.405  27.998  -6.288
    1XTA   HL2517689  -2.377  27.842  -6.212
    1XTA    CO817690  -3.759  28.741  -7.088
    1XTA    CO917691  -3.595  28.726  -6.894
    1XTA    OA617692  -3.649  28.761  -7.177
    1XTA   HL4217693  -3.775  28.840  -7.051
    1XTA   HL4317694  -3.856  28.708  -7.140
    1XTA   HL4817695  -3.632  28.826  -6.877
    1XTA   HL4917696  -3.612  28.681  -6.793
    1XTA     NT17697  -2.157  31.673 -10.382
    1XTA    CN117698  -2.225  31.621 -10.276
    1XTA     C117699  -2.331  31.533 -10.295
    1XTA     C217700  -2.380  31.459 -10.189
    1XTA     C317701  -2.337  31.479 -10.057
    1XTA     C417702  -2.245  31.581 -10.039
    1XTA     C517703  -2.192  31.650 -10.145
    1XTA    CN217704  -2.079  31.592 -10.456
    1XTA     C617705  -1.977  31.516 -10.393
    1XTA     C717706  -1.896  31.434 -10.462
    1XTA     C817707  -1.915  31.422 -10.603
    1XTA     C917708  -2.025  31.493 -10.669
    1XTA    C1017709  -2.102  31.578 -10.595
    1XTA    CN317710  -2.188  31.801 -10.418
    1XTA    C1117711  -2.310  31.822 -10.480
    1XTA    C1217712  -2.342  31.953 -10.521
    1XTA    C1317713  -2.248  32.057 -10.501
    1XTA    C1417714  -2.120  32.028 -10.446
    1XTA    C1517715  -2.097  31.905 -10.392
    1XTA     H117716  -2.361  31.510 -10.400
    1XTA     H217717  -2.449  31.375 -10.216
    1XTA     H317718  -2.222  31.606  -9.933
    1XTA     H417719  -2.127  31.742 -10.128
    1XTA     H517720  -1.972  31.524 -10.284
    1XTA     H617721  -1.829  31.369 -10.406
    1XTA     H717722  -2.034  31.489 -10.774
    1XTA     H817723  -2.178  31.626 -10.652
    1XTA     H917724  -2.379  31.739 -10.490
    1XTA    H1017725  -2.420  31.974 -10.590
    1XTA    H1117726  -2.049  32.111 -10.434
    1XTA    H1217727  -2.001  31.889 -10.333
    1XTA    OA117728  -2.379  31.409  -9.948
    1XTA    CO117729  -2.444  31.287  -9.979
    1XTA    OA217730  -1.851  31.320 -10.670
    1XTA    CO217731  -1.751  31.233 -10.603
    1XTA    CL117732  -1.697  31.144 -10.716
    1XTA    CL217733  -1.609  31.042 -10.648
    1XTA    CL317734  -1.549  30.934 -10.743
    1XTA    CL417735  -1.650  30.852 -10.822
    1XTA    CO317736  -1.564  30.754 -10.905
    1XTA    OA317737  -1.649  30.700 -11.008
    1XTA    CO417738  -1.713  30.579 -10.973
    1XTA    CT117739  -1.814  30.541 -11.084
    1XTA    CL517740  -1.914  30.429 -11.031
    1XTA    CL617741  -2.022  30.376 -11.129
    1XTA    OA417742  -2.276  32.178 -10.556
    1XTA    CO517743  -2.153  32.241 -10.609
    1XTA    HL117744  -2.080  32.268 -10.537
    1XTA    HL217745  -2.380  31.206 -10.034
    1XTA    HL317746  -2.479  31.239  -9.891
    1XTA    HL417747  -2.534  31.312 -10.033
    1XTA    HL517748  -1.683  31.289 -10.548
    1XTA    HL617749  -1.816  31.168 -10.534
    1XTA    HL717750  -1.634  31.205 -10.779
    1XTA    HL817751  -1.778  31.109 -10.773
    1XTA    HL917752  -1.673  30.995 -10.587
    1XTA   HL1017753  -1.531  31.096 -10.597
    1XTA   HL1117754  -1.476  30.982 -10.806
    1XTA   HL1217755  -1.491  30.861 -10.674
    1XTA   HL1317756  -1.720  30.909 -10.886
    1XTA   HL1417757  -1.707  30.798 -10.743
    1XTA   HL1517758  -1.485  30.806 -10.957
    1XTA   HL1617759  -1.522  30.663 -10.850
    1XTA   HL1717760  -1.641  30.496 -10.957
    1XTA   HL1817761  -1.782  30.605 -10.890
    1XTA   HL1917762  -1.962  30.468 -10.942
    1XTA   HL2017763  -1.872  30.333 -11.007
    1XTA   HL2117764  -2.088  30.305 -11.075
    1XTA   HL2217765  -1.986  30.331 -11.223
    1XTA   HL2317766  -2.096  30.456 -11.153
    1XTA   HL2417767  -2.172  32.323 -10.671
    1XTA   HL2517768  -2.107  32.171 -10.675
    1XTA    CO817769  -1.728  30.502 -11.206
    1XTA    CO917770  -1.894  30.665 -11.126
    1XTA    OA617771  -1.964  30.719 -11.015
    1XTA   HL4217772  -1.626  30.552 -11.201
    1XTA   HL4317773  -1.776  30.540 -11.298
    1XTA   HL4817774  -1.952  30.646 -11.218
    1XTA   HL4917775  -1.826  30.746 -11.161
    1XTA     NT17776  -8.556  28.582  -6.946
    1XTA    CN117777  -8.529  28.501  -7.045
    1XTA     C117778  -8.622  28.493  -7.152
    1XTA     C217779  -8.597  28.409  -7.262
    1XTA     C317780  -8.476  28.334  -7.266
    1XTA     C417781  -8.386  28.337  -7.154
    1XTA     C517782  -8.414  28.426  -7.053
    1XTA    CN217783  -8.523  28.713  -6.958
    1XTA     C617784  -8.606  28.802  -7.022
    1XTA     C717785  -8.564  28.934  -7.040
    1XTA     C817786  -8.433  28.979  -6.992
    1XTA     C917787  -8.352  28.884  -6.925
    1XTA    C1017788  -8.394  28.754  -6.915
    1XTA    CN317789  -8.641  28.551  -6.843
    1XTA    C1117790  -8.783  28.544  -6.859
    1XTA    C1217791  -8.861  28.499  -6.746
    1XTA    C1317792  -8.803  28.465  -6.625
    1XTA    C1417793  -8.662  28.471  -6.613
    1XTA    C1517794  -8.585  28.515  -6.722
    1XTA     H117795  -8.697  28.565  -7.161
    1XTA     H217796  -8.672  28.406  -7.340
    1XTA     H317797  -8.296  28.279  -7.141
    1XTA     H417798  -8.352  28.419  -6.966
    1XTA     H517799  -8.707  28.768  -7.047
    1XTA     H617800  -8.630  29.005  -7.079
    1XTA     H717801  -8.264  28.914  -6.877
    1XTA     H817802  -8.330  28.682  -6.865
    1XTA     H917803  -8.836  28.601  -6.932
    1XTA    H1017804  -8.963  28.500  -6.751
    1XTA    H1117805  -8.615  28.461  -6.519
    1XTA    H1217806  -8.477  28.534  -6.716
    1XTA    OA117807  -8.444  28.237  -7.358
    1XTA    CO117808  -8.532  28.227  -7.475
    1XTA    OA217809  -8.386  29.106  -7.007
    1XTA    CO217810  -8.477  29.193  -7.073
    1XTA    CL117811  -8.410  29.322  -7.114
    1XTA    CL217812  -8.313  29.316  -7.230
    1XTA    CL317813  -8.281  29.463  -7.275
    1XTA    CL417814  -8.141  29.475  -7.333
    1XTA    CO317815  -8.137  29.422  -7.480
    1XTA    OA317816  -8.010  29.376  -7.527
    1XTA    CO417817  -7.945  29.280  -7.445
    1XTA    CT117818  -7.839  29.218  -7.532
    1XTA    CL517819  -7.909  29.130  -7.641
    1XTA    CL617820  -7.987  29.007  -7.582
    1XTA    OA417821  -8.883  28.434  -6.522
    1XTA    CO517822  -8.831  28.470  -6.398
    1XTA    HL117823  -8.781  28.566  -6.420
    1XTA    HL217824  -8.612  28.169  -7.447
    1XTA    HL317825  -8.555  28.323  -7.524
    1XTA    HL417826  -8.483  28.167  -7.556
    1XTA    HL517827  -8.518  29.154  -7.168
    1XTA    HL617828  -8.563  29.214  -7.010
    1XTA    HL717829  -8.359  29.351  -7.026
    1XTA    HL817830  -8.477  29.401  -7.123
    1XTA    HL917831  -8.345  29.259  -7.317
    1XTA   HL1017832  -8.225  29.265  -7.199
    1XTA   HL1117833  -8.349  29.510  -7.349
    1XTA   HL1217834  -8.289  29.517  -7.178
    1XTA   HL1317835  -8.061  29.428  -7.269
    1XTA   HL1417836  -8.101  29.572  -7.339
    1XTA   HL1517837  -8.212  29.346  -7.487
    1XTA   HL1617838  -8.179  29.493  -7.550
    1XTA   HL1717839  -7.907  29.311  -7.349
    1XTA   HL1817840  -8.011  29.202  -7.414
    1XTA   HL1917841  -7.837  29.089  -7.716
    1XTA   HL2017842  -7.984  29.196  -7.695
    1XTA   HL2117843  -8.062  29.036  -7.507
    1XTA   HL2217844  -7.925  28.935  -7.519
    1XTA   HL2317845  -8.041  28.951  -7.663
    1XTA   HL2417846  -8.776  28.397  -6.349
    1XTA   HL2517847  -8.905  28.498  -6.333
    1XTA    CO817848  -7.743  29.135  -7.449
    1XTA    CO917849  -7.752  29.330  -7.599
    1XTA    OA617850  -7.684  29.036  -7.527
    1XTA   HL4217851  -7.791  29.085  -7.367
    1XTA   HL4317852  -7.675  29.201  -7.402
    1XTA   HL4817853  -7.812  29.389  -7.670
    1XTA   HL4917854  -7.717  29.394  -7.516
    1XTA     NT17855  -5.525  28.544 -11.482
    1XTA    CN117856  -5.540  28.414 -11.459
    1XTA     C117857  -5.432  28.321 -11.440
    1XTA     C217858  -5.462  28.187 -11.404
    1XTA     C317859  -5.592  28.139 -11.398
    1XTA     C417860  -5.699  28.229 -11.410
    1XTA     C517861  -5.669  28.365 -11.428
    1XTA    CN217862  -5.418  28.574 -11.558
    1XTA     C617863  -5.300  28.616 -11.494
    1XTA     C717864  -5.196  28.678 -11.565
    1XTA     C817865  -5.204  28.696 -11.701
    1XTA     C917866  -5.319  28.643 -11.765
    1XTA    C1017867  -5.422  28.580 -11.696
    1XTA    CN317868  -5.598  28.632 -11.405
    1XTA    C1117869  -5.674  28.736 -11.468
    1XTA    C1217870  -5.750  28.823 -11.389
    1XTA    C1317871  -5.749  28.817 -11.245
    1XTA    C1417872  -5.667  28.713 -11.188
    1XTA    C1517873  -5.594  28.623 -11.265
    1XTA     H117874  -5.333  28.360 -11.453
    1XTA     H217875  -5.382  28.113 -11.401
    1XTA     H317876  -5.801  28.189 -11.402
    1XTA     H417877  -5.743  28.441 -11.439
    1XTA     H517878  -5.293  28.624 -11.389
    1XTA     H617879  -5.111  28.700 -11.507
    1XTA     H717880  -5.336  28.653 -11.864
    1XTA     H817881  -5.506  28.551 -11.753
    1XTA     H917882  -5.661  28.751 -11.572
    1XTA    H1017883  -5.824  28.888 -11.428
    1XTA    H1117884  -5.678  28.704 -11.078
    1XTA    H1217885  -5.539  28.551 -11.208
    1XTA    OA117886  -5.625  28.011 -11.377
    1XTA    CO117887  -5.541  27.920 -11.444
    1XTA    OA217888  -5.114  28.782 -11.756
    1XTA    CO217889  -5.123  28.803 -11.896
    1XTA    CL117890  -4.987  28.861 -11.946
    1XTA    CL217891  -4.961  28.822 -12.095
    1XTA    CL317892  -4.906  28.674 -12.105
    1XTA    CL417893  -4.926  28.618 -12.249
    1XTA    CO317894  -4.852  28.490 -12.273
    1XTA    OA317895  -4.729  28.495 -12.211
    1XTA    CO417896  -4.658  28.371 -12.211
    1XTA    CT117897  -4.539  28.386 -12.125
    1XTA    CL517898  -4.447  28.494 -12.196
    1XTA    CL617899  -4.340  28.565 -12.120
    1XTA    OA417900  -5.829  28.898 -11.168
    1XTA    CO517901  -5.792  28.932 -11.036
    1XTA    HL117902  -5.869  29.002 -10.998
    1XTA    HL217903  -5.516  27.949 -11.548
    1XTA    HL317904  -5.444  27.917 -11.389
    1XTA    HL417905  -5.590  27.821 -11.446
    1XTA    HL517906  -5.140  28.705 -11.947
    1XTA    HL617907  -5.203  28.870 -11.920
    1XTA    HL717908  -4.910  28.837 -11.865
    1XTA    HL817909  -4.983  28.975 -11.939
    1XTA    HL917910  -4.889  28.895 -12.129
    1XTA   HL1017911  -5.051  28.825 -12.165
    1XTA   HL1117912  -4.802  28.676 -12.071
    1XTA   HL1217913  -4.957  28.608 -12.032
    1XTA   HL1317914  -4.897  28.697 -12.320
    1XTA   HL1417915  -5.026  28.599 -12.266
    1XTA   HL1517916  -4.904  28.412 -12.221
    1XTA   HL1617917  -4.841  28.459 -12.377
    1XTA   HL1717918  -4.739  28.309 -12.180
    1XTA   HL1817919  -4.637  28.338 -12.308
    1XTA   HL1917920  -4.511  28.568 -12.242
    1XTA   HL2017921  -4.404  28.448 -12.283
    1XTA   HL2117922  -4.272  28.492 -12.070
    1XTA   HL2217923  -4.390  28.633 -12.048
    1XTA   HL2317924  -4.280  28.633 -12.180
    1XTA   HL2417925  -5.701  28.991 -11.024
    1XTA   HL2517926  -5.797  28.850 -10.963
    1XTA    CO817927  -4.473  28.247 -12.102
    1XTA    CO917928  -4.585  28.436 -11.986
    1XTA    OA617929  -4.411  28.202 -12.224
    1XTA   HL4217930  -4.550  28.182 -12.064
    1XTA   HL4317931  -4.395  28.254 -12.026
    1XTA   HL4817932  -4.505  28.457 -11.916
    1XTA   HL4917933  -4.633  28.535 -12.007
    1XTA     NT17934  -5.050  30.274  -8.130
    1XTA    CN117935  -5.016  30.188  -8.033
    1XTA     C117936  -4.941  30.243  -7.927
    1XTA     C217937  -4.898  30.161  -7.818
    1XTA     C317938  -4.949  30.034  -7.803
    1XTA     C417939  -5.030  29.977  -7.904
    1XTA     C517940  -5.055  30.051  -8.024
    1XTA    CN217941  -5.152  30.360  -8.102
    1XTA     C617942  -5.279  30.344  -8.151
    1XTA     C717943  -5.383  30.425  -8.118
    1XTA     C817944  -5.363  30.545  -8.050
    1XTA     C917945  -5.234  30.564  -7.999
    1XTA    C1017946  -5.132  30.472  -8.020
    1XTA    CN317947  -4.968  30.278  -8.242
    1XTA    C1117948  -4.886  30.390  -8.268
    1XTA    C1217949  -4.803  30.398  -8.383
    1XTA    C1317950  -4.789  30.283  -8.466
    1XTA    C1417951  -4.860  30.171  -8.438
    1XTA    C1517952  -4.952  30.167  -8.330
    1XTA     H117953  -4.902  30.344  -7.931
    1XTA     H217954  -4.832  30.201  -7.743
    1XTA     H317955  -5.057  29.878  -7.888
    1XTA     H417956  -5.107  30.008  -8.108
    1XTA     H517957  -5.297  30.266  -8.219
    1XTA     H617958  -5.478  30.392  -8.167
    1XTA     H717959  -5.197  30.651  -7.949
    1XTA     H817960  -5.041  30.495  -7.969
    1XTA     H917961  -4.883  30.475  -8.200
    1XTA    H1017962  -4.735  30.478  -8.398
    1XTA    H1117963  -4.833  30.086  -8.500
    1XTA    H1217964  -4.999  30.076  -8.291
    1XTA    OA117965  -4.917  29.969  -7.687
    1XTA    CO117966  -4.821  29.870  -7.705
    1XTA    OA217967  -5.463  30.638  -8.045
    1XTA    CO217968  -5.431  30.772  -8.034
    1XTA    CL117969  -5.538  30.871  -8.073
    1XTA    CL217970  -5.601  30.839  -8.209
    1XTA    CL317971  -5.511  30.882  -8.327
    1XTA    CL417972  -5.513  30.793  -8.452
    1XTA    CO317973  -5.635  30.808  -8.540
    1XTA    OA317974  -5.647  30.709  -8.634
    1XTA    CO417975  -5.756  30.737  -8.721
    1XTA    CT117976  -5.782  30.624  -8.823
    1XTA    CL517977  -5.652  30.590  -8.904
    1XTA    CL617978  -5.678  30.509  -9.028
    1XTA    OA417979  -4.713  30.284  -8.581
    1XTA    CO517980  -4.647  30.401  -8.615
    1XTA    HL117981  -4.721  30.488  -8.612
    1XTA    HL217982  -4.850  29.810  -7.793
    1XTA    HL317983  -4.729  29.916  -7.747
    1XTA    HL417984  -4.784  29.814  -7.622
    1XTA    HL517985  -5.398  30.806  -7.933
    1XTA    HL617986  -5.354  30.790  -8.106
    1XTA    HL717987  -5.491  30.974  -8.068
    1XTA    HL817988  -5.604  30.871  -7.986
    1XTA    HL917989  -5.695  30.892  -8.229
    1XTA   HL1017990  -5.628  30.726  -8.207
    1XTA   HL1117991  -5.539  30.982  -8.366
    1XTA   HL1217992  -5.403  30.887  -8.289
    1XTA   HL1317993  -5.496  30.687  -8.433
    1XTA   HL1417994  -5.418  30.808  -8.511
    1XTA   HL1517995  -5.726  30.812  -8.479
    1XTA   HL1617996  -5.641  30.907  -8.585
    1XTA   HL1717997  -5.845  30.757  -8.662
    1XTA   HL1817998  -5.738  30.834  -8.782
    1XTA   HL1917999  -5.583  30.525  -8.848
    1XTA   HL2018000  -5.596  30.675  -8.936
    1XTA   HL2118001  -5.720  30.410  -9.016
    1XTA   HL2218002  -5.591  30.477  -9.086
    1XTA   HL2318003  -5.742  30.563  -9.097
    1XTA   HL2418004  -4.604  30.404  -8.714
    1XTA   HL2518005  -4.566  30.416  -8.545
    1XTA    CO818006  -5.904  30.649  -8.916
    1XTA    CO918007  -5.827  30.499  -8.749
    1XTA    OA618008  -5.898  30.733  -8.978
    1XTA   HL4218009  -5.985  30.662  -8.846
    1XTA   HL4318010  -5.934  30.558  -8.966
    1XTA   HL4818011  -5.918  30.543  -8.652
    1XTA   HL4918012  -5.745  30.477  -8.693
    1XTA     NT18013  -9.051  25.031  -5.686
    1XTA    CN118014  -8.967  24.958  -5.612
    1XTA     C118015  -9.007  24.892  -5.499
    1XTA     C218016  -8.923  24.799  -5.437
    1XTA     C318017  -8.791  24.781  -5.483
    1XTA     C418018  -8.743  24.860  -5.586
    1XTA     C518019  -8.831  24.949  -5.647
    1XTA    CN218020  -9.105  24.976  -5.793
    1XTA     C618021  -9.037  24.882  -5.878
    1XTA     C718022  -9.094  24.832  -5.992
    1XTA     C818023  -9.226  24.860  -6.026
    1XTA     C918024  -9.300  24.949  -5.946
    1XTA    C1018025  -9.235  25.016  -5.836
    1XTA    CN318026  -9.050  25.162  -5.663
    1XTA    C1118027  -9.115  25.221  -5.555
    1XTA    C1218028  -9.116  25.363  -5.550
    1XTA    C1318029  -9.036  25.434  -5.646
    1XTA    C1418030  -8.953  25.374  -5.743
    1XTA    C1518031  -8.968  25.236  -5.754
    1XTA     H118032  -9.111  24.879  -5.474
    1XTA     H218033  -8.973  24.737  -5.361
    1XTA     H318034  -8.636  24.864  -5.619
    1XTA     H418035  -8.794  25.003  -5.737
    1XTA     H518036  -8.934  24.871  -5.859
    1XTA     H618037  -9.034  24.782  -6.063
    1XTA     H718038  -9.401  24.973  -5.968
    1XTA     H818039  -9.293  25.083  -5.773
    1XTA     H918040  -9.174  25.176  -5.482
    1XTA    H1018041  -9.168  25.408  -5.465
    1XTA    H1118042  -8.892  25.437  -5.809
    1XTA    H1218043  -8.916  25.180  -5.830
    1XTA    OA118044  -8.718  24.684  -5.418
    1XTA    CO118045  -8.577  24.683  -5.435
    1XTA    OA218046  -9.291  24.825  -6.140
    1XTA    CO218047  -9.227  24.743  -6.237
    1XTA    CL118048  -9.334  24.714  -6.338
    1XTA    CL218049  -9.396  24.841  -6.397
    1XTA    CL318050  -9.511  24.823  -6.507
    1XTA    CL418051  -9.565  24.955  -6.544
    1XTA    CO318052  -9.657  24.958  -6.662
    1XTA    OA318053  -9.686  25.094  -6.674
    1XTA    CO418054  -9.785  25.135  -6.585
    1XTA    CT118055  -9.854  25.265  -6.625
    1XTA    CL518056  -9.918  25.243  -6.759
    1XTA    CL618057  -9.858  25.315  -6.882
    1XTA    OA418058  -9.034  25.567  -5.647
    1XTA    CO518059  -9.072  25.642  -5.536
    1XTA    HL118060  -9.169  25.610  -5.498
    1XTA    HL218061  -8.539  24.784  -5.409
    1XTA    HL318062  -8.527  24.616  -5.366
    1XTA    HL418063  -8.554  24.668  -5.542
    1XTA    HL518064  -9.140  24.795  -6.275
    1XTA    HL618065  -9.194  24.649  -6.186
    1XTA    HL718066  -9.420  24.664  -6.293
    1XTA    HL818067  -9.301  24.654  -6.420
    1XTA    HL918068  -9.310  24.898  -6.441
    1XTA   HL1018069  -9.442  24.897  -6.314
    1XTA   HL1118070  -9.461  24.778  -6.599
    1XTA   HL1218071  -9.590  24.753  -6.482
    1XTA   HL1318072  -9.491  25.035  -6.542
    1XTA   HL1418073  -9.624  24.983  -6.458
    1XTA   HL1518074  -9.601  24.926  -6.746
    1XTA   HL1618075  -9.746  24.892  -6.650
    1XTA   HL1718076  -9.857  25.060  -6.565
    1XTA   HL1818077  -9.743  25.152  -6.490
    1XTA   HL1918078 -10.031  25.272  -6.761
    1XTA   HL2018079  -9.909  25.136  -6.789
    1XTA   HL2118080  -9.935  25.327  -6.967
    1XTA   HL2218081  -9.778  25.245  -6.916
    1XTA   HL2318082  -9.820  25.412  -6.857
    1XTA   HL2418083  -9.091  25.750  -5.563
    1XTA   HL2518084  -9.004  25.627  -5.447
    1XTA    CO818085  -9.753  25.374  -6.625
    1XTA    CO918086  -9.962  25.302  -6.523
    1XTA    OA618087  -9.697  25.386  -6.491
    1XTA   HL4218088  -9.800  25.467  -6.656
    1XTA   HL4318089  -9.673  25.359  -6.703
    1XTA   HL4818090  -9.922  25.311  -6.418
    1XTA   HL4918091 -10.013  25.391  -6.554
    1XTA     NT18092  -6.513  27.563 -11.117
    1XTA    CN118093  -6.446  27.488 -11.209
    1XTA     C118094  -6.414  27.537 -11.339
    1XTA     C218095  -6.328  27.466 -11.428
    1XTA     C318096  -6.287  27.333 -11.389
    1XTA     C418097  -6.330  27.281 -11.264
    1XTA     C518098  -6.404  27.358 -11.170
    1XTA    CN218099  -6.468  27.680 -11.076
    1XTA     C618100  -6.353  27.701 -10.998
    1XTA     C718101  -6.306  27.820 -10.946
    1XTA     C818102  -6.389  27.935 -10.973
    1XTA     C918103  -6.508  27.923 -11.055
    1XTA    C1018104  -6.552  27.796 -11.105
    1XTA    CN318105  -6.618  27.509 -11.046
    1XTA    C1118106  -6.718  27.439 -11.121
    1XTA    C1218107  -6.824  27.377 -11.053
    1XTA    C1318108  -6.837  27.395 -10.912
    1XTA    C1418109  -6.739  27.467 -10.841
    1XTA    C1518110  -6.630  27.517 -10.907
    1XTA     H118111  -6.469  27.627 -11.371
    1XTA     H218112  -6.322  27.499 -11.529
    1XTA     H318113  -6.298  27.175 -11.246
    1XTA     H418114  -6.419  27.316 -11.074
    1XTA     H518115  -6.293  27.609 -10.969
    1XTA     H618116  -6.218  27.820 -10.892
    1XTA     H718117  -6.566  28.015 -11.076
    1XTA     H818118  -6.646  27.783 -11.162
    1XTA     H918119  -6.713  27.439 -11.227
    1XTA    H1018120  -6.900  27.319 -11.101
    1XTA    H1118121  -6.757  27.484 -10.737
    1XTA    H1218122  -6.567  27.578 -10.849
    1XTA    OA118123  -6.210  27.263 -11.487
    1XTA    CO118124  -6.219  27.121 -11.482
    1XTA    OA218125  -6.360  28.052 -10.909
    1XTA    CO218126  -6.453  28.160 -10.920
    1XTA    CL118127  -6.397  28.273 -10.835
    1XTA    CL218128  -6.494  28.381 -10.806
    1XTA    CL318129  -6.512  28.491 -10.917
    1XTA    CL418130  -6.606  28.611 -10.882
    1XTA    CO318131  -6.737  28.575 -10.808
    1XTA    OA318132  -6.724  28.572 -10.674
    1XTA    CO418133  -6.833  28.496 -10.620
    1XTA    CT118134  -6.807  28.445 -10.470
    1XTA    CL518135  -6.942  28.388 -10.403
    1XTA    CL618136  -7.011  28.282 -10.478
    1XTA    OA418137  -6.943  27.334 -10.851
    1XTA    CO518138  -6.928  27.291 -10.724
    1XTA    HL118139  -7.021  27.236 -10.698
    1XTA    HL218140  -6.242  27.082 -11.581
    1XTA    HL318141  -6.160  27.062 -11.420
    1XTA    HL418142  -6.327  27.116 -11.449
    1XTA    HL518143  -6.474  28.194 -11.020
    1XTA    HL618144  -6.545  28.132 -10.867
    1XTA    HL718145  -6.290  28.308 -10.873
    1XTA    HL818146  -6.380  28.235 -10.738
    1XTA    HL918147  -6.469  28.428 -10.708
    1XTA   HL1018148  -6.595  28.346 -10.793
    1XTA   HL1118149  -6.418  28.548 -10.946
    1XTA   HL1218150  -6.551  28.445 -11.004
    1XTA   HL1318151  -6.642  28.670 -10.970
    1XTA   HL1418152  -6.556  28.679 -10.803
    1XTA   HL1518153  -6.820  28.650 -10.816
    1XTA   HL1618154  -6.785  28.489 -10.852
    1XTA   HL1718155  -6.915  28.569 -10.620
    1XTA   HL1818156  -6.858  28.407 -10.681
    1XTA   HL1918157  -7.000  28.475 -10.390
    1XTA   HL2018158  -6.907  28.350 -10.310
    1XTA   HL2118159  -7.112  28.268 -10.433
    1XTA   HL2218160  -6.957  28.181 -10.475
    1XTA   HL2318161  -7.019  28.311 -10.585
    1XTA   HL2418162  -6.922  27.375 -10.656
    1XTA   HL2518163  -6.838  27.237 -10.715
    1XTA    CO818164  -6.753  28.569 -10.394
    1XTA    CO918165  -6.692  28.339 -10.473
    1XTA    OA618166  -6.827  28.648 -10.397
    1XTA   HL4218167  -6.657  28.607 -10.448
    1XTA   HL4318168  -6.730  28.550 -10.287
    1XTA   HL4818169  -6.729  28.234 -10.571
    1XTA   HL4918170  -6.602  28.392 -10.511
    1XTA     NT18171  -5.531  29.255 -12.312
    1XTA    CN118172  -5.405  29.226 -12.272
    1XTA     C118173  -5.340  29.123 -12.343
    1XTA     C218174  -5.212  29.078 -12.305
    1XTA     C318175  -5.141  29.149 -12.210
    1XTA     C418176  -5.203  29.254 -12.143
    1XTA     C518177  -5.334  29.298 -12.171
    1XTA    CN218178  -5.638  29.181 -12.270
    1XTA     C618179  -5.653  29.156 -12.129
    1XTA     C718180  -5.760  29.075 -12.080
    1XTA     C818181  -5.846  29.009 -12.173
    1XTA     C918182  -5.820  29.019 -12.312
    1XTA    C1018183  -5.720  29.108 -12.357
    1XTA    CN318184  -5.560  29.377 -12.361
    1XTA    C1118185  -5.521  29.421 -12.489
    1XTA    C1218186  -5.538  29.556 -12.533
    1XTA    C1318187  -5.612  29.642 -12.452
    1XTA    C1418188  -5.643  29.603 -12.318
    1XTA    C1518189  -5.625  29.473 -12.271
    1XTA     H118190  -5.394  29.074 -12.425
    1XTA     H218191  -5.168  28.999 -12.368
    1XTA     H318192  -5.151  29.316 -12.075
    1XTA     H418193  -5.382  29.373 -12.109
    1XTA     H518194  -5.584  29.198 -12.057
    1XTA     H618195  -5.782  29.063 -11.976
    1XTA     H718196  -5.880  28.955 -12.371
    1XTA     H818197  -5.696  29.123 -12.461
    1XTA     H918198  -5.485  29.353 -12.563
    1XTA    H1018199  -5.504  29.589 -12.634
    1XTA    H1118200  -5.694  29.673 -12.259
    1XTA    H1218201  -5.645  29.451 -12.166
    1XTA    OA118202  -5.005  29.111 -12.186
    1XTA    CO118203  -4.926  29.202 -12.115
    1XTA    OA218204  -5.947  28.922 -12.140
    1XTA    CO218205  -5.965  28.900 -11.999
    1XTA    CL118206  -6.090  28.820 -11.974
    1XTA    CL218207  -6.121  28.799 -11.825
    1XTA    CL318208  -6.042  28.682 -11.768
    1XTA    CL418209  -6.052  28.680 -11.617
    1XTA    CO318210  -5.974  28.558 -11.566
    1XTA    OA318211  -5.975  28.545 -11.432
    1XTA    CO418212  -6.093  28.489 -11.380
    1XTA    CT118213  -6.087  28.504 -11.230
    1XTA    CL518214  -6.207  28.429 -11.173
    1XTA    CL618215  -6.211  28.276 -11.195
    1XTA    OA418216  -5.631  29.777 -12.473
    1XTA    CO518217  -5.630  29.815 -12.605
    1XTA    HL118218  -5.688  29.749 -12.661
    1XTA    HL218219  -4.934  29.304 -12.159
    1XTA    HL318220  -4.958  29.213 -12.011
    1XTA    HL418221  -4.826  29.177 -12.120
    1XTA    HL518222  -5.876  28.851 -11.952
    1XTA    HL618223  -5.955  28.995 -11.951
    1XTA    HL718224  -6.073  28.718 -12.007
    1XTA    HL818225  -6.181  28.862 -12.022
    1XTA    HL918226  -6.228  28.785 -11.803
    1XTA   HL1018227  -6.088  28.891 -11.775
    1XTA   HL1118228  -6.089  28.591 -11.805
    1XTA   HL1218229  -5.943  28.672 -11.818
    1XTA   HL1318230  -6.157  28.680 -11.598
    1XTA   HL1418231  -6.007  28.768 -11.561
    1XTA   HL1518232  -6.019  28.470 -11.606
    1XTA   HL1618233  -5.871  28.575 -11.598
    1XTA   HL1718234  -6.181  28.535 -11.426
    1XTA   HL1818235  -6.096  28.380 -11.395
    1XTA   HL1918236  -6.297  28.481 -11.210
    1XTA   HL2018237  -6.211  28.466 -11.069
    1XTA   HL2118238  -6.296  28.239 -11.135
    1XTA   HL2218239  -6.120  28.223 -11.174
    1XTA   HL2318240  -6.241  28.240 -11.295
    1XTA   HL2418241  -5.529  29.825 -12.645
    1XTA   HL2518242  -5.670  29.916 -12.600
    1XTA    CO818243  -6.086  28.658 -11.186
    1XTA    CO918244  -5.953  28.445 -11.179
    1XTA    OA618245  -5.965  28.425 -11.071
    1XTA   HL4218246  -6.016  28.707 -11.252
    1XTA   HL4318247  -6.019  28.675 -11.067
    1XTA   HL4818248  -5.861  28.499 -11.199
    1XTA   HL4918249  -5.924  28.350 -11.229
    1XTA     NT18250  -3.820  31.005 -10.606
    1XTA    CN118251  -3.894  30.900 -10.654
    1XTA     C118252  -4.016  30.864 -10.588
    1XTA     C218253  -4.097  30.766 -10.637
    1XTA     C318254  -4.051  30.689 -10.746
    1XTA     C418255  -3.923  30.713 -10.801
    1XTA     C518256  -3.844  30.824 -10.760
    1XTA    CN218257  -3.814  31.122 -10.677
    1XTA     C618258  -3.890  31.228 -10.638
    1XTA     C718259  -3.878  31.355 -10.695
    1XTA     C818260  -3.797  31.369 -10.808
    1XTA     C918261  -3.723  31.255 -10.861
    1XTA    C1018262  -3.724  31.137 -10.789
    1XTA    CN318263  -3.740  31.000 -10.496
    1XTA    C1118264  -3.786  31.011 -10.362
    1XTA    C1218265  -3.694  31.016 -10.250
    1XTA    C1318266  -3.556  30.998 -10.273
    1XTA    C1418267  -3.508  30.989 -10.399
    1XTA    C1518268  -3.598  30.992 -10.511
    1XTA     H118269  -4.043  30.917 -10.495
    1XTA     H218270  -4.193  30.739 -10.595
    1XTA     H318271  -3.886  30.649 -10.886
    1XTA     H418272  -3.753  30.851 -10.806
    1XTA     H518273  -3.962  31.209 -10.560
    1XTA     H618274  -3.925  31.445 -10.650
    1XTA     H718275  -3.674  31.274 -10.956
    1XTA     H818276  -3.666  31.062 -10.836
    1XTA     H918277  -3.887  31.026 -10.348
    1XTA    H1018278  -3.727  31.043 -10.148
    1XTA    H1118279  -3.397  30.976 -10.411
    1XTA    H1218280  -3.560  30.986 -10.611
    1XTA    OA118281  -4.125  30.584 -10.792
    1XTA    CO118282  -4.095  30.531 -10.925
    1XTA    OA218283  -3.789  31.493 -10.868
    1XTA    CO218284  -3.683  31.518 -10.966
    1XTA    CL118285  -3.711  31.654 -11.026
    1XTA    CL218286  -3.697  31.768 -10.923
    1XTA    CL318287  -3.717  31.915 -10.978
    1XTA    CL418288  -3.669  32.010 -10.865
    1XTA    CO318289  -3.764  32.128 -10.847
    1XTA    OA318290  -3.721  32.232 -10.759
    1XTA    CO418291  -3.782  32.208 -10.630
    1XTA    CT118292  -3.733  32.308 -10.522
    1XTA    CL518293  -3.578  32.321 -10.522
    1XTA    CL618294  -3.496  32.190 -10.518
    1XTA    OA418295  -3.477  30.991 -10.160
    1XTA    CO518296  -3.340  30.970 -10.178
    1XTA    HL118297  -3.290  31.033 -10.254
    1XTA    HL218298  -4.175  30.458 -10.964
    1XTA    HL318299  -4.071  30.606 -10.999
    1XTA    HL418300  -4.013  30.463 -10.923
    1XTA    HL518301  -3.590  31.507 -10.904
    1XTA    HL618302  -3.700  31.443 -11.039
    1XTA    HL718303  -3.804  31.663 -11.071
    1XTA    HL818304  -3.639  31.667 -11.108
    1XTA    HL918305  -3.592  31.763 -10.897
    1XTA   HL1018306  -3.753  31.757 -10.836
    1XTA   HL1118307  -3.651  31.928 -11.064
    1XTA   HL1218308  -3.825  31.923 -11.014
    1XTA   HL1318309  -3.567  32.052 -10.894
    1XTA   HL1418310  -3.665  31.964 -10.771
    1XTA   HL1518311  -3.769  32.174 -10.949
    1XTA   HL1618312  -3.868  32.090 -10.828
    1XTA   HL1718313  -3.886  32.209 -10.645
    1XTA   HL1818314  -3.759  32.108 -10.609
    1XTA   HL1918315  -3.551  32.382 -10.426
    1XTA   HL2018316  -3.535  32.387 -10.605
    1XTA   HL2118317  -3.389  32.205 -10.488
    1XTA   HL2218318  -3.479  32.145 -10.614
    1XTA   HL2318319  -3.537  32.117 -10.456
    1XTA   HL2418320  -3.328  30.866 -10.190
    1XTA   HL2518321  -3.295  30.989 -10.078
    1XTA    CO818322  -3.789  32.261 -10.383
    1XTA    CO918323  -3.782  32.455 -10.539
    1XTA    OA618324  -3.896  32.227 -10.389
    1XTA   HL4218325  -3.765  32.337 -10.308
    1XTA   HL4318326  -3.717  32.177 -10.356
    1XTA   HL4818327  -3.766  32.488 -10.675
    1XTA   HL4918328  -3.888  32.448 -10.538
    1XTA     NT18329  -8.400  27.853  -8.375
    1XTA    CN118330  -8.439  27.810  -8.495
    1XTA     C118331  -8.575  27.832  -8.527
    1XTA     C218332  -8.631  27.767  -8.641
    1XTA     C318333  -8.553  27.686  -8.724
    1XTA     C418334  -8.418  27.668  -8.696
    1XTA     C518335  -8.360  27.738  -8.587
    1XTA    CN218336  -8.366  27.982  -8.369
    1XTA     C618337  -8.242  28.037  -8.418
    1XTA     C718338  -8.218  28.173  -8.424
    1XTA     C818339  -8.317  28.262  -8.376
    1XTA     C918340  -8.438  28.215  -8.325
    1XTA    C1018341  -8.462  28.078  -8.325
    1XTA    CN318342  -8.369  27.770  -8.274
    1XTA    C1118343  -8.252  27.693  -8.270
    1XTA    C1218344  -8.227  27.603  -8.172
    1XTA    C1318345  -8.318  27.581  -8.069
    1XTA    C1418346  -8.441  27.645  -8.076
    1XTA    C1518347  -8.461  27.747  -8.172
    1XTA     H118348  -8.629  27.891  -8.451
    1XTA     H218349  -8.735  27.786  -8.661
    1XTA     H318350  -8.347  27.615  -8.761
    1XTA     H418351  -8.262  27.715  -8.560
    1XTA     H518352  -8.157  27.971  -8.447
    1XTA     H618353  -8.123  28.216  -8.460
    1XTA     H718354  -8.516  28.277  -8.294
    1XTA     H818355  -8.560  28.053  -8.283
    1XTA     H918356  -8.162  27.711  -8.334
    1XTA    H1018357  -8.136  27.554  -8.177
    1XTA    H1118358  -8.508  27.619  -8.002
    1XTA    H1218359  -8.545  27.805  -8.161
    1XTA    OA118360  -8.606  27.641  -8.838
    1XTA    CO118361  -8.621  27.502  -8.849
    1XTA    OA218362  -8.289  28.393  -8.369
    1XTA    CO218363  -8.192  28.430  -8.268
    1XTA    CL118364  -8.266  28.445  -8.135
    1XTA    CL218365  -8.156  28.483  -8.039
    1XTA    CL318366  -8.202  28.508  -7.899
    1XTA    CL418367  -8.088  28.520  -7.804
    1XTA    CO318368  -8.031  28.668  -7.799
    1XTA    OA318369  -7.932  28.676  -7.883
    1XTA    CO418370  -7.835  28.772  -7.850
    1XTA    CT118371  -7.754  28.816  -7.973
    1XTA    CL518372  -7.704  28.685  -8.041
    1XTA    CL618373  -7.612  28.721  -8.160
    1XTA    OA418374  -8.299  27.494  -7.966
    1XTA    CO518375  -8.163  27.456  -7.936
    1XTA    HL118376  -8.090  27.541  -7.927
    1XTA    HL218377  -8.655  27.452  -8.752
    1XTA    HL318378  -8.695  27.497  -8.930
    1XTA    HL418379  -8.534  27.452  -8.882
    1XTA    HL518380  -8.108  28.359  -8.270
    1XTA    HL618381  -8.155  28.535  -8.291
    1XTA    HL718382  -8.304  28.347  -8.093
    1XTA    HL818383  -8.338  28.522  -8.139
    1XTA    HL918384  -8.106  28.566  -8.079
    1XTA   HL1018385  -8.081  28.402  -8.040
    1XTA   HL1118386  -8.263  28.595  -7.900
    1XTA   HL1218387  -8.257  28.429  -7.859
    1XTA   HL1318388  -8.016  28.451  -7.838
    1XTA   HL1418389  -8.119  28.490  -7.702
    1XTA   HL1518390  -8.096  28.753  -7.829
    1XTA   HL1618391  -7.996  28.696  -7.695
    1XTA   HL1718392  -7.875  28.856  -7.792
    1XTA   HL1818393  -7.762  28.719  -7.786
    1XTA   HL1918394  -7.791  28.639  -8.085
    1XTA   HL2018395  -7.665  28.609  -7.977
    1XTA   HL2118396  -7.602  28.627  -8.221
    1XTA   HL2218397  -7.512  28.747  -8.134
    1XTA   HL2318398  -7.652  28.798  -8.220
    1XTA   HL2418399  -8.124  27.396  -8.018
    1XTA   HL2518400  -8.143  27.394  -7.850
    1XTA    CO818401  -7.622  28.890  -7.922
    1XTA    CO918402  -7.830  28.915  -8.053
    1XTA    OA618403  -7.638  29.028  -7.899
    1XTA   HL4218404  -7.540  28.860  -7.984
    1XTA   HL4318405  -7.604  28.838  -7.825
    1XTA   HL4818406  -7.756  28.985  -8.105
    1XTA   HL4918407  -7.903  28.972  -7.996
    1XTA     NT18408  -7.206  29.915 -11.439
    1XTA    CN118409  -7.290  29.834 -11.368
    1XTA     C118410  -7.329  29.872 -11.238
    1XTA     C218411  -7.411  29.787 -11.164
    1XTA     C318412  -7.451  29.657 -11.214
    1XTA     C418413  -7.410  29.620 -11.342
    1XTA     C518414  -7.328  29.704 -11.418
    1XTA    CN218415  -7.232  29.945 -11.570
    1XTA     C618416  -7.156  29.884 -11.673
    1XTA     C718417  -7.196  29.899 -11.802
    1XTA     C818418  -7.305  29.969 -11.844
    1XTA     C918419  -7.373  30.044 -11.742
    1XTA    C1018420  -7.339  30.030 -11.605
    1XTA    CN318421  -7.075  29.923 -11.396
    1XTA    C1118422  -7.015  30.046 -11.361
    1XTA    C1218423  -6.876  30.046 -11.325
    1XTA    C1318424  -6.809  29.924 -11.296
    1XTA    C1418425  -6.874  29.802 -11.320
    1XTA    C1518426  -7.004  29.805 -11.374
    1XTA     H118427  -7.302  29.966 -11.200
    1XTA     H218428  -7.452  29.826 -11.072
    1XTA     H318429  -7.439  29.528 -11.385
    1XTA     H418430  -7.305  29.690 -11.520
    1XTA     H518431  -7.068  29.823 -11.647
    1XTA     H618432  -7.141  29.864 -11.885
    1XTA     H718433  -7.447  30.100 -11.780
    1XTA     H818434  -7.391  30.081 -11.524
    1XTA     H918435  -7.065  30.139 -11.386
    1XTA    H1018436  -6.833  30.143 -11.318
    1XTA    H1118437  -6.820  29.715 -11.305
    1XTA    H1218438  -7.048  29.708 -11.395
    1XTA    OA118439  -7.530  29.570 -11.145
    1XTA    CO118440  -7.492  29.561 -11.011
    1XTA    OA218441  -7.343  29.983 -11.972
    1XTA    CO218442  -7.257  29.922 -12.075
    1XTA    CL118443  -7.139  30.009 -12.110
    1XTA    CL218444  -7.071  29.975 -12.236
    1XTA    CL318445  -6.996  29.844 -12.238
    1XTA    CL418446  -6.894  29.848 -12.355
    1XTA    CO318447  -6.865  29.704 -12.412
    1XTA    OA318448  -6.766  29.643 -12.326
    1XTA    CO418449  -6.716  29.517 -12.360
    1XTA    CT118450  -6.643  29.442 -12.252
    1XTA    CL518451  -6.541  29.540 -12.195
    1XTA    CL618452  -6.473  29.504 -12.063
    1XTA    OA418453  -6.686  29.912 -11.234
    1XTA    CO518454  -6.617  30.038 -11.211
    1XTA    HL118455  -6.520  30.005 -11.175
    1XTA    HL218456  -7.388  29.539 -10.985
    1XTA    HL318457  -7.515  29.656 -10.957
    1XTA    HL418458  -7.555  29.486 -10.962
    1XTA    HL518459  -7.227  29.823 -12.059
    1XTA    HL618460  -7.312  29.908 -12.164
    1XTA    HL718461  -7.061  30.011 -12.036
    1XTA    HL818462  -7.178  30.115 -12.117
    1XTA    HL918463  -6.992  30.047 -12.244
    1XTA   HL1018464  -7.133  29.995 -12.325
    1XTA   HL1118465  -6.937  29.833 -12.149
    1XTA   HL1218466  -7.074  29.769 -12.242
    1XTA   HL1318467  -6.797  29.887 -12.322
    1XTA   HL1418468  -6.925  29.910 -12.439
    1XTA   HL1518469  -6.956  29.649 -12.411
    1XTA   HL1618470  -6.818  29.712 -12.512
    1XTA   HL1718471  -6.800  29.459 -12.398
    1XTA   HL1818472  -6.646  29.527 -12.443
    1XTA   HL1918473  -6.586  29.631 -12.182
    1XTA   HL2018474  -6.464  29.547 -12.266
    1XTA   HL2118475  -6.447  29.400 -12.058
    1XTA   HL2218476  -6.537  29.519 -11.976
    1XTA   HL2318477  -6.385  29.569 -12.050
    1XTA   HL2418478  -6.661  30.097 -11.134
    1XTA   HL2518479  -6.613  30.107 -11.300
    1XTA    CO818480  -6.567  29.322 -12.307
    1XTA    CO918481  -6.734  29.388 -12.138
    1XTA    OA618482  -6.637  29.251 -12.360
    1XTA   HL4218483  -6.510  29.273 -12.223
    1XTA   HL4318484  -6.498  29.358 -12.388
    1XTA   HL4818485  -6.787  29.265 -12.179
    1XTA   HL4918486  -6.662  29.363 -12.050
    1XTA     NT18487  -6.481  28.069  -8.049
    1XTA    CN118488  -6.419  28.086  -8.168
    1XTA     C118489  -6.480  28.182  -8.255
    1XTA     C218490  -6.434  28.200  -8.382
    1XTA     C318491  -6.312  28.135  -8.424
    1XTA     C418492  -6.242  28.050  -8.333
    1XTA     C518493  -6.303  28.021  -8.211
    1XTA    CN218494  -6.400  28.057  -7.935
    1XTA     C618495  -6.347  28.180  -7.869
    1XTA     C718496  -6.252  28.166  -7.766
    1XTA     C818497  -6.205  28.036  -7.747
    1XTA     C918498  -6.274  27.924  -7.795
    1XTA    C1018499  -6.371  27.927  -7.890
    1XTA    CN318500  -6.607  28.009  -8.055
    1XTA    C1118501  -6.637  27.884  -8.110
    1XTA    C1218502  -6.767  27.833  -8.111
    1XTA    C1318503  -6.879  27.914  -8.079
    1XTA    C1418504  -6.847  28.039  -8.028
    1XTA    C1518505  -6.716  28.081  -8.010
    1XTA     H118506  -6.570  28.238  -8.232
    1XTA     H218507  -6.486  28.261  -8.450
    1XTA     H318508  -6.155  27.988  -8.355
    1XTA     H418509  -6.245  27.953  -8.154
    1XTA     H518510  -6.372  28.278  -7.898
    1XTA     H618511  -6.217  28.258  -7.721
    1XTA     H718512  -6.255  27.823  -7.760
    1XTA     H818513  -6.408  27.832  -7.934
    1XTA     H918514  -6.557  27.832  -8.151
    1XTA    H1018515  -6.792  27.735  -8.139
    1XTA    H1118516  -6.927  28.100  -7.998
    1XTA    H1218517  -6.704  28.178  -7.957
    1XTA    OA118518  -6.272  28.169  -8.555
    1XTA    CO118519  -6.133  28.155  -8.579
    1XTA    OA218520  -6.101  28.011  -7.663
    1XTA    CO218521  -6.020  28.114  -7.609
    1XTA    CL118522  -5.907  28.077  -7.515
    1XTA    CL218523  -5.824  27.963  -7.566
    1XTA    CL318524  -5.705  27.935  -7.468
    1XTA    CL418525  -5.589  27.869  -7.531
    1XTA    CO318526  -5.480  27.810  -7.445
    1XTA    OA318527  -5.412  27.703  -7.510
    1XTA    CO418528  -5.287  27.670  -7.448
    1XTA    CT118529  -5.234  27.529  -7.493
    1XTA    CL518530  -5.216  27.528  -7.653
    1XTA    CL618531  -5.343  27.521  -7.741
    1XTA    OA418532  -7.005  27.872  -8.089
    1XTA    CO518533  -7.038  27.739  -8.114
    1XTA    HL118534  -7.146  27.730  -8.112
    1XTA    HL218535  -6.090  28.208  -8.489
    1XTA    HL318536  -6.095  28.054  -8.574
    1XTA    HL418537  -6.096  28.202  -8.669
    1XTA    HL518538  -5.975  28.158  -7.695
    1XTA    HL618539  -6.079  28.193  -7.559
    1XTA    HL718540  -5.945  28.064  -7.410
    1XTA    HL818541  -5.842  28.161  -7.505
    1XTA    HL918542  -5.788  27.998  -7.666
    1XTA   HL1018543  -5.886  27.881  -7.592
    1XTA   HL1118544  -5.673  28.039  -7.429
    1XTA   HL1218545  -5.739  27.867  -7.396
    1XTA   HL1318546  -5.540  27.936  -7.605
    1XTA   HL1418547  -5.624  27.788  -7.597
    1XTA   HL1518548  -5.409  27.889  -7.419
    1XTA   HL1618549  -5.526  27.774  -7.350
    1XTA   HL1718550  -5.209  27.736  -7.496
    1XTA   HL1818551  -5.281  27.675  -7.337
    1XTA   HL1918552  -5.156  27.441  -7.677
    1XTA   HL2018553  -5.144  27.606  -7.687
    1XTA   HL2118554  -5.422  27.590  -7.711
    1XTA   HL2218555  -5.385  27.422  -7.746
    1XTA   HL2318556  -5.312  27.552  -7.841
    1XTA   HL2418557  -6.999  27.664  -8.048
    1XTA   HL2518558  -6.994  27.714  -8.206
    1XTA    CO818559  -5.330  27.420  -7.436
    1XTA    CO918560  -5.102  27.502  -7.423
    1XTA    OA618561  -5.305  27.323  -7.479
    1XTA   HL4218562  -5.435  27.437  -7.457
    1XTA   HL4318563  -5.334  27.413  -7.334
    1XTA   HL4818564  -5.109  27.515  -7.277
    1XTA   HL4918565  -5.079  27.399  -7.442
    1XTA     NT18566  -0.436  29.335 -11.465
    1XTA    CN118567  -0.368  29.404 -11.557
    1XTA     C118568  -0.259  29.481 -11.523
    1XTA     C218569  -0.187  29.550 -11.618
    1XTA     C318570  -0.240  29.568 -11.751
    1XTA     C418571  -0.351  29.488 -11.788
    1XTA     C518572  -0.424  29.419 -11.688
    1XTA    CN218573  -0.534  29.386 -11.392
    1XTA     C618574  -0.669  29.373 -11.437
    1XTA     C718575  -0.774  29.433 -11.371
    1XTA     C818576  -0.748  29.508 -11.255
    1XTA     C918577  -0.614  29.513 -11.198
    1XTA    C1018578  -0.509  29.464 -11.277
    1XTA    CN318579  -0.405  29.205 -11.449
    1XTA    C1118580  -0.420  29.110 -11.552
    1XTA    C1218581  -0.399  28.970 -11.534
    1XTA    C1318582  -0.368  28.926 -11.406
    1XTA    C1418583  -0.345  29.020 -11.302
    1XTA    C1518584  -0.358  29.158 -11.325
    1XTA     H118585  -0.224  29.474 -11.416
    1XTA     H218586  -0.103  29.609 -11.588
    1XTA     H318587  -0.399  29.497 -11.889
    1XTA     H418588  -0.508  29.364 -11.711
    1XTA     H518589  -0.684  29.308 -11.525
    1XTA     H618590  -0.873  29.425 -11.407
    1XTA     H718591  -0.582  29.560 -11.112
    1XTA     H818592  -0.409  29.487 -11.249
    1XTA     H918593  -0.437  29.140 -11.654
    1XTA    H1018594  -0.424  28.905 -11.612
    1XTA    H1118595  -0.314  28.984 -11.213
    1XTA    H1218596  -0.346  29.220 -11.235
    1XTA    OA118597  -0.174  29.657 -11.834
    1XTA    CO118598  -0.247  29.722 -11.936
    1XTA    OA218599  -0.854  29.574 -11.192
    1XTA    CO218600  -0.844  29.712 -11.158
    1XTA    CL118601  -0.868  29.781 -11.292
    1XTA    CL218602  -0.824  29.927 -11.271
    1XTA    CL318603  -0.855  30.008 -11.397
    1XTA    CL418604  -0.863  30.162 -11.377
    1XTA    CO318605  -1.006  30.200 -11.348
    1XTA    OA318606  -1.042  30.150 -11.224
    1XTA    CO418607  -1.174  30.116 -11.221
    1XTA    CT118608  -1.230  30.098 -11.076
    1XTA    CL518609  -1.207  30.230 -10.999
    1XTA    CL618610  -1.068  30.282 -10.979
    1XTA    OA418611  -0.357  28.789 -11.372
    1XTA    CO518612  -0.406  28.695 -11.466
    1XTA    HL118613  -0.331  28.672 -11.540
    1XTA    HL218614  -0.201  29.809 -11.984
    1XTA    HL318615  -0.263  29.650 -12.017
    1XTA    HL418616  -0.337  29.761 -11.892
    1XTA    HL518617  -0.906  29.740 -11.073
    1XTA    HL618618  -0.735  29.720 -11.117
    1XTA    HL718619  -0.966  29.772 -11.326
    1XTA    HL818620  -0.810  29.737 -11.362
    1XTA    HL918621  -0.721  29.935 -11.244
    1XTA   HL1018622  -0.874  29.985 -11.190
    1XTA   HL1118623  -0.778  29.985 -11.479
    1XTA   HL1218624  -0.954  29.980 -11.432
    1XTA   HL1318625  -0.826  30.215 -11.463
    1XTA   HL1418626  -0.796  30.196 -11.301
    1XTA   HL1518627  -1.021  30.308 -11.333
    1XTA   HL1618628  -1.073  30.170 -11.433
    1XTA   HL1718629  -1.234  30.191 -11.273
    1XTA   HL1818630  -1.178  30.011 -11.273
    1XTA   HL1918631  -1.252  30.232 -10.897
    1XTA   HL2018632  -1.253  30.302 -11.065
    1XTA   HL2118633  -0.993  30.207 -10.947
    1XTA   HL2218634  -1.045  30.358 -10.910
    1XTA   HL2318635  -1.027  30.323 -11.078
    1XTA   HL2418636  -0.499  28.723 -11.511
    1XTA   HL2518637  -0.425  28.605 -11.419
    1XTA    CO818638  -1.161  29.971 -11.016
    1XTA    CO918639  -1.380  30.073 -11.076
    1XTA    OA618640  -1.462  30.167 -11.149
    1XTA   HL4218641  -1.192  29.877 -11.065
    1XTA   HL4318642  -1.050  29.979 -11.036
    1XTA   HL4818643  -1.421  30.072 -10.973
    1XTA   HL4918644  -1.398  29.980 -11.140
    1XTA     NT18645  -5.085  31.460  -6.026
    1XTA    CN118646  -5.008  31.532  -6.111
    1XTA     C118647  -5.072  31.593  -6.218
    1XTA     C218648  -5.000  31.657  -6.326
    1XTA     C318649  -4.861  31.660  -6.326
    1XTA     C418650  -4.796  31.594  -6.216
    1XTA     C518651  -4.867  31.526  -6.117
    1XTA    CN218652  -5.085  31.327  -6.050
    1XTA     C618653  -5.170  31.271  -6.144
    1XTA     C718654  -5.162  31.133  -6.171
    1XTA     C818655  -5.073  31.049  -6.099
    1XTA     C918656  -4.992  31.107  -5.994
    1XTA    C1018657  -5.001  31.240  -5.972
    1XTA    CN318658  -5.150  31.512  -5.915
    1XTA    C1118659  -5.075  31.585  -5.815
    1XTA    C1218660  -5.144  31.644  -5.709
    1XTA    C1318661  -5.283  31.637  -5.702
    1XTA    C1418662  -5.356  31.567  -5.801
    1XTA    C1518663  -5.290  31.506  -5.908
    1XTA     H118664  -5.183  31.596  -6.222
    1XTA     H218665  -5.043  31.706  -6.407
    1XTA     H318666  -4.692  31.600  -6.202
    1XTA     H418667  -4.806  31.460  -6.051
    1XTA     H518668  -5.230  31.344  -6.196
    1XTA     H618669  -5.206  31.101  -6.259
    1XTA     H718670  -4.911  31.044  -5.946
    1XTA     H818671  -4.936  31.286  -5.899
    1XTA     H918672  -4.968  31.595  -5.823
    1XTA    H1018673  -5.097  31.713  -5.638
    1XTA    H1118674  -5.465  31.562  -5.796
    1XTA    H1218675  -5.340  31.452  -5.988
    1XTA    OA118676  -4.797  31.712  -6.438
    1XTA    CO118677  -4.666  31.662  -6.451
    1XTA    OA218678  -5.057  30.916  -6.129
    1XTA    CO218679  -5.028  30.830  -6.016
    1XTA    CL118680  -5.017  30.683  -6.066
    1XTA    CL218681  -5.147  30.642  -6.153
    1XTA    CL318682  -5.163  30.504  -6.191
    1XTA    CL418683  -5.204  30.394  -6.086
    1XTA    CO318684  -5.075  30.367  -6.002
    1XTA    OA318685  -5.083  30.238  -5.941
    1XTA    CO418686  -4.993  30.216  -5.833
    1XTA    CT118687  -4.980  30.069  -5.773
    1XTA    CL518688  -4.920  29.972  -5.885
    1XTA    CL618689  -4.999  29.953  -6.009
    1XTA    OA418690  -5.345  31.722  -5.609
    1XTA    CO518691  -5.462  31.782  -5.662
    1XTA    HL118692  -5.555  31.728  -5.636
    1XTA    HL218693  -4.655  31.557  -6.427
    1XTA    HL318694  -4.639  31.670  -6.558
    1XTA    HL418695  -4.597  31.721  -6.388
    1XTA    HL518696  -4.932  30.851  -5.970
    1XTA    HL618697  -5.106  30.832  -5.943
    1XTA    HL718698  -4.995  30.609  -5.995
    1XTA    HL818699  -4.935  30.688  -6.135
    1XTA    HL918700  -5.150  30.709  -6.242
    1XTA   HL1018701  -5.236  30.671  -6.098
    1XTA   HL1118702  -5.238  30.499  -6.264
    1XTA   HL1218703  -5.076  30.473  -6.256
    1XTA   HL1318704  -5.243  30.296  -6.135
    1XTA   HL1418705  -5.280  30.432  -6.022
    1XTA   HL1518706  -4.976  30.378  -6.056
    1XTA   HL1618707  -5.072  30.436  -5.917
    1XTA   HL1718708  -4.898  30.243  -5.877
    1XTA   HL1818709  -5.012  30.286  -5.755
    1XTA   HL1918710  -4.907  29.876  -5.834
    1XTA   HL2018711  -4.815  30.000  -5.914
    1XTA   HL2118712  -5.106  29.919  -5.993
    1XTA   HL2218713  -4.944  29.877  -6.066
    1XTA   HL2318714  -5.011  30.040  -6.067
    1XTA   HL2418715  -5.449  31.800  -5.770
    1XTA   HL2518716  -5.468  31.885  -5.619
    1XTA    CO818717  -5.116  30.026  -5.716
    1XTA    CO918718  -4.882  30.092  -5.659
    1XTA    OA618719  -5.162  30.097  -5.649
    1XTA   HL4218720  -5.116  29.918  -5.691
    1XTA   HL4318721  -5.163  30.027  -5.808
    1XTA   HL4818722  -4.878  30.236  -5.616
    1XTA   HL4918723  -4.921  30.047  -5.568
    1XTA     NT18724  -3.654  27.719  -6.371
    1XTA    CN118725  -3.687  27.801  -6.468
    1XTA     C118726  -3.587  27.883  -6.522
    1XTA     C218727  -3.618  27.981  -6.611
    1XTA     C318728  -3.755  28.003  -6.653
    1XTA     C418729  -3.853  27.908  -6.608
    1XTA     C518730  -3.816  27.805  -6.518
    1XTA    CN218731  -3.658  27.777  -6.250
    1XTA     C618732  -3.544  27.827  -6.177
    1XTA     C718733  -3.561  27.897  -6.056
    1XTA     C818734  -3.690  27.906  -5.989
    1XTA     C918735  -3.802  27.854  -6.058
    1XTA    C1018736  -3.784  27.791  -6.185
    1XTA    CN318737  -3.618  27.593  -6.389
    1XTA    C1118738  -3.712  27.495  -6.423
    1XTA    C1218739  -3.672  27.360  -6.451
    1XTA    C1318740  -3.538  27.314  -6.441
    1XTA    C1418741  -3.441  27.417  -6.426
    1XTA    C1518742  -3.481  27.551  -6.408
    1XTA     H118743  -3.481  27.874  -6.487
    1XTA     H218744  -3.537  28.039  -6.647
    1XTA     H318745  -3.956  27.923  -6.644
    1XTA     H418746  -3.896  27.744  -6.487
    1XTA     H518747  -3.447  27.817  -6.220
    1XTA     H618748  -3.465  27.931  -6.011
    1XTA     H718749  -3.899  27.868  -6.022
    1XTA     H818750  -3.875  27.755  -6.229
    1XTA     H918751  -3.817  27.517  -6.416
    1XTA    H1018752  -3.754  27.294  -6.469
    1XTA    H1118753  -3.337  27.392  -6.440
    1XTA    H1218754  -3.403  27.623  -6.400
    1XTA    OA118755  -3.774  28.102  -6.736
    1XTA    CO118756  -3.903  28.112  -6.790
    1XTA    OA218757  -3.701  27.950  -5.857
    1XTA    CO218758  -3.597  28.030  -5.805
    1XTA    CL118759  -3.611  28.027  -5.648
    1XTA    CL218760  -3.650  27.885  -5.595
    1XTA    CL318761  -3.756  27.890  -5.488
    1XTA    CL418762  -3.816  27.751  -5.461
    1XTA    CO318763  -3.921  27.711  -5.558
    1XTA    OA318764  -3.936  27.574  -5.563
    1XTA    CO418765  -4.028  27.533  -5.665
    1XTA    CT118766  -4.024  27.376  -5.666
    1XTA    CL518767  -4.122  27.323  -5.770
    1XTA    CL618768  -4.098  27.374  -5.921
    1XTA    OA418769  -3.505  27.182  -6.473
    1XTA    CO518770  -3.575  27.083  -6.396
    1XTA    HL118771  -3.557  27.076  -6.288
    1XTA    HL218772  -3.915  28.017  -6.850
    1XTA    HL318773  -3.991  28.139  -6.727
    1XTA    HL418774  -3.895  28.200  -6.850
    1XTA    HL518775  -3.497  27.978  -5.812
    1XTA    HL618776  -3.602  28.135  -5.845
    1XTA    HL718777  -3.700  28.090  -5.627
    1XTA    HL818778  -3.524  28.061  -5.588
    1XTA    HL918779  -3.563  27.833  -5.576
    1XTA   HL1018780  -3.700  27.826  -5.673
    1XTA   HL1118781  -3.726  27.933  -5.396
    1XTA   HL1218782  -3.842  27.957  -5.511
    1XTA   HL1318783  -3.867  27.757  -5.367
    1XTA   HL1418784  -3.737  27.674  -5.450
    1XTA   HL1518785  -4.009  27.760  -5.518
    1XTA   HL1618786  -3.896  27.740  -5.659
    1XTA   HL1718787  -4.126  27.564  -5.638
    1XTA   HL1818788  -3.993  27.577  -5.760
    1XTA   HL1918789  -4.223  27.364  -5.754
    1XTA   HL2018790  -4.124  27.212  -5.761
    1XTA   HL2118791  -3.995  27.344  -5.957
    1XTA   HL2218792  -4.110  27.482  -5.916
    1XTA   HL2318793  -4.172  27.327  -5.986
    1XTA   HL2418794  -3.553  26.996  -6.454
    1XTA   HL2518795  -3.677  27.103  -6.421
    1XTA    CO818796  -4.074  27.319  -5.533
    1XTA    CO918797  -3.880  27.332  -5.686
    1XTA    OA618798  -4.184  27.337  -5.529
    1XTA   HL4218799  -4.018  27.366  -5.450
    1XTA   HL4318800  -4.055  27.209  -5.525
    1XTA   HL4818801  -3.875  27.217  -5.768
    1XTA   HL4918802  -3.832  27.409  -5.752
    1XTA     NT18803  -5.180  26.556  -4.351
    1XTA    CN118804  -5.181  26.534  -4.221
    1XTA     C118805  -5.083  26.591  -4.137
    1XTA     C218806  -5.105  26.593  -4.002
    1XTA     C318807  -5.211  26.524  -3.943
    1XTA     C418808  -5.302  26.459  -4.029
    1XTA     C518809  -5.288  26.459  -4.168
    1XTA    CN218810  -5.162  26.686  -4.396
    1XTA     C618811  -5.033  26.749  -4.416
    1XTA     C718812  -5.026  26.887  -4.432
    1XTA     C818813  -5.137  26.967  -4.434
    1XTA     C918814  -5.266  26.912  -4.418
    1XTA    C1018815  -5.279  26.771  -4.400
    1XTA    CN318816  -5.157  26.454  -4.430
    1XTA    C1118817  -5.261  26.408  -4.512
    1XTA    C1218818  -5.241  26.297  -4.601
    1XTA    C1318819  -5.113  26.228  -4.593
    1XTA    C1418820  -5.016  26.274  -4.507
    1XTA    C1518821  -5.040  26.383  -4.426
    1XTA     H118822  -4.997  26.647  -4.163
    1XTA     H218823  -5.024  26.636  -3.941
    1XTA     H318824  -5.386  26.424  -3.976
    1XTA     H418825  -5.372  26.425  -4.229
    1XTA     H518826  -4.949  26.686  -4.392
    1XTA     H618827  -4.922  26.926  -4.429
    1XTA     H718828  -5.354  26.969  -4.433
    1XTA     H818829  -5.376  26.730  -4.384
    1XTA     H918830  -5.353  26.464  -4.526
    1XTA    H1018831  -5.317  26.263  -4.670
    1XTA    H1118832  -4.924  26.215  -4.497
    1XTA    H1218833  -4.963  26.414  -4.356
    1XTA    OA118834  -5.233  26.530  -3.806
    1XTA    CO118835  -5.288  26.418  -3.743
    1XTA    OA218836  -5.134  27.104  -4.444
    1XTA    CO218837  -5.011  27.157  -4.479
    1XTA    CL118838  -5.038  27.299  -4.525
    1XTA    CL218839  -4.916  27.385  -4.584
    1XTA    CL318840  -4.875  27.319  -4.716
    1XTA    CL418841  -4.842  27.420  -4.821
    1XTA    CO318842  -4.760  27.368  -4.938
    1XTA    OA318843  -4.754  27.461  -5.042
    1XTA    CO418844  -4.698  27.423  -5.167
    1XTA    CT118845  -4.670  27.541  -5.258
    1XTA    CL518846  -4.567  27.637  -5.191
    1XTA    CL618847  -4.644  27.742  -5.095
    1XTA    OA418848  -5.092  26.116  -4.671
    1XTA    CO518849  -5.205  26.055  -4.730
    1XTA    HL118850  -5.267  26.024  -4.648
    1XTA    HL218851  -5.222  26.329  -3.748
    1XTA    HL318852  -5.293  26.441  -3.634
    1XTA    HL418853  -5.390  26.386  -3.776
    1XTA    HL518854  -4.932  27.151  -4.398
    1XTA    HL618855  -4.974  27.112  -4.571
    1XTA    HL718856  -5.092  27.364  -4.458
    1XTA    HL818857  -5.117  27.286  -4.593
    1XTA    HL918858  -4.832  27.394  -4.516
    1XTA   HL1018859  -4.943  27.486  -4.607
    1XTA   HL1118860  -4.776  27.265  -4.700
    1XTA   HL1218861  -4.961  27.273  -4.758
    1XTA   HL1318862  -4.800  27.511  -4.778
    1XTA   HL1418863  -4.934  27.469  -4.858
    1XTA   HL1518864  -4.660  27.342  -4.915
    1XTA   HL1618865  -4.809  27.287  -4.983
    1XTA   HL1718866  -4.604  27.380  -5.149
    1XTA   HL1818867  -4.757  27.348  -5.218
    1XTA   HL1918868  -4.503  27.696  -5.262
    1XTA   HL2018869  -4.495  27.582  -5.129
    1XTA   HL2118870  -4.707  27.685  -5.032
    1XTA   HL2218871  -4.697  27.818  -5.154
    1XTA   HL2318872  -4.570  27.786  -5.022
    1XTA   HL2418873  -5.173  25.963  -4.783
    1XTA   HL2518874  -5.252  26.114  -4.798
    1XTA    CO818875  -4.805  27.611  -5.305
    1XTA    CO918876  -4.602  27.500  -5.394
    1XTA    OA618877  -4.787  27.710  -5.345
    1XTA   HL4218878  -4.861  27.609  -5.212
    1XTA   HL4318879  -4.850  27.545  -5.370
    1XTA   HL4818880  -4.688  27.433  -5.481
    1XTA   HL4918881  -4.556  27.592  -5.437
    1XTA     NT18882  -5.151  27.423  -9.730
    1XTA    CN118883  -5.142  27.549  -9.671
    1XTA     C118884  -5.256  27.614  -9.620
    1XTA     C218885  -5.251  27.747  -9.579
    1XTA     C318886  -5.130  27.808  -9.563
    1XTA     C418887  -5.009  27.740  -9.594
    1XTA     C518888  -5.017  27.615  -9.660
    1XTA    CN218889  -5.090  27.394  -9.849
    1XTA     C618890  -4.970  27.327  -9.837
    1XTA     C718891  -4.896  27.307  -9.955
    1XTA     C818892  -4.944  27.349 -10.083
    1XTA     C918893  -5.067  27.410 -10.094
    1XTA    C1018894  -5.139  27.441  -9.971
    1XTA    CN318895  -5.203  27.319  -9.660
    1XTA    C1118896  -5.326  27.267  -9.706
    1XTA    C1218897  -5.396  27.179  -9.621
    1XTA    C1318898  -5.351  27.139  -9.492
    1XTA    C1418899  -5.226  27.187  -9.447
    1XTA    C1518900  -5.149  27.277  -9.527
    1XTA     H118901  -5.352  27.558  -9.617
    1XTA     H218902  -5.343  27.793  -9.554
    1XTA     H318903  -4.914  27.780  -9.569
    1XTA     H418904  -4.923  27.577  -9.687
    1XTA     H518905  -4.942  27.278  -9.747
    1XTA     H618906  -4.810  27.244  -9.966
    1XTA     H718907  -5.099  27.428 -10.193
    1XTA     H818908  -5.233  27.496  -9.982
    1XTA     H918909  -5.372  27.305  -9.794
    1XTA    H1018910  -5.491  27.136  -9.657
    1XTA    H1118911  -5.191  27.160  -9.344
    1XTA    H1218912  -5.065  27.318  -9.485
    1XTA    OA118913  -5.134  27.937  -9.511
    1XTA    CO118914  -5.020  28.021  -9.527
    1XTA    OA218915  -4.861  27.319 -10.196
    1XTA    CO218916  -4.724  27.361 -10.196
    1XTA    CL118917  -4.658  27.325 -10.331
    1XTA    CL218918  -4.605  27.184 -10.334
    1XTA    CL318919  -4.716  27.083 -10.357
    1XTA    CL418920  -4.687  26.937 -10.316
    1XTA    CO318921  -4.566  26.865 -10.382
    1XTA    OA318922  -4.558  26.732 -10.322
    1XTA    CO418923  -4.438  26.659 -10.340
    1XTA    CT118924  -4.443  26.513 -10.291
    1XTA    CL518925  -4.311  26.444 -10.326
    1XTA    CL618926  -4.199  26.485 -10.227
    1XTA    OA418927  -5.430  27.064  -9.403
    1XTA    CO518928  -5.566  27.045  -9.436
    1XTA    HL118929  -5.564  26.964  -9.509
    1XTA    HL218930  -4.935  27.992  -9.465
    1XTA    HL318931  -4.992  28.029  -9.634
    1XTA    HL418932  -5.051  28.122  -9.492
    1XTA    HL518933  -4.719  27.460 -10.175
    1XTA    HL618934  -4.674  27.323 -10.109
    1XTA    HL718935  -4.574  27.391 -10.350
    1XTA    HL818936  -4.725  27.346 -10.417
    1XTA    HL918937  -4.558  27.156 -10.241
    1XTA   HL1018938  -4.519  27.189 -10.402
    1XTA   HL1118939  -4.804  27.111 -10.297
    1XTA   HL1218940  -4.758  27.089 -10.459
    1XTA   HL1318941  -4.783  26.885 -10.333
    1XTA   HL1418942  -4.678  26.930 -10.208
    1XTA   HL1518943  -4.563  26.861 -10.491
    1XTA   HL1618944  -4.481  26.912 -10.345
    1XTA   HL1718945  -4.407  26.670 -10.440
    1XTA   HL1818946  -4.369  26.716 -10.283
    1XTA   HL1918947  -4.282  26.466 -10.431
    1XTA   HL2018948  -4.321  26.335 -10.325
    1XTA   HL2118949  -4.217  26.425 -10.136
    1XTA   HL2218950  -4.199  26.590 -10.212
    1XTA   HL2318951  -4.096  26.469 -10.265
    1XTA   HL2418952  -5.620  27.139  -9.461
    1XTA   HL2518953  -5.628  27.009  -9.358
    1XTA    CO818954  -4.550  26.443 -10.378
    1XTA    CO918955  -4.495  26.499 -10.142
    1XTA    OA618956  -4.501  26.452 -10.509
    1XTA   HL4218957  -4.650  26.495 -10.369
    1XTA   HL4318958  -4.564  26.344 -10.349
    1XTA   HL4818959  -4.591  26.548 -10.143
    1XTA   HL4918960  -4.518  26.406 -10.110
    1XTA     NT18961  -8.505  28.196 -11.916
    1XTA    CN118962  -8.499  28.331 -11.881
    1XTA     C118963  -8.427  28.358 -11.766
    1XTA     C218964  -8.427  28.488 -11.718
    1XTA     C318965  -8.501  28.592 -11.783
    1XTA     C418966  -8.567  28.557 -11.900
    1XTA     C518967  -8.567  28.430 -11.955
    1XTA    CN218968  -8.470  28.158 -12.042
    1XTA     C618969  -8.557  28.096 -12.134
    1XTA     C718970  -8.510  28.064 -12.265
    1XTA     C818971  -8.377  28.066 -12.300
    1XTA     C918972  -8.289  28.125 -12.205
    1XTA    C1018973  -8.333  28.172 -12.079
    1XTA    CN318974  -8.547  28.102 -11.831
    1XTA    C1118975  -8.455  28.024 -11.757
    1XTA    C1218976  -8.502  27.916 -11.682
    1XTA    C1318977  -8.643  27.890 -11.667
    1XTA    C1418978  -8.734  27.976 -11.732
    1XTA    C1518979  -8.689  28.084 -11.810
    1XTA     H118980  -8.373  28.275 -11.717
    1XTA     H218981  -8.366  28.512 -11.630
    1XTA     H318982  -8.621  28.630 -11.960
    1XTA     H418983  -8.629  28.412 -12.037
    1XTA     H518984  -8.659  28.089 -12.109
    1XTA     H618985  -8.578  28.042 -12.347
    1XTA     H718986  -8.183  28.129 -12.219
    1XTA     H818987  -8.267  28.207 -12.005
    1XTA     H918988  -8.347  28.045 -11.762
    1XTA    H1018989  -8.420  27.859 -11.634
    1XTA    H1118990  -8.844  27.960 -11.731
    1XTA    H1218991  -8.761  28.147 -11.853
    1XTA    OA118992  -8.469  28.723 -11.748
    1XTA    CO118993  -8.546  28.829 -11.810
    1XTA    OA218994  -8.349  28.023 -12.422
    1XTA    CO218995  -8.208  28.002 -12.450
    1XTA    CL118996  -8.170  27.953 -12.591
    1XTA    CL218997  -8.025  27.976 -12.639
    1XTA    CL318998  -7.934  27.862 -12.600
    1XTA    CL418999  -7.790  27.911 -12.603
    1XTA    CO319000  -7.686  27.804 -12.563
    1XTA    OA319001  -7.734  27.737 -12.449
    1XTA    CO419002  -7.693  27.602 -12.446
    1XTA    CT119003  -7.651  27.540 -12.313
    1XTA    CL519004  -7.595  27.401 -12.336
    1XTA    CL619005  -7.462  27.395 -12.420
    1XTA    OA419006  -8.695  27.785 -11.598
    1XTA    CO519007  -8.603  27.677 -11.572
    1XTA    HL119008  -8.540  27.702 -11.488
    1XTA    HL219009  -8.653  28.817 -11.793
    1XTA    HL319010  -8.511  28.921 -11.760
    1XTA    HL419011  -8.528  28.838 -11.918
    1XTA    HL519012  -8.152  28.098 -12.450
    1XTA    HL619013  -8.172  27.932 -12.374
    1XTA    HL719014  -8.222  28.017 -12.657
    1XTA    HL819015  -8.199  27.853 -12.593
    1XTA    HL919016  -7.987  28.076 -12.610
    1XTA   HL1019017  -8.041  27.970 -12.752
    1XTA   HL1119018  -7.950  27.829 -12.497
    1XTA   HL1219019  -7.950  27.782 -12.664
    1XTA   HL1319020  -7.782  27.992 -12.542
    1XTA   HL1419021  -7.777  27.941 -12.704
    1XTA   HL1519022  -7.680  27.734 -12.650
    1XTA   HL1619023  -7.579  27.836 -12.550
    1XTA   HL1719024  -7.774  27.540 -12.478
    1XTA   HL1819025  -7.610  27.587 -12.517
    1XTA   HL1919026  -7.676  27.335 -12.380
    1XTA   HL2019027  -7.573  27.364 -12.238
    1XTA   HL2119028  -7.478  27.445 -12.518
    1XTA   HL2219029  -7.442  27.288 -12.431
    1XTA   HL2319030  -7.389  27.447 -12.366
    1XTA   HL2419031  -8.540  27.670 -11.661
    1XTA   HL2519032  -8.654  27.588 -11.542
    1XTA    CO819033  -7.783  27.534 -12.237
    1XTA    CO919034  -7.555  27.622 -12.231
    1XTA    OA619035  -7.512  27.555 -12.110
    1XTA   HL4219036  -7.824  27.637 -12.257
    1XTA   HL4319037  -7.843  27.466 -12.294
    1XTA   HL4819038  -7.592  27.728 -12.207
    1XTA   HL4919039  -7.458  27.621 -12.274
    1XTA     NT19040  -4.742  30.767 -10.148
    1XTA    CN119041  -4.712  30.786 -10.277
    1XTA     C119042  -4.581  30.822 -10.317
    1XTA     C219043  -4.553  30.831 -10.452
    1XTA     C319044  -4.657  30.820 -10.544
    1XTA     C419045  -4.792  30.797 -10.508
    1XTA     C519046  -4.817  30.780 -10.375
    1XTA    CN219047  -4.733  30.874 -10.069
    1XTA     C619048  -4.823  30.985 -10.081
    1XTA     C719049  -4.810  31.087  -9.988
    1XTA     C819050  -4.702  31.095  -9.896
    1XTA     C919051  -4.609  30.985  -9.891
    1XTA    C1019052  -4.630  30.879  -9.976
    1XTA    CN319053  -4.797  30.649 -10.115
    1XTA    C1119054  -4.937  30.633 -10.095
    1XTA    C1219055  -4.994  30.519 -10.050
    1XTA    C1319056  -4.912  30.399 -10.033
    1XTA    C1419057  -4.773  30.413 -10.046
    1XTA    C1519058  -4.713  30.538 -10.080
    1XTA     H119059  -4.500  30.819 -10.246
    1XTA     H219060  -4.445  30.842 -10.470
    1XTA     H319061  -4.884  30.804 -10.565
    1XTA     H419062  -4.921  30.751 -10.356
    1XTA     H519063  -4.903  30.972 -10.148
    1XTA     H619064  -4.895  31.155  -9.980
    1XTA     H719065  -4.536  30.984  -9.810
    1XTA     H819066  -4.563  30.797  -9.963
    1XTA     H919067  -4.998  30.712 -10.119
    1XTA    H1019068  -5.097  30.524 -10.036
    1XTA    H1119069  -4.706  30.333 -10.032
    1XTA    H1219070  -4.605  30.548 -10.082
    1XTA    OA119071  -4.619  30.841 -10.672
    1XTA    CO119072  -4.728  30.827 -10.762
    1XTA    OA219073  -4.677  31.196  -9.809
    1XTA    CO219074  -4.777  31.295  -9.800
    1XTA    CL119075  -4.738  31.378  -9.684
    1XTA    CL219076  -4.822  31.508  -9.676
    1XTA    CL319077  -4.831  31.564  -9.534
    1XTA    CL419078  -4.891  31.705  -9.540
    1XTA    CO319079  -4.917  31.761  -9.398
    1XTA    OA319080  -5.036  31.708  -9.345
    1XTA    CO419081  -5.156  31.768  -9.387
    1XTA    CT119082  -5.267  31.762  -9.273
    1XTA    CL519083  -5.403  31.807  -9.326
    1XTA    CL619084  -5.469  31.715  -9.424
    1XTA    OA419085  -4.955  30.273  -9.993
    1XTA    CO519086  -5.093  30.254  -9.992
    1XTA    HL119087  -5.136  30.278 -10.086
    1XTA    HL219088  -4.699  30.855 -10.862
    1XTA    HL319089  -4.777  30.722 -10.762
    1XTA    HL419090  -4.799  30.911 -10.740
    1XTA    HL519091  -4.764  31.351  -9.888
    1XTA    HL619092  -4.874  31.252  -9.781
    1XTA    HL719093  -4.632  31.399  -9.676
    1XTA    HL819094  -4.765  31.320  -9.594
    1XTA    HL919095  -4.924  31.470  -9.704
    1XTA   HL1019096  -4.782  31.592  -9.741
    1XTA   HL1119097  -4.889  31.500  -9.467
    1XTA   HL1219098  -4.727  31.575  -9.492
    1XTA   HL1319099  -4.989  31.702  -9.582
    1XTA   HL1419100  -4.827  31.772  -9.587
    1XTA   HL1519101  -4.841  31.745  -9.324
    1XTA   HL1619102  -4.936  31.868  -9.405
    1XTA   HL1719103  -5.145  31.872  -9.410
    1XTA   HL1819104  -5.197  31.722  -9.481
    1XTA   HL1919105  -5.386  31.905  -9.369
    1XTA   HL2019106  -5.475  31.838  -9.250
    1XTA   HL2119107  -5.546  31.779  -9.469
    1XTA   HL2219108  -5.540  31.634  -9.392
    1XTA   HL2319109  -5.401  31.676  -9.498
    1XTA   HL2419110  -5.138  30.313  -9.906
    1XTA   HL2519111  -5.112  30.153  -9.969
    1XTA    CO819112  -5.219  31.860  -9.157
    1XTA    CO919113  -5.281  31.622  -9.195
    1XTA    OA619114  -5.203  31.962  -9.186
    1XTA   HL4219115  -5.122  31.823  -9.125
    1XTA   HL4319116  -5.293  31.848  -9.077
    1XTA   HL4819117  -5.157  31.587  -9.131
    1XTA   HL4919118  -5.365  31.619  -9.129
    1XTA     NT19119  -6.350  30.627  -5.121
    1XTA    CN119120  -6.464  30.695  -5.090
    1XTA     C119121  -6.466  30.831  -5.091
    1XTA     C219122  -6.586  30.907  -5.097
    1XTA     C319123  -6.708  30.835  -5.070
    1XTA     C419124  -6.709  30.691  -5.057
    1XTA     C519125  -6.585  30.625  -5.064
    1XTA    CN219126  -6.320  30.601  -5.250
    1XTA     C619127  -6.411  30.527  -5.327
    1XTA     C719128  -6.382  30.516  -5.463
    1XTA     C819129  -6.274  30.574  -5.533
    1XTA     C919130  -6.186  30.647  -5.453
    1XTA    C1019131  -6.207  30.662  -5.315
    1XTA    CN319132  -6.255  30.600  -5.024
    1XTA    C1119133  -6.155  30.695  -4.998
    1XTA    C1219134  -6.054  30.669  -4.902
    1XTA    C1319135  -6.053  30.545  -4.832
    1XTA    C1419136  -6.157  30.452  -4.858
    1XTA    C1519137  -6.263  30.483  -4.943
    1XTA     H119138  -6.374  30.878  -5.119
    1XTA     H219139  -6.572  31.016  -5.105
    1XTA     H319140  -6.801  30.629  -5.046
    1XTA     H419141  -6.571  30.521  -5.058
    1XTA     H519142  -6.500  30.484  -5.288
    1XTA     H619143  -6.460  30.464  -5.523
    1XTA     H719144  -6.106  30.704  -5.492
    1XTA     H819145  -6.134  30.709  -5.259
    1XTA     H919146  -6.146  30.789  -5.051
    1XTA    H1019147  -5.976  30.746  -4.887
    1XTA    H1119148  -6.154  30.357  -4.802
    1XTA    H1219149  -6.354  30.426  -4.950
    1XTA    OA119150  -6.814  30.916  -5.058
    1XTA    CO119151  -6.937  30.856  -5.101
    1XTA    OA219152  -6.268  30.569  -5.675
    1XTA    CO219153  -6.173  30.642  -5.747
    1XTA    CL119154  -6.222  30.794  -5.762
    1XTA    CL219155  -6.341  30.795  -5.861
    1XTA    CL319156  -6.379  30.937  -5.880
    1XTA    CL419157  -6.519  30.933  -5.943
    1XTA    CO319158  -6.583  31.071  -5.952
    1XTA    OA319159  -6.631  31.116  -5.829
    1XTA    CO419160  -6.753  31.048  -5.794
    1XTA    CT119161  -6.833  31.129  -5.687
    1XTA    CL519162  -6.748  31.191  -5.569
    1XTA    CL619163  -6.641  31.085  -5.517
    1XTA    OA419164  -5.948  30.504  -4.753
    1XTA    CO519165  -5.825  30.574  -4.762
    1XTA    HL119166  -5.835  30.679  -4.736
    1XTA    HL219167  -7.011  30.934  -5.109
    1XTA    HL319168  -6.928  30.792  -5.188
    1XTA    HL419169  -6.964  30.789  -5.019
    1XTA    HL519170  -6.073  30.643  -5.693
    1XTA    HL619171  -6.154  30.592  -5.837
    1XTA    HL719172  -6.144  30.858  -5.812
    1XTA    HL819173  -6.250  30.839  -5.663
    1XTA    HL919174  -6.416  30.723  -5.832
    1XTA   HL1019175  -6.315  30.761  -5.957
    1XTA   HL1119176  -6.367  30.989  -5.785
    1XTA   HL1219177  -6.313  30.976  -5.950
    1XTA   HL1319178  -6.581  30.862  -5.898
    1XTA   HL1419179  -6.503  30.901  -6.048
    1XTA   HL1519180  -6.519  31.136  -5.993
    1XTA   HL1619181  -6.665  31.070  -6.024
    1XTA   HL1719182  -6.814  31.013  -5.881
    1XTA   HL1819183  -6.722  30.955  -5.752
    1XTA   HL1919184  -6.815  31.230  -5.492
    1XTA   HL2019185  -6.697  31.280  -5.606
    1XTA   HL2119186  -6.569  31.069  -5.598
    1XTA   HL2219187  -6.696  30.997  -5.487
    1XTA   HL2319188  -6.585  31.129  -5.436
    1XTA   HL2419189  -5.784  30.571  -4.869
    1XTA   HL2519190  -5.749  30.528  -4.698
    1XTA    CO819191  -6.963  31.071  -5.639
    1XTA    CO919192  -6.922  31.242  -5.749
    1XTA    OA619193  -7.024  31.197  -5.655
    1XTA   HL4219194  -6.979  31.030  -5.532
    1XTA   HL4319195  -6.992  30.994  -5.710
    1XTA   HL4819196  -6.959  31.223  -5.851
    1XTA   HL4919197  -6.889  31.349  -5.733
    1XTA     NT19198  -5.090  25.345  -7.048
    1XTA    CN119199  -5.175  25.285  -6.965
    1XTA     C119200  -5.249  25.172  -7.005
    1XTA     C219201  -5.332  25.104  -6.913
    1XTA     C319202  -5.340  25.147  -6.779
    1XTA     C419203  -5.276  25.269  -6.746
    1XTA     C519204  -5.189  25.334  -6.833
    1XTA    CN219205  -5.126  25.464  -7.107
    1XTA     C619206  -5.217  25.465  -7.215
    1XTA     C719207  -5.252  25.580  -7.285
    1XTA     C819208  -5.205  25.704  -7.245
    1XTA     C919209  -5.120  25.709  -7.133
    1XTA    C1019210  -5.083  25.593  -7.061
    1XTA    CN319211  -4.968  25.300  -7.065
    1XTA    C1119212  -4.876  25.289  -6.961
    1XTA    C1219213  -4.745  25.237  -6.993
    1XTA    C1319214  -4.713  25.191  -7.118
    1XTA    C1419215  -4.804  25.213  -7.218
    1XTA    C1519216  -4.931  25.271  -7.196
    1XTA     H119217  -5.237  25.121  -7.107
    1XTA     H219218  -5.381  25.012  -6.956
    1XTA     H319219  -5.288  25.311  -6.647
    1XTA     H419220  -5.135  25.423  -6.790
    1XTA     H519221  -5.248  25.364  -7.245
    1XTA     H619222  -5.319  25.564  -7.369
    1XTA     H719223  -5.088  25.800  -7.089
    1XTA     H819224  -5.015  25.584  -6.979
    1XTA     H919225  -4.910  25.313  -6.859
    1XTA    H1019226  -4.681  25.217  -6.907
    1XTA    H1119227  -4.785  25.182  -7.313
    1XTA    H1219228  -5.004  25.280  -7.277
    1XTA    OA119229  -5.431  25.095  -6.693
    1XTA    CO119230  -5.405  24.953  -6.671
    1XTA    OA219231  -5.256  25.823  -7.292
    1XTA    CO219232  -5.364  25.810  -7.384
    1XTA    CL119233  -5.403  25.945  -7.441
    1XTA    CL219234  -5.493  25.953  -7.564
    1XTA    CL319235  -5.425  25.994  -7.696
    1XTA    CL419236  -5.317  25.901  -7.733
    1XTA    CO319237  -5.285  25.938  -7.876
    1XTA    OA319238  -5.247  26.070  -7.918
    1XTA    CO419239  -5.143  26.125  -7.837
    1XTA    CT119240  -5.106  26.266  -7.889
    1XTA    CL519241  -4.993  26.337  -7.812
    1XTA    CL619242  -4.855  26.269  -7.820
    1XTA    OA419243  -4.598  25.120  -7.148
    1XTA    CO519244  -4.514  25.087  -7.039
    1XTA    HL119245  -4.568  25.046  -6.950
    1XTA    HL219246  -5.472  24.919  -6.589
    1XTA    HL319247  -5.420  24.897  -6.765
    1XTA    HL419248  -5.305  24.929  -6.629
    1XTA    HL519249  -5.334  25.744  -7.470
    1XTA    HL619250  -5.450  25.776  -7.323
    1XTA    HL719251  -5.314  26.008  -7.465
    1XTA    HL819252  -5.452  26.005  -7.362
    1XTA    HL919253  -5.576  26.018  -7.524
    1XTA   HL1019254  -5.530  25.855  -7.590
    1XTA   HL1119255  -5.503  26.000  -7.779
    1XTA   HL1219256  -5.375  26.095  -7.702
    1XTA   HL1319257  -5.354  25.801  -7.723
    1XTA   HL1419258  -5.230  25.917  -7.664
    1XTA   HL1519259  -5.200  25.875  -7.897
    1XTA   HL1619260  -5.364  25.893  -7.934
    1XTA   HL1719261  -5.164  26.149  -7.732
    1XTA   HL1819262  -5.048  26.061  -7.834
    1XTA   HL1919263  -5.013  26.344  -7.707
    1XTA   HL2019264  -4.980  26.440  -7.844
    1XTA   HL2119265  -4.787  26.337  -7.769
    1XTA   HL2219266  -4.824  26.255  -7.921
    1XTA   HL2319267  -4.846  26.172  -7.775
    1XTA   HL2419268  -4.477  25.183  -6.998
    1XTA   HL2519269  -4.434  25.026  -7.073
    1XTA    CO819270  -5.229  26.351  -7.877
    1XTA    CO919271  -5.083  26.272  -8.040
    1XTA    OA619272  -5.082  26.375  -8.080
    1XTA   HL4219273  -5.214  26.458  -7.907
    1XTA   HL4319274  -5.338  26.298  -7.963
    1XTA   HL4819275  -5.162  26.218  -8.098
    1XTA   HL4919276  -4.999  26.218  -8.062
    1XTA     NT19277  -4.691  25.374  -6.453
    1XTA    CN119278  -4.773  25.278  -6.508
    1XTA     C119279  -4.909  25.263  -6.464
    1XTA     C219280  -4.999  25.185  -6.543
    1XTA     C319281  -4.958  25.116  -6.656
    1XTA     C419282  -4.815  25.119  -6.684
    1XTA     C519283  -4.722  25.205  -6.611
    1XTA    CN219284  -4.569  25.337  -6.414
    1XTA     C619285  -4.457  25.358  -6.496
    1XTA     C719286  -4.327  25.328  -6.444
    1XTA     C819287  -4.307  25.278  -6.317
    1XTA     C919288  -4.422  25.254  -6.242
    1XTA    C1019289  -4.551  25.283  -6.288
    1XTA    CN319290  -4.750  25.495  -6.429
    1XTA    C1119291  -4.767  25.528  -6.293
    1XTA    C1219292  -4.825  25.651  -6.257
    1XTA    C1319293  -4.875  25.735  -6.359
    1XTA    C1419294  -4.848  25.704  -6.492
    1XTA    C1519295  -4.782  25.585  -6.526
    1XTA     H119296  -4.945  25.314  -6.379
    1XTA     H219297  -5.098  25.163  -6.518
    1XTA     H319298  -4.771  25.043  -6.750
    1XTA     H419299  -4.618  25.199  -6.636
    1XTA     H519300  -4.468  25.387  -6.602
    1XTA     H619301  -4.244  25.345  -6.512
    1XTA     H719302  -4.399  25.219  -6.146
    1XTA     H819303  -4.637  25.262  -6.223
    1XTA     H919304  -4.740  25.464  -6.214
    1XTA    H1019305  -4.838  25.672  -6.150
    1XTA    H1119306  -4.896  25.756  -6.570
    1XTA    H1219307  -4.765  25.552  -6.627
    1XTA    OA119308  -5.046  25.035  -6.707
    1XTA    CO119309  -5.018  24.961  -6.826
    1XTA    OA219310  -4.186  25.250  -6.262
    1XTA    CO219311  -4.057  25.278  -6.323
    1XTA    CL119312  -4.018  25.430  -6.335
    1XTA    CL219313  -4.001  25.499  -6.197
    1XTA    CL319314  -3.858  25.491  -6.144
    1XTA    CL419315  -3.861  25.546  -6.001
    1XTA    CO319316  -3.734  25.500  -5.923
    1XTA    OA319317  -3.734  25.574  -5.800
    1XTA    CO419318  -3.814  25.508  -5.704
    1XTA    CT119319  -3.828  25.593  -5.584
    1XTA    CL519320  -3.695  25.615  -5.507
    1XTA    CL619321  -3.596  25.495  -5.518
    1XTA    OA419322  -4.939  25.854  -6.327
    1XTA    CO519323  -5.062  25.835  -6.255
    1XTA    HL119324  -5.116  25.933  -6.246
    1XTA    HL219325  -4.957  24.879  -6.799
    1XTA    HL319326  -5.109  24.916  -6.865
    1XTA    HL419327  -4.965  25.016  -6.907
    1XTA    HL519328  -3.983  25.236  -6.254
    1XTA    HL619329  -4.046  25.224  -6.414
    1XTA    HL719330  -4.096  25.480  -6.393
    1XTA    HL819331  -3.932  25.439  -6.396
    1XTA    HL919332  -4.089  25.471  -6.132
    1XTA   HL1019333  -4.029  25.607  -6.206
    1XTA   HL1119334  -3.825  25.385  -6.153
    1XTA   HL1219335  -3.787  25.541  -6.204
    1XTA   HL1319336  -3.950  25.519  -5.946
    1XTA   HL1419337  -3.874  25.657  -6.004
    1XTA   HL1519338  -3.749  25.396  -5.904
    1XTA   HL1619339  -3.641  25.527  -5.972
    1XTA   HL1719340  -3.904  25.481  -5.754
    1XTA   HL1819341  -3.779  25.405  -5.680
    1XTA   HL1919342  -3.734  25.634  -5.408
    1XTA   HL2019343  -3.642  25.706  -5.535
    1XTA   HL2119344  -3.512  25.526  -5.458
    1XTA   HL2219345  -3.557  25.491  -5.620
    1XTA   HL2319346  -3.653  25.415  -5.484
    1XTA   HL2419347  -5.049  25.785  -6.158
    1XTA   HL2519348  -5.127  25.771  -6.314
    1XTA    CO819349  -3.933  25.524  -5.490
    1XTA    CO919350  -3.890  25.722  -5.628
    1XTA    OA619351  -3.917  25.788  -5.543
    1XTA   HL4219352  -3.962  25.595  -5.409
    1XTA   HL4319353  -4.060  25.512  -5.562
    1XTA   HL4819354  -3.980  25.696  -5.683
    1XTA   HL4919355  -3.828  25.784  -5.693
    1XTA     NT19356  -1.123  30.324  -7.707
    1XTA    CN119357  -1.208  30.334  -7.810
    1XTA     C119358  -1.342  30.370  -7.797
    1XTA     C219359  -1.427  30.379  -7.907
    1XTA     C319360  -1.382  30.368  -8.040
    1XTA     C419361  -1.251  30.331  -8.052
    1XTA     C519362  -1.163  30.317  -7.941
    1XTA    CN219363  -1.099  30.438  -7.636
    1XTA     C619364  -1.117  30.442  -7.496
    1XTA     C719365  -1.106  30.558  -7.422
    1XTA     C819366  -1.052  30.674  -7.485
    1XTA     C919367  -1.020  30.667  -7.625
    1XTA    C1019368  -1.052  30.553  -7.697
    1XTA    CN319369  -1.059  30.202  -7.680
    1XTA    C1119370  -0.932  30.198  -7.624
    1XTA    C1219371  -0.876  30.083  -7.571
    1XTA    C1319372  -0.943  29.961  -7.577
    1XTA    C1419373  -1.072  29.956  -7.637
    1XTA    C1519374  -1.128  30.073  -7.691
    1XTA     H119375  -1.379  30.379  -7.703
    1XTA     H219376  -1.527  30.404  -7.887
    1XTA     H319377  -1.217  30.321  -8.151
    1XTA     H419378  -1.065  30.282  -7.953
    1XTA     H519379  -1.150  30.352  -7.445
    1XTA     H619380  -1.120  30.562  -7.312
    1XTA     H719381  -0.974  30.754  -7.679
    1XTA     H819382  -1.038  30.549  -7.801
    1XTA     H919383  -0.880  30.292  -7.617
    1XTA    H1019384  -0.778  30.079  -7.518
    1XTA    H1119385  -1.131  29.872  -7.644
    1XTA    H1219386  -1.227  30.069  -7.734
    1XTA    OA119387  -1.455  30.385  -8.151
    1XTA    CO119388  -1.597  30.405  -8.142
    1XTA    OA219389  -1.015  30.787  -7.406
    1XTA    CO219390  -1.084  30.903  -7.424
    1XTA    CL119391  -1.010  31.017  -7.375
    1XTA    CL219392  -1.067  31.164  -7.385
    1XTA    CL319393  -0.956  31.267  -7.352
    1XTA    CL419394  -1.009  31.401  -7.390
    1XTA    CO319395  -0.898  31.513  -7.381
    1XTA    OA319396  -0.954  31.642  -7.404
    1XTA    CO419397  -0.979  31.651  -7.547
    1XTA    CT119398  -1.087  31.761  -7.568
    1XTA    CL519399  -1.217  31.712  -7.499
    1XTA    CL619400  -1.333  31.811  -7.507
    1XTA    OA419401  -0.870  29.852  -7.533
    1XTA    CO519402  -0.893  29.742  -7.619
    1XTA    HL119403  -0.994  29.706  -7.609
    1XTA    HL219404  -1.634  30.428  -8.238
    1XTA    HL319405  -1.645  30.322  -8.094
    1XTA    HL419406  -1.617  30.505  -8.082
    1XTA    HL519407  -1.095  30.932  -7.532
    1XTA    HL619408  -1.189  30.911  -7.392
    1XTA    HL719409  -0.914  31.016  -7.431
    1XTA    HL819410  -0.982  31.001  -7.276
    1XTA    HL919411  -1.150  31.190  -7.321
    1XTA   HL1019412  -1.101  31.171  -7.489
    1XTA   HL1119413  -0.910  31.269  -7.254
    1XTA   HL1219414  -0.862  31.256  -7.412
    1XTA   HL1319415  -1.085  31.425  -7.318
    1XTA   HL1419416  -1.045  31.388  -7.490
    1XTA   HL1519417  -0.856  31.508  -7.281
    1XTA   HL1619418  -0.813  31.503  -7.447
    1XTA   HL1719419  -0.892  31.680  -7.600
    1XTA   HL1819420  -1.016  31.559  -7.585
    1XTA   HL1919421  -1.196  31.703  -7.393
    1XTA   HL2019422  -1.255  31.618  -7.537
    1XTA   HL2119423  -1.323  31.879  -7.417
    1XTA   HL2219424  -1.433  31.758  -7.505
    1XTA   HL2319425  -1.341  31.861  -7.603
    1XTA   HL2419426  -0.831  29.661  -7.582
    1XTA   HL2519427  -0.867  29.766  -7.723
    1XTA    CO819428  -1.122  31.792  -7.722
    1XTA    CO919429  -1.029  31.888  -7.506
    1XTA    OA619430  -1.040  31.826  -7.788
    1XTA   HL4219431  -1.196  31.877  -7.737
    1XTA   HL4319432  -1.169  31.711  -7.769
    1XTA   HL4819433  -1.012  31.868  -7.369
    1XTA   HL4919434  -0.933  31.916  -7.546
    1XTA     NT19435  -6.356  26.142 -10.945
    1XTA    CN119436  -6.247  26.128 -10.864
    1XTA     C119437  -6.257  26.192 -10.738
    1XTA     C219438  -6.151  26.172 -10.650
    1XTA     C319439  -6.032  26.097 -10.680
    1XTA     C419440  -6.024  26.045 -10.812
    1XTA     C519441  -6.131  26.058 -10.907
    1XTA    CN219442  -6.450  26.048 -10.937
    1XTA     C619443  -6.429  25.910 -10.967
    1XTA     C719444  -6.529  25.815 -10.941
    1XTA     C819445  -6.643  25.857 -10.871
    1XTA     C919446  -6.665  25.996 -10.842
    1XTA    C1019447  -6.567  26.095 -10.870
    1XTA    CN319448  -6.347  26.215 -11.057
    1XTA    C1119449  -6.309  26.351 -11.043
    1XTA    C1219450  -6.292  26.429 -11.159
    1XTA    C1319451  -6.310  26.363 -11.288
    1XTA    C1419452  -6.350  26.230 -11.300
    1XTA    C1519453  -6.363  26.160 -11.179
    1XTA     H119454  -6.344  26.252 -10.716
    1XTA     H219455  -6.173  26.218 -10.554
    1XTA     H319456  -5.932  25.982 -10.844
    1XTA     H419457  -6.134  26.006 -11.002
    1XTA     H519458  -6.333  25.879 -11.013
    1XTA     H619459  -6.504  25.714 -10.970
    1XTA     H719460  -6.751  26.034 -10.796
    1XTA     H819461  -6.568  26.195 -10.843
    1XTA     H919462  -6.291  26.384 -10.944
    1XTA    H1019463  -6.260  26.536 -11.153
    1XTA    H1119464  -6.364  26.179 -11.390
    1XTA    H1219465  -6.388  26.059 -11.183
    1XTA    OA119466  -5.939  26.087 -10.582
    1XTA    CO119467  -5.801  26.080 -10.627
    1XTA    OA219468  -6.737  25.772 -10.810
    1XTA    CO219469  -6.716  25.634 -10.821
    1XTA    CL119470  -6.807  25.568 -10.723
    1XTA    CL219471  -6.806  25.411 -10.735
    1XTA    CL319472  -6.889  25.341 -10.633
    1XTA    CL419473  -6.874  25.187 -10.648
    1XTA    CO319474  -6.987  25.108 -10.576
    1XTA    OA319475  -7.113  25.162 -10.611
    1XTA    CO419476  -7.230  25.091 -10.572
    1XTA    CT119477  -7.355  25.168 -10.590
    1XTA    CL519478  -7.359  25.305 -10.517
    1XTA    CL619479  -7.306  25.300 -10.374
    1XTA    OA419480  -6.272  26.430 -11.398
    1XTA    CO519481  -6.324  26.400 -11.527
    1XTA    HL119482  -6.281  26.306 -11.554
    1XTA    HL219483  -5.794  25.988 -10.694
    1XTA    HL319484  -5.755  26.166 -10.684
    1XTA    HL419485  -5.737  26.055 -10.544
    1XTA    HL519486  -6.752  25.604 -10.910
    1XTA    HL619487  -6.613  25.597 -10.801
    1XTA    HL719488  -6.918  25.605 -10.734
    1XTA    HL819489  -6.782  25.591 -10.624
    1XTA    HL919490  -6.709  25.369 -10.730
    1XTA   HL1019491  -6.844  25.372 -10.827
    1XTA   HL1119492  -6.855  25.373 -10.539
    1XTA   HL1219493  -6.998  25.370 -10.636
    1XTA   HL1319494  -6.778  25.165 -10.599
    1XTA   HL1419495  -6.865  25.159 -10.754
    1XTA   HL1519496  -6.982  25.006 -10.603
    1XTA   HL1619497  -6.975  25.109 -10.470
    1XTA   HL1719498  -7.224  24.995 -10.624
    1XTA   HL1819499  -7.216  25.060 -10.471
    1XTA   HL1919500  -7.462  25.340 -10.530
    1XTA   HL2019501  -7.290  25.376 -10.557
    1XTA   HL2119502  -7.201  25.281 -10.372
    1XTA   HL2219503  -7.347  25.218 -10.303
    1XTA   HL2319504  -7.329  25.396 -10.328
    1XTA   HL2419505  -6.292  26.475 -11.602
    1XTA   HL2519506  -6.433  26.399 -11.538
    1XTA    CO819507  -7.482  25.079 -10.578
    1XTA    CO919508  -7.397  25.174 -10.740
    1XTA    OA619509  -7.488  25.072 -10.717
    1XTA   HL4219510  -7.559  25.140 -10.531
    1XTA   HL4319511  -7.480  24.990 -10.518
    1XTA   HL4819512  -7.319  25.149 -10.805
    1XTA   HL4919513  -7.436  25.268 -10.774
    1XTA     NT19514  -5.396  27.259  -4.761
    1XTA    CN119515  -5.365  27.127  -4.747
    1XTA     C119516  -5.233  27.077  -4.762
    1XTA     C219517  -5.203  26.937  -4.767
    1XTA     C319518  -5.308  26.842  -4.739
    1XTA     C419519  -5.441  26.892  -4.724
    1XTA     C519520  -5.471  27.032  -4.735
    1XTA    CN219521  -5.365  27.339  -4.873
    1XTA     C619522  -5.260  27.428  -4.875
    1XTA     C719523  -5.237  27.506  -4.991
    1XTA     C819524  -5.312  27.493  -5.107
    1XTA     C919525  -5.426  27.405  -5.099
    1XTA    C1019526  -5.449  27.323  -4.987
    1XTA    CN319527  -5.438  27.320  -4.651
    1XTA    C1119528  -5.533  27.425  -4.663
    1XTA    C1219529  -5.579  27.499  -4.552
    1XTA    C1319530  -5.528  27.471  -4.422
    1XTA    C1419531  -5.426  27.375  -4.413
    1XTA    C1519532  -5.387  27.290  -4.520
    1XTA     H119533  -5.146  27.139  -4.778
    1XTA     H219534  -5.099  26.908  -4.770
    1XTA     H319535  -5.520  26.815  -4.716
    1XTA     H419536  -5.573  27.074  -4.735
    1XTA     H519537  -5.202  27.437  -4.789
    1XTA     H619538  -5.158  27.574  -4.993
    1XTA     H719539  -5.498  27.396  -5.179
    1XTA     H819540  -5.524  27.253  -4.978
    1XTA     H919541  -5.572  27.447  -4.761
    1XTA    H1019542  -5.657  27.575  -4.565
    1XTA    H1119543  -5.382  27.368  -4.318
    1XTA    H1219544  -5.307  27.217  -4.510
    1XTA    OA119545  -5.276  26.709  -4.719
    1XTA    CO119546  -5.141  26.676  -4.752
    1XTA    OA219547  -5.274  27.583  -5.204
    1XTA    CO219548  -5.346  27.564  -5.323
    1XTA    CL119549  -5.262  27.615  -5.442
    1XTA    CL219550  -5.330  27.595  -5.578
    1XTA    CL319551  -5.437  27.693  -5.611
    1XTA    CL419552  -5.504  27.653  -5.744
    1XTA    CO319553  -5.591  27.764  -5.801
    1XTA    OA319554  -5.502  27.868  -5.847
    1XTA    CO419555  -5.570  27.975  -5.907
    1XTA    CT119556  -5.469  28.088  -5.945
    1XTA    CL519557  -5.348  28.085  -5.853
    1XTA    CL619558  -5.242  27.977  -5.882
    1XTA    OA419559  -5.565  27.545  -4.311
    1XTA    CO519560  -5.620  27.670  -4.324
    1XTA    HL119561  -5.608  27.713  -4.225
    1XTA    HL219562  -5.132  26.569  -4.724
    1XTA    HL319563  -5.101  26.694  -4.857
    1XTA    HL419564  -5.074  26.728  -4.676
    1XTA    HL519565  -5.371  27.458  -5.337
    1XTA    HL619566  -5.441  27.627  -5.322
    1XTA    HL719567  -5.156  27.570  -5.440
    1XTA    HL819568  -5.246  27.726  -5.429
    1XTA    HL919569  -5.380  27.493  -5.579
    1XTA   HL1019570  -5.255  27.612  -5.651
    1XTA   HL1119571  -5.516  27.684  -5.534
    1XTA   HL1219572  -5.419  27.802  -5.618
    1XTA   HL1319573  -5.556  27.564  -5.727
    1XTA   HL1419574  -5.435  27.624  -5.816
    1XTA   HL1519575  -5.652  27.718  -5.881
    1XTA   HL1619576  -5.653  27.795  -5.721
    1XTA   HL1719577  -5.624  27.933  -5.995
    1XTA   HL1819578  -5.640  28.015  -5.843
    1XTA   HL1919579  -5.389  28.083  -5.749
    1XTA   HL2019580  -5.304  28.182  -5.865
    1XTA   HL2119581  -5.287  27.876  -5.899
    1XTA   HL2219582  -5.183  27.960  -5.795
    1XTA   HL2319583  -5.190  28.011  -5.975
    1XTA   HL2419584  -5.726  27.647  -4.345
    1XTA   HL2519585  -5.556  27.726  -4.404
    1XTA    CO819586  -5.531  28.233  -5.935
    1XTA    CO919587  -5.426  28.077  -6.096
    1XTA    OA619588  -5.541  28.263  -5.801
    1XTA   HL4219589  -5.625  28.245  -5.985
    1XTA   HL4319590  -5.467  28.308  -5.986
    1XTA   HL4819591  -5.509  28.099  -6.167
    1XTA   HL4919592  -5.406  27.974  -6.112
    1XTA     NT19593  -3.082  26.835  -6.682
    1XTA    CN119594  -3.105  26.967  -6.698
    1XTA     C119595  -3.049  27.059  -6.604
    1XTA     C219596  -3.083  27.196  -6.612
    1XTA     C319597  -3.173  27.248  -6.709
    1XTA     C419598  -3.226  27.153  -6.807
    1XTA     C519599  -3.193  27.016  -6.802
    1XTA    CN219600  -3.165  26.759  -6.607
    1XTA     C619601  -3.121  26.633  -6.565
    1XTA     C719602  -3.199  26.549  -6.489
    1XTA     C819603  -3.316  26.594  -6.436
    1XTA     C919604  -3.363  26.726  -6.461
    1XTA    C1019605  -3.287  26.809  -6.544
    1XTA    CN319606  -3.015  26.780  -6.789
    1XTA    C1119607  -3.082  26.724  -6.901
    1XTA    C1219608  -3.014  26.658  -7.007
    1XTA    C1319609  -2.877  26.660  -7.008
    1XTA    C1419610  -2.809  26.734  -6.908
    1XTA    C1519611  -2.876  26.778  -6.789
    1XTA     H119612  -2.988  27.031  -6.522
    1XTA     H219613  -3.034  27.265  -6.553
    1XTA     H319614  -3.304  27.178  -6.879
    1XTA     H419615  -3.238  26.949  -6.878
    1XTA     H519616  -3.028  26.595  -6.607
    1XTA     H619617  -3.174  26.452  -6.467
    1XTA     H719618  -3.452  26.767  -6.417
    1XTA     H819619  -3.317  26.910  -6.564
    1XTA     H919620  -3.190  26.728  -6.894
    1XTA    H1019621  -3.074  26.598  -7.077
    1XTA    H1119622  -2.701  26.732  -6.905
    1XTA    H1219623  -2.821  26.813  -6.701
    1XTA    OA119624  -3.190  27.380  -6.719
    1XTA    CO119625  -3.305  27.433  -6.785
    1XTA    OA219626  -3.382  26.499  -6.364
    1XTA    CO219627  -3.489  26.557  -6.292
    1XTA    CL119628  -3.529  26.449  -6.191
    1XTA    CL219629  -3.409  26.393  -6.110
    1XTA    CL319630  -3.344  26.498  -6.029
    1XTA    CL419631  -3.197  26.470  -6.020
    1XTA    CO319632  -3.123  26.461  -6.154
    1XTA    OA319633  -2.989  26.418  -6.126
    1XTA    CO419634  -2.985  26.273  -6.126
    1XTA    CT119635  -2.840  26.220  -6.127
    1XTA    CL519636  -2.777  26.236  -5.988
    1XTA    CL619637  -2.796  26.379  -5.928
    1XTA    OA419638  -2.811  26.613  -7.116
    1XTA    CO519639  -2.682  26.649  -7.141
    1XTA    HL119640  -2.638  26.592  -7.232
    1XTA    HL219641  -3.402  27.406  -6.735
    1XTA    HL319642  -3.302  27.547  -6.778
    1XTA    HL419643  -3.306  27.406  -6.892
    1XTA    HL519644  -3.460  26.648  -6.247
    1XTA    HL619645  -3.573  26.587  -6.355
    1XTA    HL719646  -3.569  26.375  -6.255
    1XTA    HL819647  -3.596  26.503  -6.125
    1XTA    HL919648  -3.348  26.329  -6.174
    1XTA   HL1019649  -3.447  26.310  -6.046
    1XTA   HL1119650  -3.368  26.600  -6.060
    1XTA   HL1219651  -3.392  26.510  -5.928
    1XTA   HL1319652  -3.182  26.380  -5.962
    1XTA   HL1419653  -3.160  26.555  -5.965
    1XTA   HL1519654  -3.172  26.396  -6.224
    1XTA   HL1619655  -3.119  26.565  -6.197
    1XTA   HL1719656  -3.021  26.225  -6.038
    1XTA   HL1819657  -3.032  26.225  -6.212
    1XTA   HL1919658  -2.667  26.222  -5.983
    1XTA   HL2019659  -2.832  26.165  -5.930
    1XTA   HL2119660  -2.898  26.408  -5.921
    1XTA   HL2219661  -2.745  26.458  -5.995
    1XTA   HL2319662  -2.748  26.379  -5.834
    1XTA   HL2419663  -2.618  26.627  -7.056
    1XTA   HL2519664  -2.679  26.760  -7.165
    1XTA    CO819665  -2.762  26.293  -6.244
    1XTA    CO919666  -2.845  26.066  -6.168
    1XTA    OA619667  -2.914  26.049  -6.253
    1XTA   HL4219668  -2.762  26.401  -6.226
    1XTA   HL4319669  -2.843  26.289  -6.357
    1XTA   HL4819670  -2.894  26.022  -6.077
    1XTA   HL4919671  -2.744  26.025  -6.177
    1XTA     NT19672  -7.141  29.538  -6.353
    1XTA    CN119673  -7.096  29.440  -6.437
    1XTA     C119674  -7.064  29.313  -6.391
    1XTA     C219675  -7.010  29.211  -6.471
    1XTA     C319676  -7.013  29.232  -6.610
    1XTA     C419677  -7.039  29.365  -6.658
    1XTA     C519678  -7.081  29.469  -6.574
    1XTA    CN219679  -7.067  29.625  -6.282
    1XTA     C619680  -6.971  29.707  -6.348
    1XTA     C719681  -6.878  29.782  -6.269
    1XTA     C819682  -6.880  29.763  -6.130
    1XTA     C919683  -6.983  29.699  -6.063
    1XTA    C1019684  -7.078  29.631  -6.141
    1XTA    CN319685  -7.274  29.551  -6.351
    1XTA    C1119686  -7.352  29.443  -6.303
    1XTA    C1219687  -7.488  29.458  -6.302
    1XTA    C1319688  -7.547  29.579  -6.356
    1XTA    C1419689  -7.469  29.684  -6.408
    1XTA    C1519690  -7.331  29.668  -6.396
    1XTA     H119691  -7.069  29.292  -6.286
    1XTA     H219692  -6.975  29.113  -6.432
    1XTA     H319693  -7.022  29.391  -6.760
    1XTA     H419694  -7.109  29.574  -6.609
    1XTA     H519695  -6.970  29.705  -6.452
    1XTA     H619696  -6.807  29.841  -6.322
    1XTA     H719697  -6.986  29.701  -5.956
    1XTA     H819698  -7.160  29.586  -6.093
    1XTA     H919699  -7.304  29.355  -6.272
    1XTA    H1019700  -7.554  29.376  -6.261
    1XTA    H1119701  -7.513  29.780  -6.448
    1XTA    H1219702  -7.263  29.751  -6.427
    1XTA    OA119703  -6.963  29.130  -6.696
    1XTA    CO119704  -6.948  29.151  -6.835
    1XTA    OA219705  -6.785  29.819  -6.052
    1XTA    CO219706  -6.666  29.852  -6.117
    1XTA    CL119707  -6.561  29.866  -6.010
    1XTA    CL219708  -6.424  29.908  -6.073
    1XTA    CL319709  -6.309  29.918  -5.970
    1XTA    CL419710  -6.335  30.013  -5.858
    1XTA    CO319711  -6.359  30.158  -5.898
    1XTA    OA319712  -6.269  30.197  -6.004
    1XTA    CO419713  -6.216  30.332  -5.995
    1XTA    CT119714  -6.157  30.390  -6.129
    1XTA    CL519715  -6.034  30.316  -6.184
    1XTA    CL619716  -5.960  30.376  -6.301
    1XTA    OA419717  -7.683  29.585  -6.348
    1XTA    CO519718  -7.750  29.707  -6.375
    1XTA    HL119719  -7.739  29.735  -6.482
    1XTA    HL219720  -6.912  29.062  -6.883
    1XTA    HL319721  -7.043  29.183  -6.888
    1XTA    HL419722  -6.875  29.229  -6.849
    1XTA    HL519723  -6.634  29.761  -6.176
    1XTA    HL619724  -6.681  29.936  -6.189
    1XTA    HL719725  -6.558  29.765  -5.966
    1XTA    HL819726  -6.594  29.928  -5.928
    1XTA    HL919727  -6.437  30.007  -6.123
    1XTA   HL1019728  -6.388  29.842  -6.151
    1XTA   HL1119729  -6.297  29.821  -5.931
    1XTA   HL1219730  -6.218  29.947  -6.026
    1XTA   HL1319731  -6.248  30.011  -5.803
    1XTA   HL1419732  -6.422  29.983  -5.802
    1XTA   HL1519733  -6.454  30.171  -5.951
    1XTA   HL1619734  -6.341  30.219  -5.805
    1XTA   HL1719735  -6.297  30.395  -5.964
    1XTA   HL1819736  -6.166  30.331  -5.897
    1XTA   HL1919737  -6.064  30.219  -6.212
    1XTA   HL2019738  -5.969  30.300  -6.105
    1XTA   HL2119739  -5.944  30.480  -6.280
    1XTA   HL2219740  -6.023  30.365  -6.390
    1XTA   HL2319741  -5.855  30.340  -6.316
    1XTA   HL2419742  -7.699  29.791  -6.317
    1XTA   HL2519743  -7.854  29.690  -6.343
    1XTA    CO819744  -6.113  30.538  -6.095
    1XTA    CO919745  -6.272  30.404  -6.232
    1XTA    OA619746  -6.086  30.604  -6.179
    1XTA   HL4219747  -6.025  30.516  -6.035
    1XTA   HL4319748  -6.184  30.591  -6.035
    1XTA   HL4819749  -6.233  30.482  -6.345
    1XTA   HL4919750  -6.311  30.303  -6.260
    1XTA     NT19751  -2.100  30.799 -12.653
    1XTA    CN119752  -2.076  30.704 -12.751
    1XTA     C119753  -2.175  30.677 -12.850
    1XTA     C219754  -2.148  30.575 -12.943
    1XTA     C319755  -2.041  30.494 -12.924
    1XTA     C419756  -1.956  30.508 -12.817
    1XTA     C519757  -1.969  30.620 -12.732
    1XTA    CN219758  -2.214  30.789 -12.576
    1XTA     C619759  -2.221  30.703 -12.471
    1XTA     C719760  -2.331  30.708 -12.382
    1XTA     C819761  -2.425  30.810 -12.402
    1XTA     C919762  -2.420  30.893 -12.515
    1XTA    C1019763  -2.314  30.882 -12.602
    1XTA    CN319764  -2.003  30.881 -12.620
    1XTA    C1119765  -1.910  30.849 -12.521
    1XTA    C1219766  -1.790  30.918 -12.516
    1XTA    C1319767  -1.756  31.021 -12.612
    1XTA    C1419768  -1.849  31.046 -12.714
    1XTA    C1519769  -1.965  30.972 -12.725
    1XTA     H119770  -2.259  30.739 -12.868
    1XTA     H219771  -2.207  30.570 -13.037
    1XTA     H319772  -1.877  30.440 -12.807
    1XTA     H419773  -1.899  30.629 -12.652
    1XTA     H519774  -2.140  30.635 -12.466
    1XTA     H619775  -2.337  30.634 -12.303
    1XTA     H719776  -2.497  30.966 -12.521
    1XTA     H819777  -2.307  30.953 -12.679
    1XTA     H919778  -1.935  30.764 -12.452
    1XTA    H1019779  -1.718  30.873 -12.446
    1XTA    H1119780  -1.839  31.113 -12.793
    1XTA    H1219781  -2.035  30.979 -12.805
    1XTA    OA119782  -2.019  30.389 -13.011
    1XTA    CO119783  -2.000  30.438 -13.143
    1XTA    OA219784  -2.527  30.834 -12.321
    1XTA    CO219785  -2.532  30.784 -12.188
    1XTA    CL119786  -2.659  30.843 -12.123
    1XTA    CL219787  -2.690  30.804 -11.978
    1XTA    CL319788  -2.608  30.869 -11.878
    1XTA    CL419789  -2.573  30.783 -11.762
    1XTA    CO319790  -2.432  30.727 -11.770
    1XTA    OA319791  -2.415  30.634 -11.661
    1XTA    CO419792  -2.275  30.605 -11.635
    1XTA    CT119793  -2.257  30.475 -11.559
    1XTA    CL519794  -2.342  30.489 -11.425
    1XTA    CL619795  -2.328  30.369 -11.330
    1XTA    OA419796  -1.636  31.089 -12.606
    1XTA    CO519797  -1.534  31.034 -12.513
    1XTA    HL119798  -1.583  31.052 -12.411
    1XTA    HL219799  -1.916  30.508 -13.144
    1XTA    HL319800  -1.976  30.355 -13.213
    1XTA    HL419801  -2.086  30.491 -13.190
    1XTA    HL519802  -2.541  30.677 -12.191
    1XTA    HL619803  -2.442  30.804 -12.126
    1XTA    HL719804  -2.751  30.814 -12.182
    1XTA    HL819805  -2.661  30.954 -12.131
    1XTA    HL919806  -2.664  30.701 -11.976
    1XTA   HL1019807  -2.797  30.814 -11.964
    1XTA   HL1119808  -2.513  30.900 -11.927
    1XTA   HL1219809  -2.667  30.958 -11.847
    1XTA   HL1319810  -2.648  30.715 -11.742
    1XTA   HL1419811  -2.579  30.852 -11.674
    1XTA   HL1519812  -2.413  30.682 -11.863
    1XTA   HL1619813  -2.367  30.814 -11.754
    1XTA   HL1719814  -2.223  30.599 -11.725
    1XTA   HL1819815  -2.240  30.694 -11.577
    1XTA   HL1919816  -2.442  30.489 -11.457
    1XTA   HL2019817  -2.313  30.587 -11.384
    1XTA   HL2119818  -2.230  30.361 -11.291
    1XTA   HL2219819  -2.340  30.274 -11.384
    1XTA   HL2319820  -2.389  30.371 -11.242
    1XTA   HL2419821  -1.453  31.104 -12.522
    1XTA   HL2519822  -1.509  30.930 -12.535
    1XTA    CO819823  -2.109  30.457 -11.512
    1XTA    CO919824  -2.308  30.360 -11.647
    1XTA    OA619825  -2.025  30.448 -11.623
    1XTA   HL4219826  -2.110  30.360 -11.460
    1XTA   HL4319827  -2.073  30.531 -11.450
    1XTA   HL4819828  -2.231  30.353 -11.732
    1XTA   HL4919829  -2.300  30.267 -11.590
    1XTA     NT19830  -1.089  30.398  -8.526
    1XTA    CN119831  -1.126  30.356  -8.654
    1XTA     C119832  -1.196  30.235  -8.665
    1XTA     C219833  -1.215  30.174  -8.791
    1XTA     C319834  -1.182  30.243  -8.908
    1XTA     C419835  -1.128  30.368  -8.897
    1XTA     C519836  -1.095  30.427  -8.774
    1XTA    CN219837  -1.142  30.513  -8.473
    1XTA     C619838  -1.067  30.637  -8.455
    1XTA     C719839  -1.123  30.753  -8.409
    1XTA     C819840  -1.264  30.753  -8.376
    1XTA     C919841  -1.335  30.628  -8.385
    1XTA    C1019842  -1.276  30.509  -8.428
    1XTA    CN319843  -0.998  30.333  -8.450
    1XTA    C1119844  -0.865  30.387  -8.439
    1XTA    C1219845  -0.770  30.322  -8.364
    1XTA    C1319846  -0.799  30.205  -8.289
    1XTA    C1419847  -0.931  30.157  -8.288
    1XTA    C1519848  -1.030  30.225  -8.366
    1XTA     H119849  -1.224  30.178  -8.581
    1XTA     H219850  -1.255  30.075  -8.794
    1XTA     H319851  -1.105  30.438  -8.978
    1XTA     H419852  -1.046  30.525  -8.774
    1XTA     H519853  -0.974  30.650  -8.502
    1XTA     H619854  -1.056  30.835  -8.407
    1XTA     H719855  -1.440  30.625  -8.354
    1XTA     H819856  -1.336  30.418  -8.442
    1XTA     H919857  -0.829  30.457  -8.507
    1XTA    H1019858  -0.668  30.348  -8.377
    1XTA    H1119859  -0.947  30.061  -8.229
    1XTA    H1219860  -1.133  30.189  -8.356
    1XTA    OA119861  -1.196  30.181  -9.032
    1XTA    CO119862  -1.161  30.266  -9.145
    1XTA    OA219863  -1.331  30.866  -8.330
    1XTA    CO219864  -1.252  30.975  -8.280
    1XTA    CL119865  -1.170  30.942  -8.159
    1XTA    CL219866  -1.054  31.042  -8.142
    1XTA    CL319867  -0.911  30.976  -8.179
    1XTA    CL419868  -0.798  31.059  -8.119
    1XTA    CO319869  -0.781  31.178  -8.207
    1XTA    OA319870  -0.679  31.264  -8.146
    1XTA    CO419871  -0.630  31.364  -8.230
    1XTA    CT119872  -0.601  31.499  -8.146
    1XTA    CL519873  -0.559  31.618  -8.247
    1XTA    CL619874  -0.643  31.642  -8.367
    1XTA    OA419875  -0.705  30.137  -8.209
    1XTA    CO519876  -0.584  30.204  -8.187
    1XTA    HL119877  -0.527  30.198  -8.275
    1XTA    HL219878  -1.058  30.307  -9.145
    1XTA    HL319879  -1.164  30.207  -9.237
    1XTA    HL419880  -1.221  30.358  -9.145
    1XTA    HL519881  -1.188  31.006  -8.361
    1XTA    HL619882  -1.314  31.058  -8.250
    1XTA    HL719883  -1.122  30.841  -8.176
    1XTA    HL819884  -1.238  30.951  -8.079
    1XTA    HL919885  -1.030  31.061  -8.033
    1XTA   HL1019886  -1.073  31.134  -8.183
    1XTA   HL1119887  -0.900  30.873  -8.145
    1XTA   HL1219888  -0.900  30.981  -8.280
    1XTA   HL1319889  -0.710  31.003  -8.120
    1XTA   HL1419890  -0.831  31.088  -8.017
    1XTA   HL1519891  -0.748  31.141  -8.307
    1XTA   HL1619892  -0.879  31.234  -8.221
    1XTA   HL1719893  -0.547  31.319  -8.283
    1XTA   HL1819894  -0.711  31.396  -8.289
    1XTA   HL1919895  -0.454  31.597  -8.276
    1XTA   HL2019896  -0.545  31.714  -8.197
    1XTA   HL2119897  -0.622  31.571  -8.445
    1XTA   HL2219898  -0.609  31.738  -8.407
    1XTA   HL2319899  -0.750  31.636  -8.354
    1XTA   HL2419900  -0.538  30.143  -8.102
    1XTA   HL2519901  -0.600  30.307  -8.155
    1XTA    CO819902  -0.496  31.461  -8.044
    1XTA    CO919903  -0.735  31.540  -8.081
    1XTA    OA619904  -0.412  31.447  -8.110
    1XTA   HL4219905  -0.541  31.377  -7.988
    1XTA   HL4319906  -0.484  31.548  -7.977
    1XTA   HL4819907  -0.849  31.493  -8.156
    1XTA   HL4919908  -0.748  31.494  -7.983
    1XTA     NT19909  -4.238  24.085  -3.804
    1XTA    CN119910  -4.285  24.174  -3.892
    1XTA     C119911  -4.195  24.214  -3.994
    1XTA     C219912  -4.239  24.310  -4.088
    1XTA     C319913  -4.370  24.366  -4.082
    1XTA     C419914  -4.460  24.322  -3.978
    1XTA     C519915  -4.412  24.230  -3.881
    1XTA    CN219916  -4.215  23.958  -3.850
    1XTA     C619917  -4.332  23.885  -3.881
    1XTA     C719918  -4.315  23.744  -3.900
    1XTA     C819919  -4.190  23.679  -3.867
    1XTA     C919920  -4.082  23.759  -3.818
    1XTA    C1019921  -4.089  23.899  -3.822
    1XTA    CN319922  -4.218  24.119  -3.673
    1XTA    C1119923  -4.110  24.200  -3.629
    1XTA    C1219924  -4.092  24.234  -3.495
    1XTA    C1319925  -4.175  24.171  -3.401
    1XTA    C1419926  -4.283  24.088  -3.438
    1XTA    C1519927  -4.301  24.059  -3.573
    1XTA     H119928  -4.094  24.169  -4.009
    1XTA     H219929  -4.165  24.334  -4.171
    1XTA     H319930  -4.558  24.368  -3.969
    1XTA     H419931  -4.474  24.201  -3.791
    1XTA     H519932  -4.423  23.937  -3.891
    1XTA     H619933  -4.400  23.687  -3.926
    1XTA     H719934  -3.982  23.712  -3.784
    1XTA     H819935  -4.013  23.970  -3.797
    1XTA     H919936  -4.036  24.230  -3.704
    1XTA    H1019937  -4.010  24.298  -3.466
    1XTA    H1119938  -4.337  24.038  -3.358
    1XTA    H1219939  -4.384  24.005  -3.611
    1XTA    OA119940  -4.398  24.456  -4.177
    1XTA    CO119941  -4.530  24.508  -4.174
    1XTA    OA219942  -4.181  23.545  -3.876
    1XTA    CO219943  -4.271  23.482  -3.964
    1XTA    CL119944  -4.230  23.332  -3.951
    1XTA    CL219945  -4.271  23.247  -4.063
    1XTA    CL319946  -4.379  23.145  -4.043
    1XTA    CL419947  -4.513  23.208  -4.046
    1XTA    CO319948  -4.588  23.234  -4.190
    1XTA    OA319949  -4.505  23.288  -4.294
    1XTA    CO419950  -4.505  23.427  -4.291
    1XTA    CT119951  -4.458  23.491  -4.425
    1XTA    CL519952  -4.489  23.642  -4.427
    1XTA    CL619953  -4.457  23.728  -4.314
    1XTA    OA419954  -4.168  24.197  -3.266
    1XTA    CO519955  -4.092  24.313  -3.220
    1XTA    HL119956  -4.126  24.397  -3.279
    1XTA    HL219957  -4.602  24.423  -4.188
    1XTA    HL319958  -4.556  24.571  -4.089
    1XTA    HL419959  -4.546  24.575  -4.259
    1XTA    HL519960  -4.379  23.495  -3.939
    1XTA    HL619961  -4.247  23.515  -4.071
    1XTA    HL719962  -4.262  23.286  -3.859
    1XTA    HL819963  -4.121  23.314  -3.949
    1XTA    HL919964  -4.177  23.202  -4.096
    1XTA   HL1019965  -4.300  23.307  -4.145
    1XTA   HL1119966  -4.373  23.073  -4.122
    1XTA   HL1219967  -4.358  23.081  -3.947
    1XTA   HL1319968  -4.513  23.304  -3.989
    1XTA   HL1419969  -4.580  23.147  -3.993
    1XTA   HL1519970  -4.626  23.138  -4.228
    1XTA   HL1619971  -4.681  23.291  -4.184
    1XTA   HL1719972  -4.604  23.466  -4.263
    1XTA   HL1819973  -4.445  23.460  -4.208
    1XTA   HL1919974  -4.591  23.640  -4.447
    1XTA   HL2019975  -4.428  23.680  -4.511
    1XTA   HL2119976  -4.345  23.723  -4.289
    1XTA   HL2219977  -4.504  23.682  -4.226
    1XTA   HL2319978  -4.481  23.831  -4.347
    1XTA   HL2419979  -3.981  24.304  -3.223
    1XTA   HL2519980  -4.133  24.351  -3.121
    1XTA    CO819981  -4.528  23.426  -4.547
    1XTA    CO919982  -4.305  23.456  -4.456
    1XTA    OA619983  -4.476  23.481  -4.669
    1XTA   HL4219984  -4.630  23.455  -4.546
    1XTA   HL4319985  -4.525  23.319  -4.558
    1XTA   HL4819986  -4.276  23.498  -4.557
    1XTA   HL4919987  -4.297  23.354  -4.458
    1XTA     NT19988  -2.357  30.678  -9.131
    1XTA    CN119989  -2.240  30.649  -9.189
    1XTA     C119990  -2.132  30.624  -9.095
    1XTA     C219991  -2.007  30.588  -9.140
    1XTA     C319992  -1.986  30.604  -9.284
    1XTA     C419993  -2.091  30.643  -9.374
    1XTA     C519994  -2.219  30.670  -9.326
    1XTA    CN219995  -2.442  30.581  -9.096
    1XTA     C619996  -2.541  30.537  -9.184
    1XTA     C719997  -2.617  30.427  -9.143
    1XTA     C819998  -2.610  30.370  -9.019
    1XTA     C919999  -2.519  30.420  -8.924
    1XTA    C1020000  -2.433  30.519  -8.963
    1XTA    CN320001  -2.380  30.808  -9.099
    1XTA    C1120002  -2.370  30.849  -8.966
    1XTA    C1220003  -2.367  30.988  -8.941
    1XTA    C1320004  -2.401  31.086  -9.039
    1XTA    C1420005  -2.415  31.036  -9.172
    1XTA    C1520006  -2.411  30.901  -9.200
    1XTA     H120007  -2.167  30.619  -8.992
    1XTA     H220008  -1.933  30.549  -9.073
    1XTA     H320009  -2.069  30.630  -9.485
    1XTA     H420010  -2.293  30.687  -9.395
    1XTA     H520011  -2.552  30.585  -9.277
    1XTA     H620012  -2.679  30.373  -9.217
    1XTA     H720013  -2.521  30.386  -8.825
    1XTA     H820014  -2.375  30.567  -8.880
    1XTA     H920015  -2.341  30.784  -8.880
    1XTA    H1020016  -2.334  31.027  -8.848
    1XTA    H1120017  -2.416  31.098  -9.256
    1XTA    H1220018  -2.404  30.876  -9.304
    1XTA    OA120019  -1.865  30.573  -9.346
    1XTA    CO120020  -1.778  30.502  -9.260
    1XTA    OA220021  -2.721  30.292  -8.987
    1XTA    CO220022  -2.701  30.199  -8.883
    1XTA    CL120023  -2.730  30.260  -8.743
    1XTA    CL220024  -2.637  30.199  -8.636
    1XTA    CL320025  -2.554  30.309  -8.564
    1XTA    CL420026  -2.623  30.371  -8.438
    1XTA    CO320027  -2.763  30.435  -8.466
    1XTA    OA320028  -2.739  30.549  -8.542
    1XTA    CO420029  -2.857  30.626  -8.566
    1XTA    CT120030  -2.840  30.740  -8.669
    1XTA    CL520031  -2.816  30.670  -8.809
    1XTA    CL620032  -2.754  30.764  -8.918
    1XTA    OA420033  -2.395  31.218  -9.006
    1XTA    CO520034  -2.384  31.307  -9.117
    1XTA    HL120035  -2.282  31.299  -9.159
    1XTA    HL220036  -1.810  30.401  -9.240
    1XTA    HL320037  -1.678  30.474  -9.302
    1XTA    HL420038  -1.768  30.556  -9.168
    1XTA    HL520039  -2.762  30.106  -8.903
    1XTA    HL620040  -2.600  30.151  -8.884
    1XTA    HL720041  -2.833  30.260  -8.724
    1XTA    HL820042  -2.721  30.370  -8.735
    1XTA    HL920043  -2.570  30.126  -8.694
    1XTA   HL1020044  -2.699  30.137  -8.566
    1XTA   HL1120045  -2.454  30.264  -8.531
    1XTA   HL1220046  -2.538  30.383  -8.638
    1XTA   HL1320047  -2.558  30.435  -8.383
    1XTA   HL1420048  -2.647  30.280  -8.375
    1XTA   HL1520049  -2.833  30.364  -8.510
    1XTA   HL1620050  -2.793  30.460  -8.359
    1XTA   HL1720051  -2.946  30.571  -8.599
    1XTA   HL1820052  -2.893  30.657  -8.466
    1XTA   HL1920053  -2.910  30.627  -8.846
    1XTA   HL2020054  -2.754  30.572  -8.808
    1XTA   HL2120055  -2.736  30.719  -9.018
    1XTA   HL2220056  -2.649  30.780  -8.879
    1XTA   HL2320057  -2.808  30.860  -8.922
    1XTA   HL2420058  -2.392  31.416  -9.092
    1XTA   HL2520059  -2.452  31.291  -9.197
    1XTA    CO820060  -2.725  30.829  -8.622
    1XTA    CO920061  -2.962  30.822  -8.671
    1XTA    OA620062  -2.712  30.919  -8.684
    1XTA   HL4220063  -2.639  30.760  -8.616
    1XTA   HL4320064  -2.734  30.855  -8.515
    1XTA   HL4820065  -2.990  30.875  -8.543
    1XTA   HL4920066  -2.942  30.914  -8.731
    1XTA     NT20067  -2.909  29.883  -7.035
    1XTA    CN120068  -2.997  29.986  -7.012
    1XTA     C120069  -3.134  29.954  -6.988
    1XTA     C220070  -3.233  30.049  -6.950
    1XTA     C320071  -3.182  30.176  -6.935
    1XTA     C420072  -3.047  30.214  -6.958
    1XTA     C520073  -2.955  30.115  -6.987
    1XTA    CN220074  -2.865  29.845  -7.156
    1XTA     C620075  -2.809  29.937  -7.245
    1XTA     C720076  -2.786  29.892  -7.376
    1XTA     C820077  -2.800  29.758  -7.417
    1XTA     C920078  -2.843  29.665  -7.317
    1XTA    C1020079  -2.890  29.708  -7.193
    1XTA    CN320080  -2.845  29.819  -6.929
    1XTA    C1120081  -2.916  29.781  -6.817
    1XTA    C1220082  -2.844  29.735  -6.700
    1XTA    C1320083  -2.702  29.718  -6.703
    1XTA    C1420084  -2.634  29.759  -6.815
    1XTA    C1520085  -2.705  29.818  -6.920
    1XTA     H120086  -3.173  29.856  -6.999
    1XTA     H220087  -3.328  30.023  -6.933
    1XTA     H320088  -3.013  30.310  -6.964
    1XTA     H420089  -2.850  30.149  -7.018
    1XTA     H520090  -2.794  30.036  -7.207
    1XTA     H620091  -2.753  29.951  -7.457
    1XTA     H720092  -2.860  29.555  -7.330
    1XTA     H820093  -2.937  29.641  -7.130
    1XTA     H920094  -3.024  29.795  -6.819
    1XTA    H1020095  -2.905  29.698  -6.620
    1XTA    H1120096  -2.527  29.765  -6.808
    1XTA    H1220097  -2.648  29.859  -7.001
    1XTA    OA120098  -3.263  30.271  -6.889
    1XTA    CO120099  -3.272  30.282  -6.744
    1XTA    OA220100  -2.777  29.734  -7.551
    1XTA    CO220101  -2.763  29.606  -7.598
    1XTA    CL120102  -2.724  29.617  -7.751
    1XTA    CL220103  -2.672  29.490  -7.805
    1XTA    CL320104  -2.641  29.501  -7.948
    1XTA    CL420105  -2.598  29.364  -8.003
    1XTA    CO320106  -2.485  29.292  -7.922
    1XTA    OA320107  -2.437  29.175  -7.991
    1XTA    CO420108  -2.349  29.198  -8.101
    1XTA    CT120109  -2.384  29.083  -8.197
    1XTA    CL520110  -2.527  29.105  -8.236
    1XTA    CL620111  -2.561  29.214  -8.344
    1XTA    OA420112  -2.625  29.665  -6.607
    1XTA    CO520113  -2.687  29.624  -6.491
    1XTA    HL120114  -2.787  29.573  -6.504
    1XTA    HL220115  -3.318  30.190  -6.714
    1XTA    HL320116  -3.172  30.282  -6.701
    1XTA    HL420117  -3.321  30.372  -6.708
    1XTA    HL520118  -2.683  29.573  -7.536
    1XTA    HL620119  -2.852  29.548  -7.576
    1XTA    HL720120  -2.644  29.697  -7.756
    1XTA    HL820121  -2.796  29.669  -7.814
    1XTA    HL920122  -2.762  29.429  -7.785
    1XTA   HL1020123  -2.592  29.453  -7.749
    1XTA   HL1120124  -2.722  29.528  -8.013
    1XTA   HL1220125  -2.561  29.577  -7.954
    1XTA   HL1320126  -2.556  29.375  -8.102
    1XTA   HL1420127  -2.683  29.300  -8.002
    1XTA   HL1520128  -2.401  29.354  -7.892
    1XTA   HL1620129  -2.527  29.255  -7.827
    1XTA   HL1720130  -2.370  29.289  -8.154
    1XTA   HL1820131  -2.243  29.193  -8.084
    1XTA   HL1920132  -2.591  29.133  -8.150
    1XTA   HL2020133  -2.554  29.011  -8.268
    1XTA   HL2120134  -2.663  29.262  -8.362
    1XTA   HL2220135  -2.552  29.170  -8.443
    1XTA   HL2320136  -2.485  29.292  -8.342
    1XTA   HL2420137  -2.706  29.716  -6.417
    1XTA   HL2520138  -2.625  29.560  -6.435
    1XTA    CO820139  -2.366  28.941  -8.122
    1XTA    CO920140  -2.287  29.080  -8.322
    1XTA    OA620141  -2.374  28.843  -8.224
    1XTA   HL4220142  -2.452  28.921  -8.048
    1XTA   HL4320143  -2.267  28.926  -8.074
    1XTA   HL4820144  -2.321  29.015  -8.404
    1XTA   HL4920145  -2.286  29.178  -8.378
    1XTA     NT20146  -6.861  31.108  -4.597
    1XTA    CN120147  -6.739  31.057  -4.613
    1XTA     C120148  -6.661  31.080  -4.730
    1XTA     C220149  -6.538  31.017  -4.743
    1XTA     C320150  -6.488  30.927  -4.642
    1XTA     C420151  -6.577  30.890  -4.539
    1XTA     C520152  -6.700  30.957  -4.528
    1XTA    CN220153  -6.944  31.108  -4.704
    1XTA     C620154  -6.937  31.214  -4.798
    1XTA     C720155  -7.013  31.218  -4.908
    1XTA     C820156  -7.098  31.111  -4.940
    1XTA     C920157  -7.105  30.998  -4.858
    1XTA    C1020158  -7.034  31.003  -4.733
    1XTA    CN320159  -6.903  31.167  -4.484
    1XTA    C1120160  -6.871  31.301  -4.454
    1XTA    C1220161  -6.924  31.372  -4.346
    1XTA    C1320162  -7.019  31.305  -4.267
    1XTA    C1420163  -7.052  31.173  -4.291
    1XTA    C1520164  -6.990  31.102  -4.394
    1XTA     H120165  -6.699  31.148  -4.807
    1XTA     H220166  -6.485  31.044  -4.829
    1XTA     H320167  -6.547  30.809  -4.474
    1XTA     H420168  -6.759  30.916  -4.450
    1XTA     H520169  -6.878  31.301  -4.783
    1XTA     H620170  -7.010  31.305  -4.960
    1XTA     H720171  -7.171  30.914  -4.883
    1XTA     H820172  -7.048  30.925  -4.661
    1XTA     H920173  -6.808  31.359  -4.526
    1XTA    H1020174  -6.895  31.477  -4.325
    1XTA    H1120175  -7.131  31.129  -4.230
    1XTA    H1220176  -7.024  31.000  -4.417
    1XTA    OA120177  -6.370  30.858  -4.655
    1XTA    CO120178  -6.281  30.910  -4.749
    1XTA    OA220179  -7.167  31.120  -5.060
    1XTA    CO220180  -7.266  31.021  -5.096
    1XTA    CL120181  -7.313  31.040  -5.235
    1XTA    CL220182  -7.435  30.968  -5.279
    1XTA    CL320183  -7.469  31.008  -5.424
    1XTA    CL420184  -7.546  31.146  -5.425
    1XTA    CO320185  -7.541  31.217  -5.560
    1XTA    OA320186  -7.414  31.275  -5.562
    1XTA    CO420187  -7.377  31.338  -5.688
    1XTA    CT120188  -7.229  31.348  -5.696
    1XTA    CL520189  -7.184  31.439  -5.818
    1XTA    CL620190  -7.229  31.380  -5.947
    1XTA    OA420191  -7.074  31.358  -4.153
    1XTA    CO520192  -7.011  31.466  -4.094
    1XTA    HL120193  -7.065  31.485  -3.994
    1XTA    HL220194  -6.192  30.851  -4.752
    1XTA    HL320195  -6.308  30.891  -4.849
    1XTA    HL420196  -6.255  31.011  -4.735
    1XTA    HL520197  -7.217  30.921  -5.084
    1XTA    HL620198  -7.351  31.020  -5.025
    1XTA    HL720199  -7.230  31.013  -5.302
    1XTA    HL820200  -7.332  31.145  -5.249
    1XTA    HL920201  -7.518  30.999  -5.218
    1XTA   HL1020202  -7.412  30.858  -5.259
    1XTA   HL1120203  -7.371  31.013  -5.470
    1XTA   HL1220204  -7.539  30.933  -5.461
    1XTA   HL1320205  -7.497  31.207  -5.351
    1XTA   HL1420206  -7.659  31.146  -5.397
    1XTA   HL1520207  -7.562  31.142  -5.634
    1XTA   HL1620208  -7.620  31.291  -5.570
    1XTA   HL1720209  -7.415  31.275  -5.772
    1XTA   HL1820210  -7.416  31.441  -5.694
    1XTA   HL1920211  -7.078  31.426  -5.838
    1XTA   HL2020212  -7.219  31.542  -5.811
    1XTA   HL2120213  -7.188  31.283  -5.971
    1XTA   HL2220214  -7.187  31.445  -6.024
    1XTA   HL2320215  -7.335  31.379  -5.963
    1XTA   HL2420216  -7.027  31.554  -4.159
    1XTA   HL2520217  -6.900  31.452  -4.075
    1XTA    CO820218  -7.158  31.214  -5.696
    1XTA    CO920219  -7.158  31.425  -5.581
    1XTA    OA620220  -7.223  31.540  -5.543
    1XTA   HL4220221  -7.216  31.138  -5.636
    1XTA   HL4320222  -7.180  31.164  -5.791
    1XTA   HL4820223  -7.059  31.467  -5.605
    1XTA   HL4920224  -7.154  31.355  -5.497
    1XTA     NT20225  -8.817  29.853  -8.491
    1XTA    CN120226  -8.773  29.835  -8.361
    1XTA     C120227  -8.716  29.947  -8.293
    1XTA     C220228  -8.682  29.933  -8.155
    1XTA     C320229  -8.684  29.805  -8.098
    1XTA     C420230  -8.739  29.697  -8.171
    1XTA     C520231  -8.786  29.712  -8.301
    1XTA    CN220232  -8.733  29.845  -8.595
    1XTA     C620233  -8.766  29.766  -8.706
    1XTA     C720234  -8.691  29.768  -8.826
    1XTA     C820235  -8.574  29.839  -8.829
    1XTA     C920236  -8.535  29.909  -8.716
    1XTA    C1020237  -8.615  29.918  -8.601
    1XTA    CN320238  -8.952  29.884  -8.509
    1XTA    C1120239  -8.986  30.017  -8.530
    1XTA    C1220240  -9.122  30.054  -8.556
    1XTA    C1320241  -9.222  29.960  -8.555
    1XTA    C1420242  -9.183  29.826  -8.553
    1XTA    C1520243  -9.053  29.785  -8.526
    1XTA     H120244  -8.702  30.036  -8.336
    1XTA     H220245  -8.647  30.024  -8.101
    1XTA     H320246  -8.742  29.596  -8.126
    1XTA     H420247  -8.840  29.647  -8.353
    1XTA     H520248  -8.850  29.701  -8.691
    1XTA     H620249  -8.724  29.716  -8.917
    1XTA     H720250  -8.439  29.965  -8.709
    1XTA     H820251  -8.587  29.964  -8.509
    1XTA     H920252  -8.909  30.085  -8.525
    1XTA    H1020253  -9.143  30.162  -8.564
    1XTA    H1120254  -9.262  29.753  -8.570
    1XTA    H1220255  -9.030  29.683  -8.517
    1XTA    OA120256  -8.630  29.786  -7.976
    1XTA    CO120257  -8.725  29.741  -7.883
    1XTA    OA220258  -8.482  29.830  -8.932
    1XTA    CO220259  -8.538  29.782  -9.062
    1XTA    CL120260  -8.435  29.793  -9.173
    1XTA    CL220261  -8.488  29.719  -9.306
    1XTA    CL320262  -8.546  29.813  -9.409
    1XTA    CL420263  -8.697  29.828  -9.398
    1XTA    CO320264  -8.748  29.893  -9.532
    1XTA    OA320265  -8.726  29.787  -9.631
    1XTA    CO420266  -8.789  29.806  -9.756
    1XTA    CT120267  -8.727  29.714  -9.868
    1XTA    CL520268  -8.777  29.730 -10.013
    1XTA    CL620269  -8.759  29.868 -10.090
    1XTA    OA420270  -9.357  29.984  -8.569
    1XTA    CO520271  -9.397  30.117  -8.602
    1XTA    HL120272  -9.396  30.142  -8.706
    1XTA    HL220273  -8.765  29.642  -7.909
    1XTA    HL320274  -8.682  29.733  -7.780
    1XTA    HL420275  -8.806  29.805  -7.891
    1XTA    HL520276  -8.568  29.678  -9.058
    1XTA    HL620277  -8.626  29.842  -9.088
    1XTA    HL720278  -8.350  29.736  -9.143
    1XTA    HL820279  -8.403  29.897  -9.198
    1XTA    HL920280  -8.538  29.626  -9.286
    1XTA   HL1020281  -8.390  29.670  -9.352
    1XTA   HL1120282  -8.505  29.921  -9.407
    1XTA   HL1220283  -8.527  29.769  -9.505
    1XTA   HL1320284  -8.708  29.889  -9.312
    1XTA   HL1420285  -8.735  29.725  -9.376
    1XTA   HL1520286  -8.853  29.920  -9.527
    1XTA   HL1620287  -8.694  29.993  -9.558
    1XTA   HL1720288  -8.897  29.785  -9.753
    1XTA   HL1820289  -8.781  29.913  -9.790
    1XTA   HL1920290  -8.881  29.710 -10.002
    1XTA   HL2020291  -8.741  29.649 -10.082
    1XTA   HL2120292  -8.815  29.943 -10.031
    1XTA   HL2220293  -8.796  29.858 -10.192
    1XTA   HL2320294  -8.648  29.882 -10.092
    1XTA   HL2420295  -9.338  30.193  -8.549
    1XTA   HL2520296  -9.504  30.137  -8.574
    1XTA    CO820297  -8.750  29.564  -9.819
    1XTA    CO920298  -8.571  29.732  -9.861
    1XTA    OA620299  -8.521  29.671  -9.933
    1XTA   HL4220300  -8.687  29.501  -9.881
    1XTA   HL4320301  -8.687  29.556  -9.691
    1XTA   HL4820302  -8.526  29.726  -9.763
    1XTA   HL4920303  -8.543  29.831  -9.875
    1XTA     NT20304  -4.832  30.389 -10.792
    1XTA    CN120305  -4.923  30.427 -10.694
    1XTA     C120306  -5.003  30.543 -10.717
    1XTA     C220307  -5.097  30.580 -10.613
    1XTA     C320308  -5.090  30.517 -10.488
    1XTA     C420309  -5.008  30.406 -10.468
    1XTA     C520310  -4.916  30.372 -10.565
    1XTA    CN220311  -4.850  30.262 -10.840
    1XTA     C620312  -4.948  30.235 -10.936
    1XTA     C720313  -4.957  30.103 -10.990
    1XTA     C820314  -4.871  29.998 -10.944
    1XTA     C920315  -4.773  30.026 -10.844
    1XTA    C1020316  -4.772  30.154 -10.785
    1XTA    CN320317  -4.742  30.472 -10.839
    1XTA    C1120318  -4.632  30.504 -10.764
    1XTA    C1220319  -4.526  30.581 -10.823
    1XTA    C1320320  -4.536  30.628 -10.958
    1XTA    C1420321  -4.649  30.589 -11.031
    1XTA    C1520322  -4.748  30.512 -10.975
    1XTA     H120323  -4.992  30.605 -10.808
    1XTA     H220324  -5.154  30.673 -10.624
    1XTA     H320325  -5.005  30.360 -10.371
    1XTA     H420326  -4.852  30.286 -10.541
    1XTA     H520327  -5.017  30.312 -10.968
    1XTA     H620328  -5.028  30.077 -11.073
    1XTA     H720329  -4.712  29.949 -10.802
    1XTA     H820330  -4.718  30.169 -10.700
    1XTA     H920331  -4.634  30.483 -10.661
    1XTA    H1020332  -4.443  30.602 -10.754
    1XTA    H1120333  -4.659  30.624 -11.129
    1XTA    H1220334  -4.833  30.477 -11.032
    1XTA    OA120335  -5.174  30.560 -10.390
    1XTA    CO120336  -5.228  30.688 -10.388
    1XTA    OA220337  -4.893  29.875 -10.996
    1XTA    CO220338  -4.773  29.795 -11.001
    1XTA    CL120339  -4.771  29.705 -11.129
    1XTA    CL220340  -4.862  29.755 -11.241
    1XTA    CL320341  -4.867  29.659 -11.359
    1XTA    CL420342  -4.971  29.701 -11.460
    1XTA    CO320343  -4.970  29.614 -11.592
    1XTA    OA320344  -5.035  29.677 -11.695
    1XTA    CO420345  -5.163  29.628 -11.713
    1XTA    CT120346  -5.233  29.724 -11.819
    1XTA    CL520347  -5.385  29.695 -11.815
    1XTA    CL620348  -5.425  29.554 -11.851
    1XTA    OA420349  -4.438  30.710 -11.007
    1XTA    CO520350  -4.459  30.781 -11.129
    1XTA    HL120351  -4.492  30.720 -11.212
    1XTA    HL220352  -5.145  30.759 -10.371
    1XTA    HL320353  -5.286  30.700 -10.478
    1XTA    HL420354  -5.299  30.693 -10.302
    1XTA    HL520355  -4.693  29.865 -11.014
    1XTA    HL620356  -4.758  29.745 -10.909
    1XTA    HL720357  -4.810  29.607 -11.093
    1XTA    HL820358  -4.667  29.699 -11.157
    1XTA    HL920359  -4.850  29.861 -11.271
    1XTA   HL1020360  -4.961  29.762 -11.198
    1XTA   HL1120361  -4.773  29.652 -11.415
    1XTA   HL1220362  -4.884  29.555 -11.322
    1XTA   HL1320363  -4.942  29.806 -11.482
    1XTA   HL1420364  -5.070  29.727 -11.417
    1XTA   HL1520365  -4.862  29.595 -11.628
    1XTA   HL1620366  -5.007  29.511 -11.578
    1XTA   HL1720367  -5.153  29.529 -11.748
    1XTA   HL1820368  -5.220  29.625 -11.618
    1XTA   HL1920369  -5.424  29.770 -11.885
    1XTA   HL2020370  -5.428  29.728 -11.718
    1XTA   HL2120371  -5.535  29.547 -11.849
    1XTA   HL2220372  -5.381  29.465 -11.799
    1XTA   HL2320373  -5.400  29.548 -11.956
    1XTA   HL2420374  -4.377  30.834 -11.161
    1XTA   HL2520375  -4.539  30.861 -11.114
    1XTA    CO820376  -5.171  29.696 -11.959
    1XTA    CO920377  -5.202  29.872 -11.796
    1XTA    OA620378  -5.172  29.560 -11.992
    1XTA   HL4220379  -5.072  29.728 -11.955
    1XTA   HL4320380  -5.212  29.747 -12.040
    1XTA   HL4820381  -5.234  29.926 -11.885
    1XTA   HL4920382  -5.090  29.886 -11.795
    1XTA     NT20383  -4.587  24.269  -5.183
    1XTA    CN120384  -4.562  24.210  -5.065
    1XTA     C120385  -4.434  24.214  -4.998
    1XTA     C220386  -4.420  24.144  -4.875
    1XTA     C320387  -4.520  24.070  -4.816
    1XTA     C420388  -4.649  24.075  -4.878
    1XTA     C520389  -4.670  24.145  -4.999
    1XTA    CN220390  -4.623  24.397  -5.180
    1XTA     C620391  -4.531  24.492  -5.241
    1XTA     C720392  -4.554  24.628  -5.234
    1XTA     C820393  -4.657  24.681  -5.161
    1XTA     C920394  -4.750  24.592  -5.099
    1XTA    C1020395  -4.731  24.452  -5.104
    1XTA    CN320396  -4.647  24.188  -5.278
    1XTA    C1120397  -4.777  24.205  -5.331
    1XTA    C1220398  -4.835  24.108  -5.416
    1XTA    C1320399  -4.761  23.998  -5.454
    1XTA    C1420400  -4.618  24.001  -5.427
    1XTA    C1520401  -4.561  24.097  -5.341
    1XTA     H120402  -4.347  24.270  -5.032
    1XTA     H220403  -4.324  24.158  -4.825
    1XTA     H320404  -4.728  24.034  -4.824
    1XTA     H420405  -4.770  24.156  -5.037
    1XTA     H520406  -4.435  24.452  -5.274
    1XTA     H620407  -4.494  24.681  -5.292
    1XTA     H720408  -4.831  24.626  -5.038
    1XTA     H820409  -4.802  24.390  -5.050
    1XTA     H920410  -4.827  24.287  -5.293
    1XTA    H1020411  -4.932  24.131  -5.458
    1XTA    H1120412  -4.558  23.924  -5.469
    1XTA    H1220413  -4.460  24.080  -5.311
    1XTA    OA120414  -4.491  24.002  -4.704
    1XTA    CO120415  -4.597  23.918  -4.654
    1XTA    OA220416  -4.658  24.815  -5.139
    1XTA    CO220417  -4.714  24.857  -5.019
    1XTA    CL120418  -4.672  25.006  -5.008
    1XTA    CL220419  -4.521  25.029  -5.032
    1XTA    CL320420  -4.502  25.179  -5.023
    1XTA    CL420421  -4.360  25.229  -5.071
    1XTA    CO320422  -4.320  25.189  -5.205
    1XTA    OA320423  -4.187  25.240  -5.232
    1XTA    CO420424  -4.107  25.142  -5.292
    1XTA    CT120425  -3.972  25.212  -5.330
    1XTA    CL520426  -3.880  25.217  -5.204
    1XTA    CL620427  -3.930  25.310  -5.097
    1XTA    OA420428  -4.801  23.898  -5.543
    1XTA    CO520429  -4.932  23.909  -5.581
    1XTA    HL120430  -4.962  24.001  -5.627
    1XTA    HL220431  -4.645  23.862  -4.737
    1XTA    HL320432  -4.555  23.856  -4.571
    1XTA    HL420433  -4.675  23.973  -4.597
    1XTA    HL520434  -4.822  24.861  -5.019
    1XTA    HL620435  -4.670  24.794  -4.943
    1XTA    HL720436  -4.713  25.047  -4.910
    1XTA    HL820437  -4.721  25.068  -5.081
    1XTA    HL920438  -4.497  24.993  -5.138
    1XTA   HL1020439  -4.465  24.974  -4.956
    1XTA   HL1120440  -4.576  25.221  -5.088
    1XTA   HL1220441  -4.533  25.203  -4.923
    1XTA   HL1320442  -4.300  25.185  -4.996
    1XTA   HL1420443  -4.357  25.341  -5.059
    1XTA   HL1520444  -4.330  25.085  -5.202
    1XTA   HL1620445  -4.379  25.228  -5.289
    1XTA   HL1720446  -4.081  25.061  -5.221
    1XTA   HL1820447  -4.157  25.089  -5.378
    1XTA   HL1920448  -3.777  25.247  -5.226
    1XTA   HL2020449  -3.873  25.118  -5.157
    1XTA   HL2120450  -3.933  25.416  -5.128
    1XTA   HL2220451  -3.865  25.296  -5.012
    1XTA   HL2320452  -4.027  25.264  -5.075
    1XTA   HL2420453  -4.994  23.893  -5.492
    1XTA   HL2520454  -4.947  23.826  -5.650
    1XTA    CO820455  -4.000  25.346  -5.401
    1XTA    CO920456  -3.913  25.121  -5.435
    1XTA    OA620457  -3.906  25.395  -5.436
    1XTA   HL4220458  -4.062  25.410  -5.335
    1XTA   HL4320459  -4.074  25.328  -5.485
    1XTA   HL4820460  -3.800  25.165  -5.500
    1XTA   HL4920461  -3.995  25.114  -5.503
    1XTA     NT20462  -3.757  26.171  -7.974
    1XTA    CN120463  -3.667  26.183  -7.872
    1XTA     C120464  -3.675  26.091  -7.766
    1XTA     C220465  -3.591  26.090  -7.656
    1XTA     C320466  -3.494  26.190  -7.646
    1XTA     C420467  -3.492  26.292  -7.748
    1XTA     C520468  -3.572  26.287  -7.865
    1XTA    CN220469  -3.715  26.119  -8.094
    1XTA     C620470  -3.751  25.989  -8.133
    1XTA     C720471  -3.725  25.943  -8.266
    1XTA     C820472  -3.663  26.032  -8.359
    1XTA     C920473  -3.608  26.151  -8.315
    1XTA    C1020474  -3.638  26.197  -8.180
    1XTA    CN320475  -3.874  26.249  -7.984
    1XTA    C1120476  -3.886  26.373  -8.049
    1XTA    C1220477  -4.007  26.441  -8.061
    1XTA    C1320478  -4.129  26.381  -8.018
    1XTA    C1420479  -4.115  26.259  -7.949
    1XTA    C1520480  -3.988  26.201  -7.922
    1XTA     H120481  -3.735  26.001  -7.777
    1XTA     H220482  -3.610  26.018  -7.573
    1XTA     H320483  -3.429  26.381  -7.740
    1XTA     H420484  -3.572  26.356  -7.946
    1XTA     H520485  -3.809  25.931  -8.061
    1XTA     H620486  -3.759  25.849  -8.304
    1XTA     H720487  -3.547  26.199  -8.387
    1XTA     H820488  -3.610  26.294  -8.151
    1XTA     H920489  -3.798  26.417  -8.094
    1XTA    H1020490  -4.015  26.530  -8.115
    1XTA    H1120491  -4.202  26.218  -7.899
    1XTA    H1220492  -3.995  26.104  -7.870
    1XTA    OA120493  -3.433  26.203  -7.527
    1XTA    CO120494  -3.323  26.296  -7.531
    1XTA    OA220495  -3.644  25.981  -8.489
    1XTA    CO220496  -3.598  26.063  -8.598
    1XTA    CL120497  -3.592  25.977  -8.729
    1XTA    CL220498  -3.517  26.034  -8.851
    1XTA    CL320499  -3.365  25.997  -8.864
    1XTA    CL420500  -3.272  26.109  -8.806
    1XTA    CO320501  -3.118  26.089  -8.796
    1XTA    OA320502  -3.096  25.968  -8.736
    1XTA    CO420503  -3.073  25.979  -8.596
    1XTA    CT120504  -3.068  25.842  -8.527
    1XTA    CL520505  -3.197  25.771  -8.560
    1XTA    CL620506  -3.328  25.843  -8.524
    1XTA    OA420507  -4.250  26.453  -8.013
    1XTA    CO520508  -4.365  26.376  -8.038
    1XTA    HL120509  -4.361  26.303  -8.124
    1XTA    HL220510  -3.270  26.287  -7.432
    1XTA    HL320511  -3.256  26.263  -7.612
    1XTA    HL420512  -3.354  26.399  -7.548
    1XTA    HL520513  -3.657  26.152  -8.609
    1XTA    HL620514  -3.492  26.090  -8.588
    1XTA    HL720515  -3.693  25.932  -8.747
    1XTA    HL820516  -3.546  25.882  -8.703
    1XTA    HL920517  -3.539  26.143  -8.870
    1XTA   HL1020518  -3.551  26.000  -8.945
    1XTA   HL1120519  -3.343  25.909  -8.807
    1XTA   HL1220520  -3.338  25.987  -8.966
    1XTA   HL1320521  -3.292  26.142  -8.701
    1XTA   HL1420522  -3.293  26.201  -8.859
    1XTA   HL1520523  -3.072  26.080  -8.891
    1XTA   HL1620524  -3.073  26.180  -8.766
    1XTA   HL1720525  -2.979  26.031  -8.573
    1XTA   HL1820526  -3.155  26.026  -8.543
    1XTA   HL1920527  -3.214  25.680  -8.507
    1XTA   HL2020528  -3.197  25.754  -8.665
    1XTA   HL2120529  -3.341  25.932  -8.588
    1XTA   HL2220530  -3.332  25.877  -8.421
    1XTA   HL2320531  -3.408  25.774  -8.543
    1XTA   HL2420532  -4.444  26.442  -8.072
    1XTA   HL2520533  -4.409  26.322  -7.958
    1XTA    CO820534  -3.030  25.851  -8.380
    1XTA    CO920535  -2.953  25.768  -8.602
    1XTA    OA620536  -3.110  25.909  -8.321
    1XTA   HL4220537  -2.929  25.891  -8.375
    1XTA   HL4320538  -3.012  25.753  -8.347
    1XTA   HL4820539  -2.934  25.798  -8.735
    1XTA   HL4920540  -2.853  25.797  -8.564
    1XTA     NT20541  -7.179  29.644  -8.881
    1XTA    CN120542  -7.096  29.746  -8.867
    1XTA     C120543  -7.136  29.879  -8.880
    1XTA     C220544  -7.051  29.991  -8.864
    1XTA     C320545  -6.919  29.969  -8.826
    1XTA     C420546  -6.875  29.840  -8.810
    1XTA     C520547  -6.959  29.727  -8.835
    1XTA    CN220548  -7.187  29.560  -8.776
    1XTA     C620549  -7.231  29.607  -8.650
    1XTA     C720550  -7.201  29.533  -8.537
    1XTA     C820551  -7.121  29.418  -8.548
    1XTA     C920552  -7.069  29.381  -8.671
    1XTA    C1020553  -7.100  29.454  -8.790
    1XTA    CN320554  -7.262  29.631  -8.986
    1XTA    C1120555  -7.213  29.623  -9.119
    1XTA    C1220556  -7.299  29.644  -9.228
    1XTA    C1320557  -7.437  29.666  -9.207
    1XTA    C1420558  -7.495  29.668  -9.077
    1XTA    C1520559  -7.405  29.653  -8.967
    1XTA     H120560  -7.240  29.903  -8.904
    1XTA     H220561  -7.083  30.093  -8.883
    1XTA     H320562  -6.771  29.832  -8.783
    1XTA     H420563  -6.918  29.625  -8.814
    1XTA     H520564  -7.290  29.697  -8.645
    1XTA     H620565  -7.247  29.565  -8.445
    1XTA     H720566  -7.018  29.287  -8.683
    1XTA     H820567  -7.078  29.415  -8.887
    1XTA     H920568  -7.106  29.608  -9.131
    1XTA    H1020569  -7.249  29.635  -9.319
    1XTA    H1120570  -7.599  29.700  -9.066
    1XTA    H1220571  -7.439  29.654  -8.863
    1XTA    OA120572  -6.827  30.068  -8.804
    1XTA    CO120573  -6.857  30.205  -8.832
    1XTA    OA220574  -7.099  29.333  -8.439
    1XTA    CO220575  -7.174  29.355  -8.322
    1XTA    CL120576  -7.137  29.222  -8.245
    1XTA    CL220577  -7.001  29.200  -8.175
    1XTA    CL320578  -6.967  29.055  -8.135
    1XTA    CL420579  -7.062  28.995  -8.033
    1XTA    CO320580  -7.024  28.860  -7.967
    1XTA    OA320581  -6.974  28.871  -7.833
    1XTA    CO420582  -6.844  28.918  -7.827
    1XTA    CT120583  -6.783  28.906  -7.687
    1XTA    CL520584  -6.633  28.950  -7.693
    1XTA    CL620585  -6.596  29.086  -7.758
    1XTA    OA420586  -7.524  29.682  -9.306
    1XTA    CO520587  -7.467  29.735  -9.429
    1XTA    HL120588  -7.538  29.733  -9.507
    1XTA    HL220589  -6.927  30.252  -8.767
    1XTA    HL320590  -6.761  30.257  -8.825
    1XTA    HL420591  -6.889  30.216  -8.936
    1XTA    HL520592  -7.144  29.442  -8.268
    1XTA    HL620593  -7.276  29.369  -8.356
    1XTA    HL720594  -7.150  29.129  -8.300
    1XTA    HL820595  -7.209  29.220  -8.165
    1XTA    HL920596  -6.994  29.259  -8.084
    1XTA   HL1020597  -6.917  29.233  -8.234
    1XTA   HL1120598  -6.980  28.983  -8.222
    1XTA   HL1220599  -6.866  29.055  -8.110
    1XTA   HL1320600  -7.167  29.010  -8.062
    1XTA   HL1420601  -7.046  29.060  -7.946
    1XTA   HL1520602  -7.121  28.806  -7.977
    1XTA   HL1620603  -6.962  28.800  -8.037
    1XTA   HL1720604  -6.784  28.862  -7.896
    1XTA   HL1820605  -6.840  29.023  -7.872
    1XTA   HL1920606  -6.579  28.887  -7.756
    1XTA   HL2020607  -6.579  28.925  -7.605
    1XTA   HL2120608  -6.664  29.168  -7.729
    1XTA   HL2220609  -6.600  29.069  -7.868
    1XTA   HL2320610  -6.488  29.107  -7.726
    1XTA   HL2420611  -7.381  29.680  -9.460
    1XTA   HL2520612  -7.431  29.838  -9.402
    1XTA    CO820613  -6.780  28.756  -7.657
    1XTA    CO920614  -6.863  28.995  -7.580
    1XTA    OA620615  -6.730  28.723  -7.525
    1XTA   HL4220616  -6.716  28.704  -7.730
    1XTA   HL4320617  -6.877  28.700  -7.669
    1XTA   HL4820618  -6.837  28.966  -7.480
    1XTA   HL4920619  -6.974  28.971  -7.577
    1XTA     NT20620  -5.879  24.760  -9.664
    1XTA    CN120621  -5.769  24.678  -9.659
    1XTA     C120622  -5.638  24.726  -9.668
    1XTA     C220623  -5.526  24.643  -9.676
    1XTA     C320624  -5.540  24.502  -9.685
    1XTA     C420625  -5.672  24.448  -9.678
    1XTA     C520626  -5.784  24.534  -9.668
    1XTA    CN220627  -5.899  24.858  -9.573
    1XTA     C620628  -5.832  24.981  -9.582
    1XTA     C720629  -5.826  25.079  -9.479
    1XTA     C820630  -5.906  25.055  -9.363
    1XTA     C920631  -5.985  24.938  -9.361
    1XTA    C1020632  -5.981  24.839  -9.466
    1XTA    CN320633  -5.963  24.742  -9.768
    1XTA    C1120634  -5.932  24.802  -9.896
    1XTA    C1220635  -6.027  24.792 -10.003
    1XTA    C1320636  -6.152  24.730  -9.981
    1XTA    C1420637  -6.185  24.686  -9.849
    1XTA    C1520638  -6.089  24.688  -9.749
    1XTA     H120639  -5.629  24.833  -9.654
    1XTA     H220640  -5.425  24.685  -9.680
    1XTA     H320641  -5.690  24.340  -9.672
    1XTA     H420642  -5.881  24.486  -9.664
    1XTA     H520643  -5.772  24.999  -9.666
    1XTA     H620644  -5.773  25.169  -9.489
    1XTA     H720645  -6.047  24.918  -9.276
    1XTA     H820646  -6.036  24.744  -9.463
    1XTA     H920647  -5.833  24.843  -9.897
    1XTA    H1020648  -5.995  24.846 -10.090
    1XTA    H1120649  -6.284  24.643  -9.831
    1XTA    H1220650  -6.114  24.655  -9.647
    1XTA    OA120651  -5.435  24.415  -9.688
    1XTA    CO120652  -5.302  24.463  -9.674
    1XTA    OA220653  -5.926  25.157  -9.269
    1XTA    CO220654  -5.828  25.250  -9.245
    1XTA    CL120655  -5.712  25.186  -9.170
    1XTA    CL220656  -5.763  25.126  -9.040
    1XTA    CL320657  -5.663  25.022  -8.996
    1XTA    CL420658  -5.687  24.883  -9.060
    1XTA    CO320659  -5.580  24.780  -9.016
    1XTA    OA320660  -5.448  24.837  -9.048
    1XTA    CO420661  -5.421  24.844  -9.192
    1XTA    CT120662  -5.288  24.763  -9.216
    1XTA    CL520663  -5.266  24.743  -9.369
    1XTA    CL620664  -5.213  24.870  -9.442
    1XTA    OA420665  -6.243  24.738 -10.085
    1XTA    CO520666  -6.377  24.691 -10.060
    1XTA    HL120667  -6.381  24.579 -10.049
    1XTA    HL220668  -5.298  24.525  -9.588
    1XTA    HL320669  -5.237  24.379  -9.676
    1XTA    HL420670  -5.271  24.529  -9.760
    1XTA    HL520671  -5.787  25.296  -9.335
    1XTA    HL620672  -5.873  25.327  -9.184
    1XTA    HL720673  -5.627  25.247  -9.151
    1XTA    HL820674  -5.676  25.105  -9.231
    1XTA    HL920675  -5.860  25.077  -9.062
    1XTA   HL1020676  -5.782  25.210  -8.971
    1XTA   HL1120677  -5.562  25.060  -9.012
    1XTA   HL1220678  -5.671  24.999  -8.893
    1XTA   HL1320679  -5.691  24.899  -9.167
    1XTA   HL1420680  -5.783  24.837  -9.024
    1XTA   HL1520681  -5.593  24.751  -8.911
    1XTA   HL1620682  -5.605  24.686  -9.070
    1XTA   HL1720683  -5.496  24.791  -9.253
    1XTA   HL1820684  -5.406  24.953  -9.223
    1XTA   HL1920685  -5.363  24.713  -9.410
    1XTA   HL2020686  -5.190  24.661  -9.381
    1XTA   HL2120687  -5.111  24.892  -9.427
    1XTA   HL2220688  -5.278  24.958  -9.419
    1XTA   HL2320689  -5.210  24.853  -9.547
    1XTA   HL2420690  -6.455  24.718 -10.140
    1XTA   HL2520691  -6.415  24.743  -9.972
    1XTA    CO820692  -5.301  24.619  -9.159
    1XTA    CO920693  -5.163  24.823  -9.154
    1XTA    OA620694  -5.136  24.926  -9.181
    1XTA   HL4220695  -5.399  24.585  -9.187
    1XTA   HL4320696  -5.314  24.628  -9.013
    1XTA   HL4820697  -5.092  24.749  -9.195
    1XTA   HL4920698  -5.172  24.815  -9.051
    1XTA     NT20699  -4.010  23.354  -8.581
    1XTA    CN120700  -4.079  23.404  -8.687
    1XTA     C120701  -4.123  23.316  -8.790
    1XTA     C220702  -4.213  23.357  -8.891
    1XTA     C320703  -4.260  23.490  -8.894
    1XTA     C420704  -4.216  23.582  -8.795
    1XTA     C520705  -4.121  23.539  -8.693
    1XTA    CN220706  -4.074  23.305  -8.466
    1XTA     C620707  -4.165  23.197  -8.467
    1XTA     C720708  -4.228  23.153  -8.349
    1XTA     C820709  -4.204  23.211  -8.227
    1XTA     C920710  -4.114  23.326  -8.219
    1XTA    C1020711  -4.049  23.366  -8.342
    1XTA    CN320712  -3.882  23.308  -8.602
    1XTA    C1120713  -3.771  23.387  -8.586
    1XTA    C1220714  -3.642  23.337  -8.592
    1XTA    C1320715  -3.624  23.200  -8.631
    1XTA    C1420716  -3.735  23.116  -8.635
    1XTA    C1520717  -3.865  23.171  -8.626
    1XTA     H120718  -4.094  23.213  -8.780
    1XTA     H220719  -4.248  23.288  -8.963
    1XTA     H320720  -4.249  23.683  -8.785
    1XTA     H420721  -4.075  23.599  -8.612
    1XTA     H520722  -4.185  23.136  -8.552
    1XTA     H620723  -4.291  23.066  -8.361
    1XTA     H720724  -4.089  23.386  -8.128
    1XTA     H820725  -3.989  23.454  -8.333
    1XTA     H920726  -3.783  23.489  -8.554
    1XTA    H1020727  -3.558  23.407  -8.575
    1XTA    H1120728  -3.728  23.006  -8.633
    1XTA    H1220729  -3.950  23.105  -8.636
    1XTA    OA120730  -4.343  23.544  -8.990
    1XTA    CO120731  -4.411  23.450  -9.078
    1XTA    OA220732  -4.268  23.166  -8.118
    1XTA    CO220733  -4.228  23.202  -7.987
    1XTA    CL120734  -4.112  23.111  -7.937
    1XTA    CL220735  -4.026  23.158  -7.813
    1XTA    CL320736  -3.915  23.061  -7.786
    1XTA    CL420737  -3.819  23.123  -7.682
    1XTA    CO320738  -3.712  23.020  -7.630
    1XTA    OA320739  -3.601  23.004  -7.710
    1XTA    CO420740  -3.525  22.893  -7.671
    1XTA    CT120741  -3.400  22.874  -7.759
    1XTA    CL520742  -3.324  22.739  -7.735
    1XTA    CL620743  -3.314  22.702  -7.587
    1XTA    OA420744  -3.491  23.162  -8.642
    1XTA    CO520745  -3.466  23.024  -8.662
    1XTA    HL120746  -3.362  23.008  -8.679
    1XTA    HL220747  -4.469  23.515  -9.147
    1XTA    HL320748  -4.342  23.393  -9.136
    1XTA    HL420749  -4.473  23.382  -9.025
    1XTA    HL520750  -4.204  23.308  -7.983
    1XTA    HL620751  -4.315  23.188  -7.929
    1XTA    HL720752  -4.049  23.075  -8.018
    1XTA    HL820753  -4.168  23.025  -7.906
    1XTA    HL920754  -4.084  23.177  -7.718
    1XTA   HL1020755  -3.992  23.253  -7.848
    1XTA   HL1120756  -3.962  22.976  -7.736
    1XTA   HL1220757  -3.871  23.027  -7.874
    1XTA   HL1320758  -3.885  23.162  -7.605
    1XTA   HL1420759  -3.774  23.214  -7.707
    1XTA   HL1520760  -3.682  23.057  -7.538
    1XTA   HL1620761  -3.770  22.926  -7.618
    1XTA   HL1720762  -3.486  22.910  -7.570
    1XTA   HL1820763  -3.587  22.805  -7.669
    1XTA   HL1920764  -3.221  22.737  -7.779
    1XTA   HL2020765  -3.368  22.651  -7.783
    1XTA   HL2120766  -3.413  22.694  -7.546
    1XTA   HL2220767  -3.266  22.786  -7.532
    1XTA   HL2320768  -3.254  22.613  -7.582
    1XTA   HL2420769  -3.523  22.979  -8.747
    1XTA   HL2520770  -3.487  22.968  -8.570
    1XTA    CO820771  -3.296  22.989  -7.728
    1XTA    CO920772  -3.432  22.887  -7.910
    1XTA    OA620773  -3.563  22.850  -7.944
    1XTA   HL4220774  -3.245  22.960  -7.634
    1XTA   HL4320775  -3.356  23.077  -7.695
    1XTA   HL4820776  -3.353  22.838  -7.973
    1XTA   HL4920777  -3.426  22.995  -7.935
    1XTA     NT20778  -6.456  26.165  -7.604
    1XTA    CN120779  -6.421  26.121  -7.723
    1XTA     C120780  -6.429  26.211  -7.835
    1XTA     C220781  -6.372  26.177  -7.958
    1XTA     C320782  -6.307  26.052  -7.970
    1XTA     C420783  -6.303  25.962  -7.865
    1XTA     C520784  -6.362  25.994  -7.742
    1XTA    CN220785  -6.363  26.224  -7.532
    1XTA     C620786  -6.376  26.363  -7.492
    1XTA     C720787  -6.288  26.419  -7.396
    1XTA     C820788  -6.188  26.342  -7.338
    1XTA     C920789  -6.168  26.205  -7.372
    1XTA    C1020790  -6.253  26.152  -7.473
    1XTA    CN320791  -6.585  26.166  -7.574
    1XTA    C1120792  -6.636  26.051  -7.510
    1XTA    C1220793  -6.770  26.046  -7.469
    1XTA    C1320794  -6.856  26.155  -7.486
    1XTA    C1420795  -6.798  26.271  -7.549
    1XTA    C1520796  -6.671  26.274  -7.597
    1XTA     H120797  -6.482  26.308  -7.819
    1XTA     H220798  -6.384  26.253  -8.040
    1XTA     H320799  -6.250  25.872  -7.883
    1XTA     H420800  -6.359  25.917  -7.662
    1XTA     H520801  -6.470  26.410  -7.519
    1XTA     H620802  -6.300  26.515  -7.359
    1XTA     H720803  -6.091  26.147  -7.326
    1XTA     H820804  -6.243  26.049  -7.503
    1XTA     H920805  -6.574  25.964  -7.508
    1XTA    H1020806  -6.797  25.941  -7.434
    1XTA    H1120807  -6.855  26.359  -7.552
    1XTA    H1220808  -6.629  26.370  -7.618
    1XTA    OA120809  -6.256  26.007  -8.090
    1XTA    CO120810  -6.322  26.057  -8.198
    1XTA    OA220811  -6.105  26.400  -7.240
    1XTA    CO220812  -6.020  26.504  -7.278
    1XTA    CL120813  -5.944  26.542  -7.154
    1XTA    CL220814  -5.832  26.442  -7.111
    1XTA    CL320815  -5.743  26.395  -7.222
    1XTA    CL420816  -5.637  26.291  -7.184
    1XTA    CO320817  -5.542  26.246  -7.297
    1XTA    OA320818  -5.490  26.347  -7.374
    1XTA    CO420819  -5.438  26.307  -7.499
    1XTA    CT120820  -5.383  26.425  -7.575
    1XTA    CL520821  -5.467  26.559  -7.547
    1XTA    CL620822  -5.614  26.545  -7.602
    1XTA    OA420823  -6.987  26.155  -7.439
    1XTA    CO520824  -7.037  26.044  -7.369
    1XTA    HL120825  -7.144  26.049  -7.370
    1XTA    HL220826  -6.434  26.063  -8.191
    1XTA    HL320827  -6.288  26.159  -8.220
    1XTA    HL420828  -6.288  26.005  -8.289
    1XTA    HL520829  -5.968  26.455  -7.368
    1XTA    HL620830  -6.074  26.590  -7.313
    1XTA    HL720831  -6.020  26.562  -7.076
    1XTA    HL820832  -5.915  26.646  -7.172
    1XTA    HL920833  -5.866  26.352  -7.061
    1XTA   HL1020834  -5.768  26.498  -7.039
    1XTA   HL1120835  -5.790  26.347  -7.309
    1XTA   HL1220836  -5.693  26.485  -7.268
    1XTA   HL1320837  -5.679  26.200  -7.142
    1XTA   HL1420838  -5.576  26.333  -7.101
    1XTA   HL1520839  -5.462  26.179  -7.254
    1XTA   HL1620840  -5.603  26.176  -7.355
    1XTA   HL1720841  -5.370  26.232  -7.479
    1XTA   HL1820842  -5.519  26.257  -7.561
    1XTA   HL1920843  -5.433  26.647  -7.592
    1XTA   HL2020844  -5.479  26.579  -7.443
    1XTA   HL2120845  -5.615  26.531  -7.710
    1XTA   HL2220846  -5.683  26.630  -7.578
    1XTA   HL2320847  -5.663  26.458  -7.553
    1XTA   HL2420848  -6.988  26.042  -7.271
    1XTA   HL2520849  -7.004  25.956  -7.413
    1XTA    CO820850  -5.362  26.406  -7.722
    1XTA    CO920851  -5.252  26.460  -7.510
    1XTA    OA620852  -5.272  26.346  -7.743
    1XTA   HL4220853  -5.352  26.499  -7.779
    1XTA   HL4320854  -5.452  26.359  -7.759
    1XTA   HL4820855  -5.155  26.359  -7.521
    1XTA   HL4920856  -5.267  26.480  -7.407
    1XTA     NT20857  -5.222  27.833 -12.063
    1XTA    CN120858  -5.355  27.841 -12.072
    1XTA     C120859  -5.423  27.765 -12.170
    1XTA     C220860  -5.558  27.775 -12.187
    1XTA     C320861  -5.637  27.867 -12.105
    1XTA     C420862  -5.572  27.944 -12.007
    1XTA     C520863  -5.431  27.934 -11.996
    1XTA    CN220864  -5.162  27.800 -11.949
    1XTA     C620865  -5.133  27.666 -11.918
    1XTA     C720866  -5.071  27.626 -11.793
    1XTA     C820867  -5.035  27.720 -11.700
    1XTA     C920868  -5.058  27.856 -11.730
    1XTA    C1020869  -5.119  27.894 -11.851
    1XTA    CN320870  -5.146  27.894 -12.161
    1XTA    C1120871  -5.138  28.038 -12.176
    1XTA    C1220872  -5.073  28.099 -12.287
    1XTA    C1320873  -4.999  28.016 -12.377
    1XTA    C1420874  -4.988  27.880 -12.351
    1XTA    C1520875  -5.065  27.819 -12.247
    1XTA     H120876  -5.357  27.700 -12.230
    1XTA     H220877  -5.614  27.719 -12.255
    1XTA     H320878  -5.632  28.004 -11.941
    1XTA     H420879  -5.379  28.000 -11.928
    1XTA     H520880  -5.143  27.592 -12.002
    1XTA     H620881  -5.037  27.524 -11.773
    1XTA     H720882  -5.016  27.934 -11.665
    1XTA     H820883  -5.122  27.999 -11.872
    1XTA     H920884  -5.195  28.100 -12.109
    1XTA    H1020885  -5.083  28.207 -12.304
    1XTA    H1120886  -4.929  27.813 -12.416
    1XTA    H1220887  -5.079  27.714 -12.240
    1XTA    OA120888  -5.776  27.865 -12.116
    1XTA    CO120889  -5.841  27.785 -12.216
    1XTA    OA220890  -4.964  27.698 -11.583
    1XTA    CO220891  -4.974  27.563 -11.544
    1XTA    CL120892  -4.915  27.557 -11.405
    1XTA    CL220893  -4.942  27.421 -11.345
    1XTA    CL320894  -4.860  27.417 -11.216
    1XTA    CL420895  -4.716  27.385 -11.241
    1XTA    CO320896  -4.633  27.355 -11.112
    1XTA    OA320897  -4.595  27.464 -11.033
    1XTA    CO420898  -4.687  27.489 -10.928
    1XTA    CT120899  -4.619  27.588 -10.825
    1XTA    CL520900  -4.545  27.511 -10.717
    1XTA    CL620901  -4.445  27.407 -10.765
    1XTA    OA420902  -4.939  28.060 -12.492
    1XTA    CO520903  -4.994  28.180 -12.555
    1XTA    HL120904  -4.974  28.187 -12.660
    1XTA    HL220905  -5.785  27.788 -12.313
    1XTA    HL320906  -5.833  27.683 -12.193
    1XTA    HL420907  -5.949  27.814 -12.233
    1XTA    HL520908  -5.082  27.532 -11.548
    1XTA    HL620909  -4.913  27.496 -11.603
    1XTA    HL720910  -4.934  27.629 -11.330
    1XTA    HL820911  -4.806  27.566 -11.432
    1XTA    HL920912  -4.908  27.352 -11.417
    1XTA   HL1020913  -5.051  27.414 -11.329
    1XTA   HL1120914  -4.859  27.511 -11.163
    1XTA   HL1220915  -4.909  27.341 -11.162
    1XTA   HL1320916  -4.667  27.475 -11.284
    1XTA   HL1420917  -4.708  27.312 -11.314
    1XTA   HL1520918  -4.674  27.269 -11.050
    1XTA   HL1620919  -4.540  27.325 -11.154
    1XTA   HL1720920  -4.765  27.539 -10.973
    1XTA   HL1820921  -4.716  27.403 -10.872
    1XTA   HL1920922  -4.617  27.454 -10.659
    1XTA   HL2020923  -4.494  27.576 -10.651
    1XTA   HL2120924  -4.497  27.337 -10.826
    1XTA   HL2220925  -4.402  27.348 -10.695
    1XTA   HL2320926  -4.375  27.451 -10.836
    1XTA   HL2420927  -4.983  28.279 -12.508
    1XTA   HL2520928  -5.101  28.175 -12.556
    1XTA    CO820929  -4.730  27.667 -10.759
    1XTA    CO920930  -4.519  27.680 -10.901
    1XTA    OA620931  -4.564  27.772 -10.942
    1XTA   HL4220932  -4.775  27.727 -10.837
    1XTA   HL4320933  -4.673  27.755 -10.658
    1XTA   HL4820934  -4.466  27.629 -10.980
    1XTA   HL4920935  -4.443  27.688 -10.829
    1XTA     NT20936  -3.162  29.405  -6.786
    1XTA    CN120937  -3.274  29.478  -6.813
    1XTA     C120938  -3.400  29.430  -6.784
    1XTA     C220939  -3.519  29.490  -6.832
    1XTA     C320940  -3.512  29.608  -6.910
    1XTA     C420941  -3.384  29.660  -6.940
    1XTA     C520942  -3.263  29.596  -6.888
    1XTA    CN220943  -3.076  29.369  -6.881
    1XTA     C620944  -2.949  29.419  -6.906
    1XTA     C720945  -2.872  29.383  -7.019
    1XTA     C820946  -2.915  29.269  -7.092
    1XTA     C920947  -3.043  29.214  -7.067
    1XTA    C1020948  -3.121  29.266  -6.962
    1XTA    CN320949  -3.120  29.391  -6.652
    1XTA    C1120950  -3.079  29.508  -6.585
    1XTA    C1220951  -3.031  29.499  -6.453
    1XTA    C1320952  -3.034  29.373  -6.382
    1XTA    C1420953  -3.093  29.263  -6.450
    1XTA    C1520954  -3.135  29.270  -6.584
    1XTA     H120955  -3.409  29.335  -6.735
    1XTA     H220956  -3.606  29.432  -6.821
    1XTA     H320957  -3.378  29.749  -7.007
    1XTA     H420958  -3.159  29.628  -6.906
    1XTA     H520959  -2.922  29.508  -6.846
    1XTA     H620960  -2.782  29.434  -7.045
    1XTA     H720961  -3.097  29.143  -7.128
    1XTA     H820962  -3.214  29.230  -6.938
    1XTA     H920963  -3.089  29.602  -6.636
    1XTA    H1020964  -2.997  29.595  -6.411
    1XTA    H1120965  -3.095  29.168  -6.401
    1XTA    H1220966  -3.174  29.175  -6.631
    1XTA    OA120967  -3.626  29.678  -6.955
    1XTA    CO120968  -3.750  29.625  -6.910
    1XTA    OA220969  -2.841  29.204  -7.182
    1XTA    CO220970  -2.701  29.241  -7.207
    1XTA    CL120971  -2.661  29.170  -7.345
    1XTA    CL220972  -2.744  29.229  -7.461
    1XTA    CL320973  -2.713  29.144  -7.591
    1XTA    CL420974  -2.767  29.004  -7.591
    1XTA    CO320975  -2.920  28.995  -7.609
    1XTA    OA320976  -2.949  28.854  -7.612
    1XTA    CO420977  -3.080  28.827  -7.653
    1XTA    CT120978  -3.109  28.678  -7.646
    1XTA    CL520979  -3.008  28.605  -7.730
    1XTA    CL620980  -2.865  28.600  -7.682
    1XTA    OA420981  -2.985  29.350  -6.256
    1XTA    CO520982  -2.964  29.462  -6.178
    1XTA    HL120983  -3.054  29.519  -6.176
    1XTA    HL220984  -3.738  29.624  -6.799
    1XTA    HL320985  -3.831  29.694  -6.934
    1XTA    HL420986  -3.774  29.527  -6.952
    1XTA    HL520987  -2.693  29.348  -7.211
    1XTA    HL620988  -2.649  29.217  -7.115
    1XTA    HL720989  -2.688  29.065  -7.344
    1XTA    HL820990  -2.553  29.179  -7.357
    1XTA    HL920991  -2.741  29.338  -7.478
    1XTA   HL1020992  -2.848  29.201  -7.435
    1XTA   HL1120993  -2.768  29.192  -7.671
    1XTA   HL1220994  -2.607  29.151  -7.603
    1XTA   HL1320995  -2.736  28.946  -7.505
    1XTA   HL1420996  -2.734  28.946  -7.683
    1XTA   HL1520997  -2.973  29.034  -7.520
    1XTA   HL1620998  -2.949  29.060  -7.697
    1XTA   HL1720999  -3.143  28.883  -7.583
    1XTA   HL1821000  -3.095  28.873  -7.748
    1XTA   HL1921001  -3.011  28.647  -7.830
    1XTA   HL2021002  -3.052  28.512  -7.755
    1XTA   HL2121003  -2.816  28.516  -7.741
    1XTA   HL2221004  -2.864  28.575  -7.575
    1XTA   HL2321005  -2.803  28.687  -7.701
    1XTA   HL2421006  -2.891  29.520  -6.237
    1XTA   HL2521007  -2.936  29.434  -6.074
    1XTA    CO821008  -3.250  28.658  -7.702
    1XTA    CO921009  -3.114  28.619  -7.498
    1XTA    OA621010  -3.121  28.512  -7.500
    1XTA   HL4221011  -3.304  28.596  -7.627
    1XTA   HL4321012  -3.331  28.771  -7.686
    1XTA   HL4821013  -3.200  28.665  -7.445
    1XTA   HL4921014  -3.022  28.634  -7.449
    1XTA     NT21015  -7.077  25.268 -12.190
    1XTA    CN121016  -7.197  25.216 -12.149
    1XTA     C121017  -7.206  25.098 -12.080
    1XTA     C221018  -7.329  25.048 -12.046
    1XTA     C321019  -7.448  25.112 -12.081
    1XTA     C421020  -7.442  25.232 -12.148
    1XTA     C521021  -7.316  25.281 -12.187
    1XTA    CN221022  -6.981  25.198 -12.258
    1XTA     C621023  -6.887  25.111 -12.191
    1XTA     C721024  -6.796  25.037 -12.261
    1XTA     C821025  -6.783  25.061 -12.405
    1XTA     C921026  -6.858  25.161 -12.472
    1XTA    C1021027  -6.956  25.228 -12.400
    1XTA    CN321028  -7.049  25.385 -12.129
    1XTA    C1121029  -7.073  25.504 -12.210
    1XTA    C1221030  -7.043  25.623 -12.145
    1XTA    C1321031  -7.002  25.635 -12.010
    1XTA    C1421032  -6.978  25.516 -11.938
    1XTA    C1521033  -7.000  25.389 -11.998
    1XTA     H121034  -7.110  25.047 -12.049
    1XTA     H221035  -7.329  24.961 -11.978
    1XTA     H321036  -7.526  25.288 -12.179
    1XTA     H421037  -7.311  25.375 -12.242
    1XTA     H521038  -6.887  25.082 -12.083
    1XTA     H621039  -6.733  24.965 -12.217
    1XTA     H721040  -6.844  25.193 -12.579
    1XTA     H821041  -7.023  25.290 -12.452
    1XTA     H921042  -7.104  25.490 -12.314
    1XTA    H1021043  -7.051  25.717 -12.194
    1XTA    H1121044  -6.950  25.530 -11.832
    1XTA    H1221045  -6.981  25.304 -11.943
    1XTA    OA121046  -7.555  25.053 -12.023
    1XTA    CO121047  -7.668  25.042 -12.105
    1XTA    OA221048  -6.680  25.006 -12.484
    1XTA    CO221049  -6.597  24.908 -12.429
    1XTA    CL121050  -6.533  24.839 -12.547
    1XTA    CL221051  -6.459  24.941 -12.646
    1XTA    CL321052  -6.405  24.863 -12.765
    1XTA    CL421053  -6.514  24.818 -12.867
    1XTA    CO321054  -6.464  24.769 -13.007
    1XTA    OA321055  -6.458  24.878 -13.095
    1XTA    CO421056  -6.331  24.926 -13.124
    1XTA    CT121057  -6.344  25.066 -13.193
    1XTA    CL521058  -6.421  25.062 -13.324
    1XTA    CL621059  -6.556  25.000 -13.327
    1XTA    OA421060  -6.964  25.755 -11.959
    1XTA    CO521061  -6.976  25.775 -11.817
    1XTA    HL121062  -7.045  25.705 -11.769
    1XTA    HL221063  -7.622  24.965 -12.167
    1XTA    HL321064  -7.747  24.994 -12.048
    1XTA    HL421065  -7.699  25.132 -12.154
    1XTA    HL521066  -6.520  24.943 -12.356
    1XTA    HL621067  -6.658  24.838 -12.371
    1XTA    HL721068  -6.613  24.791 -12.606
    1XTA    HL821069  -6.468  24.764 -12.511
    1XTA    HL921070  -6.373  24.971 -12.586
    1XTA   HL1021071  -6.524  25.023 -12.678
    1XTA   HL1121072  -6.348  24.949 -12.809
    1XTA   HL1221073  -6.347  24.778 -12.729
    1XTA   HL1321074  -6.585  24.906 -12.876
    1XTA   HL1421075  -6.571  24.738 -12.818
    1XTA   HL1521076  -6.371  24.712 -13.000
    1XTA   HL1621077  -6.542  24.696 -13.042
    1XTA   HL1721078  -6.285  24.934 -13.026
    1XTA   HL1821079  -6.270  24.853 -13.173
    1XTA   HL1921080  -6.360  25.024 -13.404
    1XTA   HL2021081  -6.440  25.164 -13.352
    1XTA   HL2121082  -6.610  25.022 -13.415
    1XTA   HL2221083  -6.611  25.037 -13.244
    1XTA   HL2321084  -6.551  24.889 -13.309
    1XTA   HL2421085  -7.019  25.869 -11.791
    1XTA   HL2521086  -6.883  25.747 -11.768
    1XTA    CO821087  -6.200  25.114 -13.214
    1XTA    CO921088  -6.418  25.157 -13.089
    1XTA    OA621089  -6.427  25.291 -13.116
    1XTA   HL4221090  -6.204  25.195 -13.281
    1XTA   HL4321091  -6.152  25.051 -13.285
    1XTA   HL4821092  -6.406  25.133 -12.985
    1XTA   HL4921093  -6.520  25.126 -13.099
    1XTA     NT21094  -7.336  28.307  -7.037
    1XTA    CN121095  -7.447  28.241  -7.010
    1XTA     C121096  -7.494  28.218  -6.877
    1XTA     C221097  -7.599  28.131  -6.853
    1XTA     C321098  -7.667  28.065  -6.953
    1XTA     C421099  -7.626  28.089  -7.085
    1XTA     C521100  -7.518  28.177  -7.110
    1XTA    CN221101  -7.345  28.444  -7.057
    1XTA     C621102  -7.342  28.535  -6.950
    1XTA     C721103  -7.372  28.671  -6.977
    1XTA     C821104  -7.388  28.724  -7.108
    1XTA     C921105  -7.374  28.631  -7.209
    1XTA    C1021106  -7.367  28.492  -7.187
    1XTA    CN321107  -7.215  28.247  -7.049
    1XTA    C1121108  -7.156  28.193  -6.934
    1XTA    C1221109  -7.031  28.131  -6.944
    1XTA    C1321110  -6.958  28.126  -7.066
    1XTA    C1421111  -7.017  28.190  -7.177
    1XTA    C1521112  -7.138  28.256  -7.170
    1XTA     H121113  -7.455  28.277  -6.800
    1XTA     H221114  -7.636  28.127  -6.751
    1XTA     H321115  -7.675  28.048  -7.171
    1XTA     H421116  -7.486  28.184  -7.212
    1XTA     H521117  -7.332  28.513  -6.848
    1XTA     H621118  -7.372  28.744  -6.894
    1XTA     H721119  -7.379  28.662  -7.312
    1XTA     H821120  -7.377  28.425  -7.270
    1XTA     H921121  -7.209  28.180  -6.838
    1XTA    H1021122  -6.975  28.096  -6.863
    1XTA    H1121123  -6.964  28.192  -7.272
    1XTA    H1221124  -7.189  28.300  -7.261
    1XTA    OA121125  -7.777  27.988  -6.927
    1XTA    CO121126  -7.883  28.006  -7.025
    1XTA    OA221127  -7.400  28.856  -7.144
    1XTA    CO221128  -7.372  28.952  -7.056
    1XTA    CL121129  -7.358  29.090  -7.110
    1XTA    CL221130  -7.248  29.093  -7.218
    1XTA    CL321131  -7.236  29.232  -7.271
    1XTA    CL421132  -7.151  29.329  -7.184
    1XTA    CO321133  -7.103  29.443  -7.283
    1XTA    OA321134  -6.982  29.397  -7.344
    1XTA    CO421135  -6.981  29.422  -7.484
    1XTA    CT121136  -6.870  29.354  -7.556
    1XTA    CL521137  -6.866  29.385  -7.705
    1XTA    CL621138  -6.882  29.540  -7.735
    1XTA    OA421139  -6.830  28.081  -7.069
    1XTA    CO521140  -6.790  28.009  -7.189
    1XTA    HL121141  -6.772  28.072  -7.275
    1XTA    HL221142  -7.979  27.944  -6.997
    1XTA    HL321143  -7.913  28.114  -7.028
    1XTA    HL421144  -7.845  27.988  -7.126
    1XTA    HL521145  -7.445  28.957  -6.978
    1XTA    HL621146  -7.280  28.924  -7.004
    1XTA    HL721147  -7.338  29.166  -7.035
    1XTA    HL821148  -7.447  29.128  -7.151
    1XTA    HL921149  -7.279  29.033  -7.304
    1XTA   HL1021150  -7.155  29.057  -7.177
    1XTA   HL1121151  -7.193  29.230  -7.367
    1XTA   HL1221152  -7.331  29.281  -7.300
    1XTA   HL1321153  -7.073  29.277  -7.126
    1XTA   HL1421154  -7.213  29.369  -7.103
    1XTA   HL1521155  -7.184  29.461  -7.363
    1XTA   HL1621156  -7.092  29.543  -7.237
    1XTA   HL1721157  -7.076  29.400  -7.539
    1XTA   HL1821158  -6.950  29.532  -7.487
    1XTA   HL1921159  -6.944  29.323  -7.759
    1XTA   HL2021160  -6.776  29.346  -7.744
    1XTA   HL2121161  -6.882  29.561  -7.840
    1XTA   HL2221162  -6.801  29.597  -7.695
    1XTA   HL2321163  -6.978  29.576  -7.702
    1XTA   HL2421164  -6.855  27.927  -7.214
    1XTA   HL2521165  -6.694  27.979  -7.160
    1XTA    CO821166  -6.902  29.201  -7.531
    1XTA    CO921167  -6.735  29.387  -7.496
    1XTA    OA621168  -6.854  29.132  -7.601
    1XTA   HL4221169  -7.009  29.197  -7.524
    1XTA   HL4321170  -6.862  29.177  -7.438
    1XTA   HL4821171  -6.725  29.525  -7.485
    1XTA   HL4921172  -6.761  29.359  -7.391
    1XTA     NT21173  -2.899  24.400  -6.793
    1XTA    CN121174  -2.862  24.411  -6.923
    1XTA     C121175  -2.857  24.537  -6.979
    1XTA     C221176  -2.837  24.549  -7.122
    1XTA     C321177  -2.826  24.435  -7.201
    1XTA     C421178  -2.815  24.305  -7.140
    1XTA     C521179  -2.842  24.294  -6.999
    1XTA    CN221180  -3.019  24.349  -6.758
    1XTA     C621181  -3.041  24.217  -6.714
    1XTA     C721182  -3.167  24.164  -6.684
    1XTA     C821183  -3.284  24.245  -6.684
    1XTA     C921184  -3.266  24.374  -6.741
    1XTA    C1021185  -3.142  24.425  -6.772
    1XTA    CN321186  -2.798  24.398  -6.703
    1XTA    C1121187  -2.775  24.520  -6.628
    1XTA    C1221188  -2.674  24.521  -6.532
    1XTA    C1321189  -2.594  24.410  -6.506
    1XTA    C1421190  -2.618  24.285  -6.581
    1XTA    C1521191  -2.722  24.281  -6.674
    1XTA     H121192  -2.874  24.625  -6.914
    1XTA     H221193  -2.838  24.646  -7.166
    1XTA     H321194  -2.790  24.216  -7.198
    1XTA     H421195  -2.848  24.203  -6.952
    1XTA     H521196  -2.961  24.145  -6.704
    1XTA     H621197  -3.171  24.061  -6.652
    1XTA     H721198  -3.362  24.434  -6.749
    1XTA     H821199  -3.141  24.520  -6.816
    1XTA     H921200  -2.820  24.611  -6.654
    1XTA    H1021201  -2.651  24.615  -6.474
    1XTA    H1121202  -2.552  24.198  -6.569
    1XTA    H1221203  -2.735  24.196  -6.726
    1XTA    OA121204  -2.816  24.444  -7.337
    1XTA    CO121205  -2.892  24.348  -7.398
    1XTA    OA221206  -3.396  24.199  -6.635
    1XTA    CO221207  -3.443  24.084  -6.698
    1XTA    CL121208  -3.474  23.970  -6.597
    1XTA    CL221209  -3.539  23.838  -6.654
    1XTA    CL321210  -3.440  23.760  -6.736
    1XTA    CL421211  -3.502  23.616  -6.756
    1XTA    CO321212  -3.488  23.515  -6.638
    1XTA    OA321213  -3.355  23.474  -6.623
    1XTA    CO421214  -3.324  23.368  -6.714
    1XTA    CT121215  -3.186  23.303  -6.691
    1XTA    CL521216  -3.169  23.184  -6.788
    1XTA    CL621217  -3.176  23.210  -6.940
    1XTA    OA421218  -2.494  24.409  -6.406
    1XTA    CO521219  -2.366  24.462  -6.457
    1XTA    HL121220  -2.382  24.543  -6.527
    1XTA    HL221221  -2.992  24.360  -7.360
    1XTA    HL321222  -2.894  24.366  -7.504
    1XTA    HL421223  -2.849  24.247  -7.392
    1XTA    HL521224  -3.542  24.099  -6.739
    1XTA    HL621225  -3.381  24.047  -6.777
    1XTA    HL721226  -3.543  24.009  -6.524
    1XTA    HL821227  -3.387  23.950  -6.527
    1XTA    HL921228  -3.638  23.871  -6.711
    1XTA   HL1021229  -3.572  23.796  -6.557
    1XTA   HL1121230  -3.422  23.797  -6.833
    1XTA   HL1221231  -3.341  23.753  -6.701
    1XTA   HL1321232  -3.460  23.560  -6.837
    1XTA   HL1421233  -3.605  23.627  -6.791
    1XTA   HL1521234  -3.527  23.560  -6.550
    1XTA   HL1621235  -3.547  23.423  -6.654
    1XTA   HL1721236  -3.397  23.288  -6.696
    1XTA   HL1821237  -3.325  23.410  -6.811
    1XTA   HL1921238  -3.254  23.116  -6.781
    1XTA   HL2021239  -3.079  23.133  -6.759
    1XTA   HL2121240  -3.265  23.269  -6.968
    1XTA   HL2221241  -3.184  23.119  -6.989
    1XTA   HL2321242  -3.091  23.258  -6.987
    1XTA   HL2421243  -2.315  24.386  -6.513
    1XTA   HL2521244  -2.293  24.495  -6.378
    1XTA    CO821245  -3.160  23.256  -6.548
    1XTA    CO921246  -3.079  23.403  -6.717
    1XTA    OA621247  -3.214  23.161  -6.536
    1XTA   HL4221248  -3.192  23.334  -6.481
    1XTA   HL4321249  -3.060  23.226  -6.531
    1XTA   HL4821250  -3.102  23.448  -6.848
    1XTA   HL4921251  -3.101  23.491  -6.650
    1XTA     NT21252  -6.188  24.930  -8.878
    1XTA    CN121253  -6.254  24.960  -8.768
    1XTA     C121254  -6.357  24.879  -8.727
    1XTA     C221255  -6.414  24.893  -8.602
    1XTA     C321256  -6.384  24.997  -8.520
    1XTA     C421257  -6.285  25.087  -8.568
    1XTA     C521258  -6.220  25.072  -8.690
    1XTA    CN221259  -6.112  24.815  -8.875
    1XTA     C621260  -5.981  24.818  -8.838
    1XTA     C721261  -5.905  24.698  -8.843
    1XTA     C821262  -5.962  24.577  -8.881
    1XTA     C921263  -6.097  24.578  -8.914
    1XTA    C1021264  -6.172  24.694  -8.908
    1XTA    CN321265  -6.240  24.982  -8.996
    1XTA    C1121266  -6.174  25.097  -9.047
    1XTA    C1221267  -6.220  25.149  -9.168
    1XTA    C1321268  -6.319  25.082  -9.241
    1XTA    C1421269  -6.390  24.977  -9.179
    1XTA    C1521270  -6.349  24.923  -9.062
    1XTA     H121271  -6.387  24.799  -8.785
    1XTA     H221272  -6.481  24.821  -8.574
    1XTA     H321273  -6.252  25.160  -8.498
    1XTA     H421274  -6.148  25.143  -8.718
    1XTA     H521275  -5.935  24.922  -8.828
    1XTA     H621276  -5.792  24.714  -8.821
    1XTA     H721277  -6.153  24.487  -8.937
    1XTA     H821278  -6.269  24.703  -8.952
    1XTA     H921279  -6.085  25.142  -9.001
    1XTA    H1021280  -6.174  25.237  -9.205
    1XTA    H1121281  -6.462  24.925  -9.239
    1XTA    H1221282  -6.415  24.842  -9.028
    1XTA    OA121283  -6.451  25.027  -8.404
    1XTA    CO121284  -6.492  24.914  -8.335
    1XTA    OA221285  -5.895  24.452  -8.887
    1XTA    CO221286  -5.753  24.459  -8.860
    1XTA    CL121287  -5.689  24.323  -8.868
    1XTA    CL221288  -5.563  24.316  -8.789
    1XTA    CL321289  -5.455  24.408  -8.848
    1XTA    CL421290  -5.322  24.415  -8.767
    1XTA    CO321291  -5.326  24.491  -8.629
    1XTA    OA321292  -5.367  24.625  -8.634
    1XTA    CO421293  -5.283  24.703  -8.708
    1XTA    CT121294  -5.297  24.846  -8.652
    1XTA    CL521295  -5.445  24.903  -8.679
    1XTA    CL621296  -5.556  24.822  -8.618
    1XTA    OA421297  -6.361  25.135  -9.357
    1XTA    CO521298  -6.255  25.181  -9.435
    1XTA    HL121299  -6.174  25.106  -9.435
    1XTA    HL221300  -6.418  24.847  -8.315
    1XTA    HL321301  -6.524  24.954  -8.237
    1XTA    HL421302  -6.575  24.863  -8.384
    1XTA    HL521303  -5.711  24.530  -8.933
    1XTA    HL621304  -5.745  24.510  -8.768
    1XTA    HL721305  -5.664  24.305  -8.976
    1XTA    HL821306  -5.764  24.245  -8.834
    1XTA    HL921307  -5.522  24.216  -8.787
    1XTA   HL1021308  -5.584  24.345  -8.688
    1XTA   HL1121309  -5.431  24.359  -8.936
    1XTA   HL1221310  -5.502  24.506  -8.870
    1XTA   HL1321311  -5.257  24.480  -8.831
    1XTA   HL1421312  -5.289  24.315  -8.758
    1XTA   HL1521313  -5.385  24.428  -8.568
    1XTA   HL1621314  -5.224  24.494  -8.583
    1XTA   HL1721315  -5.176  24.674  -8.709
    1XTA   HL1821316  -5.310  24.707  -8.810
    1XTA   HL1921317  -5.460  24.913  -8.785
    1XTA   HL2021318  -5.454  25.004  -8.654
    1XTA   HL2121319  -5.531  24.797  -8.516
    1XTA   HL2221320  -5.574  24.730  -8.677
    1XTA   HL2321321  -5.649  24.884  -8.625
    1XTA   HL2421322  -6.210  25.269  -9.396
    1XTA   HL2521323  -6.288  25.187  -9.538
    1XTA    CO821324  -5.180  24.928  -8.724
    1XTA    CO921325  -5.260  24.850  -8.502
    1XTA    OA621326  -5.158  24.818  -8.485
    1XTA   HL4221327  -5.171  25.021  -8.665
    1XTA   HL4321328  -5.053  24.864  -8.704
    1XTA   HL4821329  -5.342  24.789  -8.453
    1XTA   HL4921330  -5.282  24.950  -8.472
    1XTA     NT21331  -3.880  29.335  -4.067
    1XTA    CN121332  -3.848  29.234  -4.151
    1XTA     C121333  -3.938  29.147  -4.219
    1XTA     C221334  -3.893  29.048  -4.309
    1XTA     C321335  -3.754  29.036  -4.338
    1XTA     C421336  -3.670  29.125  -4.273
    1XTA     C521337  -3.713  29.223  -4.185
    1XTA    CN221338  -4.006  29.390  -4.062
    1XTA     C621339  -4.117  29.319  -4.008
    1XTA     C721340  -4.250  29.371  -4.008
    1XTA     C821341  -4.275  29.482  -4.080
    1XTA     C921342  -4.165  29.553  -4.143
    1XTA    C1021343  -4.031  29.504  -4.136
    1XTA    CN321344  -3.812  29.343  -3.956
    1XTA    C1121345  -3.750  29.465  -3.927
    1XTA    C1221346  -3.668  29.487  -3.812
    1XTA    C1321347  -3.660  29.386  -3.714
    1XTA    C1421348  -3.724  29.268  -3.750
    1XTA    C1521349  -3.805  29.243  -3.863
    1XTA     H121350  -4.045  29.148  -4.196
    1XTA     H221351  -3.958  28.984  -4.353
    1XTA     H321352  -3.562  29.121  -4.296
    1XTA     H421353  -3.630  29.293  -4.149
    1XTA     H521354  -4.104  29.219  -3.963
    1XTA     H621355  -4.337  29.325  -3.958
    1XTA     H721356  -4.181  29.636  -4.204
    1XTA     H821357  -3.958  29.553  -4.198
    1XTA     H921358  -3.764  29.549  -3.997
    1XTA    H1021359  -3.633  29.588  -3.800
    1XTA    H1121360  -3.718  29.189  -3.678
    1XTA    H1221361  -3.849  29.151  -3.884
    1XTA    OA121362  -3.701  28.938  -4.423
    1XTA    CO121363  -3.769  28.900  -4.542
    1XTA    OA221364  -4.404  29.517  -4.096
    1XTA    CO221365  -4.445  29.558  -4.227
    1XTA    CL121366  -4.566  29.644  -4.208
    1XTA    CL221367  -4.604  29.690  -4.344
    1XTA    CL321368  -4.651  29.829  -4.331
    1XTA    CL421369  -4.698  29.869  -4.466
    1XTA    CO321370  -4.695  30.018  -4.487
    1XTA    OA321371  -4.776  30.068  -4.598
    1XTA    CO421372  -4.917  30.068  -4.575
    1XTA    CT121373  -4.987  30.058  -4.718
    1XTA    CL521374  -5.140  30.073  -4.717
    1XTA    CL621375  -5.198  30.184  -4.626
    1XTA    OA421376  -3.584  29.394  -3.604
    1XTA    CO521377  -3.495  29.508  -3.594
    1XTA    HL121378  -3.535  29.602  -3.607
    1XTA    HL221379  -3.873  28.879  -4.510
    1XTA    HL321380  -3.760  28.976  -4.624
    1XTA    HL421381  -3.736  28.811  -4.593
    1XTA    HL521382  -4.363  29.610  -4.278
    1XTA    HL621383  -4.466  29.468  -4.283
    1XTA    HL721384  -4.540  29.729  -4.138
    1XTA    HL821385  -4.651  29.597  -4.158
    1XTA    HL921386  -4.677  29.621  -4.376
    1XTA   HL1021387  -4.522  29.682  -4.407
    1XTA   HL1121388  -4.740  29.838  -4.269
    1XTA   HL1221389  -4.577  29.903  -4.301
    1XTA   HL1321390  -4.802  29.834  -4.491
    1XTA   HL1421391  -4.620  29.822  -4.540
    1XTA   HL1521392  -4.726  30.067  -4.393
    1XTA   HL1621393  -4.590  30.061  -4.489
    1XTA   HL1721394  -4.945  29.991  -4.502
    1XTA   HL1821395  -4.937  30.160  -4.524
    1XTA   HL1921396  -5.181  29.976  -4.678
    1XTA   HL2021397  -5.175  30.079  -4.825
    1XTA   HL2121398  -5.305  30.184  -4.631
    1XTA   HL2221399  -5.160  30.282  -4.661
    1XTA   HL2321400  -5.165  30.174  -4.519
    1XTA   HL2421401  -3.415  29.494  -3.670
    1XTA   HL2521402  -3.450  29.522  -3.492
    1XTA    CO821403  -4.944  29.924  -4.775
    1XTA    CO921404  -4.942  30.170  -4.812
    1XTA    OA621405  -5.031  29.885  -4.876
    1XTA   HL4221406  -4.951  29.854  -4.687
    1XTA   HL4321407  -4.835  29.930  -4.810
    1XTA   HL4821408  -4.987  30.261  -4.781
    1XTA   HL4921409  -4.836  30.173  -4.824
    1XTA     NT21410  -1.915  29.619 -10.418
    1XTA    CN121411  -1.925  29.752 -10.389
    1XTA     C121412  -1.948  29.788 -10.258
    1XTA     C221413  -1.963  29.921 -10.223
    1XTA     C321414  -1.971  30.021 -10.323
    1XTA     C421415  -1.943  29.987 -10.456
    1XTA     C521416  -1.924  29.852 -10.486
    1XTA    CN221417  -1.782  29.571 -10.423
    1XTA     C621418  -1.746  29.460 -10.346
    1XTA     C721419  -1.628  29.395 -10.371
    1XTA     C821420  -1.540  29.443 -10.468
    1XTA     C921421  -1.572  29.554 -10.552
    1XTA    C1021422  -1.687  29.623 -10.516
    1XTA    CN321423  -2.021  29.547 -10.460
    1XTA    C1121424  -2.110  29.485 -10.369
    1XTA    C1221425  -2.217  29.411 -10.416
    1XTA    C1321426  -2.251  29.402 -10.552
    1XTA    C1421427  -2.162  29.472 -10.642
    1XTA    C1521428  -2.046  29.536 -10.601
    1XTA     H121429  -1.943  29.709 -10.185
    1XTA     H221430  -1.986  29.953 -10.124
    1XTA     H321431  -1.925  30.058 -10.533
    1XTA     H421432  -1.902  29.824 -10.584
    1XTA     H521433  -1.811  29.428 -10.268
    1XTA     H621434  -1.595  29.310 -10.313
    1XTA     H721435  -1.509  29.600 -10.627
    1XTA     H821436  -1.714  29.717 -10.567
    1XTA     H921437  -2.101  29.481 -10.266
    1XTA    H1021438  -2.283  29.365 -10.341
    1XTA    H1121439  -2.184  29.467 -10.746
    1XTA    H1221440  -1.974  29.575 -10.664
    1XTA    OA121441  -1.977  30.149 -10.280
    1XTA    CO121442  -1.963  30.250 -10.380
    1XTA    OA221443  -1.422  29.375 -10.484
    1XTA    CO221444  -1.356  29.402 -10.612
    1XTA    CL121445  -1.228  29.310 -10.611
    1XTA    CL221446  -1.160  29.311 -10.749
    1XTA    CL321447  -1.065  29.190 -10.763
    1XTA    CL421448  -1.019  29.191 -10.906
    1XTA    CO321449  -0.960  29.327 -10.949
    1XTA    OA321450  -0.853  29.354 -10.860
    1XTA    CO421451  -0.755  29.455 -10.889
    1XTA    CT121452  -0.723  29.507 -10.740
    1XTA    CL521453  -0.613  29.619 -10.739
    1XTA    CL621454  -0.630  29.746 -10.823
    1XTA    OA421455  -2.359  29.327 -10.583
    1XTA    CO521456  -2.410  29.339 -10.716
    1XTA    HL121457  -2.352  29.282 -10.784
    1XTA    HL221458  -1.973  30.363 -10.351
    1XTA    HL321459  -1.868  30.247 -10.428
    1XTA    HL421460  -2.029  30.233 -10.462
    1XTA    HL521461  -1.423  29.378 -10.699
    1XTA    HL621462  -1.330  29.508 -10.618
    1XTA    HL721463  -1.246  29.204 -10.596
    1XTA    HL821464  -1.161  29.334 -10.532
    1XTA    HL921465  -1.111  29.416 -10.763
    1XTA   HL1021466  -1.232  29.306 -10.830
    1XTA   HL1121467  -0.979  29.204 -10.690
    1XTA   HL1221468  -1.104  29.093 -10.735
    1XTA   HL1321469  -1.099  29.163 -10.971
    1XTA   HL1421470  -0.946  29.112 -10.919
    1XTA   HL1521471  -0.927  29.324 -11.054
    1XTA   HL1621472  -1.037  29.403 -10.933
    1XTA   HL1721473  -0.667  29.419 -10.936
    1XTA   HL1821474  -0.791  29.535 -10.950
    1XTA   HL1921475  -0.516  29.567 -10.768
    1XTA   HL2021476  -0.579  29.642 -10.636
    1XTA   HL2121477  -0.604  29.732 -10.921
    1XTA   HL2221478  -0.555  29.815 -10.788
    1XTA   HL2321479  -0.724  29.790 -10.805
    1XTA   HL2421480  -2.408  29.444 -10.750
    1XTA   HL2521481  -2.514  29.307 -10.718
    1XTA    CO821482  -0.678  29.385 -10.656
    1XTA    CO921483  -0.839  29.557 -10.666
    1XTA    OA621484  -0.895  29.672 -10.724
    1XTA   HL4221485  -0.757  29.309 -10.648
    1XTA   HL4321486  -0.591  29.335 -10.698
    1XTA   HL4821487  -0.811  29.574 -10.566
    1XTA   HL4921488  -0.916  29.474 -10.657
    1XTA     NT21489  -8.224  25.938  -9.255
    1XTA    CN121490  -8.179  26.068  -9.275
    1XTA     C121491  -8.261  26.178  -9.264
    1XTA     C221492  -8.219  26.312  -9.248
    1XTA     C321493  -8.079  26.339  -9.261
    1XTA     C421494  -7.993  26.225  -9.282
    1XTA     C521495  -8.038  26.094  -9.279
    1XTA    CN221496  -8.225  25.898  -9.122
    1XTA     C621497  -8.108  25.852  -9.055
    1XTA     C721498  -8.118  25.809  -8.925
    1XTA     C821499  -8.241  25.807  -8.863
    1XTA     C921500  -8.354  25.860  -8.925
    1XTA    C1021501  -8.350  25.903  -9.055
    1XTA    CN321502  -8.254  25.847  -9.344
    1XTA    C1121503  -8.164  25.797  -9.436
    1XTA    C1221504  -8.201  25.695  -9.522
    1XTA    C1321505  -8.328  25.642  -9.521
    1XTA    C1421506  -8.421  25.688  -9.431
    1XTA    C1521507  -8.386  25.795  -9.342
    1XTA     H121508  -8.370  26.158  -9.263
    1XTA     H221509  -8.291  26.395  -9.258
    1XTA     H321510  -7.881  26.241  -9.284
    1XTA     H421511  -7.955  26.019  -9.297
    1XTA     H521512  -8.007  25.851  -9.093
    1XTA     H621513  -8.024  25.760  -8.892
    1XTA     H721514  -8.445  25.862  -8.862
    1XTA     H821515  -8.439  25.933  -9.106
    1XTA     H921516  -8.062  25.831  -9.449
    1XTA    H1021517  -8.136  25.670  -9.590
    1XTA    H1121518  -8.518  25.657  -9.430
    1XTA    H1221519  -8.462  25.820  -9.261
    1XTA    OA121520  -8.026  26.460  -9.276
    1XTA    CO121521  -8.106  26.563  -9.218
    1XTA    OA221522  -8.266  25.736  -8.751
    1XTA    CO221523  -8.171  25.642  -8.704
    1XTA    CL121524  -8.245  25.526  -8.639
    1XTA    CL221525  -8.309  25.434  -8.744
    1XTA    CL321526  -8.238  25.301  -8.776
    1XTA    CL421527  -8.309  25.209  -8.868
    1XTA    CO321528  -8.322  25.265  -9.012
    1XTA    OA321529  -8.390  25.177  -9.100
    1XTA    CO421530  -8.314  25.060  -9.126
    1XTA    CT121531  -8.362  24.965  -9.241
    1XTA    CL521532  -8.472  24.869  -9.202
    1XTA    CL621533  -8.587  24.934  -9.119
    1XTA    OA421534  -8.382  25.552  -9.616
    1XTA    CO521535  -8.294  25.537  -9.736
    1XTA    HL121536  -8.331  25.488  -9.821
    1XTA    HL221537  -8.046  26.658  -9.230
    1XTA    HL321538  -8.201  26.595  -9.270
    1XTA    HL421539  -8.123  26.542  -9.109
    1XTA    HL521540  -8.100  25.613  -8.778
    1XTA    HL621541  -8.109  25.692  -8.629
    1XTA    HL721542  -8.318  25.573  -8.569
    1XTA    HL821543  -8.184  25.463  -8.577
    1XTA    HL921544  -8.335  25.496  -8.828
    1XTA   HL1021545  -8.406  25.396  -8.705
    1XTA   HL1121546  -8.135  25.316  -8.806
    1XTA   HL1221547  -8.222  25.241  -8.686
    1XTA   HL1321548  -8.401  25.183  -8.814
    1XTA   HL1421549  -8.245  25.114  -8.876
    1XTA   HL1521550  -8.391  25.346  -9.004
    1XTA   HL1621551  -8.231  25.305  -9.056
    1XTA   HL1721552  -8.214  25.086  -9.144
    1XTA   HL1821553  -8.308  24.997  -9.030
    1XTA   HL1921554  -8.422  24.784  -9.147
    1XTA   HL2021555  -8.516  24.836  -9.300
    1XTA   HL2121556  -8.672  24.863  -9.107
    1XTA   HL2221557  -8.624  25.018  -9.178
    1XTA   HL2321558  -8.556  24.964  -9.019
    1XTA   HL2421559  -8.195  25.492  -9.709
    1XTA   HL2521560  -8.265  25.630  -9.777
    1XTA    CO821561  -8.238  24.879  -9.288
    1XTA    CO921562  -8.412  25.039  -9.367
    1XTA    OA621563  -8.269  24.798  -9.407
    1XTA   HL4221564  -8.213  24.818  -9.198
    1XTA   HL4321565  -8.147  24.944  -9.304
    1XTA   HL4821566  -8.332  25.108  -9.398
    1XTA   HL4921567  -8.422  24.955  -9.435
    1XTA     NT21568  -5.844  27.482  -7.613
    1XTA    CN121569  -5.827  27.502  -7.479
    1XTA     C121570  -5.703  27.548  -7.440
    1XTA     C221571  -5.672  27.542  -7.302
    1XTA     C321572  -5.768  27.500  -7.203
    1XTA     C421573  -5.898  27.458  -7.249
    1XTA     C521574  -5.922  27.453  -7.389
    1XTA    CN221575  -5.862  27.355  -7.658
    1XTA     C621576  -5.992  27.302  -7.678
    1XTA     C721577  -6.004  27.174  -7.732
    1XTA     C821578  -5.888  27.095  -7.751
    1XTA     C921579  -5.758  27.146  -7.731
    1XTA    C1021580  -5.747  27.277  -7.674
    1XTA    CN321581  -5.843  27.586  -7.695
    1XTA    C1121582  -5.726  27.630  -7.759
    1XTA    C1221583  -5.736  27.727  -7.860
    1XTA    C1321584  -5.862  27.783  -7.896
    1XTA    C1421585  -5.981  27.732  -7.836
    1XTA    C1521586  -5.971  27.634  -7.734
    1XTA     H121587  -5.630  27.584  -7.510
    1XTA     H221588  -5.577  27.574  -7.273
    1XTA     H321589  -5.971  27.422  -7.175
    1XTA     H421590  -6.016  27.415  -7.424
    1XTA     H521591  -6.082  27.368  -7.660
    1XTA     H621592  -6.101  27.137  -7.759
    1XTA     H721593  -5.669  27.095  -7.771
    1XTA     H821594  -5.647  27.319  -7.658
    1XTA     H921595  -5.634  27.587  -7.730
    1XTA    H1021596  -5.645  27.759  -7.900
    1XTA    H1121597  -6.072  27.775  -7.858
    1XTA    H1221598  -6.052  27.597  -7.683
    1XTA    OA121599  -5.736  27.475  -7.071
    1XTA    CO121600  -5.603  27.429  -7.043
    1XTA    OA221601  -5.887  26.972  -7.804
    1XTA    CO221602  -6.003  26.922  -7.867
    1XTA    CL121603  -5.971  26.775  -7.906
    1XTA    CL221604  -6.093  26.670  -7.910
    1XTA    CL321605  -6.196  26.715  -8.018
    1XTA    CL421606  -6.313  26.622  -8.041
    1XTA    CO321607  -6.399  26.588  -7.917
    1XTA    OA321608  -6.515  26.515  -7.973
    1XTA    CO421609  -6.618  26.594  -8.028
    1XTA    CT121610  -6.735  26.517  -8.096
    1XTA    CL521611  -6.692  26.456  -8.230
    1XTA    CL621612  -6.554  26.394  -8.236
    1XTA    OA421613  -5.860  27.871  -8.005
    1XTA    CO521614  -5.987  27.876  -8.073
    1XTA    HL121615  -6.017  27.781  -8.106
    1XTA    HL221616  -5.597  27.411  -6.936
    1XTA    HL321617  -5.595  27.339  -7.108
    1XTA    HL421618  -5.517  27.505  -7.067
    1XTA    HL521619  -6.088  26.910  -7.794
    1XTA    HL621620  -6.041  26.980  -7.948
    1XTA    HL721621  -5.896  26.748  -7.835
    1XTA    HL821622  -5.931  26.772  -8.002
    1XTA    HL921623  -6.145  26.657  -7.821
    1XTA   HL1021624  -6.049  26.580  -7.943
    1XTA   HL1121625  -6.230  26.817  -7.992
    1XTA   HL1221626  -6.143  26.723  -8.118
    1XTA   HL1321627  -6.272  26.522  -8.069
    1XTA   HL1421628  -6.358  26.653  -8.132
    1XTA   HL1521629  -6.341  26.526  -7.851
    1XTA   HL1621630  -6.434  26.680  -7.865
    1XTA   HL1721631  -6.664  26.649  -7.945
    1XTA   HL1821632  -6.572  26.667  -8.102
    1XTA   HL1921633  -6.688  26.530  -8.301
    1XTA   HL2021634  -6.771  26.396  -8.263
    1XTA   HL2121635  -6.468  26.459  -8.225
    1XTA   HL2221636  -6.538  26.361  -8.347
    1XTA   HL2321637  -6.530  26.316  -8.171
    1XTA   HL2421638  -5.986  27.925  -8.172
    1XTA   HL2521639  -6.057  27.919  -7.998
    1XTA    CO821640  -6.847  26.618  -8.111
    1XTA    CO921641  -6.789  26.418  -7.991
    1XTA    OA621642  -6.877  26.310  -8.033
    1XTA   HL4221643  -6.805  26.718  -8.136
    1XTA   HL4321644  -6.898  26.623  -8.015
    1XTA   HL4821645  -6.824  26.461  -7.896
    1XTA   HL4921646  -6.706  26.355  -7.963
    1XTA     NT21647  -6.209  25.199  -9.884
    1XTA    CN121648  -6.104  25.252  -9.824
    1XTA     C121649  -6.124  25.368  -9.743
    1XTA     C221650  -6.018  25.426  -9.670
    1XTA     C321651  -5.890  25.370  -9.689
    1XTA     C421652  -5.867  25.261  -9.775
    1XTA     C521653  -5.978  25.198  -9.835
    1XTA    CN221654  -6.285  25.120  -9.806
    1XTA     C621655  -6.425  25.150  -9.783
    1XTA     C721656  -6.504  25.065  -9.701
    1XTA     C821657  -6.440  24.957  -9.632
    1XTA     C921658  -6.312  24.920  -9.665
    1XTA    C1021659  -6.232  25.005  -9.750
    1XTA    CN321660  -6.217  25.194 -10.020
    1XTA    C1121661  -6.235  25.307 -10.102
    1XTA    C1221662  -6.231  25.302 -10.242
    1XTA    C1321663  -6.215  25.177 -10.308
    1XTA    C1421664  -6.204  25.062 -10.234
    1XTA    C1521665  -6.206  25.073 -10.090
    1XTA     H121666  -6.224  25.412  -9.738
    1XTA     H221667  -6.035  25.516  -9.609
    1XTA     H321668  -5.763  25.226  -9.780
    1XTA     H421669  -5.973  25.117  -9.902
    1XTA     H521670  -6.467  25.233  -9.843
    1XTA     H621671  -6.610  25.085  -9.676
    1XTA     H721672  -6.272  24.831  -9.625
    1XTA     H821673  -6.129  24.977  -9.764
    1XTA     H921674  -6.247  25.407 -10.046
    1XTA    H1021675  -6.250  25.394 -10.297
    1XTA    H1121676  -6.201  24.962 -10.272
    1XTA    H1221677  -6.180  24.984 -10.035
    1XTA    OA121678  -5.777  25.426  -9.631
    1XTA    CO121679  -5.794  25.547  -9.557
    1XTA    OA221680  -6.510  24.887  -9.537
    1XTA    CO221681  -6.466  24.760  -9.490
    1XTA    CL121682  -6.490  24.656  -9.601
    1XTA    CL221683  -6.640  24.623  -9.617
    1XTA    CL321684  -6.642  24.498  -9.703
    1XTA    CL421685  -6.620  24.516  -9.853
    1XTA    CO321686  -6.729  24.614  -9.916
    1XTA    OA321687  -6.723  24.594 -10.053
    1XTA    CO421688  -6.840  24.631 -10.126
    1XTA    CT121689  -6.822  24.608 -10.273
    1XTA    CL521690  -6.952  24.627 -10.349
    1XTA    CL621691  -6.983  24.778 -10.361
    1XTA    OA421692  -6.220  25.166 -10.446
    1XTA    CO521693  -6.150  25.269 -10.512
    1XTA    HL121694  -6.054  25.272 -10.463
    1XTA    HL221695  -5.858  25.531  -9.466
    1XTA    HL321696  -5.702  25.557  -9.521
    1XTA    HL421697  -5.819  25.630  -9.627
    1XTA    HL521698  -6.358  24.764  -9.459
    1XTA    HL621699  -6.515  24.730  -9.402
    1XTA    HL721700  -6.439  24.565  -9.587
    1XTA    HL821701  -6.458  24.697  -9.695
    1XTA    HL921702  -6.691  24.710  -9.661
    1XTA   HL1021703  -6.691  24.596  -9.520
    1XTA   HL1121704  -6.564  24.423  -9.660
    1XTA   HL1221705  -6.732  24.451  -9.681
    1XTA   HL1321706  -6.623  24.416  -9.889
    1XTA   HL1421707  -6.512  24.542  -9.872
    1XTA   HL1521708  -6.819  24.579  -9.874
    1XTA   HL1621709  -6.708  24.718  -9.900
    1XTA   HL1721710  -6.920  24.557 -10.088
    1XTA   HL1821711  -6.876  24.729 -10.104
    1XTA   HL1921712  -7.038  24.581 -10.288
    1XTA   HL2021713  -6.939  24.587 -10.451
    1XTA   HL2121714  -6.905  24.840 -10.409
    1XTA   HL2221715  -6.983  24.819 -10.262
    1XTA   HL2321716  -7.087  24.801 -10.403
    1XTA   HL2421717  -6.197  25.372 -10.506
    1XTA   HL2521718  -6.148  25.249 -10.625
    1XTA    CO821719  -6.745  24.477 -10.307
    1XTA    CO921720  -6.714  24.687 -10.353
    1XTA    OA621721  -6.636  24.572 -10.333
    1XTA   HL4221722  -6.783  24.427 -10.396
    1XTA   HL4321723  -6.715  24.413 -10.224
    1XTA   HL4821724  -6.668  24.765 -10.299
    1XTA   HL4921725  -6.739  24.712 -10.454
    1XTA     NT21726  -1.023  28.800 -10.454
    1XTA    CN121727  -1.121  28.875 -10.393
    1XTA     C121728  -1.204  28.806 -10.313
    1XTA     C221729  -1.315  28.867 -10.248
    1XTA     C321730  -1.351  29.002 -10.275
    1XTA     C421731  -1.259  29.076 -10.351
    1XTA     C521732  -1.151  29.013 -10.416
    1XTA    CN221733  -1.050  28.697 -10.534
    1XTA     C621734  -1.084  28.725 -10.665
    1XTA     C721735  -1.119  28.619 -10.748
    1XTA     C821736  -1.117  28.487 -10.706
    1XTA     C921737  -1.072  28.462 -10.575
    1XTA    C1021738  -1.043  28.566 -10.488
    1XTA    CN321739  -0.892  28.835 -10.431
    1XTA    C1121740  -0.817  28.758 -10.347
    1XTA    C1221741  -0.684  28.792 -10.315
    1XTA    C1321742  -0.625  28.911 -10.367
    1XTA    C1421743  -0.694  28.983 -10.463
    1XTA    C1521744  -0.832  28.955 -10.492
    1XTA     H121745  -1.174  28.706 -10.291
    1XTA     H221746  -1.378  28.810 -10.181
    1XTA     H321747  -1.285  29.177 -10.377
    1XTA     H421748  -1.095  29.064 -10.492
    1XTA     H521749  -1.081  28.826 -10.704
    1XTA     H621750  -1.152  28.661 -10.851
    1XTA     H721751  -1.063  28.358 -10.541
    1XTA     H821752  -1.011  28.554 -10.387
    1XTA     H921753  -0.864  28.673 -10.300
    1XTA    H1021754  -0.622  28.744 -10.241
    1XTA    H1121755  -0.653  29.067 -10.518
    1XTA    H1221756  -0.874  29.003 -10.576
    1XTA    OA121757  -1.465  29.064 -10.220
    1XTA    CO121758  -1.580  28.976 -10.215
    1XTA    OA221759  -1.158  28.383 -10.797
    1XTA    CO221760  -1.164  28.414 -10.937
    1XTA    CL121761  -1.293  28.479 -10.983
    1XTA    CL221762  -1.291  28.539 -11.125
    1XTA    CL321763  -1.342  28.687 -11.147
    1XTA    CL421764  -1.495  28.703 -11.126
    1XTA    CO321765  -1.540  28.842 -11.181
    1XTA    OA321766  -1.677  28.849 -11.178
    1XTA    CO421767  -1.730  28.955 -11.258
    1XTA    CT121768  -1.889  28.938 -11.238
    1XTA    CL521769  -1.936  28.807 -11.302
    1XTA    CL621770  -1.860  28.753 -11.415
    1XTA    OA421771  -0.503  28.948 -10.325
    1XTA    CO521772  -0.427  29.033 -10.408
    1XTA    HL121773  -0.421  28.991 -10.505
    1XTA    HL221774  -1.573  28.889 -10.152
    1XTA    HL321775  -1.666  29.037 -10.171
    1XTA    HL421776  -1.606  28.930 -10.311
    1XTA    HL521777  -1.079  28.475 -10.972
    1XTA    HL621778  -1.147  28.314 -10.980
    1XTA    HL721779  -1.317  28.561 -10.916
    1XTA    HL821780  -1.379  28.407 -10.973
    1XTA    HL921781  -1.351  28.476 -11.188
    1XTA   HL1021782  -1.191  28.531 -11.169
    1XTA   HL1121783  -1.288  28.768 -11.089
    1XTA   HL1221784  -1.317  28.714 -11.242
    1XTA   HL1321785  -1.511  28.684 -11.021
    1XTA   HL1421786  -1.545  28.618 -11.179
    1XTA   HL1521787  -1.497  28.927 -11.128
    1XTA   HL1621788  -1.494  28.862 -11.279
    1XTA   HL1721789  -1.686  29.047 -11.219
    1XTA   HL1821790  -1.702  28.955 -11.363
    1XTA   HL1921791  -2.046  28.823 -11.331
    1XTA   HL2021792  -1.935  28.727 -11.219
    1XTA   HL2121793  -1.902  28.660 -11.449
    1XTA   HL2221794  -1.756  28.743 -11.385
    1XTA   HL2321795  -1.868  28.819 -11.507
    1XTA   HL2421796  -0.331  29.044 -10.361
    1XTA   HL2521797  -0.470  29.130 -10.429
    1XTA    CO821798  -1.969  29.046 -11.314
    1XTA    CO921799  -1.935  28.940 -11.090
    1XTA    OA621800  -1.958  29.056 -11.462
    1XTA   HL4221801  -1.953  29.142 -11.270
    1XTA   HL4321802  -2.075  29.029 -11.301
    1XTA   HL4821803  -1.874  28.867 -11.039
    1XTA   HL4921804  -1.911  29.037 -11.050
    1XTA     NT21805  -4.859  26.272  -9.093
    1XTA    CN121806  -4.849  26.401  -9.138
    1XTA     C121807  -4.923  26.447  -9.246
    1XTA     C221808  -4.930  26.581  -9.291
    1XTA     C321809  -4.838  26.672  -9.228
    1XTA     C421810  -4.745  26.622  -9.130
    1XTA     C521811  -4.764  26.494  -9.073
    1XTA    CN221812  -4.805  26.183  -9.176
    1XTA     C621813  -4.889  26.097  -9.245
    1XTA     C721814  -4.846  25.978  -9.315
    1XTA     C821815  -4.708  25.946  -9.304
    1XTA     C921816  -4.620  26.034  -9.242
    1XTA    C1021817  -4.665  26.149  -9.177
    1XTA    CN321818  -4.929  26.230  -8.986
    1XTA    C1121819  -4.873  26.174  -8.873
    1XTA    C1221820  -4.957  26.135  -8.767
    1XTA    C1321821  -5.097  26.156  -8.775
    1XTA    C1421822  -5.155  26.203  -8.896
    1XTA    C1521823  -5.069  26.244  -8.993
    1XTA     H121824  -4.970  26.386  -9.316
    1XTA     H221825  -4.985  26.601  -9.380
    1XTA     H321826  -4.669  26.687  -9.083
    1XTA     H421827  -4.706  26.477  -8.989
    1XTA     H521828  -4.999  26.117  -9.250
    1XTA     H621829  -4.916  25.912  -9.367
    1XTA     H721830  -4.515  26.001  -9.236
    1XTA     H821831  -4.601  26.216  -9.125
    1XTA     H921832  -4.772  26.178  -8.871
    1XTA    H1021833  -4.917  26.092  -8.683
    1XTA    H1121834  -5.263  26.199  -8.909
    1XTA    H1221835  -5.114  26.298  -9.071
    1XTA    OA121836  -4.821  26.802  -9.275
    1XTA    CO121837  -4.939  26.871  -9.316
    1XTA    OA221838  -4.662  25.840  -9.378
    1XTA    CO221839  -4.616  25.733  -9.292
    1XTA    CL121840  -4.670  25.604  -9.344
    1XTA    CL221841  -4.607  25.487  -9.274
    1XTA    CL321842  -4.661  25.345  -9.317
    1XTA    CL421843  -4.804  25.329  -9.274
    1XTA    CO321844  -4.845  25.183  -9.295
    1XTA    OA321845  -4.964  25.155  -9.233
    1XTA    CO421846  -4.951  25.125  -9.094
    1XTA    CT121847  -5.090  25.112  -9.029
    1XTA    CL521848  -5.141  25.255  -8.983
    1XTA    CL621849  -5.174  25.355  -9.104
    1XTA    OA421850  -5.166  26.099  -8.673
    1XTA    CO521851  -5.286  26.021  -8.703
    1XTA    HL121852  -5.247  25.953  -8.780
    1XTA    HL221853  -5.019  26.866  -9.247
    1XTA    HL321854  -4.912  26.973  -9.338
    1XTA    HL421855  -4.985  26.840  -9.411
    1XTA    HL521856  -4.502  25.728  -9.295
    1XTA    HL621857  -4.645  25.744  -9.190
    1XTA    HL721858  -4.648  25.597  -9.441
    1XTA    HL821859  -4.778  25.604  -9.336
    1XTA    HL921860  -4.617  25.502  -9.171
    1XTA   HL1021861  -4.502  25.478  -9.300
    1XTA   HL1121862  -4.650  25.331  -9.431
    1XTA   HL1221863  -4.601  25.259  -9.278
    1XTA   HL1321864  -4.876  25.391  -9.327
    1XTA   HL1421865  -4.809  25.347  -9.165
    1XTA   HL1521866  -4.868  25.173  -9.404
    1XTA   HL1621867  -4.763  25.116  -9.274
    1XTA   HL1721868  -4.887  25.036  -9.086
    1XTA   HL1821869  -4.889  25.211  -9.057
    1XTA   HL1921870  -5.063  25.310  -8.924
    1XTA   HL2021871  -5.226  25.254  -8.923
    1XTA   HL2121872  -5.278  25.336  -9.143
    1XTA   HL2221873  -5.089  25.348  -9.178
    1XTA   HL2321874  -5.185  25.465  -9.064
    1XTA   HL2421875  -5.370  26.084  -8.732
    1XTA   HL2521876  -5.327  25.959  -8.621
    1XTA    CO821877  -5.074  25.022  -8.906
    1XTA    CO921878  -5.191  25.044  -9.125
    1XTA    OA621879  -5.205  24.974  -8.855
    1XTA   HL4221880  -5.032  25.072  -8.825
    1XTA   HL4321881  -5.010  24.934  -8.927
    1XTA   HL4821882  -5.276  25.020  -9.064
    1XTA   HL4921883  -5.221  25.109  -9.207
    1XTA     NT21884  -3.808  28.503  -5.660
    1XTA    CN121885  -3.724  28.509  -5.558
    1XTA     C121886  -3.618  28.423  -5.554
    1XTA     C221887  -3.529  28.425  -5.444
    1XTA     C321888  -3.536  28.523  -5.348
    1XTA     C421889  -3.640  28.619  -5.364
    1XTA     C521890  -3.726  28.619  -5.475
    1XTA    CN221891  -3.896  28.399  -5.667
    1XTA     C621892  -4.037  28.418  -5.634
    1XTA     C721893  -4.126  28.309  -5.650
    1XTA     C821894  -4.089  28.183  -5.685
    1XTA     C921895  -3.949  28.162  -5.719
    1XTA    C1021896  -3.856  28.271  -5.710
    1XTA    CN321897  -3.777  28.579  -5.770
    1XTA    C1121898  -3.870  28.676  -5.807
    1XTA    C1221899  -3.846  28.758  -5.919
    1XTA    C1321900  -3.720  28.753  -5.984
    1XTA    C1421901  -3.623  28.658  -5.943
    1XTA    C1521902  -3.657  28.567  -5.840
    1XTA     H121903  -3.607  28.343  -5.629
    1XTA     H221904  -3.444  28.358  -5.442
    1XTA     H321905  -3.664  28.695  -5.287
    1XTA     H421906  -3.798  28.696  -5.490
    1XTA     H521907  -4.075  28.518  -5.611
    1XTA     H621908  -4.231  28.337  -5.620
    1XTA     H721909  -3.909  28.063  -5.757
    1XTA     H821910  -3.757  28.260  -5.756
    1XTA     H921911  -3.975  28.688  -5.764
    1XTA    H1021912  -3.916  28.838  -5.947
    1XTA    H1121913  -3.528  28.654  -5.993
    1XTA    H1221914  -3.594  28.493  -5.803
    1XTA    OA121915  -3.442  28.534  -5.251
    1XTA    CO121916  -3.367  28.412  -5.227
    1XTA    OA221917  -4.173  28.076  -5.664
    1XTA    CO221918  -4.177  27.974  -5.760
    1XTA    CL121919  -4.296  27.874  -5.743
    1XTA    CL221920  -4.302  27.742  -5.834
    1XTA    CL321921  -4.401  27.641  -5.786
    1XTA    CL421922  -4.441  27.551  -5.905
    1XTA    CO321923  -4.519  27.421  -5.868
    1XTA    OA321924  -4.642  27.461  -5.812
    1XTA    CO421925  -4.741  27.511  -5.893
    1XTA    CT121926  -4.832  27.603  -5.810
    1XTA    CL521927  -4.918  27.514  -5.722
    1XTA    CL621928  -5.019  27.428  -5.802
    1XTA    OA421929  -3.705  28.835  -6.097
    1XTA    CO521930  -3.579  28.815  -6.162
    1XTA    HL121931  -3.501  28.862  -6.099
    1XTA    HL221932  -3.306  28.436  -5.144
    1XTA    HL321933  -3.428  28.315  -5.223
    1XTA    HL421934  -3.295  28.410  -5.309
    1XTA    HL521935  -4.194  27.998  -5.865
    1XTA    HL621936  -4.077  27.926  -5.751
    1XTA    HL721937  -4.388  27.932  -5.765
    1XTA    HL821938  -4.291  27.844  -5.637
    1XTA    HL921939  -4.204  27.704  -5.872
    1XTA   HL1021940  -4.353  27.787  -5.918
    1XTA   HL1121941  -4.343  27.589  -5.709
    1XTA   HL1221942  -4.487  27.693  -5.733
    1XTA   HL1321943  -4.348  27.527  -5.946
    1XTA   HL1421944  -4.500  27.605  -5.981
    1XTA   HL1521945  -4.532  27.351  -5.950
    1XTA   HL1621946  -4.474  27.374  -5.782
    1XTA   HL1721947  -4.706  27.570  -5.978
    1XTA   HL1821948  -4.774  27.418  -5.939
    1XTA   HL1921949  -4.977  27.573  -5.659
    1XTA   HL2021950  -4.861  27.450  -5.651
    1XTA   HL2121951  -4.974  27.347  -5.861
    1XTA   HL2221952  -5.094  27.478  -5.868
    1XTA   HL2321953  -5.091  27.382  -5.734
    1XTA   HL2421954  -3.600  28.881  -6.242
    1XTA   HL2521955  -3.562  28.714  -6.200
    1XTA    CO821956  -4.920  27.690  -5.896
    1XTA    CO921957  -4.750  27.694  -5.721
    1XTA    OA621958  -4.844  27.805  -5.926
    1XTA   HL4221959  -5.004  27.728  -5.840
    1XTA   HL4321960  -4.947  27.640  -5.991
    1XTA   HL4821961  -4.690  27.630  -5.653
    1XTA   HL4921962  -4.678  27.758  -5.769
    1XTA     NT21963  -3.870  26.098 -10.049
    1XTA    CN121964  -3.928  25.977 -10.070
    1XTA     C121965  -3.871  25.873 -10.000
    1XTA     C221966  -3.937  25.746 -10.012
    1XTA     C321967  -4.058  25.732 -10.083
    1XTA     C421968  -4.112  25.841 -10.154
    1XTA     C521969  -4.051  25.967 -10.142
    1XTA    CN221970  -3.830  26.178 -10.151
    1XTA     C621971  -3.910  26.274 -10.218
    1XTA     C721972  -3.865  26.342 -10.330
    1XTA     C821973  -3.734  26.323 -10.370
    1XTA     C921974  -3.652  26.232 -10.304
    1XTA    C1021975  -3.705  26.157 -10.196
    1XTA    CN321976  -3.899  26.157  -9.933
    1XTA    C1121977  -4.031  26.203  -9.908
    1XTA    C1221978  -4.058  26.266  -9.783
    1XTA    C1321979  -3.953  26.291  -9.692
    1XTA    C1421980  -3.824  26.237  -9.716
    1XTA    C1521981  -3.798  26.177  -9.839
    1XTA     H121982  -3.780  25.886  -9.943
    1XTA     H221983  -3.889  25.658  -9.973
    1XTA     H321984  -4.206  25.836 -10.214
    1XTA     H421985  -4.091  26.054 -10.192
    1XTA     H521986  -4.011  26.292 -10.186
    1XTA     H621987  -3.929  26.412 -10.381
    1XTA     H721988  -3.545  26.227 -10.330
    1XTA     H821989  -3.640  26.092 -10.133
    1XTA     H921990  -4.110  26.198  -9.980
    1XTA    H1021991  -4.153  26.300  -9.755
    1XTA    H1121992  -3.732  26.245  -9.656
    1XTA    H1221993  -3.699  26.141  -9.857
    1XTA    OA121994  -4.121  25.614 -10.093
    1XTA    CO121995  -4.235  25.604 -10.178
    1XTA    OA221996  -3.675  26.387 -10.478
    1XTA    CO221997  -3.741  26.508 -10.524
    1XTA    CL121998  -3.844  26.476 -10.635
    1XTA    CL221999  -3.906  26.602 -10.692
    1XTA    CL322000  -4.009  26.562 -10.799
    1XTA    CL422001  -4.153  26.514 -10.744
    1XTA    CO322002  -4.250  26.464 -10.850
    1XTA    OA322003  -4.376  26.437 -10.795
    1XTA    CO422004  -4.457  26.542 -10.780
    1XTA    CT122005  -4.595  26.494 -10.723
    1XTA    CL522006  -4.682  26.417 -10.827
    1XTA    CL622007  -4.713  26.490 -10.949
    1XTA    OA422008  -3.985  26.363  -9.579
    1XTA    CO522009  -3.883  26.419  -9.503
    1XTA    HL122010  -3.927  26.490  -9.425
    1XTA    HL222011  -4.283  25.505 -10.166
    1XTA    HL322012  -4.307  25.674 -10.150
    1XTA    HL422013  -4.207  25.617 -10.284
    1XTA    HL522014  -3.784  26.556 -10.438
    1XTA    HL622015  -3.674  26.584 -10.564
    1XTA    HL722016  -3.920  26.409 -10.602
    1XTA    HL822017  -3.804  26.414 -10.714
    1XTA    HL922018  -3.827  26.654 -10.740
    1XTA   HL1022019  -3.952  26.662 -10.618
    1XTA   HL1122020  -4.027  26.643 -10.873
    1XTA   HL1222021  -3.964  26.485 -10.864
    1XTA   HL1322022  -4.194  26.599 -10.687
    1XTA   HL1422023  -4.136  26.442 -10.661
    1XTA   HL1522024  -4.251  26.536 -10.931
    1XTA   HL1622025  -4.217  26.378 -10.898
    1XTA   HL1722026  -4.404  26.606 -10.708
    1XTA   HL1822027  -4.469  26.599 -10.871
    1XTA   HL1922028  -4.773  26.366 -10.781
    1XTA   HL2022029  -4.616  26.333 -10.862
    1XTA   HL2122030  -4.805  26.554 -10.940
    1XTA   HL2222031  -4.742  26.409 -11.022
    1XTA   HL2322032  -4.631  26.542 -10.996
    1XTA   HL2422033  -3.816  26.491  -9.556
    1XTA   HL2522034  -3.809  26.360  -9.449
    1XTA    CO822035  -4.688  26.614 -10.676
    1XTA    CO922036  -4.582  26.392 -10.609
    1XTA    OA622037  -4.710  26.698 -10.747
    1XTA   HL4222038  -4.632  26.641 -10.588
    1XTA   HL4322039  -4.780  26.578 -10.626
    1XTA   HL4822040  -4.703  26.352 -10.557
    1XTA   HL4922041  -4.522  26.307 -10.639
    1XTA     NT22042  -0.695  27.656 -11.335
    1XTA    CN122043  -0.564  27.668 -11.305
    1XTA     C122044  -0.469  27.668 -11.408
    1XTA     C222045  -0.332  27.695 -11.390
    1XTA     C322046  -0.289  27.745 -11.267
    1XTA     C422047  -0.385  27.758 -11.166
    1XTA     C522048  -0.522  27.727 -11.189
    1XTA    CN222049  -0.787  27.749 -11.317
    1XTA     C622050  -0.885  27.738 -11.220
    1XTA     C722051  -0.992  27.828 -11.213
    1XTA     C822052  -1.000  27.945 -11.298
    1XTA     C922053  -0.905  27.951 -11.399
    1XTA    C1022054  -0.799  27.851 -11.414
    1XTA    CN322055  -0.729  27.527 -11.365
    1XTA    C1122056  -0.715  27.433 -11.257
    1XTA    C1222057  -0.759  27.299 -11.266
    1XTA    C1322058  -0.823  27.261 -11.386
    1XTA    C1422059  -0.842  27.352 -11.489
    1XTA    C1522060  -0.794  27.488 -11.484
    1XTA     H122061  -0.505  27.640 -11.506
    1XTA     H222062  -0.271  27.693 -11.477
    1XTA     H322063  -0.365  27.805 -11.074
    1XTA     H422064  -0.586  27.742 -11.097
    1XTA     H522065  -0.877  27.652 -11.156
    1XTA     H622066  -1.066  27.815 -11.136
    1XTA     H722067  -0.913  28.030 -11.466
    1XTA     H822068  -0.724  27.855 -11.491
    1XTA     H922069  -0.677  27.468 -11.165
    1XTA    H1022070  -0.744  27.232 -11.191
    1XTA    H1122071  -0.891  27.314 -11.580
    1XTA    H1222072  -0.804  27.563 -11.559
    1XTA    OA122073  -0.157  27.774 -11.246
    1XTA    CO122074  -0.119  27.795 -11.107
    1XTA    OA222075  -1.099  28.035 -11.288
    1XTA    CO222076  -1.181  28.031 -11.173
    1XTA    CL122077  -1.292  28.138 -11.189
    1XTA    CL222078  -1.393  28.132 -11.073
    1XTA    CL322079  -1.510  28.213 -11.113
    1XTA    CL422080  -1.619  28.226 -10.995
    1XTA    CO322081  -1.686  28.090 -10.965
    1XTA    OA322082  -1.770  28.103 -10.854
    1XTA    CO422083  -1.692  28.102 -10.732
    1XTA    CT122084  -1.780  28.077 -10.613
    1XTA    CL522085  -1.900  27.986 -10.647
    1XTA    CL622086  -2.001  27.957 -10.541
    1XTA    OA422087  -0.893  27.144 -11.401
    1XTA    CO522088  -0.853  27.041 -11.319
    1XTA    HL122089  -0.891  27.067 -11.217
    1XTA    HL222090  -0.012  27.791 -11.102
    1XTA    HL322091  -0.164  27.887 -11.069
    1XTA    HL422092  -0.162  27.723 -11.047
    1XTA    HL522093  -1.234  27.938 -11.159
    1XTA    HL622094  -1.133  28.062 -11.083
    1XTA    HL722095  -1.330  28.114 -11.288
    1XTA    HL822096  -1.240  28.238 -11.186
    1XTA    HL922097  -1.350  28.171 -10.980
    1XTA   HL1022098  -1.414  28.026 -11.050
    1XTA   HL1122099  -1.482  28.313 -11.141
    1XTA   HL1222100  -1.551  28.161 -11.204
    1XTA   HL1322101  -1.689  28.304 -11.020
    1XTA   HL1422102  -1.575  28.269 -10.905
    1XTA   HL1522103  -1.740  28.049 -11.052
    1XTA   HL1622104  -1.601  28.031 -10.952
    1XTA   HL1722105  -1.617  28.023 -10.743
    1XTA   HL1822106  -1.644  28.197 -10.718
    1XTA   HL1922107  -1.854  27.889 -10.681
    1XTA   HL2022108  -1.959  28.030 -10.723
    1XTA   HL2122109  -2.075  27.886 -10.584
    1XTA   HL2222110  -2.056  28.039 -10.498
    1XTA   HL2322111  -1.943  27.899 -10.465
    1XTA   HL2422112  -0.750  27.014 -11.321
    1XTA   HL2522113  -0.898  26.951 -11.351
    1XTA    CO822114  -1.837  28.205 -10.566
    1XTA    CO922115  -1.697  27.996 -10.506
    1XTA    OA622116  -1.903  28.279 -10.660
    1XTA   HL4222117  -1.761  28.270 -10.523
    1XTA   HL4322118  -1.913  28.185 -10.491
    1XTA   HL4822119  -1.636  27.921 -10.551
    1XTA   HL4922120  -1.755  27.952 -10.421
    1XTA     NT22121  -5.081  26.838  -6.637
    1XTA    CN122122  -4.963  26.901  -6.664
    1XTA     C122123  -4.943  27.001  -6.765
    1XTA     C222124  -4.813  27.067  -6.774
    1XTA     C322125  -4.704  27.030  -6.695
    1XTA     C422126  -4.723  26.935  -6.597
    1XTA     C522127  -4.848  26.868  -6.584
    1XTA    CN222128  -5.115  26.811  -6.509
    1XTA     C622129  -5.147  26.924  -6.430
    1XTA     C722130  -5.190  26.908  -6.300
    1XTA     C822131  -5.205  26.781  -6.242
    1XTA     C922132  -5.165  26.665  -6.318
    1XTA    C1022133  -5.125  26.687  -6.450
    1XTA    CN322134  -5.142  26.767  -6.734
    1XTA    C1122135  -5.251  26.821  -6.798
    1XTA    C1222136  -5.298  26.757  -6.917
    1XTA    C1322137  -5.247  26.631  -6.954
    1XTA    C1422138  -5.132  26.579  -6.893
    1XTA    C1522139  -5.080  26.647  -6.777
    1XTA     H122140  -5.025  27.031  -6.827
    1XTA     H222141  -4.806  27.151  -6.843
    1XTA     H322142  -4.640  26.924  -6.541
    1XTA     H422143  -4.854  26.793  -6.507
    1XTA     H522144  -5.144  27.025  -6.470
    1XTA     H622145  -5.213  27.006  -6.250
    1XTA     H722146  -5.178  26.560  -6.281
    1XTA     H822147  -5.093  26.607  -6.511
    1XTA     H922148  -5.291  26.914  -6.765
    1XTA    H1022149  -5.377  26.798  -6.965
    1XTA    H1122150  -5.093  26.481  -6.916
    1XTA    H1222151  -4.994  26.594  -6.726
    1XTA    OA122152  -4.586  27.097  -6.688
    1XTA    CO122153  -4.581  27.225  -6.742
    1XTA    OA222154  -5.249  26.778  -6.113
    1XTA    CO222155  -5.225  26.653  -6.045
    1XTA    CL122156  -5.278  26.664  -5.908
    1XTA    CL222157  -5.430  26.670  -5.909
    1XTA    CL322158  -5.486  26.529  -5.883
    1XTA    CL422159  -5.480  26.441  -6.012
    1XTA    CO322160  -5.571  26.317  -5.999
    1XTA    OA322161  -5.508  26.228  -5.909
    1XTA    CO422162  -5.561  26.097  -5.905
    1XTA    CT122163  -5.498  26.031  -5.789
    1XTA    CL522164  -5.517  26.112  -5.660
    1XTA    CL622165  -5.658  26.100  -5.602
    1XTA    OA422166  -5.309  26.554  -7.055
    1XTA    CO522167  -5.408  26.615  -7.134
    1XTA    HL122168  -5.491  26.665  -7.077
    1XTA    HL222169  -4.661  27.292  -6.708
    1XTA    HL322170  -4.484  27.284  -6.734
    1XTA    HL422171  -4.593  27.223  -6.845
    1XTA    HL522172  -5.263  26.566  -6.104
    1XTA    HL622173  -5.123  26.614  -6.041
    1XTA    HL722174  -5.242  26.747  -5.857
    1XTA    HL822175  -5.255  26.583  -5.841
    1XTA    HL922176  -5.482  26.718  -5.998
    1XTA   HL1022177  -5.461  26.734  -5.826
    1XTA   HL1122178  -5.438  26.479  -5.795
    1XTA   HL1222179  -5.589  26.546  -5.853
    1XTA   HL1322180  -5.374  26.407  -6.038
    1XTA   HL1422181  -5.511  26.489  -6.101
    1XTA   HL1522182  -5.667  26.352  -5.956
    1XTA   HL1622183  -5.589  26.265  -6.089
    1XTA   HL1722184  -5.670  26.104  -5.903
    1XTA   HL1822185  -5.536  26.044  -6.001
    1XTA   HL1922186  -5.507  26.214  -5.690
    1XTA   HL2022187  -5.446  26.083  -5.586
    1XTA   HL2122188  -5.669  25.994  -5.568
    1XTA   HL2222189  -5.733  26.127  -5.679
    1XTA   HL2322190  -5.674  26.158  -5.509
    1XTA   HL2422191  -5.468  26.537  -7.184
    1XTA   HL2522192  -5.349  26.682  -7.195
    1XTA    CO822193  -5.351  26.017  -5.810
    1XTA    CO922194  -5.557  25.886  -5.777
    1XTA    OA622195  -5.505  25.796  -5.878
    1XTA   HL4222196  -5.310  25.932  -5.758
    1XTA   HL4322197  -5.330  25.989  -5.913
    1XTA   HL4822198  -5.660  25.881  -5.766
    1XTA   HL4922199  -5.512  25.844  -5.683
    1XTA     NT22200  -2.936  24.081 -10.335
    1XTA    CN122201  -2.894  24.040 -10.461
    1XTA     C122202  -2.908  23.908 -10.512
    1XTA     C222203  -2.866  23.881 -10.646
    1XTA     C322204  -2.805  23.984 -10.722
    1XTA     C422205  -2.801  24.112 -10.674
    1XTA     C522206  -2.849  24.141 -10.546
    1XTA    CN222207  -3.037  24.015 -10.271
    1XTA     C622208  -3.020  23.894 -10.197
    1XTA     C722209  -3.128  23.824 -10.143
    1XTA     C822210  -3.258  23.880 -10.164
    1XTA     C922211  -3.280  23.996 -10.246
    1XTA    C1022212  -3.168  24.060 -10.294
    1XTA    CN322213  -2.852  24.162 -10.269
    1XTA    C1122214  -2.718  24.131 -10.236
    1XTA    C1222215  -2.625  24.233 -10.201
    1XTA    C1322216  -2.671  24.370 -10.206
    1XTA    C1422217  -2.807  24.402 -10.234
    1XTA    C1522218  -2.890  24.297 -10.262
    1XTA     H122219  -2.951  23.824 -10.453
    1XTA     H222220  -2.865  23.786 -10.683
    1XTA     H322221  -2.747  24.190 -10.727
    1XTA     H422222  -2.844  24.243 -10.505
    1XTA     H522223  -2.923  23.852 -10.187
    1XTA     H622224  -3.113  23.734 -10.080
    1XTA     H722225  -3.381  24.028 -10.258
    1XTA     H822226  -3.185  24.150 -10.352
    1XTA     H922227  -2.687  24.029 -10.246
    1XTA    H1022228  -2.524  24.210 -10.179
    1XTA    H1122229  -2.846  24.502 -10.230
    1XTA    H1222230  -2.994  24.320 -10.291
    1XTA    OA122231  -2.734  23.966 -10.837
    1XTA    CO122232  -2.697  23.834 -10.859
    1XTA    OA222233  -3.362  23.818 -10.101
    1XTA    CO222234  -3.489  23.873 -10.093
    1XTA    CL122235  -3.486  23.959  -9.963
    1XTA    CL222236  -3.628  23.988  -9.908
    1XTA    CL322237  -3.628  24.099  -9.798
    1XTA    CL422238  -3.542  24.053  -9.677
    1XTA    CO322239  -3.564  24.136  -9.556
    1XTA    OA322240  -3.457  24.127  -9.462
    1XTA    CO422241  -3.496  24.188  -9.340
    1XTA    CT122242  -3.387  24.181  -9.230
    1XTA    CL522243  -3.253  24.228  -9.294
    1XTA    CL622244  -3.141  24.248  -9.198
    1XTA    OA422245  -2.574  24.467 -10.189
    1XTA    CO522246  -2.440  24.431 -10.178
    1XTA    HL122247  -2.411  24.365 -10.264
    1XTA    HL222248  -2.659  23.782 -10.768
    1XTA    HL322249  -2.771  23.759 -10.876
    1XTA    HL422250  -2.612  23.828 -10.922
    1XTA    HL522251  -3.520  23.910 -10.191
    1XTA    HL622252  -3.552  23.798 -10.074
    1XTA    HL722253  -3.431  24.049  -9.980
    1XTA    HL822254  -3.427  23.894  -9.887
    1XTA    HL922255  -3.665  23.891  -9.858
    1XTA   HL1022256  -3.702  24.011  -9.988
    1XTA   HL1122257  -3.584  24.189  -9.845
    1XTA   HL1222258  -3.731  24.119  -9.763
    1XTA   HL1322259  -3.434  24.050  -9.696
    1XTA   HL1422260  -3.566  23.951  -9.649
    1XTA   HL1522261  -3.545  24.240  -9.583
    1XTA   HL1622262  -3.667  24.119  -9.522
    1XTA   HL1722263  -3.532  24.290  -9.361
    1XTA   HL1822264  -3.579  24.138  -9.288
    1XTA   HL1922265  -3.268  24.308  -9.368
    1XTA   HL2022266  -3.218  24.145  -9.358
    1XTA   HL2122267  -3.148  24.351  -9.157
    1XTA   HL2222268  -3.051  24.241  -9.256
    1XTA   HL2322269  -3.125  24.177  -9.113
    1XTA   HL2422270  -2.409  24.369 -10.095
    1XTA   HL2522271  -2.375  24.521 -10.175
    1XTA    CO822272  -3.374  24.037  -9.183
    1XTA    CO922273  -3.416  24.273  -9.106
    1XTA    OA622274  -3.269  24.010  -9.095
    1XTA   HL4222275  -3.338  23.984  -9.272
    1XTA   HL4322276  -3.469  24.006  -9.156
    1XTA   HL4822277  -3.343  24.246  -9.027
    1XTA   HL4922278  -3.395  24.379  -9.127
    1XTA     NT22279  -7.778  31.953 -10.831
    1XTA    CN122280  -7.838  31.985 -10.946
    1XTA     C122281  -7.803  31.929 -11.073
    1XTA     C222282  -7.872  31.970 -11.194
    1XTA     C322283  -7.980  32.069 -11.183
    1XTA     C422284  -8.017  32.120 -11.055
    1XTA     C522285  -7.943  32.081 -10.941
    1XTA    CN222286  -7.811  31.839 -10.764
    1XTA     C622287  -7.944  31.839 -10.699
    1XTA     C722288  -7.984  31.724 -10.622
    1XTA     C822289  -7.889  31.625 -10.584
    1XTA     C922290  -7.757  31.632 -10.638
    1XTA    C1022291  -7.726  31.737 -10.729
    1XTA    CN322292  -7.658  32.006 -10.804
    1XTA    C1122293  -7.648  32.104 -10.706
    1XTA    C1222294  -7.525  32.161 -10.674
    1XTA    C1322295  -7.405  32.124 -10.745
    1XTA    C1422296  -7.417  32.022 -10.842
    1XTA    C1522297  -7.545  31.975 -10.880
    1XTA     H122298  -7.735  31.847 -11.082
    1XTA     H222299  -7.838  31.917 -11.281
    1XTA     H322300  -8.094  32.188 -11.047
    1XTA     H422301  -7.962  32.124 -10.847
    1XTA     H522302  -8.019  31.915 -10.707
    1XTA     H622303  -8.079  31.721 -10.568
    1XTA     H722304  -7.691  31.548 -10.614
    1XTA     H822305  -7.627  31.749 -10.764
    1XTA     H922306  -7.739  32.142 -10.660
    1XTA    H1022307  -7.518  32.250 -10.605
    1XTA    H1122308  -7.327  31.977 -10.882
    1XTA    H1222309  -7.544  31.902 -10.957
    1XTA    OA122310  -8.047  32.107 -11.293
    1XTA    CO122311  -7.989  32.069 -11.420
    1XTA    OA222312  -7.925  31.526 -10.484
    1XTA    CO222313  -7.822  31.475 -10.399
    1XTA    CL122314  -7.876  31.347 -10.332
    1XTA    CL222315  -7.934  31.238 -10.424
    1XTA    CL322316  -7.838  31.120 -10.423
    1XTA    CL422317  -7.857  31.027 -10.541
    1XTA    CO322318  -7.740  30.920 -10.549
    1XTA    OA322319  -7.611  30.966 -10.604
    1XTA    CO422320  -7.511  30.995 -10.502
    1XTA    CT122321  -7.376  31.026 -10.561
    1XTA    CL522322  -7.381  31.153 -10.655
    1XTA    CL622323  -7.448  31.277 -10.586
    1XTA    OA422324  -7.283  32.179 -10.710
    1XTA    CO522325  -7.204  32.253 -10.811
    1XTA    HL122326  -7.109  32.280 -10.767
    1XTA    HL222327  -8.028  32.153 -11.475
    1XTA    HL322328  -7.888  32.091 -11.422
    1XTA    HL422329  -8.031  31.981 -11.454
    1XTA    HL522330  -7.738  31.445 -10.459
    1XTA    HL622331  -7.791  31.551 -10.327
    1XTA    HL722332  -7.960  31.382 -10.271
    1XTA    HL822333  -7.801  31.301 -10.266
    1XTA    HL922334  -7.942  31.281 -10.523
    1XTA   HL1022335  -8.036  31.228 -10.398
    1XTA   HL1122336  -7.740  31.170 -10.430
    1XTA   HL1222337  -7.841  31.059 -10.330
    1XTA   HL1322338  -7.886  31.063 -10.640
    1XTA   HL1422339  -7.942  30.963 -10.520
    1XTA   HL1522340  -7.730  30.860 -10.455
    1XTA   HL1622341  -7.777  30.847 -10.622
    1XTA   HL1722342  -7.553  31.076 -10.442
    1XTA   HL1822343  -7.491  30.912 -10.438
    1XTA   HL1922344  -7.429  31.119 -10.749
    1XTA   HL2022345  -7.287  31.188 -10.686
    1XTA   HL2122346  -7.555  31.257 -10.573
    1XTA   HL2222347  -7.425  31.364 -10.649
    1XTA   HL2322348  -7.406  31.294 -10.485
    1XTA   HL2422349  -7.257  32.338 -10.833
    1XTA   HL2522350  -7.193  32.192 -10.901
    1XTA    CO822351  -7.323  30.908 -10.645
    1XTA    CO922352  -7.273  31.051 -10.450
    1XTA    OA622353  -7.310  31.137 -10.346
    1XTA   HL4222354  -7.399  30.878 -10.715
    1XTA   HL4322355  -7.310  30.821 -10.583
    1XTA   HL4822356  -7.179  31.076 -10.500
    1XTA   HL4922357  -7.251  30.958 -10.399
    1XTA     NT22358  -3.017  28.130  -9.112
    1XTA    CN122359  -3.113  28.059  -9.051
    1XTA     C122360  -3.222  28.009  -9.116
    1XTA     C222361  -3.313  27.929  -9.045
    1XTA     C322362  -3.281  27.885  -8.913
    1XTA     C422363  -3.165  27.927  -8.857
    1XTA     C522364  -3.076  28.008  -8.928
    1XTA    CN222365  -3.049  28.255  -9.160
    1XTA     C622366  -3.076  28.361  -9.076
    1XTA     C722367  -3.080  28.489  -9.135
    1XTA     C822368  -3.065  28.509  -9.271
    1XTA     C922369  -3.054  28.399  -9.359
    1XTA    C1022370  -3.052  28.267  -9.298
    1XTA    CN322371  -2.907  28.074  -9.141
    1XTA    C1122372  -2.784  28.125  -9.099
    1XTA    C1222373  -2.664  28.057  -9.134
    1XTA    C1322374  -2.667  27.944  -9.211
    1XTA    C1422375  -2.792  27.893  -9.257
    1XTA    C1522376  -2.909  27.958  -9.218
    1XTA     H122377  -3.252  28.048  -9.214
    1XTA     H222378  -3.400  27.907  -9.104
    1XTA     H322379  -3.139  27.893  -8.755
    1XTA     H422380  -2.983  28.039  -8.888
    1XTA     H522381  -3.068  28.356  -8.966
    1XTA     H622382  -3.096  28.582  -9.081
    1XTA     H722383  -3.041  28.425  -9.462
    1XTA     H822384  -3.043  28.183  -9.369
    1XTA     H922385  -2.788  28.211  -9.029
    1XTA    H1022386  -2.579  28.080  -9.082
    1XTA    H1122387  -2.794  27.806  -9.320
    1XTA    H1222388  -3.007  27.920  -9.241
    1XTA    OA122389  -3.359  27.797  -8.839
    1XTA    CO122390  -3.435  27.708  -8.916
    1XTA    OA222391  -3.059  28.636  -9.321
    1XTA    CO222392  -3.128  28.654  -9.440
    1XTA    CL122393  -3.190  28.796  -9.436
    1XTA    CL222394  -3.274  28.826  -9.560
    1XTA    CL322395  -3.419  28.785  -9.550
    1XTA    CL422396  -3.496  28.836  -9.672
    1XTA    CO322397  -3.642  28.809  -9.657
    1XTA    OA322398  -3.708  28.859  -9.772
    1XTA    CO422399  -3.712  28.777  -9.890
    1XTA    CT122400  -3.765  28.871 -10.004
    1XTA    CL522401  -3.907  28.915  -9.979
    1XTA    CL622402  -4.004  28.802  -9.935
    1XTA    OA422403  -2.544  27.898  -9.247
    1XTA    CO522404  -2.534  27.761  -9.278
    1XTA    HL122405  -2.592  27.742  -9.372
    1XTA    HL222406  -3.369  27.655  -8.967
    1XTA    HL322407  -3.485  27.637  -8.854
    1XTA    HL422408  -3.509  27.743  -8.984
    1XTA    HL522409  -3.062  28.628  -9.526
    1XTA    HL622410  -3.206  28.580  -9.446
    1XTA    HL722411  -3.114  28.865  -9.441
    1XTA    HL822412  -3.253  28.819  -9.356
    1XTA    HL922413  -3.219  28.773  -9.644
    1XTA   HL1022414  -3.281  28.937  -9.578
    1XTA   HL1122415  -3.425  28.678  -9.545
    1XTA   HL1222416  -3.472  28.818  -9.464
    1XTA   HL1322417  -3.449  28.805  -9.762
    1XTA   HL1422418  -3.482  28.949  -9.663
    1XTA   HL1522419  -3.644  28.700  -9.653
    1XTA   HL1622420  -3.669  28.857  -9.567
    1XTA   HL1722421  -3.612  28.738  -9.911
    1XTA   HL1822422  -3.774  28.686  -9.864
    1XTA   HL1922423  -3.956  28.967 -10.056
    1XTA   HL2022424  -3.897  28.985  -9.891
    1XTA   HL2122425  -4.103  28.849  -9.919
    1XTA   HL2222426  -3.964  28.758  -9.845
    1XTA   HL2322427  -4.013  28.713 -10.005
    1XTA   HL2422428  -2.570  27.704  -9.193
    1XTA   HL2522429  -2.435  27.726  -9.303
    1XTA    CO822430  -3.758  28.802 -10.137
    1XTA    CO922431  -3.675  28.994 -10.012
    1XTA    OA622432  -3.623  28.765 -10.177
    1XTA   HL4222433  -3.804  28.866 -10.216
    1XTA   HL4322434  -3.826  28.710 -10.137
    1XTA   HL4822435  -3.574  28.960 -10.003
    1XTA   HL4922436  -3.674  29.032 -10.111
    1XTA     NT22437  -2.902  25.372  -5.602
    1XTA    CN122438  -2.822  25.360  -5.708
    1XTA     C122439  -2.832  25.251  -5.796
    1XTA     C222440  -2.741  25.243  -5.906
    1XTA     C322441  -2.629  25.333  -5.914
    1XTA     C422442  -2.619  25.435  -5.827
    1XTA     C522443  -2.714  25.452  -5.724
    1XTA    CN222444  -2.893  25.281  -5.502
    1XTA     C622445  -2.843  25.315  -5.377
    1XTA     C722446  -2.839  25.222  -5.270
    1XTA     C822447  -2.881  25.086  -5.300
    1XTA     C922448  -2.930  25.054  -5.423
    1XTA    C1022449  -2.942  25.156  -5.523
    1XTA    CN322450  -3.009  25.451  -5.612
    1XTA    C1122451  -3.127  25.392  -5.660
    1XTA    C1222452  -3.248  25.465  -5.658
    1XTA    C1322453  -3.242  25.600  -5.638
    1XTA    C1422454  -3.118  25.661  -5.601
    1XTA    C1522455  -2.997  25.586  -5.597
    1XTA     H122456  -2.920  25.192  -5.787
    1XTA     H222457  -2.754  25.170  -5.977
    1XTA     H322458  -2.548  25.514  -5.840
    1XTA     H422459  -2.712  25.530  -5.649
    1XTA     H522460  -2.815  25.414  -5.369
    1XTA     H622461  -2.795  25.252  -5.173
    1XTA     H722462  -2.949  24.949  -5.444
    1XTA     H822463  -2.990  25.129  -5.620
    1XTA     H922464  -3.135  25.291  -5.690
    1XTA    H1022465  -3.336  25.412  -5.676
    1XTA    H1122466  -3.109  25.762  -5.584
    1XTA    H1222467  -2.896  25.628  -5.579
    1XTA    OA122468  -2.531  25.323  -6.008
    1XTA    CO122469  -2.544  25.217  -6.103
    1XTA    OA222470  -2.877  24.990  -5.203
    1XTA    CO222471  -2.784  25.006  -5.098
    1XTA    CL122472  -2.788  24.874  -5.025
    1XTA    CL222473  -2.930  24.848  -4.973
    1XTA    CL322474  -2.942  24.713  -4.890
    1XTA    CL422475  -3.067  24.715  -4.797
    1XTA    CO322476  -3.203  24.700  -4.859
    1XTA    OA322477  -3.296  24.662  -4.766
    1XTA    CO422478  -3.301  24.739  -4.650
    1XTA    CT122479  -3.384  24.677  -4.539
    1XTA    CL522480  -3.532  24.660  -4.583
    1XTA    CL622481  -3.627  24.615  -4.468
    1XTA    OA422482  -3.356  25.670  -5.636
    1XTA    CO522483  -3.349  25.806  -5.602
    1XTA    HL122484  -3.277  25.866  -5.663
    1XTA    HL222485  -2.527  25.117  -6.055
    1XTA    HL322486  -2.644  25.234  -6.153
    1XTA    HL422487  -2.473  25.229  -6.177
    1XTA    HL522488  -2.679  25.037  -5.127
    1XTA    HL622489  -2.826  25.076  -5.027
    1XTA    HL722490  -2.716  24.885  -4.941
    1XTA    HL822491  -2.769  24.794  -5.094
    1XTA    HL922492  -2.998  24.849  -5.054
    1XTA   HL1022493  -2.962  24.931  -4.919
    1XTA   HL1122494  -2.955  24.637  -4.965
    1XTA   HL1222495  -2.852  24.694  -4.842
    1XTA   HL1322496  -3.062  24.811  -4.744
    1XTA   HL1422497  -3.056  24.646  -4.712
    1XTA   HL1522498  -3.234  24.802  -4.899
    1XTA   HL1622499  -3.214  24.619  -4.935
    1XTA   HL1722500  -3.204  24.738  -4.608
    1XTA   HL1822501  -3.327  24.846  -4.673
    1XTA   HL1922502  -3.541  24.579  -4.659
    1XTA   HL2022503  -3.570  24.748  -4.637
    1XTA   HL2122504  -3.729  24.589  -4.500
    1XTA   HL2222505  -3.629  24.690  -4.396
    1XTA   HL2322506  -3.588  24.521  -4.421
    1XTA   HL2422507  -3.318  25.822  -5.501
    1XTA   HL2522508  -3.452  25.849  -5.610
    1XTA    CO822509  -3.391  24.760  -4.408
    1XTA    CO922510  -3.327  24.541  -4.506
    1XTA    OA622511  -3.340  24.440  -4.606
    1XTA   HL4222512  -3.414  24.707  -4.319
    1XTA   HL4322513  -3.479  24.826  -4.413
    1XTA   HL4822514  -3.363  24.493  -4.418
    1XTA   HL4922515  -3.232  24.567  -4.497
    1XTA     NT22516  -6.936  25.676  -7.172
    1XTA    CN122517  -6.965  25.584  -7.079
    1XTA     C122518  -7.008  25.448  -7.105
    1XTA     C222519  -7.037  25.355  -7.000
    1XTA     C322520  -7.038  25.399  -6.869
    1XTA     C422521  -6.993  25.530  -6.841
    1XTA     C522522  -6.968  25.620  -6.942
    1XTA    CN222523  -7.027  25.704  -7.266
    1XTA     C622524  -7.144  25.783  -7.238
    1XTA     C722525  -7.239  25.804  -7.331
    1XTA     C822526  -7.218  25.764  -7.466
    1XTA     C922527  -7.092  25.711  -7.504
    1XTA    C1022528  -7.000  25.676  -7.403
    1XTA    CN322529  -6.820  25.740  -7.188
    1XTA    C1122530  -6.710  25.678  -7.253
    1XTA    C1222531  -6.594  25.758  -7.284
    1XTA    C1322532  -6.576  25.885  -7.234
    1XTA    C1422533  -6.686  25.948  -7.172
    1XTA    C1522534  -6.801  25.877  -7.143
    1XTA     H122535  -7.019  25.408  -7.204
    1XTA     H222536  -7.063  25.259  -7.031
    1XTA     H322537  -6.988  25.566  -6.737
    1XTA     H422538  -6.947  25.720  -6.913
    1XTA     H522539  -7.157  25.823  -7.136
    1XTA     H622540  -7.334  25.851  -7.317
    1XTA     H722541  -7.084  25.682  -7.614
    1XTA     H822542  -6.914  25.618  -7.427
    1XTA     H922543  -6.705  25.573  -7.293
    1XTA    H1022544  -6.507  25.727  -7.343
    1XTA    H1122545  -6.680  26.056  -7.168
    1XTA    H1222546  -6.894  25.924  -7.097
    1XTA    OA122547  -7.080  25.315  -6.769
    1XTA    CO122548  -7.114  25.374  -6.651
    1XTA    OA222549  -7.325  25.788  -7.554
    1XTA    CO222550  -7.308  25.735  -7.688
    1XTA    CL122551  -7.446  25.764  -7.741
    1XTA    CL222552  -7.475  25.708  -7.881
    1XTA    CL322553  -7.378  25.750  -7.991
    1XTA    CL422554  -7.331  25.901  -7.991
    1XTA    CO322555  -7.209  25.923  -8.077
    1XTA    OA322556  -7.122  26.014  -8.025
    1XTA    CO422557  -7.178  26.145  -8.015
    1XTA    CT122558  -7.105  26.240  -7.915
    1XTA    CL522559  -7.142  26.205  -7.772
    1XTA    CL622560  -7.093  26.066  -7.733
    1XTA    OA422561  -6.453  25.950  -7.259
    1XTA    CO522562  -6.437  26.081  -7.196
    1XTA    HL122563  -6.335  26.116  -7.201
    1XTA    HL222564  -7.200  25.436  -6.657
    1XTA    HL322565  -7.135  25.280  -6.595
    1XTA    HL422566  -7.028  25.426  -6.612
    1XTA    HL522567  -7.229  25.789  -7.748
    1XTA    HL622568  -7.290  25.633  -7.695
    1XTA    HL722569  -7.461  25.875  -7.736
    1XTA    HL822570  -7.514  25.713  -7.666
    1XTA    HL922571  -7.572  25.745  -7.904
    1XTA   HL1022572  -7.474  25.592  -7.870
    1XTA   HL1122573  -7.289  25.689  -7.975
    1XTA   HL1222574  -7.416  25.728  -8.090
    1XTA   HL1322575  -7.301  25.929  -7.888
    1XTA   HL1422576  -7.412  25.961  -8.023
    1XTA   HL1522577  -7.174  25.823  -8.096
    1XTA   HL1622578  -7.240  25.949  -8.179
    1XTA   HL1722579  -7.162  26.188  -8.119
    1XTA   HL1822580  -7.287  26.137  -7.999
    1XTA   HL1922581  -7.247  26.225  -7.777
    1XTA   HL2022582  -7.107  26.273  -7.696
    1XTA   HL2122583  -7.123  25.983  -7.792
    1XTA   HL2222584  -7.129  26.039  -7.637
    1XTA   HL2322585  -6.979  26.072  -7.737
    1XTA   HL2422586  -6.472  26.067  -7.093
    1XTA   HL2522587  -6.498  26.153  -7.253
    1XTA    CO822588  -7.159  26.377  -7.937
    1XTA    CO922589  -6.953  26.257  -7.924
    1XTA    OA622590  -7.302  26.366  -7.945
    1XTA   HL4222591  -7.132  26.415  -8.041
    1XTA   HL4322592  -7.111  26.449  -7.865
    1XTA   HL4822593  -6.920  26.151  -7.926
    1XTA   HL4922594  -6.908  26.294  -7.825
    1XTA     NT22595  -2.334  29.416  -6.958
    1XTA    CN122596  -2.427  29.346  -6.891
    1XTA     C122597  -2.485  29.395  -6.770
    1XTA     C222598  -2.597  29.329  -6.723
    1XTA     C322599  -2.634  29.201  -6.773
    1XTA     C422600  -2.564  29.141  -6.879
    1XTA     C522601  -2.463  29.223  -6.944
    1XTA    CN222602  -2.262  29.504  -6.887
    1XTA     C622603  -2.168  29.447  -6.798
    1XTA     C722604  -2.081  29.525  -6.723
    1XTA     C822605  -2.085  29.665  -6.727
    1XTA     C922606  -2.175  29.723  -6.822
    1XTA    C1022607  -2.271  29.644  -6.892
    1XTA    CN322608  -2.364  29.443  -7.084
    1XTA    C1122609  -2.483  29.506  -7.121
    1XTA    C1222610  -2.517  29.521  -7.256
    1XTA    C1322611  -2.425  29.482  -7.355
    1XTA    C1422612  -2.301  29.424  -7.315
    1XTA    C1522613  -2.272  29.402  -7.179
    1XTA     H122614  -2.450  29.488  -6.735
    1XTA     H222615  -2.650  29.379  -6.642
    1XTA     H322616  -2.589  29.046  -6.917
    1XTA     H422617  -2.408  29.185  -7.018
    1XTA     H522618  -2.163  29.339  -6.779
    1XTA     H622619  -2.024  29.463  -6.652
    1XTA     H722620  -2.177  29.825  -6.821
    1XTA     H822621  -2.336  29.685  -6.964
    1XTA     H922622  -2.543  29.525  -7.036
    1XTA    H1022623  -2.615  29.558  -7.285
    1XTA    H1122624  -2.236  29.380  -7.387
    1XTA    H1222625  -2.180  29.342  -7.147
    1XTA    OA122626  -2.750  29.134  -6.737
    1XTA    CO122627  -2.822  29.191  -6.629
    1XTA    OA222628  -2.006  29.737  -6.641
    1XTA    CO222629  -1.934  29.835  -6.701
    1XTA    CL122630  -1.808  29.857  -6.614
    1XTA    CL222631  -1.733  29.720  -6.585
    1XTA    CL322632  -1.595  29.730  -6.523
    1XTA    CL422633  -1.497  29.795  -6.623
    1XTA    CO322634  -1.462  29.708  -6.743
    1XTA    OA322635  -1.561  29.743  -6.839
    1XTA    CO422636  -1.543  29.691  -6.970
    1XTA    CT122637  -1.674  29.687  -7.050
    1XTA    CL522638  -1.735  29.829  -7.029
    1XTA    CL622639  -1.654  29.949  -7.081
    1XTA    OA422640  -2.453  29.507  -7.486
    1XTA    CO522641  -2.361  29.481  -7.589
    1XTA    HL122642  -2.400  29.517  -7.680
    1XTA    HL222643  -2.863  29.289  -6.668
    1XTA    HL322644  -2.906  29.126  -6.591
    1XTA    HL422645  -2.754  29.220  -6.551
    1XTA    HL522646  -1.914  29.793  -6.798
    1XTA    HL622647  -1.988  29.933  -6.720
    1XTA    HL722648  -1.843  29.902  -6.523
    1XTA    HL822649  -1.751  29.930  -6.669
    1XTA    HL922650  -1.716  29.660  -6.681
    1XTA   HL1022651  -1.797  29.660  -6.524
    1XTA   HL1122652  -1.585  29.788  -6.429
    1XTA   HL1222653  -1.555  29.635  -6.495
    1XTA   HL1322654  -1.403  29.807  -6.562
    1XTA   HL1422655  -1.539  29.890  -6.662
    1XTA   HL1522656  -1.363  29.740  -6.774
    1XTA   HL1622657  -1.463  29.602  -6.717
    1XTA   HL1722658  -1.458  29.744  -7.015
    1XTA   HL1822659  -1.524  29.578  -6.967
    1XTA   HL1922660  -1.755  29.844  -6.923
    1XTA   HL2022661  -1.833  29.842  -7.080
    1XTA   HL2122662  -1.708  30.043  -7.075
    1XTA   HL2222663  -1.626  29.930  -7.184
    1XTA   HL2322664  -1.555  29.962  -7.030
    1XTA   HL2422665  -2.346  29.370  -7.591
    1XTA   HL2522666  -2.270  29.531  -7.580
    1XTA    CO822667  -1.771  29.580  -6.995
    1XTA    CO922668  -1.641  29.650  -7.198
    1XTA    OA622669  -1.750  29.677  -7.276
    1XTA   HL4222670  -1.787  29.601  -6.891
    1XTA   HL4322671  -1.872  29.591  -7.027
    1XTA   HL4822672  -1.621  29.543  -7.206
    1XTA   HL4922673  -1.553  29.705  -7.230
    1XTA     NT22674  -2.033  30.199  -8.987
    1XTA    CN122675  -2.021  30.305  -8.906
    1XTA     C122676  -1.890  30.360  -8.886
    1XTA     C222677  -1.886  30.457  -8.788
    1XTA     C322678  -1.997  30.509  -8.713
    1XTA     C422679  -2.120  30.448  -8.736
    1XTA     C522680  -2.131  30.347  -8.831
    1XTA    CN222681  -2.035  30.075  -8.929
    1XTA     C622682  -1.922  29.995  -8.931
    1XTA     C722683  -1.936  29.860  -8.892
    1XTA     C822684  -2.051  29.817  -8.828
    1XTA     C922685  -2.164  29.904  -8.818
    1XTA    C1022686  -2.155  30.033  -8.875
    1XTA    CN322687  -2.061  30.205  -9.117
    1XTA    C1122688  -1.963  30.153  -9.211
    1XTA    C1222689  -1.989  30.177  -9.352
    1XTA    C1322690  -2.110  30.236  -9.394
    1XTA    C1422691  -2.208  30.279  -9.304
    1XTA    C1522692  -2.180  30.265  -9.165
    1XTA     H122693  -1.807  30.312  -8.938
    1XTA     H222694  -1.784  30.506  -8.756
    1XTA     H322695  -2.213  30.492  -8.694
    1XTA     H422696  -2.232  30.304  -8.852
    1XTA     H522697  -1.836  30.030  -8.989
    1XTA     H622698  -1.857  29.784  -8.907
    1XTA     H722699  -2.241  29.868  -8.762
    1XTA     H822700  -2.248  30.092  -8.862
    1XTA     H922701  -1.868  30.117  -9.178
    1XTA    H1022702  -1.930  30.136  -9.430
    1XTA    H1122703  -2.292  30.328  -9.330
    1XTA    H1222704  -2.255  30.295  -9.096
    1XTA    OA122705  -1.975  30.614  -8.626
    1XTA    CO122706  -1.867  30.601  -8.540
    1XTA    OA222707  -2.067  29.687  -8.786
    1XTA    CO222708  -2.083  29.678  -8.646
    1XTA    CL122709  -2.062  29.530  -8.598
    1XTA    CL222710  -1.930  29.467  -8.646
    1XTA    CL322711  -1.896  29.339  -8.580
    1XTA    CL422712  -1.746  29.301  -8.578
    1XTA    CO322713  -1.711  29.183  -8.488
    1XTA    OA322714  -1.803  29.087  -8.507
    1XTA    CO422715  -1.808  28.974  -8.423
    1XTA    CT122716  -1.931  28.952  -8.321
    1XTA    CL522717  -1.967  28.797  -8.313
    1XTA    CL622718  -2.017  28.742  -8.450
    1XTA    OA422719  -2.126  30.251  -9.529
    1XTA    CO522720  -2.223  30.348  -9.565
    1XTA    HL122721  -2.213  30.361  -9.675
    1XTA    HL222722  -1.771  30.552  -8.574
    1XTA    HL322723  -1.836  30.695  -8.505
    1XTA    HL422724  -1.899  30.542  -8.446
    1XTA    HL522725  -2.019  29.747  -8.598
    1XTA    HL622726  -2.184  29.698  -8.628
    1XTA    HL722727  -2.139  29.464  -8.636
    1XTA    HL822728  -2.064  29.521  -8.482
    1XTA    HL922729  -1.849  29.534  -8.620
    1XTA   HL1022730  -1.926  29.466  -8.756
    1XTA   HL1122731  -1.937  29.360  -8.480
    1XTA   HL1222732  -1.957  29.255  -8.610
    1XTA   HL1322733  -1.681  29.381  -8.547
    1XTA   HL1422734  -1.724  29.262  -8.682
    1XTA   HL1522735  -1.618  29.140  -8.514
    1XTA   HL1622736  -1.718  29.200  -8.378
    1XTA   HL1722737  -1.793  28.886  -8.489
    1XTA   HL1822738  -1.726  28.984  -8.354
    1XTA   HL1922739  -2.046  28.780  -8.237
    1XTA   HL2022740  -1.880  28.737  -8.277
    1XTA   HL2122741  -2.109  28.775  -8.483
    1XTA   HL2222742  -2.035  28.635  -8.430
    1XTA   HL2322743  -1.944  28.749  -8.532
    1XTA   HL2422744  -2.224  30.445  -9.516
    1XTA   HL2522745  -2.316  30.306  -9.544
    1XTA    CO822746  -2.051  29.036  -8.363
    1XTA    CO922747  -1.895  28.995  -8.173
    1XTA    OA622748  -2.157  29.048  -8.268
    1XTA   HL4222749  -2.086  29.014  -8.461
    1XTA   HL4322750  -2.014  29.136  -8.371
    1XTA   HL4822751  -1.847  29.093  -8.165
    1XTA   HL4922752  -1.985  28.987  -8.107
    1XTA     NT22753  -6.690  29.604 -10.025
    1XTA    CN122754  -6.598  29.689  -9.963
    1XTA     C122755  -6.505  29.764 -10.036
    1XTA     C222756  -6.407  29.838  -9.975
    1XTA     C322757  -6.401  29.841  -9.837
    1XTA     C422758  -6.493  29.773  -9.759
    1XTA     C522759  -6.587  29.692  -9.821
    1XTA    CN222760  -6.708  29.479  -9.980
    1XTA     C622761  -6.824  29.444  -9.903
    1XTA     C722762  -6.825  29.312  -9.860
    1XTA     C822763  -6.721  29.221  -9.887
    1XTA     C922764  -6.601  29.268  -9.951
    1XTA    C1022765  -6.602  29.392 -10.010
    1XTA    CN322766  -6.786  29.646 -10.116
    1XTA    C1122767  -6.842  29.772 -10.111
    1XTA    C1222768  -6.944  29.815 -10.197
    1XTA    C1322769  -6.994  29.722 -10.288
    1XTA    C1422770  -6.941  29.596 -10.301
    1XTA    C1522771  -6.847  29.555 -10.206
    1XTA     H122772  -6.513  29.771 -10.138
    1XTA     H222773  -6.329  29.882 -10.033
    1XTA     H322774  -6.494  29.802  -9.656
    1XTA     H422775  -6.652  29.637  -9.753
    1XTA     H522776  -6.910  29.507  -9.881
    1XTA     H622777  -6.912  29.270  -9.813
    1XTA     H722778  -6.521  29.201  -9.976
    1XTA     H822779  -6.520  29.441 -10.053
    1XTA     H922780  -6.814  29.842 -10.032
    1XTA    H1022781  -6.987  29.919 -10.194
    1XTA    H1122782  -6.972  29.527 -10.373
    1XTA    H1222783  -6.816  29.454 -10.211
    1XTA    OA122784  -6.309  29.904  -9.765
    1XTA    CO122785  -6.201  29.971  -9.843
    1XTA    OA222786  -6.727  29.091  -9.850
    1XTA    CO222787  -6.844  29.043  -9.785
    1XTA    CL122788  -6.816  28.896  -9.741
    1XTA    CL222789  -6.921  28.819  -9.653
    1XTA    CL322790  -7.060  28.795  -9.719
    1XTA    CL422791  -7.155  28.753  -9.613
    1XTA    CO322792  -7.308  28.762  -9.645
    1XTA    OA322793  -7.332  28.650  -9.728
    1XTA    CO422794  -7.467  28.620  -9.721
    1XTA    CT122795  -7.526  28.543  -9.845
    1XTA    CL522796  -7.679  28.578  -9.848
    1XTA    CL622797  -7.769  28.549  -9.729
    1XTA    OA422798  -7.104  29.757 -10.365
    1XTA    CO522799  -7.210  29.672 -10.342
    1XTA    HL122800  -7.219  29.649 -10.234
    1XTA    HL222801  -6.159  29.882  -9.891
    1XTA    HL322802  -6.238  30.038  -9.919
    1XTA    HL422803  -6.125  30.025  -9.781
    1XTA    HL522804  -6.870  29.087  -9.691
    1XTA    HL622805  -6.933  29.044  -9.844
    1XTA    HL722806  -6.727  28.900  -9.683
    1XTA    HL822807  -6.791  28.846  -9.833
    1XTA    HL922808  -6.938  28.872  -9.556
    1XTA   HL1022809  -6.885  28.719  -9.623
    1XTA   HL1122810  -7.096  28.895  -9.763
    1XTA   HL1222811  -7.062  28.721  -9.802
    1XTA   HL1322812  -7.146  28.821  -9.531
    1XTA   HL1422813  -7.121  28.667  -9.555
    1XTA   HL1522814  -7.367  28.753  -9.558
    1XTA   HL1622815  -7.336  28.846  -9.702
    1XTA   HL1722816  -7.484  28.579  -9.625
    1XTA   HL1822817  -7.528  28.710  -9.707
    1XTA   HL1922818  -7.725  28.526  -9.933
    1XTA   HL2022819  -7.698  28.683  -9.869
    1XTA   HL2122820  -7.768  28.448  -9.691
    1XTA   HL2222821  -7.878  28.568  -9.747
    1XTA   HL2322822  -7.742  28.608  -9.644
    1XTA   HL2422823  -7.195  29.571 -10.387
    1XTA   HL2522824  -7.299  29.715 -10.384
    1XTA    CO822825  -7.508  28.391  -9.818
    1XTA    CO922826  -7.443  28.580  -9.975
    1XTA    OA622827  -7.575  28.336  -9.887
    1XTA   HL4222828  -7.532  28.364  -9.721
    1XTA   HL4322829  -7.407  28.368  -9.844
    1XTA   HL4822830  -7.304  28.583  -9.952
    1XTA   HL4922831  -7.464  28.515 -10.059
    1XTA     NT22832  -1.901  29.451 -11.100
    1XTA    CN122833  -2.034  29.476 -11.080
    1XTA     C122834  -2.125  29.395 -11.145
    1XTA     C222835  -2.264  29.413 -11.136
    1XTA     C322836  -2.313  29.518 -11.053
    1XTA     C422837  -2.222  29.610 -10.994
    1XTA     C522838  -2.084  29.582 -11.003
    1XTA    CN222839  -1.824  29.375 -11.017
    1XTA     C622840  -1.769  29.256 -11.057
    1XTA     C722841  -1.680  29.183 -10.972
    1XTA     C822842  -1.646  29.238 -10.845
    1XTA     C922843  -1.708  29.358 -10.806
    1XTA    C1022844  -1.792  29.427 -10.891
    1XTA    CN322845  -1.829  29.513 -11.193
    1XTA    C1122846  -1.760  29.630 -11.159
    1XTA    C1222847  -1.670  29.693 -11.249
    1XTA    C1322848  -1.631  29.631 -11.366
    1XTA    C1422849  -1.705  29.514 -11.404
    1XTA    C1522850  -1.805  29.457 -11.321
    1XTA     H122851  -2.084  29.320 -11.210
    1XTA     H222852  -2.334  29.346 -11.178
    1XTA     H322853  -2.256  29.689 -10.933
    1XTA     H422854  -2.008  29.645 -10.966
    1XTA     H522855  -1.777  29.216 -11.158
    1XTA     H622856  -1.631  29.089 -11.000
    1XTA     H722857  -1.680  29.396 -10.710
    1XTA     H822858  -1.818  29.528 -10.859
    1XTA     H922859  -1.782  29.669 -11.060
    1XTA    H1022860  -1.618  29.785 -11.230
    1XTA    H1122861  -1.669  29.447 -11.482
    1XTA    H1222862  -1.852  29.369 -11.360
    1XTA    OA122863  -2.448  29.551 -11.048
    1XTA    CO122864  -2.513  29.537 -11.173
    1XTA    OA222865  -1.553  29.176 -10.762
    1XTA    CO222866  -1.560  29.040 -10.765
    1XTA    CL122867  -1.466  28.992 -10.656
    1XTA    CL222868  -1.446  28.842 -10.645
    1XTA    CL322869  -1.567  28.749 -10.653
    1XTA    CL422870  -1.541  28.605 -10.702
    1XTA    CO322871  -1.646  28.564 -10.800
    1XTA    OA322872  -1.768  28.556 -10.726
    1XTA    CO422873  -1.868  28.513 -10.814
    1XTA    CT122874  -1.994  28.499 -10.725
    1XTA    CL522875  -2.031  28.639 -10.675
    1XTA    CL622876  -2.146  28.631 -10.564
    1XTA    OA422877  -1.520  29.676 -11.438
    1XTA    CO522878  -1.470  29.582 -11.530
    1XTA    HL122879  -1.415  29.499 -11.480
    1XTA    HL222880  -2.611  29.576 -11.157
    1XTA    HL322881  -2.465  29.599 -11.250
    1XTA    HL422882  -2.519  29.433 -11.210
    1XTA    HL522883  -1.660  29.003 -10.739
    1XTA    HL622884  -1.528  29.000 -10.863
    1XTA    HL722885  -1.502  29.031 -10.562
    1XTA    HL822886  -1.367  29.038 -10.655
    1XTA    HL922887  -1.403  28.829 -10.544
    1XTA   HL1022888  -1.373  28.817 -10.725
    1XTA   HL1122889  -1.609  28.725 -10.558
    1XTA   HL1222890  -1.643  28.794 -10.723
    1XTA   HL1322891  -1.531  28.539 -10.618
    1XTA   HL1422892  -1.442  28.607 -10.742
    1XTA   HL1522893  -1.651  28.636 -10.886
    1XTA   HL1622894  -1.627  28.458 -10.829
    1XTA   HL1722895  -1.877  28.578 -10.903
    1XTA   HL1822896  -1.837  28.415 -10.852
    1XTA   HL1922897  -2.054  28.704 -10.753
    1XTA   HL2022898  -1.944  28.686 -10.622
    1XTA   HL2122899  -2.242  28.631 -10.621
    1XTA   HL2222900  -2.138  28.712 -10.503
    1XTA   HL2322901  -2.129  28.546 -10.495
    1XTA   HL2422902  -1.389  29.622 -11.592
    1XTA   HL2522903  -1.543  29.544 -11.603
    1XTA    CO822904  -1.957  28.399 -10.610
    1XTA    CO922905  -2.111  28.429 -10.797
    1XTA    OA622906  -2.196  28.427 -10.727
    1XTA   HL4222907  -1.874  28.440 -10.550
    1XTA   HL4322908  -2.062  28.357 -10.532
    1XTA   HL4822909  -2.072  28.332 -10.815
    1XTA   HL4922910  -2.136  28.480 -10.885
    1XTA     NT22911  -7.431  23.316  -5.854
    1XTA    CN122912  -7.309  23.310  -5.792
    1XTA     C122913  -7.303  23.313  -5.652
    1XTA     C222914  -7.183  23.305  -5.585
    1XTA     C322915  -7.063  23.282  -5.658
    1XTA     C422916  -7.078  23.273  -5.801
    1XTA     C522917  -7.195  23.298  -5.868
    1XTA    CN222918  -7.478  23.209  -5.916
    1XTA     C622919  -7.534  23.099  -5.851
    1XTA     C722920  -7.580  22.983  -5.914
    1XTA     C822921  -7.582  22.974  -6.056
    1XTA     C922922  -7.535  23.090  -6.122
    1XTA    C1022923  -7.496  23.209  -6.055
    1XTA    CN322924  -7.485  23.433  -5.881
    1XTA    C1122925  -7.609  23.473  -5.826
    1XTA    C1222926  -7.666  23.598  -5.851
    1XTA    C1322927  -7.602  23.681  -5.943
    1XTA    C1422928  -7.473  23.647  -5.995
    1XTA    C1522929  -7.417  23.526  -5.956
    1XTA     H122930  -7.399  23.339  -5.603
    1XTA     H222931  -7.176  23.324  -5.480
    1XTA     H322932  -6.990  23.254  -5.863
    1XTA     H422933  -7.200  23.277  -5.977
    1XTA     H522934  -7.529  23.101  -5.743
    1XTA     H622935  -7.606  22.892  -5.862
    1XTA     H722936  -7.554  23.104  -6.226
    1XTA     H822937  -7.460  23.292  -6.111
    1XTA     H922938  -7.654  23.408  -5.751
    1XTA    H1022939  -7.759  23.611  -5.805
    1XTA    H1122940  -7.420  23.707  -6.064
    1XTA    H1222941  -7.324  23.493  -6.004
    1XTA    OA122942  -6.940  23.255  -5.598
    1XTA    CO122943  -6.935  23.236  -5.459
    1XTA    OA222944  -7.618  22.853  -6.115
    1XTA    CO222945  -7.615  22.851  -6.260
    1XTA    CL122946  -7.617  22.711  -6.316
    1XTA    CL222947  -7.504  22.632  -6.244
    1XTA    CL322948  -7.382  22.628  -6.328
    1XTA    CL422949  -7.257  22.598  -6.244
    1XTA    CO322950  -7.133  22.568  -6.321
    1XTA    OA322951  -7.083  22.684  -6.379
    1XTA    CO422952  -6.973  22.654  -6.462
    1XTA    CT122953  -6.865  22.763  -6.454
    1XTA    CL522954  -6.728  22.736  -6.531
    1XTA    CL622955  -6.634  22.641  -6.446
    1XTA    OA422956  -7.643  23.808  -5.976
    1XTA    CO522957  -7.722  23.882  -5.877
    1XTA    HL122958  -7.779  23.817  -5.816
    1XTA    HL222959  -6.974  23.325  -5.415
    1XTA    HL322960  -6.984  23.146  -5.426
    1XTA    HL422961  -6.834  23.209  -5.428
    1XTA    HL522962  -7.694  22.912  -6.292
    1XTA    HL622963  -7.524  22.902  -6.291
    1XTA    HL722964  -7.597  22.724  -6.426
    1XTA    HL822965  -7.713  22.669  -6.304
    1XTA    HL922966  -7.537  22.542  -6.202
    1XTA   HL1022967  -7.468  22.683  -6.148
    1XTA   HL1122968  -7.405  22.551  -6.411
    1XTA   HL1222969  -7.371  22.721  -6.375
    1XTA   HL1322970  -7.275  22.515  -6.172
    1XTA   HL1422971  -7.229  22.688  -6.188
    1XTA   HL1522972  -7.048  22.538  -6.250
    1XTA   HL1622973  -7.149  22.491  -6.397
    1XTA   HL1722974  -6.932  22.552  -6.448
    1XTA   HL1822975  -7.009  22.642  -6.567
    1XTA   HL1922976  -6.677  22.829  -6.548
    1XTA   HL2022977  -6.741  22.692  -6.624
    1XTA   HL2122978  -6.610  22.692  -6.349
    1XTA   HL2222979  -6.541  22.602  -6.495
    1XTA   HL2322980  -6.704  22.559  -6.426
    1XTA   HL2422981  -7.784  23.962  -5.914
    1XTA   HL2522982  -7.636  23.929  -5.821
    1XTA    CO822983  -6.856  22.794  -6.298
    1XTA    CO922984  -6.919  22.892  -6.515
    1XTA    OA622985  -6.754  22.897  -6.285
    1XTA   HL4222986  -6.835  22.700  -6.250
    1XTA   HL4322987  -6.953  22.818  -6.252
    1XTA   HL4822988  -7.007  22.915  -6.460
    1XTA   HL4922989  -6.843  22.968  -6.486
    1XTA     NT22990  -4.460  29.379 -10.805
    1XTA    CN122991  -4.517  29.366 -10.924
    1XTA     C122992  -4.641  29.298 -10.932
    1XTA     C222993  -4.721  29.310 -11.045
    1XTA     C322994  -4.667  29.363 -11.157
    1XTA     C422995  -4.547  29.437 -11.156
    1XTA     C522996  -4.481  29.444 -11.034
    1XTA    CN222997  -4.501  29.466 -10.706
    1XTA     C622998  -4.572  29.574 -10.745
    1XTA     C722999  -4.631  29.652 -10.647
    1XTA     C823000  -4.617  29.618 -10.510
    1XTA     C923001  -4.541  29.506 -10.474
    1XTA    C1023002  -4.475  29.434 -10.571
    1XTA    CN323003  -4.345  29.310 -10.798
    1XTA    C1123004  -4.225  29.386 -10.804
    1XTA    C1223005  -4.101  29.323 -10.802
    1XTA    C1323006  -4.088  29.184 -10.790
    1XTA    C1423007  -4.213  29.112 -10.793
    1XTA    C1523008  -4.339  29.168 -10.793
    1XTA     H123009  -4.670  29.238 -10.854
    1XTA     H223010  -4.814  29.251 -11.040
    1XTA     H323011  -4.497  29.477 -11.246
    1XTA     H423012  -4.389  29.498 -11.033
    1XTA     H523013  -4.598  29.603 -10.846
    1XTA     H623014  -4.697  29.726 -10.686
    1XTA     H723015  -4.524  29.492 -10.367
    1XTA     H823016  -4.412  29.357 -10.544
    1XTA     H923017  -4.229  29.494 -10.809
    1XTA    H1023018  -4.016  29.385 -10.811
    1XTA    H1123019  -4.204  29.001 -10.808
    1XTA    H1223020  -4.428  29.109 -10.798
    1XTA    OA123021  -4.740  29.351 -11.276
    1XTA    CO123022  -4.664  29.374 -11.398
    1XTA    OA223023  -4.686  29.679 -10.411
    1XTA    CO223024  -4.786  29.769 -10.449
    1XTA    CL123025  -4.864  29.827 -10.330
    1XTA    CL223026  -4.776  29.912 -10.235
    1XTA    CL323027  -4.765  30.057 -10.280
    1XTA    CL423028  -4.667  30.070 -10.401
    1XTA    CO323029  -4.602  30.203 -10.404
    1XTA    OA323030  -4.531  30.233 -10.528
    1XTA    CO423031  -4.417  30.154 -10.555
    1XTA    CT123032  -4.331  30.220 -10.667
    1XTA    CL523033  -4.406  30.231 -10.803
    1XTA    CL623034  -4.434  30.105 -10.884
    1XTA    OA423035  -3.974  29.113 -10.799
    1XTA    CO523036  -3.851  29.176 -10.760
    1XTA    HL123037  -3.772  29.103 -10.740
    1XTA    HL223038  -4.723  29.328 -11.475
    1XTA    HL323039  -4.646  29.474 -11.412
    1XTA    HL423040  -4.570  29.325 -11.389
    1XTA    HL523041  -4.739  29.844 -10.508
    1XTA    HL623042  -4.850  29.719 -10.525
    1XTA    HL723043  -4.909  29.740 -10.283
    1XTA    HL823044  -4.941  29.887 -10.361
    1XTA    HL923045  -4.677  29.870 -10.228
    1XTA   HL1023046  -4.823  29.894 -10.135
    1XTA   HL1123047  -4.860  30.104 -10.303
    1XTA   HL1223048  -4.716  30.116 -10.196
    1XTA   HL1323049  -4.726  30.060 -10.491
    1XTA   HL1423050  -4.594  29.986 -10.399
    1XTA   HL1523051  -4.678  30.271 -10.375
    1XTA   HL1623052  -4.526  30.207 -10.328
    1XTA   HL1723053  -4.355  30.132 -10.470
    1XTA   HL1823054  -4.454  30.056 -10.591
    1XTA   HL1923055  -4.360  30.301 -10.865
    1XTA   HL2023056  -4.506  30.278 -10.777
    1XTA   HL2123057  -4.480  30.030 -10.826
    1XTA   HL2223058  -4.345  30.066 -10.925
    1XTA   HL2323059  -4.508  30.114 -10.959
    1XTA   HL2423060  -3.873  29.240 -10.676
    1XTA   HL2523061  -3.806  29.249 -10.831
    1XTA    CO823062  -4.197  30.133 -10.683
    1XTA    CO923063  -4.287  30.362 -10.624
    1XTA    OA623064  -4.217  30.034 -10.728
    1XTA   HL4223065  -4.152  30.117 -10.584
    1XTA   HL4323066  -4.133  30.192 -10.754
    1XTA   HL4823067  -4.399  30.432 -10.579
    1XTA   HL4923068  -4.230  30.405 -10.709
    1XTA     NT23069  -6.479  27.570  -9.882
    1XTA    CN123070  -6.436  27.602 -10.002
    1XTA     C123071  -6.523  27.660 -10.091
    1XTA     C223072  -6.467  27.723 -10.208
    1XTA     C323073  -6.334  27.691 -10.241
    1XTA     C423074  -6.257  27.605 -10.160
    1XTA     C523075  -6.304  27.565 -10.034
    1XTA    CN223076  -6.551  27.465  -9.869
    1XTA     C623077  -6.687  27.461  -9.902
    1XTA     C723078  -6.762  27.351  -9.890
    1XTA     C823079  -6.693  27.231  -9.855
    1XTA     C923080  -6.560  27.235  -9.816
    1XTA    C1023081  -6.489  27.351  -9.825
    1XTA    CN323082  -6.449  27.651  -9.778
    1XTA    C1123083  -6.550  27.735  -9.729
    1XTA    C1223084  -6.511  27.804  -9.618
    1XTA    C1323085  -6.382  27.805  -9.552
    1XTA    C1423086  -6.282  27.725  -9.609
    1XTA    C1523087  -6.320  27.648  -9.722
    1XTA     H123088  -6.625  27.680 -10.064
    1XTA     H223089  -6.528  27.784 -10.268
    1XTA     H323090  -6.151  27.577 -10.181
    1XTA     H423091  -6.238  27.514  -9.961
    1XTA     H523092  -6.729  27.550  -9.940
    1XTA     H623093  -6.869  27.352  -9.913
    1XTA     H723094  -6.512  27.146  -9.784
    1XTA     H823095  -6.379  27.343  -9.811
    1XTA     H923096  -6.639  27.738  -9.788
    1XTA    H1023097  -6.572  27.870  -9.564
    1XTA    H1123098  -6.179  27.728  -9.573
    1XTA    H1223099  -6.244  27.588  -9.769
    1XTA    OA123100  -6.273  27.730 -10.360
    1XTA    CO123101  -6.342  27.812 -10.448
    1XTA    OA223102  -6.754  27.109  -9.856
    1XTA    CO223103  -6.700  27.018  -9.952
    1XTA    CL123104  -6.820  26.932 -10.018
    1XTA    CL223105  -6.774  26.848 -10.137
    1XTA    CL323106  -6.714  26.710 -10.099
    1XTA    CL423107  -6.829  26.617 -10.053
    1XTA    CO323108  -6.787  26.475 -10.019
    1XTA    OA323109  -6.914  26.404 -10.016
    1XTA    CO423110  -6.900  26.259  -9.994
    1XTA    CT123111  -7.026  26.184 -10.005
    1XTA    CL523112  -7.013  26.027 -10.000
    1XTA    CL623113  -6.932  25.957 -10.096
    1XTA    OA423114  -6.369  27.889  -9.446
    1XTA    CO523115  -6.241  27.905  -9.401
    1XTA    HL123116  -6.194  27.806  -9.379
    1XTA    HL223117  -6.365  27.912 -10.405
    1XTA    HL323118  -6.274  27.829 -10.528
    1XTA    HL423119  -6.428  27.766 -10.489
    1XTA    HL523120  -6.663  27.073 -10.036
    1XTA    HL623121  -6.607  26.961  -9.932
    1XTA    HL723122  -6.884  27.005 -10.056
    1XTA    HL823123  -6.884  26.874  -9.945
    1XTA    HL923124  -6.716  26.920 -10.201
    1XTA   HL1023125  -6.862  26.838 -10.206
    1XTA   HL1123126  -6.682  26.675 -10.193
    1XTA   HL1223127  -6.627  26.718 -10.038
    1XTA   HL1323128  -6.892  26.606 -10.139
    1XTA   HL1423129  -6.889  26.669  -9.973
    1XTA   HL1523130  -6.711  26.434 -10.089
    1XTA   HL1623131  -6.738  26.459  -9.925
    1XTA   HL1723132  -6.820  26.225 -10.071
    1XTA   HL1823133  -6.861  26.246  -9.895
    1XTA   HL1923134  -7.109  25.976 -10.002
    1XTA   HL2023135  -6.979  26.006  -9.898
    1XTA   HL2123136  -6.824  25.972 -10.071
    1XTA   HL2223137  -6.949  26.004 -10.199
    1XTA   HL2323138  -6.950  25.850 -10.099
    1XTA   HL2423139  -6.234  27.972  -9.313
    1XTA   HL2523140  -6.181  27.953  -9.483
    1XTA    CO823141  -7.109  26.220 -10.130
    1XTA    CO923142  -7.117  26.233  -9.894
    1XTA    OA623143  -7.094  26.176  -9.768
    1XTA   HL4223144  -7.132  26.327 -10.133
    1XTA   HL4323145  -7.042  26.207 -10.219
    1XTA   HL4823146  -7.222  26.226  -9.916
    1XTA   HL4923147  -7.095  26.334  -9.881
    1XTA     NT23148  -4.003  24.923  -4.415
    1XTA    CN123149  -4.124  24.972  -4.441
    1XTA     C123150  -4.157  25.069  -4.544
    1XTA     C223151  -4.287  25.122  -4.558
    1XTA     C323152  -4.395  25.074  -4.480
    1XTA     C423153  -4.365  24.985  -4.374
    1XTA     C523154  -4.233  24.928  -4.359
    1XTA    CN223155  -3.894  25.002  -4.402
    1XTA     C623156  -3.773  24.967  -4.462
    1XTA     C723157  -3.659  25.049  -4.435
    1XTA     C823158  -3.668  25.165  -4.353
    1XTA     C923159  -3.789  25.194  -4.290
    1XTA    C1023160  -3.901  25.108  -4.306
    1XTA    CN323161  -3.991  24.795  -4.371
    1XTA    C1123162  -3.973  24.772  -4.231
    1XTA    C1223163  -3.940  24.646  -4.184
    1XTA    C1323164  -3.925  24.534  -4.274
    1XTA    C1423165  -3.945  24.555  -4.418
    1XTA    C1523166  -3.978  24.688  -4.462
    1XTA     H123167  -4.080  25.097  -4.608
    1XTA     H223168  -4.304  25.188  -4.640
    1XTA     H323169  -4.451  24.946  -4.320
    1XTA     H423170  -4.222  24.846  -4.281
    1XTA     H523171  -3.776  24.877  -4.520
    1XTA     H623172  -3.561  25.030  -4.482
    1XTA     H723173  -3.790  25.279  -4.229
    1XTA     H823174  -4.000  25.128  -4.264
    1XTA     H923175  -3.982  24.854  -4.163
    1XTA    H1023176  -3.930  24.627  -4.079
    1XTA    H1123177  -3.954  24.478  -4.488
    1XTA    H1223178  -3.981  24.705  -4.573
    1XTA    OA123179  -4.523  25.128  -4.490
    1XTA    CO123180  -4.567  25.154  -4.622
    1XTA    OA223181  -3.565  25.249  -4.333
    1XTA    CO223182  -3.545  25.327  -4.450
    1XTA    CL123183  -3.437  25.428  -4.434
    1XTA    CL223184  -3.479  25.551  -4.340
    1XTA    CL323185  -3.461  25.514  -4.196
    1XTA    CL423186  -3.469  25.645  -4.114
    1XTA    CO323187  -3.613  25.697  -4.100
    1XTA    OA323188  -3.689  25.592  -4.031
    1XTA    CO423189  -3.681  25.604  -3.891
    1XTA    CT123190  -3.709  25.470  -3.820
    1XTA    CL523191  -3.631  25.357  -3.893
    1XTA    CL623192  -3.633  25.216  -3.837
    1XTA    OA423193  -3.892  24.413  -4.230
    1XTA    CO523194  -3.874  24.309  -4.325
    1XTA    HL123195  -3.831  24.221  -4.277
    1XTA    HL223196  -4.560  25.058  -4.677
    1XTA    HL323197  -4.667  25.193  -4.610
    1XTA    HL423198  -4.515  25.241  -4.669
    1XTA    HL523199  -3.513  25.252  -4.524
    1XTA    HL623200  -3.636  25.377  -4.487
    1XTA    HL723201  -3.420  25.468  -4.534
    1XTA    HL823202  -3.346  25.389  -4.392
    1XTA    HL923203  -3.580  25.584  -4.374
    1XTA   HL1023204  -3.404  25.627  -4.357
    1XTA   HL1123205  -3.534  25.441  -4.160
    1XTA   HL1223206  -3.363  25.468  -4.179
    1XTA   HL1323207  -3.410  25.721  -4.167
    1XTA   HL1423208  -3.435  25.621  -4.011
    1XTA   HL1523209  -3.614  25.784  -4.047
    1XTA   HL1623210  -3.664  25.714  -4.196
    1XTA   HL1723211  -3.585  25.641  -3.857
    1XTA   HL1823212  -3.745  25.689  -3.865
    1XTA   HL1923213  -3.524  25.381  -3.898
    1XTA   HL2023214  -3.659  25.358  -3.997
    1XTA   HL2123215  -3.556  25.145  -3.879
    1XTA   HL2223216  -3.731  25.174  -3.861
    1XTA   HL2323217  -3.608  25.204  -3.732
    1XTA   HL2423218  -3.789  24.342  -4.396
    1XTA   HL2523219  -3.965  24.276  -4.374
    1XTA    CO823220  -3.852  25.460  -3.760
    1XTA    CO923221  -3.661  25.496  -3.683
    1XTA    OA623222  -3.785  25.475  -3.629
    1XTA   HL4223223  -3.896  25.364  -3.781
    1XTA   HL4323224  -3.914  25.547  -3.789
    1XTA   HL4823225  -3.616  25.603  -3.667
    1XTA   HL4923226  -3.585  25.426  -3.649
    1XTA     NT23227  -2.757  28.187  -8.583
    1XTA    CN123228  -2.761  28.313  -8.639
    1XTA     C123229  -2.815  28.321  -8.770
    1XTA     C223230  -2.796  28.442  -8.842
    1XTA     C323231  -2.742  28.557  -8.777
    1XTA     C423232  -2.713  28.553  -8.642
    1XTA     C523233  -2.722  28.430  -8.571
    1XTA    CN223234  -2.804  28.154  -8.461
    1XTA     C623235  -2.724  28.102  -8.354
    1XTA     C723236  -2.781  28.068  -8.227
    1XTA     C823237  -2.917  28.106  -8.211
    1XTA     C923238  -2.996  28.153  -8.311
    1XTA    C1023239  -2.937  28.175  -8.435
    1XTA    CN323240  -2.700  28.088  -8.651
    1XTA    C1123241  -2.767  27.970  -8.682
    1XTA    C1223242  -2.707  27.866  -8.755
    1XTA    C1323243  -2.579  27.880  -8.796
    1XTA    C1423244  -2.506  27.996  -8.766
    1XTA    C1523245  -2.565  28.099  -8.691
    1XTA     H123246  -2.859  28.233  -8.810
    1XTA     H223247  -2.838  28.453  -8.938
    1XTA     H323248  -2.689  28.638  -8.578
    1XTA     H423249  -2.697  28.421  -8.463
    1XTA     H523250  -2.614  28.083  -8.376
    1XTA     H623251  -2.724  28.023  -8.149
    1XTA     H723252  -3.102  28.172  -8.314
    1XTA     H823253  -3.000  28.219  -8.513
    1XTA     H923254  -2.864  27.968  -8.658
    1XTA    H1023255  -2.747  27.774  -8.784
    1XTA    H1123256  -2.405  28.006  -8.811
    1XTA    H1223257  -2.519  28.195  -8.669
    1XTA    OA123258  -2.734  28.665  -8.858
    1XTA    CO123259  -2.661  28.775  -8.810
    1XTA    OA223260  -2.965  28.064  -8.087
    1XTA    CO223261  -3.098  28.098  -8.048
    1XTA    CL123262  -3.130  28.017  -7.920
    1XTA    CL223263  -3.277  28.051  -7.873
    1XTA    CL323264  -3.316  27.981  -7.741
    1XTA    CL423265  -3.453  28.029  -7.678
    1XTA    CO323266  -3.438  28.169  -7.621
    1XTA    OA323267  -3.342  28.170  -7.519
    1XTA    CO423268  -3.295  28.299  -7.499
    1XTA    CT123269  -3.171  28.295  -7.409
    1XTA    CL523270  -3.202  28.205  -7.284
    1XTA    CL623271  -3.098  28.202  -7.167
    1XTA    OA423272  -2.517  27.767  -8.850
    1XTA    CO523273  -2.399  27.796  -8.925
    1XTA    HL123274  -2.370  27.709  -8.978
    1XTA    HL223275  -2.656  28.857  -8.883
    1XTA    HL323276  -2.707  28.811  -8.717
    1XTA    HL423277  -2.559  28.730  -8.795
    1XTA    HL523278  -3.102  28.209  -8.038
    1XTA    HL623279  -3.171  28.067  -8.125
    1XTA    HL723280  -3.064  28.048  -7.831
    1XTA    HL823281  -3.117  27.906  -7.940
    1XTA    HL923282  -3.356  28.020  -7.946
    1XTA   HL1023283  -3.297  28.155  -7.864
    1XTA   HL1123284  -3.316  27.868  -7.749
    1XTA   HL1223285  -3.242  28.003  -7.667
    1XTA   HL1323286  -3.500  27.955  -7.614
    1XTA   HL1423287  -3.515  28.039  -7.761
    1XTA   HL1523288  -3.418  28.231  -7.702
    1XTA   HL1623289  -3.527  28.198  -7.567
    1XTA   HL1723290  -3.276  28.359  -7.588
    1XTA   HL1823291  -3.373  28.344  -7.433
    1XTA   HL1923292  -3.208  28.104  -7.318
    1XTA   HL2023293  -3.299  28.240  -7.242
    1XTA   HL2123294  -2.998  28.175  -7.209
    1XTA   HL2223295  -3.129  28.132  -7.087
    1XTA   HL2323296  -3.094  28.305  -7.129
    1XTA   HL2423297  -2.315  27.836  -8.866
    1XTA   HL2523298  -2.430  27.864  -8.997
    1XTA    CO823299  -3.139  28.443  -7.376
    1XTA    CO923300  -3.061  28.235  -7.494
    1XTA    OA623301  -2.966  28.226  -7.445
    1XTA   HL4223302  -3.048  28.442  -7.314
    1XTA   HL4323303  -3.240  28.505  -7.302
    1XTA   HL4823304  -3.048  28.294  -7.592
    1XTA   HL4923305  -3.098  28.142  -7.530
    1XTA     NT23306  -1.551  32.375  -8.750
    1XTA    CN123307  -1.599  32.343  -8.633
    1XTA     C123308  -1.737  32.335  -8.609
    1XTA     C223309  -1.782  32.314  -8.477
    1XTA     C323310  -1.691  32.298  -8.367
    1XTA     C423311  -1.552  32.287  -8.396
    1XTA     C523312  -1.510  32.318  -8.528
    1XTA    CN223313  -1.564  32.283  -8.846
    1XTA     C623314  -1.661  32.310  -8.948
    1XTA     C723315  -1.668  32.215  -9.057
    1XTA     C823316  -1.610  32.090  -9.041
    1XTA     C923317  -1.520  32.063  -8.941
    1XTA    C1023318  -1.492  32.159  -8.844
    1XTA    CN323319  -1.496  32.494  -8.772
    1XTA    C1123320  -1.556  32.617  -8.747
    1XTA    C1223321  -1.496  32.740  -8.790
    1XTA    C1323322  -1.365  32.740  -8.837
    1XTA    C1423323  -1.292  32.618  -8.849
    1XTA    C1523324  -1.364  32.495  -8.829
    1XTA     H123325  -1.806  32.354  -8.685
    1XTA     H223326  -1.893  32.308  -8.464
    1XTA     H323327  -1.478  32.286  -8.321
    1XTA     H423328  -1.399  32.317  -8.549
    1XTA     H523329  -1.715  32.404  -8.949
    1XTA     H623330  -1.737  32.219  -9.139
    1XTA     H723331  -1.472  31.967  -8.942
    1XTA     H823332  -1.408  32.136  -8.780
    1XTA     H923333  -1.657  32.621  -8.697
    1XTA    H1023334  -1.547  32.833  -8.766
    1XTA    H1123335  -1.192  32.616  -8.885
    1XTA    H1223336  -1.304  32.404  -8.844
    1XTA    OA123337  -1.749  32.263  -8.249
    1XTA    CO123338  -1.680  32.180  -8.161
    1XTA    OA223339  -1.644  32.000  -9.141
    1XTA    CO223340  -1.603  31.860  -9.139
    1XTA    CL123341  -1.463  31.833  -9.197
    1XTA    CL223342  -1.413  31.686  -9.171
    1XTA    CL323343  -1.262  31.680  -9.220
    1XTA    CL423344  -1.232  31.597  -9.348
    1XTA    CO323345  -1.226  31.451  -9.329
    1XTA    OA323346  -1.347  31.386  -9.281
    1XTA    CO423347  -1.355  31.247  -9.301
    1XTA    CT123348  -1.470  31.191  -9.216
    1XTA    CL523349  -1.456  31.226  -9.065
    1XTA    CL623350  -1.339  31.148  -8.989
    1XTA    OA423351  -1.311  32.853  -8.887
    1XTA    CO523352  -1.192  32.843  -8.960
    1XTA    HL123353  -1.111  32.803  -8.896
    1XTA    HL223354  -1.599  32.244  -8.114
    1XTA    HL323355  -1.752  32.148  -8.084
    1XTA    HL423356  -1.645  32.076  -8.200
    1XTA    HL523357  -1.616  31.828  -9.036
    1XTA    HL623358  -1.682  31.811  -9.205
    1XTA    HL723359  -1.386  31.903  -9.159
    1XTA    HL823360  -1.461  31.852  -9.304
    1XTA    HL923361  -1.459  31.602  -9.230
    1XTA   HL1023362  -1.422  31.654  -9.066
    1XTA   HL1123363  -1.226  31.782  -9.223
    1XTA   HL1223364  -1.194  31.644  -9.138
    1XTA   HL1323365  -1.125  31.628  -9.376
    1XTA   HL1423366  -1.293  31.611  -9.438
    1XTA   HL1523367  -1.196  31.414  -9.424
    1XTA   HL1623368  -1.148  31.425  -9.252
    1XTA   HL1723369  -1.376  31.230  -9.408
    1XTA   HL1823370  -1.268  31.189  -9.273
    1XTA   HL1923371  -1.551  31.197  -9.021
    1XTA   HL2023372  -1.450  31.333  -9.048
    1XTA   HL2123373  -1.336  31.188  -8.889
    1XTA   HL2223374  -1.250  31.183  -9.041
    1XTA   HL2323375  -1.350  31.039  -8.994
    1XTA   HL2423376  -1.166  32.940  -9.000
    1XTA   HL2523377  -1.203  32.782  -9.051
    1XTA    CO823378  -1.505  31.043  -9.237
    1XTA    CO923379  -1.605  31.220  -9.268
    1XTA    OA623380  -1.639  31.082  -9.244
    1XTA   HL4223381  -1.482  30.975  -9.151
    1XTA   HL4323382  -1.472  31.002  -9.323
    1XTA   HL4823383  -1.611  31.251  -9.376
    1XTA   HL4923384  -1.660  31.293  -9.207
    1XTA     NT23385  -7.675  29.121 -10.817
    1XTA    CN123386  -7.651  29.211 -10.725
    1XTA     C123387  -7.613  29.176 -10.597
    1XTA     C223388  -7.583  29.278 -10.497
    1XTA     C323389  -7.583  29.415 -10.531
    1XTA     C423390  -7.643  29.444 -10.652
    1XTA     C523391  -7.674  29.348 -10.751
    1XTA    CN223392  -7.570  29.071 -10.900
    1XTA     C623393  -7.440  29.037 -10.849
    1XTA     C723394  -7.330  29.020 -10.935
    1XTA     C823395  -7.349  29.022 -11.073
    1XTA     C923396  -7.478  29.047 -11.124
    1XTA    C1023397  -7.584  29.082 -11.040
    1XTA    CN323398  -7.786  29.048 -10.807
    1XTA    C1123399  -7.905  29.103 -10.855
    1XTA    C1223400  -8.027  29.035 -10.843
    1XTA    C1323401  -8.031  28.913 -10.781
    1XTA    C1423402  -7.914  28.858 -10.731
    1XTA    C1523403  -7.788  28.924 -10.739
    1XTA     H123404  -7.607  29.072 -10.558
    1XTA     H223405  -7.538  29.243 -10.405
    1XTA     H323406  -7.655  29.545 -10.679
    1XTA     H423407  -7.715  29.393 -10.844
    1XTA     H523408  -7.413  29.034 -10.745
    1XTA     H623409  -7.231  29.007 -10.894
    1XTA     H723410  -7.499  29.059 -11.232
    1XTA     H823411  -7.676  29.119 -11.082
    1XTA     H923412  -7.892  29.195 -10.910
    1XTA    H1023413  -8.120  29.076 -10.881
    1XTA    H1123414  -7.917  28.762 -10.683
    1XTA    H1223415  -7.690  28.889 -10.700
    1XTA    OA123416  -7.538  29.516 -10.449
    1XTA    CO123417  -7.484  29.468 -10.322
    1XTA    OA223418  -7.253  28.996 -11.166
    1XTA    CO223419  -7.120  29.021 -11.133
    1XTA    CL123420  -7.024  28.999 -11.250
    1XTA    CL223421  -6.891  28.952 -11.208
    1XTA    CL323422  -6.823  29.024 -11.094
    1XTA    CL423423  -6.676  28.975 -11.074
    1XTA    CO323424  -6.583  29.024 -11.188
    1XTA    OA323425  -6.456  28.949 -11.189
    1XTA    CO423426  -6.358  28.997 -11.277
    1XTA    CT123427  -6.226  28.904 -11.273
    1XTA    CL523428  -6.133  28.950 -11.389
    1XTA    CL623429  -6.078  29.089 -11.386
    1XTA    OA423430  -8.151  28.844 -10.763
    1XTA    CO523431  -8.148  28.721 -10.696
    1XTA    HL123432  -8.242  28.676 -10.686
    1XTA    HL223433  -7.547  29.412 -10.260
    1XTA    HL323434  -7.386  29.417 -10.320
    1XTA    HL423435  -7.480  29.546 -10.251
    1XTA    HL523436  -7.119  29.122 -11.100
    1XTA    HL623437  -7.100  28.951 -11.057
    1XTA    HL723438  -7.010  29.093 -11.301
    1XTA    HL823439  -7.067  28.927 -11.316
    1XTA    HL923440  -6.837  28.950 -11.304
    1XTA   HL1023441  -6.898  28.847 -11.188
    1XTA   HL1123442  -6.822  29.127 -11.125
    1XTA   HL1223443  -6.874  29.020 -10.993
    1XTA   HL1323444  -6.665  28.869 -11.053
    1XTA   HL1423445  -6.636  29.007 -10.976
    1XTA   HL1523446  -6.630  29.006 -11.285
    1XTA   HL1623447  -6.570  29.128 -11.183
    1XTA   HL1723448  -6.403  29.006 -11.374
    1XTA   HL1823449  -6.333  29.096 -11.242
    1XTA   HL1923450  -6.184  28.932 -11.488
    1XTA   HL2023451  -6.054  28.880 -11.391
    1XTA   HL2123452  -6.049  29.117 -11.282
    1XTA   HL2223453  -6.146  29.153 -11.433
    1XTA   HL2323454  -6.001  29.095 -11.458
    1XTA   HL2423455  -8.107  28.730 -10.592
    1XTA   HL2523456  -8.082  28.649 -10.747
    1XTA    CO823457  -6.253  28.760 -11.272
    1XTA    CO923458  -6.168  28.883 -11.140
    1XTA    OA623459  -6.202  28.739 -11.176
    1XTA   HL4223460  -6.222  28.714 -11.362
    1XTA   HL4323461  -6.364  28.743 -11.258
    1XTA   HL4823462  -6.230  28.935 -11.028
    1XTA   HL4923463  -6.062  28.896 -11.135
    1XTA     NT23464  -3.059  30.070 -10.501
    1XTA    CN123465  -2.987  30.106 -10.390
    1XTA     C123466  -2.940  30.006 -10.307
    1XTA     C223467  -2.872  30.048 -10.191
    1XTA     C323468  -2.846  30.181 -10.158
    1XTA     C423469  -2.893  30.279 -10.243
    1XTA     C523470  -2.961  30.244 -10.360
    1XTA    CN223471  -3.004  30.084 -10.625
    1XTA     C623472  -2.889  30.007 -10.667
    1XTA     C723473  -2.817  30.042 -10.781
    1XTA     C823474  -2.874  30.139 -10.871
    1XTA     C923475  -2.989  30.207 -10.834
    1XTA    C1023476  -3.055  30.180 -10.714
    1XTA    CN323477  -3.194  30.037 -10.491
    1XTA    C1123478  -3.285  30.136 -10.507
    1XTA    C1223479  -3.422  30.110 -10.493
    1XTA    C1323480  -3.463  29.972 -10.473
    1XTA    C1423481  -3.367  29.870 -10.468
    1XTA    C1523482  -3.232  29.905 -10.472
    1XTA     H123483  -2.957  29.904 -10.323
    1XTA     H223484  -2.851  29.964 -10.128
    1XTA     H323485  -2.876  30.384 -10.216
    1XTA     H423486  -2.999  30.323 -10.431
    1XTA     H523487  -2.857  29.921 -10.607
    1XTA     H623488  -2.726  29.994 -10.798
    1XTA     H723489  -3.034  30.280 -10.900
    1XTA     H823490  -3.149  30.229 -10.688
    1XTA     H923491  -3.255  30.248 -10.514
    1XTA    H1023492  -3.498  30.189 -10.492
    1XTA    H1123493  -3.394  29.769 -10.474
    1XTA    H1223494  -3.158  29.823 -10.472
    1XTA    OA123495  -2.777  30.200 -10.043
    1XTA    CO123496  -2.773  30.328  -9.987
    1XTA    OA223497  -2.815  30.170 -10.993
    1XTA    CO223498  -2.687  30.109 -11.031
    1XTA    CL123499  -2.627  30.192 -11.145
    1XTA    CL223500  -2.714  30.229 -11.262
    1XTA    CL323501  -2.659  30.347 -11.348
    1XTA    CL423502  -2.762  30.422 -11.425
    1XTA    CO323503  -2.830  30.342 -11.540
    1XTA    OA323504  -2.737  30.285 -11.624
    1XTA    CO423505  -2.701  30.371 -11.725
    1XTA    CT123506  -2.603  30.307 -11.819
    1XTA    CL523507  -2.576  30.412 -11.925
    1XTA    CL623508  -2.488  30.374 -12.046
    1XTA    OA423509  -3.600  29.951 -10.462
    1XTA    CO523510  -3.636  29.830 -10.394
    1XTA    HL123511  -3.736  29.850 -10.351
    1XTA    HL223512  -2.731  30.336  -9.882
    1XTA    HL323513  -2.714  30.396 -10.046
    1XTA    HL423514  -2.875  30.360  -9.967
    1XTA    HL523515  -2.626  30.105 -10.938
    1XTA    HL623516  -2.704  30.007 -11.067
    1XTA    HL723517  -2.532  30.154 -11.179
    1XTA    HL823518  -2.603  30.288 -11.096
    1XTA    HL923519  -2.815  30.251 -11.238
    1XTA   HL1023520  -2.718  30.134 -11.323
    1XTA   HL1123521  -2.604  30.412 -11.287
    1XTA   HL1223522  -2.592  30.307 -11.429
    1XTA   HL1323523  -2.717  30.506 -11.478
    1XTA   HL1423524  -2.826  30.461 -11.350
    1XTA   HL1523525  -2.883  30.264 -11.494
    1XTA   HL1623526  -2.893  30.414 -11.595
    1XTA   HL1723527  -2.788  30.409 -11.781
    1XTA   HL1823528  -2.652  30.454 -11.675
    1XTA   HL1923529  -2.534  30.504 -11.875
    1XTA   HL2023530  -2.675  30.441 -11.973
    1XTA   HL2123531  -2.496  30.456 -12.120
    1XTA   HL2223532  -2.535  30.283 -12.088
    1XTA   HL2323533  -2.384  30.360 -12.018
    1XTA   HL2423534  -3.566  29.800 -10.318
    1XTA   HL2523535  -3.661  29.739 -10.444
    1XTA    CO823536  -2.666  30.174 -11.871
    1XTA    CO923537  -2.472  30.274 -11.749
    1XTA    OA623538  -2.441  30.367 -11.699
    1XTA   HL4223539  -2.588  30.123 -11.921
    1XTA   HL4323540  -2.698  30.089 -11.760
    1XTA   HL4823541  -2.404  30.243 -11.835
    1XTA   HL4923542  -2.484  30.191 -11.675
    1XTA     NT23543  -1.735  31.032  -5.962
    1XTA    CN123544  -1.738  30.983  -5.838
    1XTA     C123545  -1.846  30.910  -5.787
    1XTA     C223546  -1.836  30.855  -5.656
    1XTA     C323547  -1.707  30.848  -5.597
    1XTA     C423548  -1.604  30.922  -5.649
    1XTA     C523549  -1.616  30.992  -5.771
    1XTA    CN223550  -1.807  31.142  -5.978
    1XTA     C623551  -1.739  31.267  -5.992
    1XTA     C723552  -1.817  31.392  -6.004
    1XTA     C823553  -1.954  31.383  -6.028
    1XTA     C923554  -2.015  31.255  -6.014
    1XTA    C1023555  -1.945  31.142  -5.980
    1XTA    CN323556  -1.724  30.949  -6.072
    1XTA    C1123557  -1.596  30.927  -6.125
    1XTA    C1223558  -1.574  30.847  -6.241
    1XTA    C1323559  -1.685  30.785  -6.299
    1XTA    C1423560  -1.804  30.778  -6.225
    1XTA    C1523561  -1.826  30.858  -6.109
    1XTA     H123562  -1.936  30.901  -5.839
    1XTA     H223563  -1.924  30.807  -5.618
    1XTA     H323564  -1.519  30.929  -5.582
    1XTA     H423565  -1.536  31.053  -5.807
    1XTA     H523566  -1.627  31.268  -5.986
    1XTA     H623567  -1.764  31.486  -6.017
    1XTA     H723568  -2.120  31.241  -6.029
    1XTA     H823569  -2.010  31.062  -5.988
    1XTA     H923570  -1.509  30.988  -6.087
    1XTA    H1023571  -1.473  30.849  -6.281
    1XTA    H1123572  -1.889  30.731  -6.265
    1XTA    H1223573  -1.922  30.881  -6.066
    1XTA    OA123574  -1.687  30.762  -5.488
    1XTA    CO123575  -1.566  30.680  -5.502
    1XTA    OA223576  -2.022  31.495  -6.074
    1XTA    CO223577  -1.973  31.543  -6.201
    1XTA    CL123578  -2.050  31.666  -6.252
    1XTA    CL223579  -2.047  31.690  -6.408
    1XTA    CL323580  -1.918  31.749  -6.460
    1XTA    CL423581  -1.791  31.660  -6.463
    1XTA    CO323582  -1.819  31.530  -6.531
    1XTA    OA323583  -1.842  31.545  -6.662
    1XTA    CO423584  -1.846  31.418  -6.717
    1XTA    CT123585  -1.876  31.435  -6.871
    1XTA    CL523586  -2.025  31.478  -6.884
    1XTA    CL623587  -2.063  31.499  -7.023
    1XTA    OA423588  -1.678  30.706  -6.407
    1XTA    CO523589  -1.565  30.718  -6.487
    1XTA    HL123590  -1.472  30.691  -6.438
    1XTA    HL223591  -1.552  30.669  -5.612
    1XTA    HL323592  -1.478  30.745  -5.482
    1XTA    HL423593  -1.573  30.588  -5.440
    1XTA    HL523594  -1.865  31.558  -6.201
    1XTA    HL623595  -1.982  31.457  -6.267
    1XTA    HL723596  -2.008  31.759  -6.209
    1XTA    HL823597  -2.151  31.648  -6.204
    1XTA    HL923598  -2.136  31.753  -6.431
    1XTA   HL1023599  -2.083  31.604  -6.466
    1XTA   HL1123600  -1.920  31.790  -6.563
    1XTA   HL1223601  -1.893  31.831  -6.393
    1XTA   HL1323602  -1.743  31.636  -6.368
    1XTA   HL1423603  -1.716  31.711  -6.514
    1XTA   HL1523604  -1.725  31.473  -6.528
    1XTA   HL1623605  -1.895  31.478  -6.475
    1XTA   HL1723606  -1.752  31.366  -6.709
    1XTA   HL1823607  -1.923  31.347  -6.677
    1XTA   HL1923608  -2.049  31.570  -6.835
    1XTA   HL2023609  -2.080  31.405  -6.834
    1XTA   HL2123610  -2.005  31.581  -7.068
    1XTA   HL2223611  -2.159  31.542  -7.016
    1XTA   HL2323612  -2.053  31.408  -7.081
    1XTA   HL2423613  -1.553  30.820  -6.524
    1XTA   HL2523614  -1.576  30.658  -6.573
    1XTA    CO823615  -1.823  31.299  -6.943
    1XTA    CO923616  -1.807  31.559  -6.933
    1XTA    OA623617  -1.918  31.200  -6.915
    1XTA   HL4223618  -1.723  31.282  -6.905
    1XTA   HL4323619  -1.806  31.314  -7.044
    1XTA   HL4823620  -1.847  31.644  -6.883
    1XTA   HL4923621  -1.703  31.555  -6.895
    1XTA     NT23622  -6.968  29.730  -9.578
    1XTA    CN123623  -6.950  29.599  -9.567
    1XTA     C123624  -6.822  29.551  -9.531
    1XTA     C223625  -6.808  29.414  -9.498
    1XTA     C323626  -6.916  29.331  -9.491
    1XTA     C423627  -7.049  29.380  -9.510
    1XTA     C523628  -7.067  29.517  -9.552
    1XTA    CN223629  -6.903  29.822  -9.501
    1XTA     C623630  -6.903  29.810  -9.364
    1XTA     C723631  -6.830  29.894  -9.279
    1XTA     C823632  -6.743  29.985  -9.344
    1XTA     C923633  -6.722  29.987  -9.486
    1XTA    C1023634  -6.803  29.904  -9.562
    1XTA    CN323635  -7.065  29.786  -9.653
    1XTA    C1123636  -7.050  29.790  -9.790
    1XTA    C1223637  -7.144  29.864  -9.861
    1XTA    C1323638  -7.239  29.948  -9.802
    1XTA    C1423639  -7.251  29.938  -9.663
    1XTA    C1523640  -7.168  29.857  -9.589
    1XTA     H123641  -6.737  29.624  -9.524
    1XTA     H223642  -6.712  29.378  -9.484
    1XTA     H323643  -7.137  29.317  -9.499
    1XTA     H423644  -7.166  29.561  -9.583
    1XTA     H523645  -6.978  29.736  -9.315
    1XTA     H623646  -6.827  29.887  -9.174
    1XTA     H723647  -6.645  30.043  -9.530
    1XTA     H823648  -6.795  29.896  -9.668
    1XTA     H923649  -6.982  29.728  -9.842
    1XTA    H1023650  -7.148  29.857  -9.972
    1XTA    H1123651  -7.320  30.000  -9.610
    1XTA    H1223652  -7.173  29.870  -9.481
    1XTA    OA123653  -6.885  29.202  -9.466
    1XTA    CO123654  -6.996  29.120  -9.441
    1XTA    OA223655  -6.667  30.067  -9.265
    1XTA    CO223656  -6.733  30.158  -9.181
    1XTA    CL123657  -6.633  30.245  -9.112
    1XTA    CL223658  -6.565  30.171  -8.999
    1XTA    CL323659  -6.485  30.254  -8.898
    1XTA    CL423660  -6.462  30.175  -8.768
    1XTA    CO323661  -6.355  30.069  -8.795
    1XTA    OA323662  -6.232  30.104  -8.857
    1XTA    CO423663  -6.169  30.209  -8.794
    1XTA    CT123664  -6.027  30.224  -8.846
    1XTA    CL523665  -5.937  30.101  -8.828
    1XTA    CL623666  -5.912  30.066  -8.676
    1XTA    OA423667  -7.321  30.020  -9.884
    1XTA    CO523668  -7.344  30.155  -9.832
    1XTA    HL123669  -7.338  30.209  -9.928
    1XTA    HL223670  -7.042  29.112  -9.537
    1XTA    HL323671  -6.980  29.021  -9.407
    1XTA    HL423672  -7.064  29.157  -9.363
    1XTA    HL523673  -6.769  30.221  -9.260
    1XTA    HL623674  -6.806  30.111  -9.120
    1XTA    HL723675  -6.689  30.322  -9.075
    1XTA    HL823676  -6.563  30.283  -9.184
    1XTA    HL923677  -6.497  30.098  -9.038
    1XTA   HL1023678  -6.642  30.118  -8.942
    1XTA   HL1123679  -6.389  30.285  -8.940
    1XTA   HL1223680  -6.533  30.341  -8.861
    1XTA   HL1323681  -6.549  30.130  -8.729
    1XTA   HL1423682  -6.424  30.247  -8.699
    1XTA   HL1523683  -6.324  30.025  -8.697
    1XTA   HL1623684  -6.402  29.982  -8.853
    1XTA   HL1723685  -6.215  30.307  -8.796
    1XTA   HL1823686  -6.168  30.187  -8.685
    1XTA   HL1923687  -5.850  30.114  -8.893
    1XTA   HL2023688  -5.989  30.019  -8.870
    1XTA   HL2123689  -5.822  30.106  -8.643
    1XTA   HL2223690  -5.912  29.958  -8.673
    1XTA   HL2323691  -5.985  30.100  -8.611
    1XTA   HL2423692  -7.260  30.202  -9.775
    1XTA   HL2523693  -7.439  30.165  -9.780
    1XTA    CO823694  -5.971  30.350  -8.772
    1XTA    CO923695  -6.034  30.246  -8.993
    1XTA    OA623696  -5.877  30.384  -8.815
    1XTA   HL4223697  -5.954  30.323  -8.664
    1XTA   HL4323698  -6.044  30.430  -8.769
    1XTA   HL4823699  -5.914  30.298  -9.032
    1XTA   HL4923700  -6.050  30.153  -9.060
    1XTA     NT23701  -0.334  32.942  -8.528
    1XTA    CN123702  -0.322  33.024  -8.634
    1XTA     C123703  -0.269  32.975  -8.756
    1XTA     C223704  -0.244  33.074  -8.858
    1XTA     C323705  -0.289  33.206  -8.849
    1XTA     C423706  -0.357  33.246  -8.735
    1XTA     C523707  -0.379  33.149  -8.633
    1XTA    CN223708  -0.448  32.891  -8.475
    1XTA     C623709  -0.501  32.766  -8.514
    1XTA     C723710  -0.608  32.712  -8.437
    1XTA     C823711  -0.661  32.782  -8.330
    1XTA     C923712  -0.603  32.904  -8.295
    1XTA    C1023713  -0.496  32.960  -8.360
    1XTA    CN323714  -0.218  32.932  -8.445
    1XTA    C1123715  -0.108  33.017  -8.470
    1XTA    C1223716   0.001  33.009  -8.385
    1XTA    C1323717   0.005  32.920  -8.275
    1XTA    C1423718  -0.104  32.833  -8.248
    1XTA    C1523719  -0.217  32.842  -8.335
    1XTA     H123720  -0.243  32.872  -8.772
    1XTA     H223721  -0.200  33.030  -8.950
    1XTA     H323722  -0.385  33.348  -8.712
    1XTA     H423723  -0.421  33.175  -8.539
    1XTA     H523724  -0.456  32.713  -8.594
    1XTA     H623725  -0.635  32.615  -8.462
    1XTA     H723726  -0.649  32.976  -8.221
    1XTA     H823727  -0.452  33.052  -8.339
    1XTA     H923728  -0.106  33.081  -8.559
    1XTA    H1023729   0.091  33.057  -8.406
    1XTA    H1123730  -0.109  32.771  -8.159
    1XTA    H1223731  -0.305  32.786  -8.315
    1XTA    OA123732  -0.256  33.289  -8.952
    1XTA    CO123733  -0.275  33.428  -8.934
    1XTA    OA223734  -0.748  32.737  -8.243
    1XTA    CO223735  -0.795  32.608  -8.260
    1XTA    CL123736  -0.898  32.581  -8.152
    1XTA    CL223737  -0.938  32.436  -8.144
    1XTA    CL323738  -1.073  32.407  -8.080
    1XTA    CL423739  -1.074  32.383  -7.934
    1XTA    CO323740  -1.205  32.318  -7.895
    1XTA    OA323741  -1.220  32.330  -7.759
    1XTA    CO423742  -1.138  32.244  -7.684
    1XTA    CT123743  -1.171  32.231  -7.535
    1XTA    CL523744  -1.317  32.175  -7.507
    1XTA    CL623745  -1.425  32.282  -7.518
    1XTA    OA423746   0.115  32.926  -8.191
    1XTA    CO523747   0.135  32.822  -8.097
    1XTA    HL123748   0.182  32.731  -8.142
    1XTA    HL223749  -0.207  33.465  -8.862
    1XTA    HL323750  -0.256  33.481  -9.026
    1XTA    HL423751  -0.375  33.455  -8.901
    1XTA    HL523752  -0.852  32.603  -8.352
    1XTA    HL623753  -0.717  32.532  -8.240
    1XTA    HL723754  -0.984  32.640  -8.180
    1XTA    HL823755  -0.868  32.614  -8.053
    1XTA    HL923756  -0.859  32.386  -8.088
    1XTA   HL1023757  -0.938  32.386  -8.241
    1XTA   HL1123758  -1.151  32.480  -8.104
    1XTA   HL1223759  -1.110  32.310  -8.124
    1XTA   HL1323760  -1.076  32.483  -7.884
    1XTA   HL1423761  -0.975  32.345  -7.892
    1XTA   HL1523762  -1.290  32.362  -7.943
    1XTA   HL1623763  -1.196  32.213  -7.922
    1XTA   HL1723764  -1.135  32.149  -7.740
    1XTA   HL1823765  -1.037  32.285  -7.677
    1XTA   HL1923766  -1.331  32.128  -7.405
    1XTA   HL2023767  -1.328  32.096  -7.579
    1XTA   HL2123768  -1.527  32.247  -7.502
    1XTA   HL2223769  -1.427  32.309  -7.620
    1XTA   HL2323770  -1.412  32.366  -7.444
    1XTA   HL2423771   0.037  32.809  -8.048
    1XTA   HL2523772   0.197  32.855  -8.022
    1XTA    CO823773  -1.145  32.370  -7.460
    1XTA    CO923774  -1.073  32.118  -7.475
    1XTA    OA623775  -1.118  31.995  -7.531
    1XTA   HL4223776  -1.210  32.448  -7.498
    1XTA   HL4323777  -1.176  32.369  -7.354
    1XTA   HL4823778  -1.083  32.117  -7.366
    1XTA   HL4923779  -0.974  32.155  -7.500
    1XTA     NT23780  -7.569  27.942  -8.628
    1XTA    CN123781  -7.700  27.942  -8.674
    1XTA     C123782  -7.721  27.915  -8.812
    1XTA     C223783  -7.852  27.929  -8.864
    1XTA     C323784  -7.960  27.968  -8.785
    1XTA     C423785  -7.937  27.990  -8.644
    1XTA     C523786  -7.806  27.980  -8.595
    1XTA    CN223787  -7.540  27.869  -8.522
    1XTA     C623788  -7.469  27.921  -8.416
    1XTA     C723789  -7.409  27.840  -8.318
    1XTA     C823790  -7.436  27.701  -8.314
    1XTA     C923791  -7.526  27.651  -8.410
    1XTA    C1023792  -7.576  27.732  -8.511
    1XTA    CN323793  -7.468  28.000  -8.690
    1XTA    C1123794  -7.360  27.923  -8.738
    1XTA    C1223795  -7.263  27.971  -8.816
    1XTA    C1323796  -7.266  28.112  -8.847
    1XTA    C1423797  -7.373  28.197  -8.805
    1XTA    C1523798  -7.475  28.139  -8.721
    1XTA     H123799  -7.645  27.890  -8.884
    1XTA     H223800  -7.864  27.904  -8.964
    1XTA     H323801  -8.015  28.017  -8.576
    1XTA     H423802  -7.797  28.001  -8.487
    1XTA     H523803  -7.435  28.020  -8.424
    1XTA     H623804  -7.340  27.901  -8.255
    1XTA     H723805  -7.559  27.552  -8.422
    1XTA     H823806  -7.650  27.687  -8.577
    1XTA     H923807  -7.354  27.818  -8.707
    1XTA    H1023808  -7.184  27.910  -8.847
    1XTA    H1123809  -7.362  28.302  -8.818
    1XTA    H1223810  -7.551  28.202  -8.684
    1XTA    OA123811  -8.084  27.963  -8.846
    1XTA    CO123812  -8.187  28.012  -8.767
    1XTA    OA223813  -7.381  27.624  -8.213
    1XTA    CO223814  -7.425  27.492  -8.199
    1XTA    CL123815  -7.329  27.435  -8.093
    1XTA    CL223816  -7.227  27.339  -8.150
    1XTA    CL323817  -7.097  27.401  -8.209
    1XTA    CL423818  -7.000  27.295  -8.264
    1XTA    CO323819  -6.956  27.191  -8.159
    1XTA    OA323820  -6.870  27.091  -8.217
    1XTA    CO423821  -6.739  27.149  -8.233
    1XTA    CT123822  -6.637  27.051  -8.278
    1XTA    CL523823  -6.637  26.923  -8.187
    1XTA    CL623824  -6.617  26.953  -8.032
    1XTA    OA423825  -7.153  28.159  -8.916
    1XTA    CO523826  -7.175  28.290  -8.972
    1XTA    HL123827  -7.086  28.324  -9.021
    1XTA    HL223828  -8.165  28.116  -8.725
    1XTA    HL323829  -8.277  28.010  -8.835
    1XTA    HL423830  -8.200  27.948  -8.675
    1XTA    HL523831  -7.527  27.483  -8.170
    1XTA    HL623832  -7.421  27.427  -8.284
    1XTA    HL723833  -7.392  27.379  -8.031
    1XTA    HL823834  -7.280  27.518  -8.037
    1XTA    HL923835  -7.265  27.261  -8.216
    1XTA   HL1023836  -7.198  27.277  -8.066
    1XTA   HL1123837  -7.117  27.463  -8.296
    1XTA   HL1223838  -7.046  27.458  -8.134
    1XTA   HL1323839  -6.922  27.355  -8.318
    1XTA   HL1423840  -7.045  27.241  -8.348
    1XTA   HL1523841  -6.914  27.240  -8.076
    1XTA   HL1623842  -7.046  27.140  -8.121
    1XTA   HL1723843  -6.754  27.230  -8.306
    1XTA   HL1823844  -6.698  27.182  -8.132
    1XTA   HL1923845  -6.566  26.855  -8.229
    1XTA   HL2023846  -6.732  26.872  -8.199
    1XTA   HL2123847  -6.687  27.008  -7.972
    1XTA   HL2223848  -6.526  27.005  -8.023
    1XTA   HL2323849  -6.594  26.854  -7.992
    1XTA   HL2423850  -7.191  28.365  -8.899
    1XTA   HL2523851  -7.265  28.280  -9.041
    1XTA    CO823852  -6.492  27.100  -8.286
    1XTA    CO923853  -6.683  27.007  -8.422
    1XTA    OA623854  -6.610  26.902  -8.482
    1XTA   HL4223855  -6.471  27.133  -8.185
    1XTA   HL4323856  -6.433  27.010  -8.297
    1XTA   HL4823857  -6.704  27.085  -8.492
    1XTA   HL4923858  -6.782  26.972  -8.413
    1XTA     NT23859  -6.588  29.689  -5.470
    1XTA    CN123860  -6.561  29.557  -5.487
    1XTA     C123861  -6.462  29.532  -5.581
    1XTA     C223862  -6.415  29.398  -5.587
    1XTA     C323863  -6.472  29.301  -5.507
    1XTA     C423864  -6.576  29.326  -5.416
    1XTA     C523865  -6.620  29.457  -5.405
    1XTA    CN223866  -6.690  29.753  -5.530
    1XTA     C623867  -6.680  29.801  -5.659
    1XTA     C723868  -6.794  29.863  -5.710
    1XTA     C823869  -6.904  29.895  -5.635
    1XTA     C923870  -6.918  29.843  -5.505
    1XTA    C1023871  -6.803  29.779  -5.447
    1XTA    CN323872  -6.515  29.755  -5.377
    1XTA    C1123873  -6.387  29.798  -5.419
    1XTA    C1223874  -6.296  29.846  -5.333
    1XTA    C1323875  -6.339  29.861  -5.196
    1XTA    C1423876  -6.471  29.822  -5.152
    1XTA    C1523877  -6.561  29.771  -5.245
    1XTA     H123878  -6.421  29.609  -5.645
    1XTA     H223879  -6.321  29.386  -5.644
    1XTA     H323880  -6.624  29.257  -5.351
    1XTA     H423881  -6.693  29.501  -5.345
    1XTA     H523882  -6.590  29.784  -5.726
    1XTA     H623883  -6.795  29.894  -5.814
    1XTA     H723884  -7.015  29.845  -5.460
    1XTA     H823885  -6.799  29.731  -5.348
    1XTA     H923886  -6.369  29.781  -5.529
    1XTA    H1023887  -6.195  29.867  -5.364
    1XTA    H1123888  -6.501  29.836  -5.049
    1XTA    H1223889  -6.663  29.743  -5.217
    1XTA    OA123890  -6.401  29.181  -5.506
    1XTA    CO123891  -6.410  29.098  -5.392
    1XTA    OA223892  -7.023  29.948  -5.693
    1XTA    CO223893  -7.001  30.037  -5.805
    1XTA    CL123894  -7.133  30.087  -5.861
    1XTA    CL223895  -7.216  30.167  -5.763
    1XTA    CL323896  -7.128  30.270  -5.679
    1XTA    CL423897  -7.220  30.363  -5.586
    1XTA    CO323898  -7.290  30.286  -5.476
    1XTA    OA323899  -7.393  30.212  -5.527
    1XTA    CO423900  -7.463  30.149  -5.420
    1XTA    CT123901  -7.578  30.077  -5.497
    1XTA    CL523902  -7.661  29.992  -5.407
    1XTA    CL623903  -7.747  30.052  -5.296
    1XTA    OA423904  -6.244  29.906  -5.098
    1XTA    CO523905  -6.115  29.934  -5.147
    1XTA    HL123906  -6.074  29.853  -5.201
    1XTA    HL223907  -6.389  29.147  -5.297
    1XTA    HL323908  -6.499  29.041  -5.388
    1XTA    HL423909  -6.336  29.012  -5.411
    1XTA    HL523910  -6.936  30.112  -5.772
    1XTA    HL623911  -6.945  29.986  -5.881
    1XTA    HL723912  -7.196  30.015  -5.906
    1XTA    HL823913  -7.101  30.145  -5.952
    1XTA    HL923914  -7.248  30.101  -5.685
    1XTA   HL1023915  -7.306  30.211  -5.805
    1XTA   HL1123916  -7.055  30.211  -5.610
    1XTA   HL1223917  -7.074  30.341  -5.743
    1XTA   HL1323918  -7.301  30.405  -5.651
    1XTA   HL1423919  -7.169  30.450  -5.548
    1XTA   HL1523920  -7.207  30.220  -5.437
    1XTA   HL1623921  -7.317  30.355  -5.400
    1XTA   HL1723922  -7.400  30.085  -5.373
    1XTA   HL1823923  -7.505  30.229  -5.360
    1XTA   HL1923924  -7.593  29.929  -5.359
    1XTA   HL2023925  -7.741  29.935  -5.463
    1XTA   HL2123926  -7.692  30.119  -5.236
    1XTA   HL2223927  -7.775  29.969  -5.236
    1XTA   HL2323928  -7.828  30.105  -5.349
    1XTA   HL2423929  -6.048  29.948  -5.064
    1XTA   HL2523930  -6.114  30.031  -5.204
    1XTA    CO823931  -7.514  29.985  -5.598
    1XTA    CO923932  -7.671  30.172  -5.573
    1XTA    OA623933  -7.614  29.907  -5.663
    1XTA   HL4223934  -7.431  29.924  -5.551
    1XTA   HL4323935  -7.452  30.040  -5.671
    1XTA   HL4823936  -7.631  30.165  -5.681
    1XTA   HL4923937  -7.768  30.130  -5.579
    1XTA     NT23938  -2.273  25.959 -10.843
    1XTA    CN123939  -2.385  25.982 -10.916
    1XTA     C123940  -2.384  25.956 -11.050
    1XTA     C223941  -2.501  25.987 -11.124
    1XTA     C323942  -2.613  26.037 -11.061
    1XTA     C423943  -2.618  26.044 -10.922
    1XTA     C523944  -2.502  26.014 -10.850
    1XTA    CN223945  -2.269  25.844 -10.762
    1XTA     C623946  -2.340  25.723 -10.788
    1XTA     C723947  -2.334  25.622 -10.693
    1XTA     C823948  -2.258  25.633 -10.576
    1XTA     C923949  -2.190  25.753 -10.546
    1XTA    C1023950  -2.194  25.858 -10.641
    1XTA    CN323951  -2.157  26.022 -10.874
    1XTA    C1123952  -2.049  25.950 -10.932
    1XTA    C1223953  -1.928  26.015 -10.961
    1XTA    C1323954  -1.918  26.151 -10.929
    1XTA    C1423955  -2.015  26.217 -10.855
    1XTA    C1523956  -2.140  26.156 -10.834
    1XTA     H123957  -2.294  25.931 -11.099
    1XTA     H223958  -2.503  25.975 -11.232
    1XTA     H323959  -2.712  26.083 -10.882
    1XTA     H423960  -2.509  26.022 -10.746
    1XTA     H523961  -2.391  25.709 -10.883
    1XTA     H623962  -2.377  25.522 -10.717
    1XTA     H723963  -2.127  25.758 -10.458
    1XTA     H823964  -2.121  25.941 -10.630
    1XTA     H923965  -2.076  25.843 -10.965
    1XTA    H1023966  -1.843  25.974 -11.008
    1XTA    H1123967  -2.001  26.314 -10.819
    1XTA    H1223968  -2.222  26.204 -10.787
    1XTA    OA123969  -2.711  26.093 -11.134
    1XTA    CO123970  -2.712  26.094 -11.280
    1XTA    OA223971  -2.257  25.528 -10.492
    1XTA    CO223972  -2.216  25.540 -10.360
    1XTA    CL123973  -2.332  25.613 -10.285
    1XTA    CL223974  -2.300  25.681 -10.150
    1XTA    CL323975  -2.423  25.698 -10.059
    1XTA    CL423976  -2.395  25.752  -9.920
    1XTA    CO323977  -2.525  25.769  -9.829
    1XTA    OA323978  -2.618  25.855  -9.885
    1XTA    CO423979  -2.727  25.907  -9.808
    1XTA    CT123980  -2.785  26.015  -9.898
    1XTA    CL523981  -2.812  25.946 -10.036
    1XTA    CL623982  -2.879  25.813 -10.021
    1XTA    OA423983  -1.814  26.232 -10.956
    1XTA    CO523984  -1.740  26.199 -11.075
    1XTA    HL123985  -1.658  26.278 -11.104
    1XTA    HL223986  -2.707  25.998 -11.315
    1XTA    HL323987  -2.807  26.130 -11.314
    1XTA    HL423988  -2.633  26.160 -11.318
    1XTA    HL523989  -2.193  25.449 -10.310
    1XTA    HL623990  -2.120  25.590 -10.358
    1XTA    HL723991  -2.417  25.552 -10.276
    1XTA    HL823992  -2.370  25.695 -10.348
    1XTA    HL923993  -2.265  25.784 -10.178
    1XTA   HL1023994  -2.217  25.617 -10.104
    1XTA   HL1123995  -2.500  25.754 -10.100
    1XTA   HL1223996  -2.466  25.597 -10.049
    1XTA   HL1323997  -2.361  25.860  -9.927
    1XTA   HL1423998  -2.317  25.685  -9.876
    1XTA   HL1523999  -2.584  25.674  -9.824
    1XTA   HL1624000  -2.496  25.789  -9.728
    1XTA   HL1724001  -2.807  25.841  -9.773
    1XTA   HL1824002  -2.687  25.943  -9.706
    1XTA   HL1924003  -2.710  25.923 -10.084
    1XTA   HL2024004  -2.860  26.018 -10.097
    1XTA   HL2124005  -2.918  25.778 -10.110
    1XTA   HL2224006  -2.968  25.822  -9.962
    1XTA   HL2324007  -2.803  25.745  -9.979
    1XTA   HL2424008  -1.806  26.189 -11.161
    1XTA   HL2524009  -1.690  26.103 -11.058
    1XTA    CO824010  -2.676  26.126  -9.915
    1XTA    CO924011  -2.913  26.075  -9.847
    1XTA    OA624012  -2.888  26.108  -9.711
    1XTA   HL4224013  -2.604  26.096  -9.983
    1XTA   HL4324014  -2.605  26.123  -9.829
    1XTA   HL4824015  -2.987  26.002  -9.836
    1XTA   HL4924016  -2.943  26.155  -9.909
    1XTA     NT24017  -8.768  25.287  -7.609
    1XTA    CN124018  -8.848  25.235  -7.702
    1XTA     C124019  -8.928  25.122  -7.663
    1XTA     C224020  -9.021  25.077  -7.753
    1XTA     C324021  -9.031  25.132  -7.885
    1XTA     C424022  -8.952  25.237  -7.925
    1XTA     C524023  -8.863  25.294  -7.827
    1XTA    CN224024  -8.830  25.333  -7.494
    1XTA     C624025  -8.779  25.279  -7.372
    1XTA     C724026  -8.829  25.325  -7.250
    1XTA     C824027  -8.942  25.409  -7.245
    1XTA     C924028  -9.001  25.453  -7.364
    1XTA    C1024029  -8.943  25.424  -7.493
    1XTA    CN324030  -8.646  25.334  -7.640
    1XTA    C1124031  -8.539  25.251  -7.680
    1XTA    C1224032  -8.420  25.303  -7.738
    1XTA    C1324033  -8.410  25.443  -7.761
    1XTA    C1424034  -8.516  25.523  -7.712
    1XTA    C1524035  -8.630  25.471  -7.648
    1XTA     H124036  -8.925  25.080  -7.565
    1XTA     H224037  -9.081  24.995  -7.726
    1XTA     H324038  -8.933  25.265  -8.033
    1XTA     H424039  -8.803  25.382  -7.845
    1XTA     H524040  -8.702  25.209  -7.367
    1XTA     H624041  -8.789  25.281  -7.159
    1XTA     H724042  -9.096  25.503  -7.352
    1XTA     H824043  -8.982  25.452  -7.587
    1XTA     H924044  -8.554  25.143  -7.674
    1XTA    H1024045  -8.347  25.230  -7.762
    1XTA    H1124046  -8.500  25.624  -7.712
    1XTA    H1224047  -8.707  25.539  -7.610
    1XTA    OA124048  -9.120  25.092  -7.977
    1XTA    CO124049  -9.231  25.012  -7.933
    1XTA    OA224050  -8.983  25.458  -7.124
    1XTA    CO224051  -8.882  25.495  -7.028
    1XTA    CL124052  -8.944  25.511  -6.885
    1XTA    CL224053  -8.999  25.379  -6.826
    1XTA    CL324054  -9.030  25.392  -6.682
    1XTA    CL424055  -9.050  25.260  -6.606
    1XTA    CO324056  -9.193  25.212  -6.590
    1XTA    OA324057  -9.267  25.313  -6.513
    1XTA    CO424058  -9.408  25.332  -6.535
    1XTA    CT124059  -9.449  25.457  -6.458
    1XTA    CL524060  -9.424  25.450  -6.301
    1XTA    CL624061  -9.493  25.333  -6.236
    1XTA    OA424062  -8.297  25.501  -7.814
    1XTA    CO524063  -8.248  25.434  -7.934
    1XTA    HL124064  -8.317  25.434  -8.015
    1XTA    HL224065  -9.298  25.007  -8.024
    1XTA    HL324066  -9.199  24.910  -7.905
    1XTA    HL424067  -9.294  25.063  -7.854
    1XTA    HL524068  -8.811  25.416  -7.012
    1XTA    HL624069  -8.843  25.586  -7.064
    1XTA    HL724070  -9.022  25.592  -6.876
    1XTA    HL824071  -8.864  25.550  -6.823
    1XTA    HL924072  -8.929  25.300  -6.838
    1XTA   HL1024073  -9.090  25.358  -6.883
    1XTA   HL1124074  -8.939  25.436  -6.638
    1XTA   HL1224075  -9.116  25.454  -6.657
    1XTA   HL1324076  -8.992  25.273  -6.517
    1XTA   HL1424077  -9.005  25.174  -6.662
    1XTA   HL1524078  -9.241  25.192  -6.690
    1XTA   HL1624079  -9.182  25.124  -6.526
    1XTA   HL1724080  -9.430  25.340  -6.644
    1XTA   HL1824081  -9.468  25.247  -6.499
    1XTA   HL1924082  -9.468  25.540  -6.262
    1XTA   HL2024083  -9.310  25.435  -6.283
    1XTA   HL2124084  -9.460  25.236  -6.272
    1XTA   HL2224085  -9.600  25.344  -6.262
    1XTA   HL2324086  -9.472  25.327  -6.127
    1XTA   HL2424087  -8.211  25.328  -7.912
    1XTA   HL2524088  -8.173  25.489  -7.982
    1XTA    CO824089  -9.599  25.491  -6.493
    1XTA    CO924090  -9.372  25.575  -6.510
    1XTA    OA624091  -9.396  25.670  -6.458
    1XTA   HL4224092  -9.636  25.564  -6.427
    1XTA   HL4324093  -9.603  25.552  -6.620
    1XTA   HL4824094  -9.386  25.581  -6.621
    1XTA   HL4924095  -9.268  25.552  -6.505
    1XTA     NT24096  -2.894  28.876  -5.746
    1XTA    CN124097  -2.854  28.854  -5.620
    1XTA     C124098  -2.719  28.888  -5.578
    1XTA     C224099  -2.675  28.864  -5.449
    1XTA     C324100  -2.768  28.811  -5.357
    1XTA     C424101  -2.901  28.780  -5.398
    1XTA     C524102  -2.941  28.799  -5.527
    1XTA    CN224103  -2.868  28.780  -5.839
    1XTA     C624104  -2.765  28.799  -5.935
    1XTA     C724105  -2.748  28.700  -6.042
    1XTA     C824106  -2.821  28.575  -6.034
    1XTA     C924107  -2.919  28.558  -5.936
    1XTA    C1024108  -2.939  28.658  -5.840
    1XTA    CN324109  -2.944  28.997  -5.775
    1XTA    C1124110  -3.076  29.008  -5.824
    1XTA    C1224111  -3.132  29.141  -5.858
    1XTA    C1324112  -3.071  29.260  -5.818
    1XTA    C1424113  -2.937  29.247  -5.769
    1XTA    C1524114  -2.872  29.122  -5.755
    1XTA     H124115  -2.656  28.930  -5.649
    1XTA     H224116  -2.573  28.885  -5.425
    1XTA     H324117  -2.976  28.744  -5.323
    1XTA     H424118  -3.039  28.777  -5.558
    1XTA     H524119  -2.694  28.884  -5.929
    1XTA     H624120  -2.680  28.708  -6.129
    1XTA     H724121  -2.978  28.471  -5.930
    1XTA     H824122  -3.017  28.641  -5.769
    1XTA     H924123  -3.144  28.924  -5.846
    1XTA    H1024124  -3.233  29.140  -5.895
    1XTA    H1124125  -2.885  29.333  -5.727
    1XTA    H1224126  -2.770  29.119  -5.731
    1XTA    OA124127  -2.729  28.806  -5.224
    1XTA    CO124128  -2.593  28.823  -5.196
    1XTA    OA224129  -2.777  28.482  -6.122
    1XTA    CO224130  -2.813  28.348  -6.080
    1XTA    CL124131  -2.768  28.261  -6.198
    1XTA    CL224132  -2.859  28.289  -6.326
    1XTA    CL324133  -2.833  28.184  -6.444
    1XTA    CL424134  -2.892  28.239  -6.572
    1XTA    CO324135  -2.845  28.166  -6.701
    1XTA    OA324136  -2.714  28.210  -6.736
    1XTA    CO424137  -2.702  28.343  -6.797
    1XTA    CT124138  -2.574  28.417  -6.743
    1XTA    CL524139  -2.569  28.570  -6.794
    1XTA    CL624140  -2.582  28.592  -6.941
    1XTA    OA424141  -3.151  29.370  -5.809
    1XTA    CO524142  -3.088  29.489  -5.756
    1XTA    HL124143  -3.155  29.571  -5.780
    1XTA    HL224144  -2.561  28.928  -5.201
    1XTA    HL324145  -2.554  28.782  -5.105
    1XTA    HL424146  -2.531  28.766  -5.266
    1XTA    HL524147  -2.763  28.316  -5.986
    1XTA    HL624148  -2.921  28.353  -6.075
    1XTA    HL724149  -2.793  28.151  -6.170
    1XTA    HL824150  -2.662  28.268  -6.211
    1XTA    HL924151  -2.845  28.388  -6.375
    1XTA   HL1024152  -2.960  28.288  -6.300
    1XTA   HL1124153  -2.726  28.176  -6.460
    1XTA   HL1224154  -2.855  28.084  -6.407
    1XTA   HL1324155  -2.879  28.349  -6.589
    1XTA   HL1424156  -2.997  28.212  -6.568
    1XTA   HL1524157  -2.852  28.063  -6.683
    1XTA   HL1624158  -2.912  28.190  -6.780
    1XTA   HL1724159  -2.678  28.333  -6.907
    1XTA   HL1824160  -2.800  28.398  -6.772
    1XTA   HL1924161  -2.477  28.605  -6.746
    1XTA   HL2024162  -2.657  28.599  -6.747
    1XTA   HL2124163  -2.556  28.696  -6.972
    1XTA   HL2224164  -2.684  28.571  -6.982
    1XTA   HL2324165  -2.510  28.528  -6.999
    1XTA   HL2424166  -2.995  29.505  -5.804
    1XTA   HL2524167  -3.070  29.501  -5.654
    1XTA    CO824168  -2.441  28.345  -6.780
    1XTA    CO924169  -2.586  28.407  -6.591
    1XTA    OA624170  -2.519  28.476  -6.542
    1XTA   HL4224171  -2.434  28.248  -6.726
    1XTA   HL4324172  -2.342  28.424  -6.725
    1XTA   HL4824173  -2.568  28.302  -6.556
    1XTA   HL4924174  -2.682  28.439  -6.552
    1XTA     NT24175  -3.915  31.066  -7.828
    1XTA    CN124176  -3.833  31.114  -7.727
    1XTA     C124177  -3.706  31.173  -7.752
    1XTA     C224178  -3.626  31.215  -7.639
    1XTA     C324179  -3.674  31.211  -7.507
    1XTA     C424180  -3.796  31.145  -7.483
    1XTA     C524181  -3.873  31.094  -7.593
    1XTA    CN224182  -4.045  31.098  -7.842
    1XTA     C624183  -4.143  30.997  -7.831
    1XTA     C724184  -4.280  31.039  -7.841
    1XTA     C824185  -4.317  31.177  -7.856
    1XTA     C924186  -4.210  31.273  -7.833
    1XTA    C1024187  -4.075  31.231  -7.829
    1XTA    CN324188  -3.856  30.989  -7.920
    1XTA    C1124189  -3.799  30.863  -7.898
    1XTA    C1224190  -3.752  30.788  -8.008
    1XTA    C1324191  -3.765  30.835  -8.142
    1XTA    C1424192  -3.812  30.963  -8.162
    1XTA    C1524193  -3.852  31.037  -8.054
    1XTA     H124194  -3.669  31.165  -7.853
    1XTA     H224195  -3.528  31.252  -7.662
    1XTA     H324196  -3.831  31.138  -7.381
    1XTA     H424197  -3.955  31.031  -7.573
    1XTA     H524198  -4.136  30.886  -7.832
    1XTA     H624199  -4.353  30.964  -7.854
    1XTA     H724200  -4.231  31.379  -7.833
    1XTA     H824201  -3.993  31.302  -7.824
    1XTA     H924202  -3.817  30.834  -7.796
    1XTA    H1024203  -3.735  30.678  -7.992
    1XTA    H1124204  -3.817  31.007  -8.261
    1XTA    H1224205  -3.888  31.138  -8.080
    1XTA    OA124206  -3.600  31.260  -7.406
    1XTA    CO124207  -3.652  31.252  -7.276
    1XTA    OA224208  -4.447  31.215  -7.866
    1XTA    CO224209  -4.555  31.117  -7.853
    1XTA    CL124210  -4.566  31.057  -7.999
    1XTA    CL224211  -4.703  31.000  -8.021
    1XTA    CL324212  -4.744  30.885  -7.923
    1XTA    CL424213  -4.683  30.748  -7.965
    1XTA    CO324214  -4.761  30.630  -7.915
    1XTA    OA324215  -4.784  30.650  -7.773
    1XTA    CO424216  -4.826  30.527  -7.716
    1XTA    CT124217  -4.821  30.511  -7.557
    1XTA    CL524218  -4.924  30.588  -7.490
    1XTA    CL624219  -4.892  30.732  -7.482
    1XTA    OA424220  -3.734  30.753  -8.243
    1XTA    CO524221  -3.788  30.620  -8.237
    1XTA    HL124222  -3.893  30.620  -8.229
    1XTA    HL224223  -3.670  31.151  -7.245
    1XTA    HL324224  -3.583  31.285  -7.201
    1XTA    HL424225  -3.738  31.318  -7.273
    1XTA    HL524226  -4.531  31.052  -7.765
    1XTA    HL624227  -4.648  31.173  -7.827
    1XTA    HL724228  -4.489  30.989  -8.021
    1XTA    HL824229  -4.547  31.125  -8.075
    1XTA    HL924230  -4.733  30.983  -8.131
    1XTA   HL1024231  -4.770  31.085  -8.006
    1XTA   HL1124232  -4.704  30.911  -7.829
    1XTA   HL1224233  -4.856  30.880  -7.916
    1XTA   HL1324234  -4.582  30.733  -7.927
    1XTA   HL1424235  -4.689  30.742  -8.081
    1XTA   HL1524236  -4.839  30.597  -7.986
    1XTA   HL1624237  -4.692  30.547  -7.917
    1XTA   HL1724238  -4.925  30.507  -7.744
    1XTA   HL1824239  -4.769  30.449  -7.757
    1XTA   HL1924240  -4.945  30.558  -7.390
    1XTA   HL2024241  -5.015  30.580  -7.549
    1XTA   HL2124242  -4.979  30.786  -7.439
    1XTA   HL2224243  -4.882  30.773  -7.578
    1XTA   HL2324244  -4.798  30.756  -7.429
    1XTA   HL2424245  -3.741  30.565  -8.153
    1XTA   HL2524246  -3.751  30.577  -8.334
    1XTA    CO824247  -4.680  30.534  -7.495
    1XTA    CO924248  -4.850  30.363  -7.530
    1XTA    OA624249  -4.978  30.314  -7.558
    1XTA   HL4224250  -4.639  30.618  -7.554
    1XTA   HL4324251  -4.670  30.550  -7.389
    1XTA   HL4824252  -4.816  30.332  -7.434
    1XTA   HL4924253  -4.779  30.302  -7.586
    1XTA     NT24254  -2.225  30.067 -10.955
    1XTA    CN124255  -2.280  30.013 -11.068
    1XTA     C124256  -2.247  30.066 -11.194
    1XTA     C224257  -2.318  30.017 -11.303
    1XTA     C324258  -2.423  29.920 -11.295
    1XTA     C424259  -2.453  29.867 -11.169
    1XTA     C524260  -2.387  29.919 -11.056
    1XTA    CN224261  -2.310  30.142 -10.877
    1XTA     C624262  -2.324  30.098 -10.742
    1XTA     C724263  -2.419  30.158 -10.654
    1XTA     C824264  -2.502  30.263 -10.708
    1XTA     C924265  -2.492  30.303 -10.839
    1XTA    C1024266  -2.395  30.244 -10.923
    1XTA    CN324267  -2.091  30.053 -10.931
    1XTA    C1124268  -2.014  30.160 -10.874
    1XTA    C1224269  -1.877  30.137 -10.827
    1XTA    C1324270  -1.820  30.010 -10.840
    1XTA    C1424271  -1.896  29.911 -10.907
    1XTA    C1524272  -2.033  29.927 -10.940
    1XTA     H124273  -2.165  30.131 -11.193
    1XTA     H224274  -2.287  30.059 -11.392
    1XTA     H324275  -2.530  29.791 -11.169
    1XTA     H424276  -2.416  29.886 -10.955
    1XTA     H524277  -2.257  30.024 -10.708
    1XTA     H624278  -2.438  30.118 -10.557
    1XTA     H724279  -2.555  30.381 -10.874
    1XTA     H824280  -2.408  30.265 -11.030
    1XTA     H924281  -2.057  30.257 -10.867
    1XTA    H1024282  -1.822  30.215 -10.774
    1XTA    H1124283  -1.846  29.822 -10.928
    1XTA    H1224284  -2.096  29.854 -10.982
    1XTA    OA124285  -2.497  29.879 -11.401
    1XTA    CO124286  -2.484  29.958 -11.519
    1XTA    OA224287  -2.590  30.333 -10.629
    1XTA    CO224288  -2.720  30.367 -10.683
    1XTA    CL124289  -2.753  30.513 -10.656
    1XTA    CL224290  -2.674  30.633 -10.715
    1XTA    CL324291  -2.691  30.762 -10.630
    1XTA    CL424292  -2.640  30.888 -10.703
    1XTA    CO324293  -2.491  30.878 -10.709
    1XTA    OA324294  -2.431  30.998 -10.751
    1XTA    CO424295  -2.291  30.991 -10.766
    1XTA    CT124296  -2.227  31.130 -10.729
    1XTA    CL524297  -2.195  31.127 -10.578
    1XTA    CL624298  -2.320  31.111 -10.486
    1XTA    OA424299  -1.684  30.004 -10.796
    1XTA    CO524300  -1.630  29.878 -10.823
    1XTA    HL124301  -1.522  29.877 -10.816
    1XTA    HL224302  -2.518  30.057 -11.491
    1XTA    HL324303  -2.387  29.954 -11.563
    1XTA    HL424304  -2.561  29.903 -11.580
    1XTA    HL524305  -2.732  30.338 -10.785
    1XTA    HL624306  -2.791  30.298 -10.636
    1XTA    HL724307  -2.755  30.527 -10.548
    1XTA    HL824308  -2.858  30.525 -10.681
    1XTA    HL924309  -2.706  30.649 -10.818
    1XTA   HL1024310  -2.561  30.608 -10.724
    1XTA   HL1124311  -2.796  30.783 -10.616
    1XTA   HL1224312  -2.643  30.761 -10.535
    1XTA   HL1324313  -2.651  30.973 -10.644
    1XTA   HL1424314  -2.680  30.910 -10.805
    1XTA   HL1524315  -2.446  30.853 -10.613
    1XTA   HL1624316  -2.459  30.798 -10.777
    1XTA   HL1724317  -2.247  30.911 -10.697
    1XTA   HL1824318  -2.271  30.954 -10.868
    1XTA   HL1924319  -2.135  31.214 -10.551
    1XTA   HL2024320  -2.136  31.038 -10.551
    1XTA   HL2124321  -2.386  31.197 -10.489
    1XTA   HL2224322  -2.282  31.096 -10.385
    1XTA   HL2324323  -2.390  31.031 -10.509
    1XTA   HL2424324  -1.626  29.879 -10.929
    1XTA   HL2524325  -1.674  29.792 -10.782
    1XTA    CO824326  -2.306  31.249 -10.772
    1XTA    CO924327  -2.089  31.134 -10.790
    1XTA    OA624328  -2.077  31.166 -10.925
    1XTA   HL4224329  -2.257  31.322 -10.707
    1XTA   HL4324330  -2.413  31.244 -10.733
    1XTA   HL4824331  -2.036  31.041 -10.769
    1XTA   HL4924332  -2.037  31.213 -10.747
    1XTA     NT24333  -0.838  24.702 -10.595
    1XTA    CN124334  -0.713  24.738 -10.541
    1XTA     C124335  -0.662  24.866 -10.579
    1XTA     C224336  -0.532  24.905 -10.543
    1XTA     C324337  -0.454  24.818 -10.460
    1XTA     C424338  -0.504  24.692 -10.424
    1XTA     C524339  -0.632  24.650 -10.471
    1XTA    CN224340  -0.954  24.771 -10.572
    1XTA     C624341  -1.006  24.772 -10.443
    1XTA     C724342  -1.124  24.848 -10.413
    1XTA     C824343  -1.190  24.911 -10.516
    1XTA     C924344  -1.131  24.918 -10.646
    1XTA    C1024345  -1.016  24.841 -10.672
    1XTA    CN324346  -0.847  24.594 -10.678
    1XTA    C1124347  -0.880  24.474 -10.607
    1XTA    C1224348  -0.892  24.356 -10.680
    1XTA    C1324349  -0.861  24.352 -10.824
    1XTA    C1424350  -0.832  24.474 -10.889
    1XTA    C1524351  -0.826  24.594 -10.816
    1XTA     H124352  -0.722  24.926 -10.646
    1XTA     H224353  -0.489  25.002 -10.569
    1XTA     H324354  -0.444  24.622 -10.366
    1XTA     H424355  -0.664  24.546 -10.449
    1XTA     H524356  -0.970  24.712 -10.365
    1XTA     H624357  -1.162  24.842 -10.306
    1XTA     H724358  -1.178  24.970 -10.722
    1XTA     H824359  -0.969  24.841 -10.769
    1XTA     H924360  -0.905  24.466 -10.501
    1XTA    H1024361  -0.930  24.270 -10.638
    1XTA    H1124362  -0.817  24.472 -10.996
    1XTA    H1224363  -0.818  24.689 -10.870
    1XTA    OA124364  -0.327  24.864 -10.443
    1XTA    CO124365  -0.244  24.778 -10.373
    1XTA    OA224366  -1.306  24.972 -10.486
    1XTA    CO224367  -1.420  24.941 -10.567
    1XTA    CL124368  -1.471  24.804 -10.535
    1XTA    CL224369  -1.618  24.786 -10.592
    1XTA    CL324370  -1.666  24.635 -10.605
    1XTA    CL424371  -1.808  24.636 -10.665
    1XTA    CO324372  -1.857  24.503 -10.723
    1XTA    OA324373  -1.991  24.528 -10.769
    1XTA    CO424374  -2.054  24.412 -10.822
    1XTA    CT124375  -2.113  24.449 -10.966
    1XTA    CL524376  -2.246  24.523 -10.950
    1XTA    CL624377  -2.311  24.552 -11.091
    1XTA    OA424378  -0.880  24.240 -10.901
    1XTA    CO524379  -0.904  24.122 -10.833
    1XTA    HL124380  -0.807  24.094 -10.785
    1XTA    HL224381  -0.225  24.680 -10.423
    1XTA    HL324382  -0.148  24.820 -10.370
    1XTA    HL424383  -0.288  24.742 -10.283
    1XTA    HL524384  -1.502  25.009 -10.557
    1XTA    HL624385  -1.389  24.960 -10.669
    1XTA    HL724386  -1.475  24.770 -10.430
    1XTA    HL824387  -1.408  24.726 -10.580
    1XTA    HL924388  -1.624  24.824 -10.690
    1XTA   HL1024389  -1.696  24.841 -10.541
    1XTA   HL1124390  -1.596  24.574 -10.671
    1XTA   HL1224391  -1.673  24.588 -10.506
    1XTA   HL1324392  -1.816  24.719 -10.734
    1XTA   HL1424393  -1.871  24.666 -10.580
    1XTA   HL1524394  -1.796  24.477 -10.810
    1XTA   HL1624395  -1.856  24.420 -10.645
    1XTA   HL1724396  -1.993  24.326 -10.813
    1XTA   HL1824397  -2.138  24.386 -10.755
    1XTA   HL1924398  -2.229  24.622 -10.896
    1XTA   HL2024399  -2.321  24.455 -10.905
    1XTA   HL2124400  -2.348  24.461 -11.141
    1XTA   HL2224401  -2.248  24.611 -11.158
    1XTA   HL2324402  -2.401  24.612 -11.082
    1XTA   HL2424403  -0.917  24.041 -10.903
    1XTA   HL2524404  -0.981  24.133 -10.758
    1XTA    CO824405  -2.123  24.324 -11.046
    1XTA    CO924406  -1.999  24.535 -11.029
    1XTA    OA624407  -2.228  24.239 -10.990
    1XTA   HL4224408  -2.034  24.267 -11.039
    1XTA   HL4324409  -2.149  24.337 -11.153
    1XTA   HL4824410  -1.900  24.500 -11.015
    1XTA   HL4924411  -2.001  24.629 -10.974
    1XTA     NT24412  -2.905  29.205  -8.565
    1XTA    CN124413  -2.810  29.269  -8.630
    1XTA     C124414  -2.763  29.391  -8.586
    1XTA     C224415  -2.670  29.462  -8.660
    1XTA     C324416  -2.610  29.405  -8.774
    1XTA     C424417  -2.660  29.284  -8.823
    1XTA     C524418  -2.755  29.212  -8.751
    1XTA    CN224419  -3.027  29.219  -8.608
    1XTA     C624420  -3.076  29.347  -8.645
    1XTA     C724421  -3.211  29.357  -8.695
    1XTA     C824422  -3.291  29.239  -8.697
    1XTA     C924423  -3.241  29.114  -8.653
    1XTA    C1024424  -3.110  29.111  -8.606
    1XTA    CN324425  -2.880  29.131  -8.458
    1XTA    C1124426  -2.815  29.007  -8.466
    1XTA    C1224427  -2.805  28.925  -8.348
    1XTA    C1324428  -2.834  28.977  -8.223
    1XTA    C1424429  -2.899  29.105  -8.217
    1XTA    C1524430  -2.933  29.173  -8.334
    1XTA     H124431  -2.812  29.423  -8.493
    1XTA     H224432  -2.659  29.563  -8.636
    1XTA     H324433  -2.625  29.248  -8.918
    1XTA     H424434  -2.805  29.121  -8.799
    1XTA     H524435  -3.016  29.437  -8.635
    1XTA     H624436  -3.270  29.443  -8.734
    1XTA     H724437  -3.287  29.022  -8.647
    1XTA     H824438  -3.068  29.023  -8.563
    1XTA     H924439  -2.776  28.980  -8.562
    1XTA    H1024440  -2.761  28.827  -8.335
    1XTA    H1124441  -2.944  29.148  -8.120
    1XTA    H1224442  -2.987  29.264  -8.336
    1XTA    OA124443  -2.508  29.469  -8.844
    1XTA    CO124444  -2.441  29.568  -8.769
    1XTA    OA224445  -3.413  29.249  -8.754
    1XTA    CO224446  -3.509  29.145  -8.727
    1XTA    CL124447  -3.639  29.191  -8.785
    1XTA    CL224448  -3.765  29.117  -8.735
    1XTA    CL324449  -3.766  29.072  -8.591
    1XTA    CL424450  -3.764  29.187  -8.487
    1XTA    CO324451  -3.791  29.140  -8.343
    1XTA    OA324452  -3.695  29.045  -8.293
    1XTA    CO424453  -3.567  29.108  -8.263
    1XTA    CT124454  -3.482  29.017  -8.175
    1XTA    CL524455  -3.337  29.070  -8.181
    1XTA    CL624456  -3.267  29.036  -8.315
    1XTA    OA424457  -2.812  28.902  -8.118
    1XTA    CO524458  -2.897  28.921  -8.007
    1XTA    HL124459  -2.997  28.928  -8.046
    1XTA    HL224460  -2.407  29.533  -8.674
    1XTA    HL324461  -2.355  29.587  -8.832
    1XTA    HL424462  -2.495  29.665  -8.757
    1XTA    HL524463  -3.484  29.046  -8.775
    1XTA    HL624464  -3.517  29.129  -8.618
    1XTA    HL724465  -3.642  29.182  -8.892
    1XTA    HL824466  -3.651  29.298  -8.766
    1XTA    HL924467  -3.763  29.029  -8.800
    1XTA   HL1024468  -3.856  29.173  -8.761
    1XTA   HL1124469  -3.853  29.000  -8.573
    1XTA   HL1224470  -3.686  29.001  -8.579
    1XTA   HL1324471  -3.842  29.257  -8.515
    1XTA   HL1424472  -3.677  29.248  -8.504
    1XTA   HL1524473  -3.783  29.221  -8.265
    1XTA   HL1624474  -3.891  29.089  -8.341
    1XTA   HL1724475  -3.523  29.135  -8.360
    1XTA   HL1824476  -3.589  29.205  -8.204
    1XTA   HL1924477  -3.281  29.032  -8.090
    1XTA   HL2024478  -3.329  29.176  -8.166
    1XTA   HL2124479  -3.335  29.053  -8.390
    1XTA   HL2224480  -3.235  28.937  -8.318
    1XTA   HL2324481  -3.178  29.093  -8.346
    1XTA   HL2424482  -2.861  29.015  -7.965
    1XTA   HL2524483  -2.894  28.846  -7.926
    1XTA    CO824484  -3.500  28.871  -8.224
    1XTA    CO924485  -3.536  29.025  -8.034
    1XTA    OA624486  -3.463  28.792  -8.151
    1XTA   HL4224487  -3.463  28.855  -8.327
    1XTA   HL4324488  -3.607  28.847  -8.235
    1XTA   HL4824489  -3.504  28.910  -7.956
    1XTA   HL4924490  -3.645  29.021  -8.040
    1XTA     NT24491  -2.707  30.175  -9.564
    1XTA    CN124492  -2.641  30.099  -9.474
    1XTA     C124493  -2.508  30.049  -9.506
    1XTA     C224494  -2.427  29.982  -9.413
    1XTA     C324495  -2.478  29.957  -9.280
    1XTA     C424496  -2.603  30.022  -9.250
    1XTA     C524497  -2.686  30.091  -9.346
    1XTA    CN224498  -2.806  30.124  -9.639
    1XTA     C624499  -2.937  30.182  -9.633
    1XTA     C724500  -3.034  30.140  -9.728
    1XTA     C824501  -3.009  30.046  -9.832
    1XTA     C924502  -2.886  29.982  -9.825
    1XTA    C1024503  -2.784  30.018  -9.729
    1XTA    CN324504  -2.664  30.301  -9.581
    1XTA    C1124505  -2.570  30.335  -9.675
    1XTA    C1224506  -2.519  30.470  -9.679
    1XTA    C1324507  -2.578  30.568  -9.598
    1XTA    C1424508  -2.678  30.539  -9.500
    1XTA    C1524509  -2.718  30.404  -9.494
    1XTA     H124510  -2.471  30.056  -9.606
    1XTA     H224511  -2.333  29.955  -9.460
    1XTA     H324512  -2.649  30.009  -9.152
    1XTA     H424513  -2.781  30.128  -9.322
    1XTA     H524514  -2.950  30.274  -9.569
    1XTA     H624515  -3.124  30.197  -9.715
    1XTA     H724516  -2.865  29.914  -9.906
    1XTA     H824517  -2.684  29.978  -9.727
    1XTA     H924518  -2.530  30.263  -9.739
    1XTA    H1024519  -2.437  30.507  -9.739
    1XTA    H1124520  -2.734  30.610  -9.440
    1XTA    H1224521  -2.794  30.393  -9.415
    1XTA    OA124522  -2.421  29.863  -9.193
    1XTA    CO124523  -2.282  29.858  -9.201
    1XTA    OA224524  -3.108  30.009  -9.926
    1XTA    CO224525  -3.205  30.113  -9.943
    1XTA    CL124526  -3.295  30.086 -10.067
    1XTA    CL224527  -3.426  30.173 -10.065
    1XTA    CL324528  -3.524  30.125 -10.175
    1XTA    CL424529  -3.664  30.183 -10.147
    1XTA    CO324530  -3.742  30.213 -10.276
    1XTA    OA324531  -3.848  30.309 -10.250
    1XTA    CO424532  -3.941  30.321 -10.359
    1XTA    CT124533  -4.048  30.438 -10.339
    1XTA    CL524534  -3.980  30.568 -10.293
    1XTA    CL624535  -3.885  30.631 -10.396
    1XTA    OA424536  -2.521  30.689  -9.616
    1XTA    CO524537  -2.540  30.797  -9.523
    1XTA    HL124538  -2.643  30.827  -9.520
    1XTA    HL224539  -2.253  29.838  -9.302
    1XTA    HL324540  -2.242  29.957  -9.169
    1XTA    HL424541  -2.239  29.786  -9.134
    1XTA    HL524542  -3.266  30.116  -9.856
    1XTA    HL624543  -3.146  30.204  -9.958
    1XTA    HL724544  -3.334  29.981 -10.069
    1XTA    HL824545  -3.248  30.115 -10.159
    1XTA    HL924546  -3.389  30.272 -10.088
    1XTA   HL1024547  -3.473  30.151  -9.970
    1XTA   HL1124548  -3.498  30.181 -10.268
    1XTA   HL1224549  -3.528  30.014 -10.182
    1XTA   HL1324550  -3.645  30.273 -10.088
    1XTA   HL1424551  -3.721  30.128 -10.071
    1XTA   HL1524552  -3.675  30.261 -10.344
    1XTA   HL1624553  -3.786  30.122 -10.321
    1XTA   HL1724554  -3.891  30.332 -10.455
    1XTA   HL1824555  -4.000  30.229 -10.371
    1XTA   HL1924556  -3.930  30.549 -10.201
    1XTA   HL2024557  -4.063  30.631 -10.263
    1XTA   HL2124558  -3.903  30.591 -10.497
    1XTA   HL2224559  -3.784  30.587 -10.374
    1XTA   HL2324560  -3.883  30.738 -10.383
    1XTA   HL2424561  -2.487  30.888  -9.558
    1XTA   HL2524562  -2.522  30.767  -9.425
    1XTA    CO824563  -4.156  30.402 -10.232
    1XTA    CO924564  -4.131  30.462 -10.468
    1XTA    OA624565  -4.195  30.344 -10.513
    1XTA   HL4224566  -4.254  30.418 -10.280
    1XTA   HL4324567  -4.151  30.292 -10.229
    1XTA   HL4824568  -4.062  30.482 -10.548
    1XTA   HL4924569  -4.198  30.550 -10.468
    1XTA     NT24570  -7.177  27.021  -9.316
    1XTA    CN124571  -7.210  27.041  -9.445
    1XTA     C124572  -7.280  27.153  -9.494
    1XTA     C224573  -7.300  27.177  -9.633
    1XTA     C324574  -7.238  27.095  -9.729
    1XTA     C424575  -7.175  26.979  -9.681
    1XTA     C524576  -7.166  26.952  -9.541
    1XTA    CN224577  -7.266  26.996  -9.215
    1XTA     C624578  -7.350  26.882  -9.211
    1XTA     C724579  -7.423  26.849  -9.092
    1XTA     C824580  -7.420  26.935  -8.977
    1XTA     C924581  -7.340  27.050  -8.985
    1XTA    C1024582  -7.261  27.079  -9.102
    1XTA    CN324583  -7.047  27.021  -9.278
    1XTA    C1124584  -6.993  26.903  -9.226
    1XTA    C1224585  -6.851  26.884  -9.214
    1XTA    C1324586  -6.764  26.993  -9.237
    1XTA    C1424587  -6.821  27.111  -9.279
    1XTA    C1524588  -6.959  27.128  -9.317
    1XTA     H124589  -7.326  27.217  -9.421
    1XTA     H224590  -7.355  27.265  -9.675
    1XTA     H324591  -7.132  26.900  -9.744
    1XTA     H424592  -7.117  26.870  -9.501
    1XTA     H524593  -7.344  26.821  -9.300
    1XTA     H624594  -7.482  26.759  -9.095
    1XTA     H724595  -7.332  27.128  -8.910
    1XTA     H824596  -7.184  27.155  -9.092
    1XTA     H924597  -7.052  26.819  -9.202
    1XTA    H1024598  -6.817  26.782  -9.184
    1XTA    H1124599  -6.758  27.199  -9.275
    1XTA    H1224600  -7.005  27.218  -9.347
    1XTA    OA124601  -7.249  27.121  -9.865
    1XTA    CO124602  -7.168  27.049  -9.954
    1XTA    OA224603  -7.488  26.906  -8.863
    1XTA    CO224604  -7.433  26.959  -8.742
    1XTA    CL124605  -7.526  26.894  -8.636
    1XTA    CL224606  -7.490  26.740  -8.632
    1XTA    CL324607  -7.562  26.648  -8.535
    1XTA    CL424608  -7.711  26.633  -8.581
    1XTA    CO324609  -7.801  26.552  -8.488
    1XTA    OA324610  -7.825  26.620  -8.373
    1XTA    CO424611  -7.885  26.539  -8.274
    1XTA    CT124612  -7.919  26.617  -8.144
    1XTA    CL524613  -7.988  26.527  -8.040
    1XTA    CL624614  -8.120  26.467  -8.079
    1XTA    OA424615  -6.630  26.979  -9.205
    1XTA    CO524616  -6.576  26.854  -9.162
    1XTA    HL124617  -6.475  26.851  -9.123
    1XTA    HL224618  -7.059  27.048  -9.925
    1XTA    HL324619  -7.214  26.948  -9.961
    1XTA    HL424620  -7.174  27.089 -10.051
    1XTA    HL524621  -7.332  26.934  -8.718
    1XTA    HL624622  -7.440  27.066  -8.731
    1XTA    HL724623  -7.629  26.913  -8.659
    1XTA    HL824624  -7.510  26.943  -8.536
    1XTA    HL924625  -7.384  26.730  -8.607
    1XTA   HL1024626  -7.507  26.698  -8.727
    1XTA   HL1124627  -7.508  26.548  -8.547
    1XTA   HL1224628  -7.550  26.686  -8.431
    1XTA   HL1324629  -7.708  26.582  -8.678
    1XTA   HL1424630  -7.754  26.734  -8.589
    1XTA   HL1524631  -7.902  26.520  -8.528
    1XTA   HL1624632  -7.749  26.463  -8.454
    1XTA   HL1724633  -7.974  26.484  -8.298
    1XTA   HL1824634  -7.809  26.470  -8.242
    1XTA   HL1924635  -7.989  26.580  -7.946
    1XTA   HL2024636  -7.910  26.452  -8.022
    1XTA   HL2124637  -8.188  26.541  -8.103
    1XTA   HL2224638  -8.152  26.419  -7.987
    1XTA   HL2324639  -8.124  26.387  -8.157
    1XTA   HL2424640  -6.575  26.782  -9.243
    1XTA   HL2524641  -6.644  26.819  -9.087
    1XTA    CO824642  -8.001  26.743  -8.167
    1XTA    CO924643  -7.783  26.661  -8.090
    1XTA    OA624644  -8.107  26.723  -8.206
    1XTA   HL4224645  -7.946  26.792  -8.249
    1XTA   HL4324646  -7.993  26.805  -8.077
    1XTA   HL4824647  -7.719  26.747  -8.175
    1XTA   HL4924648  -7.803  26.720  -8.004
    1XTA     NT24649  -9.682  24.404  -5.058
    1XTA    CN124650  -9.704  24.346  -5.172
    1XTA     C124651  -9.820  24.372  -5.251
    1XTA     C224652  -9.834  24.312  -5.374
    1XTA     C324653  -9.742  24.222  -5.422
    1XTA     C424654  -9.624  24.200  -5.343
    1XTA     C524655  -9.608  24.256  -5.216
    1XTA    CN224656  -9.591  24.502  -5.048
    1XTA     C624657  -9.466  24.475  -4.997
    1XTA     C724658  -9.364  24.567  -5.000
    1XTA     C824659  -9.387  24.699  -5.046
    1XTA     C924660  -9.520  24.725  -5.094
    1XTA    C1024661  -9.620  24.627  -5.093
    1XTA    CN324662  -9.777  24.388  -4.960
    1XTA    C1124663  -9.866  24.492  -4.919
    1XTA    C1224664  -9.974  24.469  -4.829
    1XTA    C1324665  -9.983  24.339  -4.771
    1XTA    C1424666  -9.889  24.240  -4.799
    1XTA    C1524667  -9.790  24.259  -4.899
    1XTA     H124668  -9.902  24.433  -5.223
    1XTA     H224669  -9.927  24.330  -5.425
    1XTA     H324670  -9.549  24.137  -5.380
    1XTA     H424671  -9.522  24.245  -5.158
    1XTA     H524672  -9.447  24.378  -4.958
    1XTA     H624673  -9.261  24.548  -4.970
    1XTA     H724674  -9.564  24.818  -5.131
    1XTA     H824675  -9.721  24.642  -5.136
    1XTA     H924676  -9.841  24.588  -4.964
    1XTA    H1024677 -10.040  24.555  -4.803
    1XTA    H1124678  -9.906  24.150  -4.749
    1XTA    H1224679  -9.713  24.188  -4.919
    1XTA    OA124680  -9.775  24.164  -5.544
    1XTA    CO124681  -9.691  24.065  -5.601
    1XTA    OA224682  -9.283  24.790  -5.057
    1XTA    CO224683  -9.306  24.917  -5.126
    1XTA    CL124684  -9.179  25.005  -5.102
    1XTA    CL224685  -9.194  25.150  -5.149
    1XTA    CL324686  -9.069  25.236  -5.139
    1XTA    CL424687  -9.089  25.381  -5.179
    1XTA    CO324688  -8.961  25.447  -5.231
    1XTA    OA324689  -8.886  25.471  -5.117
    1XTA    CO424690  -8.751  25.510  -5.145
    1XTA    CT124691  -8.689  25.535  -5.002
    1XTA    CL524692  -8.672  25.405  -4.926
    1XTA    CL624693  -8.802  25.325  -4.877
    1XTA    OA424694 -10.078  24.310  -4.683
    1XTA    CO524695 -10.178  24.414  -4.661
    1XTA    HL124696 -10.128  24.494  -4.604
    1XTA    HL224697  -9.715  24.056  -5.710
    1XTA    HL324698  -9.580  24.082  -5.586
    1XTA    HL424699  -9.722  23.971  -5.568
    1XTA    HL524700  -9.323  24.892  -5.232
    1XTA    HL624701  -9.396  24.952  -5.077
    1XTA    HL724702  -9.097  24.957  -5.151
    1XTA    HL824703  -9.152  24.996  -4.995
    1XTA    HL924704  -9.270  25.200  -5.094
    1XTA   HL1024705  -9.212  25.149  -5.260
    1XTA   HL1124706  -9.042  25.232  -5.036
    1XTA   HL1224707  -8.989  25.189  -5.198
    1XTA   HL1324708  -9.130  25.434  -5.100
    1XTA   HL1424709  -9.172  25.376  -5.253
    1XTA   HL1524710  -8.901  25.388  -5.295
    1XTA   HL1624711  -8.981  25.540  -5.284
    1XTA   HL1724712  -8.686  25.436  -5.191
    1XTA   HL1824713  -8.753  25.599  -5.208
    1XTA   HL1924714  -8.598  25.414  -4.854
    1XTA   HL2024715  -8.616  25.343  -4.989
    1XTA   HL2124716  -8.859  25.375  -4.801
    1XTA   HL2224717  -8.758  25.240  -4.826
    1XTA   HL2324718  -8.870  25.296  -4.966
    1XTA   HL2424719 -10.260  24.378  -4.593
    1XTA   HL2524720 -10.236  24.451  -4.748
    1XTA    CO824721  -8.778  25.630  -4.917
    1XTA    CO924722  -8.549  25.604  -5.023
    1XTA    OA624723  -8.712  25.662  -4.795
    1XTA   HL4224724  -8.877  25.580  -4.905
    1XTA   HL4324725  -8.785  25.727  -4.958
    1XTA   HL4824726  -8.480  25.549  -5.076
    1XTA   HL4924727  -8.516  25.618  -4.920
    1XTA     NT24728  -2.238  27.824  -7.837
    1XTA    CN124729  -2.180  27.826  -7.715
    1XTA     C124730  -2.216  27.922  -7.617
    1XTA     C224731  -2.148  27.941  -7.494
    1XTA     C324732  -2.024  27.875  -7.484
    1XTA     C424733  -1.977  27.781  -7.581
    1XTA     C524734  -2.062  27.748  -7.693
    1XTA    CN224735  -2.164  27.851  -7.950
    1XTA     C624736  -2.163  27.767  -8.059
    1XTA     C724737  -2.098  27.820  -8.180
    1XTA     C824738  -2.011  27.928  -8.177
    1XTA     C924739  -1.999  27.998  -8.055
    1XTA    C1024740  -2.075  27.958  -7.947
    1XTA    CN324741  -2.372  27.797  -7.835
    1XTA    C1124742  -2.462  27.896  -7.876
    1XTA    C1224743  -2.599  27.882  -7.851
    1XTA    C1324744  -2.653  27.760  -7.795
    1XTA    C1424745  -2.556  27.657  -7.756
    1XTA    C1524746  -2.423  27.676  -7.781
    1XTA     H124747  -2.299  27.985  -7.647
    1XTA     H224748  -2.187  28.009  -7.419
    1XTA     H324749  -1.886  27.741  -7.561
    1XTA     H424750  -2.025  27.677  -7.763
    1XTA     H524751  -2.230  27.674  -8.065
    1XTA     H624752  -2.104  27.766  -8.275
    1XTA     H724753  -1.948  28.091  -8.049
    1XTA     H824754  -2.070  28.017  -7.851
    1XTA     H924755  -2.421  27.983  -7.915
    1XTA    H1024756  -2.657  27.963  -7.898
    1XTA    H1124757  -2.589  27.561  -7.720
    1XTA    H1224758  -2.356  27.594  -7.752
    1XTA    OA124759  -1.964  27.916  -7.373
    1XTA    CO124760  -1.826  27.885  -7.360
    1XTA    OA224761  -1.945  27.965  -8.294
    1XTA    CO224762  -1.857  28.076  -8.290
    1XTA    CL124763  -1.933  28.212  -8.321
    1XTA    CL224764  -1.846  28.343  -8.314
    1XTA    CL324765  -1.853  28.410  -8.172
    1XTA    CL424766  -1.987  28.475  -8.133
    1XTA    CO324767  -1.968  28.550  -7.998
    1XTA    OA324768  -1.853  28.633  -7.999
    1XTA    CO424769  -1.845  28.716  -7.890
    1XTA    CT124770  -1.729  28.821  -7.915
    1XTA    CL524771  -1.603  28.765  -7.993
    1XTA    CL624772  -1.530  28.657  -7.905
    1XTA    OA424773  -2.785  27.725  -7.787
    1XTA    CO524774  -2.867  27.831  -7.793
    1XTA    HL124775  -2.973  27.795  -7.777
    1XTA    HL224776  -1.795  27.923  -7.257
    1XTA    HL324777  -1.821  27.774  -7.370
    1XTA    HL424778  -1.764  27.934  -7.437
    1XTA    HL524779  -1.808  28.084  -8.192
    1XTA    HL624780  -1.778  28.060  -8.363
    1XTA    HL724781  -2.025  28.219  -8.254
    1XTA    HL824782  -1.987  28.214  -8.411
    1XTA    HL924783  -1.881  28.416  -8.389
    1XTA   HL1024784  -1.738  28.327  -8.336
    1XTA   HL1124785  -1.821  28.355  -8.085
    1XTA   HL1224786  -1.783  28.495  -8.172
    1XTA   HL1324787  -2.071  28.404  -8.115
    1XTA   HL1424788  -2.021  28.535  -8.215
    1XTA   HL1524789  -2.052  28.608  -7.972
    1XTA   HL1624790  -1.962  28.477  -7.923
    1XTA   HL1724791  -1.939  28.776  -7.910
    1XTA   HL1824792  -1.833  28.668  -7.792
    1XTA   HL1924793  -1.538  28.846  -8.021
    1XTA   HL2024794  -1.638  28.720  -8.086
    1XTA   HL2124795  -1.537  28.700  -7.800
    1XTA   HL2224796  -1.426  28.650  -7.946
    1XTA   HL2324797  -1.565  28.554  -7.906
    1XTA   HL2424798  -2.860  27.871  -7.893
    1XTA   HL2524799  -2.843  27.911  -7.713
    1XTA    CO824800  -1.695  28.907  -7.788
    1XTA    CO924801  -1.768  28.939  -8.005
    1XTA    OA624802  -1.807  28.896  -8.132
    1XTA   HL4224803  -1.632  28.853  -7.715
    1XTA   HL4324804  -1.647  29.002  -7.817
    1XTA   HL4824805  -1.693  29.016  -8.021
    1XTA   HL4924806  -1.853  28.990  -7.954
    1XTA     NT24807  -3.953  29.199  -7.101
    1XTA    CN124808  -3.997  29.073  -7.106
    1XTA     C124809  -4.028  29.015  -7.229
    1XTA     C224810  -4.075  28.888  -7.239
    1XTA     C324811  -4.105  28.819  -7.117
    1XTA     C424812  -4.047  28.870  -6.997
    1XTA     C524813  -3.991  28.997  -6.993
    1XTA    CN224814  -3.822  29.225  -7.132
    1XTA     C624815  -3.785  29.351  -7.189
    1XTA     C724816  -3.651  29.374  -7.226
    1XTA     C824817  -3.549  29.285  -7.182
    1XTA     C924818  -3.582  29.172  -7.108
    1XTA    C1024819  -3.714  29.146  -7.085
    1XTA    CN324820  -4.027  29.292  -7.035
    1XTA    C1124821  -3.988  29.338  -6.910
    1XTA    C1224822  -4.059  29.444  -6.845
    1XTA    C1324823  -4.174  29.488  -6.901
    1XTA    C1424824  -4.205  29.455  -7.030
    1XTA    C1524825  -4.132  29.351  -7.097
    1XTA     H124826  -4.024  29.070  -7.321
    1XTA     H224827  -4.104  28.845  -7.336
    1XTA     H324828  -4.050  28.811  -6.906
    1XTA     H424829  -3.942  29.039  -6.909
    1XTA     H524830  -3.851  29.428  -7.218
    1XTA     H624831  -3.630  29.456  -7.294
    1XTA     H724832  -3.505  29.106  -7.090
    1XTA     H824833  -3.739  29.061  -7.020
    1XTA     H924834  -3.893  29.299  -6.860
    1XTA    H1024835  -4.018  29.467  -6.744
    1XTA    H1124836  -4.292  29.498  -7.081
    1XTA    H1224837  -4.160  29.330  -7.201
    1XTA    OA124838  -4.174  28.706  -7.121
    1XTA    CO124839  -4.298  28.699  -7.054
    1XTA    OA224840  -3.419  29.299  -7.211
    1XTA    CO224841  -3.387  29.421  -7.271
    1XTA    CL124842  -3.235  29.448  -7.254
    1XTA    CL224843  -3.152  29.346  -7.342
    1XTA    CL324844  -3.144  29.387  -7.493
    1XTA    CL424845  -3.103  29.276  -7.588
    1XTA    CO324846  -3.085  29.325  -7.729
    1XTA    OA324847  -3.218  29.371  -7.766
    1XTA    CO424848  -3.289  29.263  -7.821
    1XTA    CT124849  -3.436  29.282  -7.813
    1XTA    CL524850  -3.480  29.417  -7.872
    1XTA    CL624851  -3.449  29.442  -8.015
    1XTA    OA424852  -4.258  29.586  -6.840
    1XTA    CO524853  -4.229  29.608  -6.702
    1XTA    HL124854  -4.234  29.517  -6.648
    1XTA    HL224855  -4.278  28.721  -6.948
    1XTA    HL324856  -4.364  28.780  -7.088
    1XTA    HL424857  -4.353  28.607  -7.059
    1XTA    HL524858  -3.423  29.439  -7.374
    1XTA    HL624859  -3.429  29.501  -7.211
    1XTA    HL724860  -3.204  29.446  -7.145
    1XTA    HL824861  -3.211  29.549  -7.291
    1XTA    HL924862  -3.188  29.249  -7.326
    1XTA   HL1024863  -3.050  29.351  -7.297
    1XTA   HL1124864  -3.243  29.410  -7.527
    1XTA   HL1224865  -3.089  29.485  -7.494
    1XTA   HL1324866  -3.163  29.184  -7.579
    1XTA   HL1424867  -3.010  29.234  -7.556
    1XTA   HL1524868  -3.015  29.401  -7.737
    1XTA   HL1624869  -3.053  29.242  -7.800
    1XTA   HL1724870  -3.264  29.251  -7.929
    1XTA   HL1824871  -3.262  29.168  -7.773
    1XTA   HL1924872  -3.441  29.500  -7.817
    1XTA   HL2024873  -3.591  29.426  -7.860
    1XTA   HL2124874  -3.469  29.544  -8.048
    1XTA   HL2224875  -3.507  29.379  -8.082
    1XTA   HL2324876  -3.342  29.419  -8.039
    1XTA   HL2424877  -4.298  29.686  -6.664
    1XTA   HL2524878  -4.122  29.642  -6.691
    1XTA    CO824879  -3.467  29.296  -7.665
    1XTA    CO924880  -3.517  29.159  -7.867
    1XTA    OA624881  -3.499  29.142  -7.969
    1XTA   HL4224882  -3.393  29.251  -7.598
    1XTA   HL4324883  -3.485  29.426  -7.625
    1XTA   HL4824884  -3.622  29.167  -7.869
    1XTA   HL4924885  -3.485  29.073  -7.814
    1XTA     NT24886  -2.109  30.221 -12.125
    1XTA    CN124887  -2.153  30.230 -12.253
    1XTA     C124888  -2.116  30.121 -12.331
    1XTA     C224889  -2.151  30.122 -12.468
    1XTA     C324890  -2.223  30.235 -12.523
    1XTA     C424891  -2.257  30.340 -12.437
    1XTA     C524892  -2.225  30.338 -12.300
    1XTA    CN224893  -2.131  30.112 -12.048
    1XTA     C624894  -2.033  30.031 -11.991
    1XTA     C724895  -2.068  29.929 -11.898
    1XTA     C824896  -2.206  29.908 -11.874
    1XTA     C924897  -2.306  29.987 -11.939
    1XTA    C1024898  -2.268  30.083 -12.034
    1XTA    CN324899  -2.029  30.320 -12.089
    1XTA    C1124900  -1.897  30.336 -12.145
    1XTA    C1224901  -1.813  30.439 -12.092
    1XTA    C1324902  -1.853  30.518 -11.983
    1XTA    C1424903  -1.985  30.505 -11.939
    1XTA    C1524904  -2.070  30.406 -11.989
    1XTA     H124905  -2.071  30.034 -12.291
    1XTA     H224906  -2.122  30.043 -12.535
    1XTA     H324907  -2.313  30.427 -12.480
    1XTA     H424908  -2.255  30.414 -12.235
    1XTA     H524909  -1.931  30.051 -12.027
    1XTA     H624910  -1.988  29.869 -11.850
    1XTA     H724911  -2.410  29.953 -11.920
    1XTA     H824912  -2.336  30.143 -12.088
    1XTA     H924913  -1.852  30.266 -12.212
    1XTA    H1024914  -1.718  30.448 -12.143
    1XTA    H1124915  -2.018  30.574 -11.868
    1XTA    H1224916  -2.172  30.401 -11.945
    1XTA    OA124917  -2.244  30.234 -12.657
    1XTA    CO124918  -2.297  30.357 -12.714
    1XTA    OA224919  -2.250  29.808 -11.792
    1XTA    CO224920  -2.153  29.769 -11.694
    1XTA    CL124921  -2.218  29.662 -11.604
    1XTA    CL224922  -2.132  29.623 -11.481
    1XTA    CL324923  -2.099  29.737 -11.386
    1XTA    CL424924  -1.953  29.786 -11.404
    1XTA    CO324925  -1.940  29.911 -11.322
    1XTA    OA324926  -1.809  29.967 -11.333
    1XTA    CO424927  -1.808  30.109 -11.314
    1XTA    CT124928  -1.670  30.160 -11.302
    1XTA    CL524929  -1.574  30.114 -11.416
    1XTA    CL624930  -1.527  29.967 -11.423
    1XTA    OA424931  -1.766  30.614 -11.934
    1XTA    CO524932  -1.626  30.584 -11.941
    1XTA    HL124933  -1.581  30.590 -12.037
    1XTA    HL224934  -2.237  30.448 -12.686
    1XTA    HL324935  -2.292  30.338 -12.823
    1XTA    HL424936  -2.404  30.377 -12.687
    1XTA    HL524937  -2.067  29.719 -11.734
    1XTA    HL624938  -2.117  29.859 -11.644
    1XTA    HL724939  -2.238  29.573 -11.667
    1XTA    HL824940  -2.313  29.712 -11.581
    1XTA    HL924941  -2.041  29.558 -11.508
    1XTA   HL1024942  -2.191  29.563 -11.421
    1XTA   HL1124943  -2.173  29.821 -11.391
    1XTA   HL1224944  -2.102  29.701 -11.280
    1XTA   HL1324945  -1.929  29.808 -11.508
    1XTA   HL1424946  -1.895  29.704 -11.371
    1XTA   HL1524947  -2.009  29.978 -11.370
    1XTA   HL1624948  -1.969  29.897 -11.218
    1XTA   HL1724949  -1.865  30.162 -11.391
    1XTA   HL1824950  -1.855  30.129 -11.218
    1XTA   HL1924951  -1.479  30.165 -11.408
    1XTA   HL2024952  -1.613  30.135 -11.516
    1XTA   HL2124953  -1.603  29.899 -11.472
    1XTA   HL2224954  -1.499  29.931 -11.328
    1XTA   HL2324955  -1.442  29.966 -11.488
    1XTA   HL2424956  -1.598  30.488 -11.899
    1XTA   HL2524957  -1.577  30.651 -11.875
    1XTA    CO824958  -1.601  30.131 -11.161
    1XTA    CO924959  -1.677  30.314 -11.305
    1XTA    OA624960  -1.724  30.365 -11.218
    1XTA   HL4224961  -1.609  30.023 -11.135
    1XTA   HL4324962  -1.670  30.202 -11.066
    1XTA   HL4824963  -1.746  30.330 -11.398
    1XTA   HL4924964  -1.574  30.354 -11.316
    1XTA     NT24965  -4.806  25.980 -10.399
    1XTA    CN124966  -4.940  25.974 -10.382
    1XTA     C124967  -5.003  26.070 -10.299
    1XTA     C224968  -5.141  26.069 -10.283
    1XTA     C324969  -5.220  25.965 -10.342
    1XTA     C424970  -5.161  25.857 -10.410
    1XTA     C524971  -5.018  25.867 -10.425
    1XTA    CN224972  -4.760  25.936 -10.520
    1XTA     C624973  -4.760  26.024 -10.625
    1XTA     C724974  -4.726  25.986 -10.753
    1XTA     C824975  -4.690  25.854 -10.780
    1XTA     C924976  -4.686  25.764 -10.671
    1XTA    C1024977  -4.722  25.805 -10.541
    1XTA    CN324978  -4.716  25.990 -10.300
    1XTA    C1124979  -4.741  25.940 -10.172
    1XTA    C1224980  -4.642  25.945 -10.073
    1XTA    C1324981  -4.525  26.015 -10.100
    1XTA    C1424982  -4.499  26.066 -10.223
    1XTA    C1524983  -4.594  26.058 -10.324
    1XTA     H124984  -4.939  26.141 -10.255
    1XTA     H224985  -5.192  26.149 -10.228
    1XTA     H324986  -5.218  25.774 -10.450
    1XTA     H424987  -4.970  25.793 -10.484
    1XTA     H524988  -4.790  26.120 -10.608
    1XTA     H624989  -4.731  26.055 -10.838
    1XTA     H724990  -4.672  25.663 -10.686
    1XTA     H824991  -4.727  25.723 -10.468
    1XTA     H924992  -4.826  25.877 -10.160
    1XTA    H1024993  -4.659  25.905  -9.973
    1XTA    H1124994  -4.409  26.125 -10.243
    1XTA    H1224995  -4.569  26.093 -10.428
    1XTA    OA124996  -5.358  25.947 -10.316
    1XTA    CO124997  -5.430  26.071 -10.284
    1XTA    OA224998  -4.649  25.825 -10.914
    1XTA    CO224999  -4.635  25.687 -10.939
    1XTA    CL125000  -4.545  25.655 -11.057
    1XTA    CL225001  -4.545  25.501 -11.094
    1XTA    CL325002  -4.479  25.412 -10.984
    1XTA    CL425003  -4.334  25.461 -10.961
    1XTA    CO325004  -4.241  25.370 -10.876
    1XTA    OA325005  -4.124  25.431 -10.842
    1XTA    CO425006  -4.050  25.480 -10.952
    1XTA    CT125007  -3.928  25.551 -10.896
    1XTA    CL525008  -3.847  25.476 -10.780
    1XTA    CL625009  -3.780  25.342 -10.795
    1XTA    OA425010  -4.425  26.017 -10.011
    1XTA    CO525011  -4.409  25.914  -9.910
    1XTA    HL125012  -4.493  25.901  -9.848
    1XTA    HL225013  -5.536  26.048 -10.273
    1XTA    HL325014  -5.397  26.102 -10.191
    1XTA    HL425015  -5.411  26.156 -10.353
    1XTA    HL525016  -4.603  25.629 -10.856
    1XTA    HL625017  -4.729  25.649 -10.964
    1XTA    HL725018  -4.448  25.695 -11.041
    1XTA    HL825019  -4.573  25.703 -11.155
    1XTA    HL925020  -4.491  25.484 -11.189
    1XTA   HL1025021  -4.656  25.470 -11.106
    1XTA   HL1125022  -4.530  25.426 -10.891
    1XTA   HL1225023  -4.491  25.306 -11.002
    1XTA   HL1325024  -4.343  25.561 -10.918
    1XTA   HL1425025  -4.275  25.458 -11.050
    1XTA   HL1525026  -4.294  25.341 -10.784
    1XTA   HL1625027  -4.218  25.284 -10.938
    1XTA   HL1725028  -4.016  25.400 -11.015
    1XTA   HL1825029  -4.109  25.559 -11.001
    1XTA   HL1925030  -3.912  25.464 -10.692
    1XTA   HL2025031  -3.763  25.544 -10.749
    1XTA   HL2125032  -3.857  25.268 -10.794
    1XTA   HL2225033  -3.720  25.332 -10.706
    1XTA   HL2325034  -3.729  25.306 -10.883
    1XTA   HL2425035  -4.323  25.923  -9.845
    1XTA   HL2525036  -4.413  25.826  -9.962
    1XTA    CO825037  -3.989  25.683 -10.836
    1XTA    CO925038  -3.829  25.591 -10.999
    1XTA    OA625039  -3.902  25.732 -10.733
    1XTA   HL4225040  -4.073  25.661 -10.781
    1XTA   HL4325041  -4.017  25.755 -10.911
    1XTA   HL4825042  -3.871  25.663 -11.067
    1XTA   HL4925043  -3.752  25.638 -10.935
    1XTA     NT25044  -4.105  27.996 -10.999
    1XTA    CN125045  -4.116  27.947 -11.125
    1XTA     C125046  -4.198  27.833 -11.139
    1XTA     C225047  -4.199  27.774 -11.270
    1XTA     C325048  -4.155  27.837 -11.381
    1XTA     C425049  -4.082  27.954 -11.359
    1XTA     C525050  -4.061  28.010 -11.234
    1XTA    CN225051  -3.982  27.992 -10.941
    1XTA     C625052  -3.913  27.868 -10.934
    1XTA     C725053  -3.803  27.850 -10.850
    1XTA     C825054  -3.756  27.958 -10.776
    1XTA     C925055  -3.815  28.082 -10.796
    1XTA    C1025056  -3.928  28.103 -10.874
    1XTA    CN325057  -4.209  28.036 -10.930
    1XTA    C1125058  -4.292  28.145 -10.971
    1XTA    C1225059  -4.399  28.175 -10.886
    1XTA    C1325060  -4.435  28.105 -10.768
    1XTA    C1425061  -4.357  28.000 -10.738
    1XTA    C1525062  -4.247  27.961 -10.817
    1XTA     H125063  -4.249  27.788 -11.053
    1XTA     H225064  -4.259  27.687 -11.286
    1XTA     H325065  -4.039  28.007 -11.444
    1XTA     H425066  -4.006  28.103 -11.226
    1XTA     H525067  -3.940  27.781 -10.980
    1XTA     H625068  -3.757  27.760 -10.838
    1XTA     H725069  -3.785  28.166 -10.740
    1XTA     H825070  -3.973  28.196 -10.889
    1XTA     H925071  -4.274  28.199 -11.071
    1XTA    H1025072  -4.466  28.248 -10.934
    1XTA    H1125073  -4.388  27.940 -10.655
    1XTA    H1225074  -4.177  27.879 -10.800
    1XTA    OA125075  -4.173  27.794 -11.507
    1XTA    CO125076  -4.299  27.743 -11.537
    1XTA    OA225077  -3.650  27.933 -10.691
    1XTA    CO225078  -3.688  27.858 -10.578
    1XTA    CL125079  -3.596  27.896 -10.464
    1XTA    CL225080  -3.627  28.039 -10.422
    1XTA    CL325081  -3.526  28.087 -10.317
    1XTA    CL425082  -3.530  28.024 -10.176
    1XTA    CO325083  -3.417  28.088 -10.096
    1XTA    OA325084  -3.438  28.221 -10.086
    1XTA    CO425085  -3.357  28.291  -9.993
    1XTA    CT125086  -3.403  28.438  -9.998
    1XTA    CL525087  -3.308  28.528  -9.926
    1XTA    CL625088  -3.288  28.499  -9.776
    1XTA    OA425089  -4.543  28.147 -10.690
    1XTA    CO525090  -4.577  28.284 -10.679
    1XTA    HL125091  -4.612  28.323 -10.776
    1XTA    HL225092  -4.368  27.818 -11.499
    1XTA    HL325093  -4.307  27.721 -11.648
    1XTA    HL425094  -4.307  27.648 -11.485
    1XTA    HL525095  -3.789  27.872 -10.548
    1XTA    HL625096  -3.672  27.748 -10.597
    1XTA    HL725097  -3.495  27.891 -10.497
    1XTA    HL825098  -3.606  27.835 -10.374
    1XTA    HL925099  -3.720  28.056 -10.378
    1XTA   HL1025100  -3.636  28.110 -10.511
    1XTA   HL1125101  -3.427  28.082 -10.358
    1XTA   HL1225102  -3.541  28.193 -10.298
    1XTA   HL1325103  -3.515  27.920 -10.194
    1XTA   HL1425104  -3.628  28.039 -10.138
    1XTA   HL1525105  -3.411  28.045 -10.000
    1XTA   HL1625106  -3.319  28.067 -10.130
    1XTA   HL1725107  -3.364  28.249  -9.901
    1XTA   HL1825108  -3.252  28.278 -10.022
    1XTA   HL1925109  -3.340  28.634  -9.942
    1XTA   HL2025110  -3.206  28.527  -9.966
    1XTA   HL2125111  -3.286  28.385  -9.766
    1XTA   HL2225112  -3.366  28.529  -9.712
    1XTA   HL2325113  -3.201  28.543  -9.730
    1XTA   HL2425114  -4.500  28.349 -10.644
    1XTA   HL2525115  -4.659  28.294 -10.612
    1XTA    CO825116  -3.539  28.460  -9.939
    1XTA    CO925117  -3.403  28.491 -10.146
    1XTA    OA625118  -3.624  28.350  -9.930
    1XTA   HL4225119  -3.587  28.540  -9.994
    1XTA   HL4325120  -3.532  28.503  -9.833
    1XTA   HL4825121  -3.339  28.431 -10.203
    1XTA   HL4925122  -3.510  28.460 -10.175
    1XTA     NT25123  -7.602  25.246 -10.039
    1XTA    CN125124  -7.674  25.128 -10.056
    1XTA     C125125  -7.604  25.009 -10.029
    1XTA     C225126  -7.677  24.890 -10.029
    1XTA     C325127  -7.807  24.879 -10.069
    1XTA     C425128  -7.875  25.002 -10.094
    1XTA     C525129  -7.812  25.126 -10.087
    1XTA    CN225130  -7.623  25.346 -10.131
    1XTA     C625131  -7.644  25.474 -10.087
    1XTA     C725132  -7.683  25.578 -10.172
    1XTA     C825133  -7.683  25.558 -10.306
    1XTA     C925134  -7.664  25.427 -10.359
    1XTA    C1025135  -7.635  25.317 -10.268
    1XTA    CN325136  -7.513  25.259  -9.934
    1XTA    C1125137  -7.376  25.283  -9.955
    1XTA    C1225138  -7.277  25.269  -9.854
    1XTA    C1325139  -7.320  25.226  -9.731
    1XTA    C1425140  -7.452  25.191  -9.709
    1XTA    C1525141  -7.552  25.214  -9.806
    1XTA     H125142  -7.501  25.013 -10.014
    1XTA     H225143  -7.619  24.795 -10.018
    1XTA     H325144  -7.982  25.007 -10.108
    1XTA     H425145  -7.849  25.222 -10.117
    1XTA     H525146  -7.631  25.505  -9.984
    1XTA     H625147  -7.682  25.677 -10.133
    1XTA     H725148  -7.663  25.413 -10.466
    1XTA     H825149  -7.610  25.212 -10.298
    1XTA     H925150  -7.333  25.309 -10.054
    1XTA    H1025151  -7.176  25.296  -9.876
    1XTA    H1125152  -7.486  25.150  -9.621
    1XTA    H1225153  -7.651  25.184  -9.784
    1XTA    OA125154  -7.879  24.762 -10.062
    1XTA    CO125155  -8.016  24.758 -10.092
    1XTA    OA225156  -7.701  25.667 -10.385
    1XTA    CO225157  -7.694  25.646 -10.528
    1XTA    CL125158  -7.550  25.648 -10.572
    1XTA    CL225159  -7.518  25.657 -10.725
    1XTA    CL325160  -7.509  25.521 -10.791
    1XTA    CL425161  -7.496  25.529 -10.945
    1XTA    CO325162  -7.489  25.392 -11.016
    1XTA    OA325163  -7.595  25.308 -10.963
    1XTA    CO425164  -7.584  25.174 -10.995
    1XTA    CT125165  -7.664  25.086 -10.905
    1XTA    CL525166  -7.817  25.106 -10.919
    1XTA    CL625167  -7.865  25.105 -11.065
    1XTA    OA425168  -7.231  25.202  -9.628
    1XTA    CO525169  -7.098  25.217  -9.641
    1XTA    HL125170  -7.081  25.324  -9.670
    1XTA    HL225171  -8.080  24.794 -10.008
    1XTA    HL325172  -8.034  24.804 -10.184
    1XTA    HL425173  -8.044  24.648 -10.082
    1XTA    HL525174  -7.761  25.564 -10.564
    1XTA    HL625175  -7.748  25.727 -10.572
    1XTA    HL725176  -7.503  25.558 -10.534
    1XTA    HL825177  -7.508  25.726 -10.519
    1XTA    HL925178  -7.433  25.713 -10.751
    1XTA   HL1025179  -7.602  25.714 -10.772
    1XTA   HL1125180  -7.430  25.469 -10.743
    1XTA   HL1225181  -7.608  25.475 -10.767
    1XTA   HL1325182  -7.409  25.588 -10.975
    1XTA   HL1425183  -7.590  25.574 -10.975
    1XTA   HL1525184  -7.494  25.402 -11.122
    1XTA   HL1625185  -7.394  25.348 -10.995
    1XTA   HL1725186  -7.608  25.157 -11.098
    1XTA   HL1825187  -7.481  25.148 -10.993
    1XTA   HL1925188  -7.835  25.208 -10.883
    1XTA   HL2025189  -7.890  25.040 -10.867
    1XTA   HL2125190  -7.836  25.187 -11.127
    1XTA   HL2225191  -7.971  25.120 -11.059
    1XTA   HL2325192  -7.829  25.005 -11.103
    1XTA   HL2425193  -7.050  25.164  -9.726
    1XTA   HL2525194  -7.040  25.203  -9.548
    1XTA    CO825195  -7.621  25.106 -10.763
    1XTA    CO925196  -7.623  24.937 -10.937
    1XTA    OA625197  -7.622  24.925 -11.078
    1XTA   HL4225198  -7.690  25.050 -10.702
    1XTA   HL4325199  -7.642  25.210 -10.743
    1XTA   HL4825200  -7.693  24.873 -10.889
    1XTA   HL4925201  -7.529  24.918 -10.897
    1XTA     NT25202  -0.673  27.782  -6.192
    1XTA    CN125203  -0.708  27.801  -6.324
    1XTA     C125204  -0.667  27.707  -6.417
    1XTA     C225205  -0.681  27.726  -6.559
    1XTA     C325206  -0.758  27.836  -6.606
    1XTA     C425207  -0.792  27.938  -6.517
    1XTA     C525208  -0.757  27.926  -6.380
    1XTA    CN225209  -0.763  27.800  -6.093
    1XTA     C625210  -0.781  27.929  -6.040
    1XTA     C725211  -0.891  27.958  -5.955
    1XTA     C825212  -0.987  27.860  -5.930
    1XTA     C925213  -0.968  27.728  -5.978
    1XTA    C1025214  -0.857  27.697  -6.057
    1XTA    CN325215  -0.546  27.771  -6.154
    1XTA    C1125216  -0.482  27.660  -6.101
    1XTA    C1225217  -0.351  27.663  -6.049
    1XTA    C1325218  -0.277  27.784  -6.043
    1XTA    C1425219  -0.332  27.893  -6.113
    1XTA    C1525220  -0.463  27.881  -6.166
    1XTA     H125221  -0.629  27.611  -6.389
    1XTA     H225222  -0.637  27.659  -6.629
    1XTA     H325223  -0.829  28.033  -6.554
    1XTA     H425224  -0.783  27.998  -6.306
    1XTA     H525225  -0.714  28.011  -6.067
    1XTA     H625226  -0.898  28.061  -5.917
    1XTA     H725227  -1.042  27.650  -5.965
    1XTA     H825228  -0.851  27.596  -6.088
    1XTA     H925229  -0.533  27.569  -6.104
    1XTA    H1025230  -0.305  27.571  -6.013
    1XTA    H1125231  -0.272  27.986  -6.119
    1XTA    H1225232  -0.512  27.969  -6.209
    1XTA    OA125233  -0.769  27.854  -6.740
    1XTA    CO125234  -0.805  27.982  -6.791
    1XTA    OA225235  -1.083  27.880  -5.840
    1XTA    CO225236  -1.184  27.963  -5.884
    1XTA    CL125237  -1.301  27.966  -5.779
    1XTA    CL225238  -1.433  28.008  -5.847
    1XTA    CL325239  -1.548  28.027  -5.752
    1XTA    CL425240  -1.677  28.061  -5.818
    1XTA    CO325241  -1.686  28.208  -5.863
    1XTA    OA325242  -1.793  28.234  -5.952
    1XTA    CO425243  -1.791  28.368  -5.994
    1XTA    CT125244  -1.798  28.360  -6.146
    1XTA    CL525245  -1.662  28.316  -6.204
    1XTA    CL625246  -1.648  28.273  -6.348
    1XTA    OA425247  -0.152  27.789  -5.976
    1XTA    CO525248  -0.100  27.925  -5.959
    1XTA    HL125249  -0.089  27.986  -6.049
    1XTA    HL225250  -0.742  28.065  -6.756
    1XTA    HL325251  -0.796  27.986  -6.894
    1XTA    HL425252  -0.906  28.005  -6.762
    1XTA    HL525253  -1.147  28.068  -5.915
    1XTA    HL625254  -1.220  27.913  -5.976
    1XTA    HL725255  -1.271  28.023  -5.690
    1XTA    HL825256  -1.317  27.866  -5.745
    1XTA    HL925257  -1.469  27.937  -5.930
    1XTA   HL1025258  -1.416  28.091  -5.909
    1XTA   HL1125259  -1.551  27.940  -5.692
    1XTA   HL1225260  -1.523  28.100  -5.672
    1XTA   HL1325261  -1.765  28.038  -5.756
    1XTA   HL1425262  -1.690  27.996  -5.905
    1XTA   HL1525263  -1.688  28.272  -5.774
    1XTA   HL1625264  -1.593  28.234  -5.919
    1XTA   HL1725265  -1.878  28.420  -5.945
    1XTA   HL1825266  -1.696  28.422  -5.977
    1XTA   HL1925267  -1.626  28.224  -6.158
    1XTA   HL2025268  -1.593  28.397  -6.187
    1XTA   HL2125269  -1.692  28.173  -6.360
    1XTA   HL2225270  -1.544  28.275  -6.384
    1XTA   HL2325271  -1.692  28.339  -6.422
    1XTA   HL2425272  -0.002  27.913  -5.898
    1XTA   HL2525273  -0.169  27.993  -5.908
    1XTA    CO825274  -1.835  28.498  -6.198
    1XTA    CO925275  -1.899  28.255  -6.183
    1XTA    OA625276  -1.761  28.573  -6.164
    1XTA   HL4225277  -1.933  28.523  -6.160
    1XTA   HL4325278  -1.847  28.485  -6.305
    1XTA   HL4825279  -1.859  28.123  -6.178
    1XTA   HL4925280  -1.984  28.268  -6.119
    1XTA     NT25281  -7.884  23.856  -7.568
    1XTA    CN125282  -7.890  23.991  -7.604
    1XTA     C125283  -8.019  24.042  -7.631
    1XTA     C225284  -8.032  24.183  -7.669
    1XTA     C325285  -7.919  24.268  -7.671
    1XTA     C425286  -7.791  24.219  -7.635
    1XTA     C525287  -7.775  24.076  -7.606
    1XTA    CN225288  -7.927  23.824  -7.445
    1XTA     C625289  -8.032  23.737  -7.424
    1XTA     C725290  -8.073  23.716  -7.288
    1XTA     C825291  -8.018  23.787  -7.182
    1XTA     C925292  -7.909  23.867  -7.206
    1XTA    C1025293  -7.857  23.879  -7.337
    1XTA    CN325294  -7.867  23.765  -7.661
    1XTA    C1125295  -7.742  23.692  -7.663
    1XTA    C1225296  -7.726  23.598  -7.767
    1XTA    C1325297  -7.827  23.554  -7.856
    1XTA    C1425298  -7.953  23.616  -7.842
    1XTA    C1525299  -7.964  23.722  -7.751
    1XTA     H125300  -8.109  23.987  -7.615
    1XTA     H225301  -8.130  24.211  -7.702
    1XTA     H325302  -7.707  24.287  -7.622
    1XTA     H425303  -7.684  24.030  -7.584
    1XTA     H525304  -8.092  23.686  -7.502
    1XTA     H625305  -8.160  23.661  -7.275
    1XTA     H725306  -7.867  23.931  -7.135
    1XTA     H825307  -7.774  23.941  -7.352
    1XTA     H925308  -7.656  23.710  -7.595
    1XTA    H1025309  -7.629  23.552  -7.776
    1XTA    H1125310  -8.019  23.602  -7.922
    1XTA    H1225311  -8.058  23.772  -7.742
    1XTA    OA125312  -7.920  24.393  -7.717
    1XTA    CO125313  -8.039  24.421  -7.789
    1XTA    OA225314  -8.095  23.785  -7.067
    1XTA    CO225315  -8.029  23.764  -6.944
    1XTA    CL125316  -8.015  23.905  -6.876
    1XTA    CL225317  -7.906  23.897  -6.768
    1XTA    CL325318  -7.815  24.014  -6.753
    1XTA    CL425319  -7.739  24.046  -6.880
    1XTA    CO325320  -7.606  23.971  -6.897
    1XTA    OA325321  -7.616  23.839  -6.931
    1XTA    CO425322  -7.504  23.758  -6.919
    1XTA    CT125323  -7.501  23.651  -7.026
    1XTA    CL525324  -7.425  23.690  -7.160
    1XTA    CL625325  -7.500  23.782  -7.251
    1XTA    OA425326  -7.795  23.460  -7.951
    1XTA    CO525327  -7.890  23.443  -8.055
    1XTA    HL125328  -7.893  23.537  -8.112
    1XTA    HL225329  -8.120  24.442  -7.726
    1XTA    HL325330  -8.019  24.506  -7.857
    1XTA    HL425331  -8.061  24.346  -7.863
    1XTA    HL525332  -8.095  23.703  -6.891
    1XTA    HL625333  -7.929  23.721  -6.961
    1XTA    HL725334  -8.100  23.955  -6.840
    1XTA    HL825335  -7.992  23.974  -6.957
    1XTA    HL925336  -7.838  23.815  -6.808
    1XTA   HL1025337  -7.939  23.845  -6.676
    1XTA   HL1125338  -7.868  24.098  -6.729
    1XTA   HL1225339  -7.753  23.986  -6.678
    1XTA   HL1325340  -7.718  24.157  -6.869
    1XTA   HL1425341  -7.801  24.035  -6.967
    1XTA   HL1525342  -7.555  24.030  -6.973
    1XTA   HL1625343  -7.546  23.982  -6.810
    1XTA   HL1725344  -7.416  23.815  -6.923
    1XTA   HL1825345  -7.515  23.710  -6.822
    1XTA   HL1925346  -7.405  23.600  -7.206
    1XTA   HL2025347  -7.331  23.735  -7.126
    1XTA   HL2125348  -7.570  23.729  -7.321
    1XTA   HL2225349  -7.428  23.833  -7.318
    1XTA   HL2325350  -7.563  23.847  -7.199
    1XTA   HL2425351  -7.988  23.408  -8.032
    1XTA   HL2525352  -7.851  23.366  -8.129
    1XTA    CO825353  -7.646  23.604  -7.054
    1XTA    CO925354  -7.419  23.531  -6.968
    1XTA    OA625355  -7.315  23.563  -6.948
    1XTA   HL4225356  -7.695  23.585  -6.957
    1XTA   HL4325357  -7.711  23.725  -7.105
    1XTA   HL4825358  -7.421  23.455  -7.054
    1XTA   HL4925359  -7.469  23.484  -6.882
    1XTA     NT25360  -9.055  25.698  -8.162
    1XTA    CN125361  -8.971  25.718  -8.264
    1XTA     C125362  -8.948  25.852  -8.304
    1XTA     C225363  -8.879  25.877  -8.422
    1XTA     C325364  -8.822  25.774  -8.493
    1XTA     C425365  -8.835  25.639  -8.453
    1XTA     C525366  -8.907  25.613  -8.338
    1XTA    CN225367  -9.164  25.627  -8.187
    1XTA     C625368  -9.167  25.487  -8.192
    1XTA     C725369  -9.276  25.409  -8.233
    1XTA     C825370  -9.392  25.475  -8.277
    1XTA     C925371  -9.388  25.613  -8.276
    1XTA    C1025372  -9.283  25.687  -8.230
    1XTA    CN325373  -9.028  25.739  -8.040
    1XTA    C1125374  -8.945  25.662  -7.955
    1XTA    C1225375  -8.897  25.720  -7.831
    1XTA    C1325376  -8.941  25.854  -7.789
    1XTA    C1425377  -9.029  25.927  -7.873
    1XTA    C1525378  -9.074  25.865  -7.996
    1XTA     H125379  -8.992  25.938  -8.249
    1XTA     H225380  -8.858  25.977  -8.457
    1XTA     H325381  -8.784  25.562  -8.503
    1XTA     H425382  -8.912  25.511  -8.303
    1XTA     H525383  -9.076  25.435  -8.171
    1XTA     H625384  -9.265  25.303  -8.242
    1XTA     H725385  -9.466  25.667  -8.320
    1XTA     H825386  -9.287  25.797  -8.235
    1XTA     H925387  -8.907  25.563  -7.989
    1XTA    H1025388  -8.837  25.657  -7.770
    1XTA    H1125389  -9.071  26.020  -7.850
    1XTA    H1225390  -9.138  25.915  -8.066
    1XTA    OA125391  -8.740  25.812  -8.595
    1XTA    CO125392  -8.681  25.702  -8.664
    1XTA    OA225393  -9.497  25.414  -8.326
    1XTA    CO225394  -9.474  25.283  -8.381
    1XTA    CL125395  -9.607  25.243  -8.442
    1XTA    CL225396  -9.600  25.116  -8.517
    1XTA    CL325397  -9.727  25.088  -8.597
    1XTA    CL425398  -9.717  24.964  -8.676
    1XTA    CO325399  -9.821  24.939  -8.789
    1XTA    OA325400  -9.817  25.038  -8.889
    1XTA    CO425401  -9.901  25.026  -8.999
    1XTA    CT125402  -9.883  25.147  -9.094
    1XTA    CL525403 -10.004  25.140  -9.190
    1XTA    CL625404  -9.990  25.238  -9.300
    1XTA    OA425405  -8.894  25.913  -7.671
    1XTA    CO525406  -8.843  25.828  -7.571
    1XTA    HL125407  -8.901  25.735  -7.557
    1XTA    HL225408  -8.634  25.731  -8.756
    1XTA    HL325409  -8.600  25.660  -8.599
    1XTA    HL425410  -8.754  25.631  -8.702
    1XTA    HL525411  -9.393  25.277  -8.454
    1XTA    HL625412  -9.457  25.224  -8.295
    1XTA    HL725413  -9.635  25.328  -8.503
    1XTA    HL825414  -9.683  25.243  -8.362
    1XTA    HL925415  -9.593  25.039  -8.436
    1XTA   HL1025416  -9.515  25.094  -8.582
    1XTA   HL1125417  -9.811  25.065  -8.528
    1XTA   HL1225418  -9.746  25.156  -8.676
    1XTA   HL1325419  -9.714  24.875  -8.612
    1XTA   HL1425420  -9.627  24.975  -8.729
    1XTA   HL1525421  -9.798  24.848  -8.846
    1XTA   HL1625422  -9.917  24.940  -8.742
    1XTA   HL1725423  -9.879  24.935  -9.052
    1XTA   HL1825424 -10.002  25.023  -8.965
    1XTA   HL1925425 -10.094  25.173  -9.136
    1XTA   HL2025426 -10.017  25.031  -9.220
    1XTA   HL2125427 -10.082  25.221  -9.358
    1XTA   HL2225428  -9.908  25.206  -9.365
    1XTA   HL2325429  -9.988  25.342  -9.268
    1XTA   HL2425430  -8.859  25.875  -7.469
    1XTA   HL2525431  -8.744  25.803  -7.604
    1XTA    CO825432  -9.745  25.144  -9.159
    1XTA    CO925433  -9.897  25.286  -9.015
    1XTA    OA625434  -9.727  25.057  -9.223
    1XTA   HL4225435  -9.665  25.130  -9.083
    1XTA   HL4325436  -9.731  25.239  -9.215
    1XTA   HL4825437  -9.944  25.261  -8.888
    1XTA   HL4925438  -9.961  25.361  -9.057
    1XTA     NT25439  -5.412  25.108  -9.787
    1XTA    CN125440  -5.427  25.180  -9.673
    1XTA     C125441  -5.415  25.321  -9.668
    1XTA     C225442  -5.405  25.380  -9.539
    1XTA     C325443  -5.439  25.309  -9.422
    1XTA     C425444  -5.472  25.173  -9.432
    1XTA     C525445  -5.460  25.109  -9.561
    1XTA    CN225446  -5.491  25.122  -9.899
    1XTA     C625447  -5.488  25.238  -9.981
    1XTA     C725448  -5.565  25.237 -10.102
    1XTA     C825449  -5.641  25.123 -10.140
    1XTA     C925450  -5.636  25.010 -10.057
    1XTA    C1025451  -5.562  25.009  -9.938
    1XTA    CN325452  -5.291  25.051  -9.809
    1XTA    C1125453  -5.182  25.123  -9.859
    1XTA    C1225454  -5.066  25.058  -9.915
    1XTA    C1325455  -5.059  24.923  -9.907
    1XTA    C1425456  -5.158  24.848  -9.845
    1XTA    C1525457  -5.271  24.913  -9.791
    1XTA     H125458  -5.414  25.383  -9.754
    1XTA     H225459  -5.389  25.491  -9.535
    1XTA     H325460  -5.497  25.114  -9.345
    1XTA     H425461  -5.479  25.005  -9.573
    1XTA     H525462  -5.436  25.327  -9.946
    1XTA     H625463  -5.580  25.324 -10.160
    1XTA     H725464  -5.684  24.910 -10.075
    1XTA     H825465  -5.557  24.928  -9.864
    1XTA     H925466  -5.199  25.230  -9.858
    1XTA    H1025467  -4.985  25.118  -9.956
    1XTA    H1125468  -5.170  24.739  -9.839
    1XTA    H1225469  -5.360  24.863  -9.752
    1XTA    OA125470  -5.452  25.366  -9.296
    1XTA    CO125471  -5.472  25.505  -9.295
    1XTA    OA225472  -5.715  25.133 -10.255
    1XTA    CO225473  -5.794  25.027 -10.294
    1XTA    CL125474  -5.818  25.038 -10.448
    1XTA    CL225475  -5.867  24.905 -10.511
    1XTA    CL325476  -6.021  24.914 -10.528
    1XTA    CL425477  -6.086  24.781 -10.528
    1XTA    CO325478  -6.238  24.787 -10.529
    1XTA    OA325479  -6.320  24.669 -10.534
    1XTA    CO425480  -6.321  24.608 -10.407
    1XTA    CT125481  -6.408  24.482 -10.412
    1XTA    CL525482  -6.357  24.384 -10.527
    1XTA    CL625483  -6.414  24.242 -10.540
    1XTA    OA425484  -4.966  24.848  -9.976
    1XTA    CO525485  -4.870  24.923 -10.051
    1XTA    HL125486  -4.822  24.994  -9.982
    1XTA    HL225487  -5.565  25.534  -9.347
    1XTA    HL325488  -5.484  25.541  -9.193
    1XTA    HL425489  -5.377  25.556  -9.328
    1XTA    HL525490  -5.748  24.936 -10.264
    1XTA    HL625491  -5.891  25.048 -10.251
    1XTA    HL725492  -5.716  25.064 -10.483
    1XTA    HL825493  -5.891  25.117 -10.470
    1XTA    HL925494  -5.844  24.827 -10.439
    1XTA   HL1025495  -5.819  24.865 -10.605
    1XTA   HL1125496  -6.058  24.969 -10.441
    1XTA   HL1225497  -6.040  24.976 -10.620
    1XTA   HL1325498  -6.057  24.721 -10.444
    1XTA   HL1425499  -6.061  24.703 -10.611
    1XTA   HL1525500  -6.273  24.845 -10.444
    1XTA   HL1625501  -6.279  24.841 -10.614
    1XTA   HL1725502  -6.219  24.596 -10.371
    1XTA   HL1825503  -6.361  24.672 -10.330
    1XTA   HL1925504  -6.255  24.384 -10.500
    1XTA   HL2025505  -6.367  24.423 -10.625
    1XTA   HL2125506  -6.521  24.247 -10.537
    1XTA   HL2225507  -6.384  24.168 -10.469
    1XTA   HL2325508  -6.383  24.206 -10.635
    1XTA   HL2425509  -4.927  24.979 -10.120
    1XTA   HL2525510  -4.787  24.870 -10.098
    1XTA    CO825511  -6.556  24.531 -10.444
    1XTA    CO925512  -6.411  24.404 -10.277
    1XTA    OA625513  -6.293  24.344 -10.239
    1XTA   HL4225514  -6.555  24.617 -10.518
    1XTA   HL4325515  -6.606  24.450 -10.498
    1XTA   HL4825516  -6.483  24.318 -10.284
    1XTA   HL4925517  -6.446  24.470 -10.190
    1XTA     NT25518  -3.042  29.491  -9.068
    1XTA    CN125519  -2.985  29.380  -9.123
    1XTA     C125520  -2.969  29.371  -9.261
    1XTA     C225521  -2.927  29.253  -9.322
    1XTA     C325522  -2.896  29.138  -9.248
    1XTA     C425523  -2.907  29.154  -9.108
    1XTA     C525524  -2.958  29.269  -9.045
    1XTA    CN225525  -3.164  29.534  -9.104
    1XTA     C625526  -3.274  29.458  -9.064
    1XTA     C725527  -3.398  29.520  -9.096
    1XTA     C825528  -3.407  29.639  -9.164
    1XTA     C925529  -3.296  29.700  -9.225
    1XTA    C1025530  -3.173  29.646  -9.188
    1XTA    CN325531  -2.963  29.573  -8.988
    1XTA    C1125532  -2.841  29.608  -9.032
    1XTA    C1225533  -2.754  29.675  -8.948
    1XTA    C1325534  -2.796  29.703  -8.816
    1XTA    C1425535  -2.929  29.671  -8.775
    1XTA    C1525536  -3.010  29.603  -8.862
    1XTA     H125537  -2.997  29.459  -9.310
    1XTA     H225538  -2.920  29.242  -9.424
    1XTA     H325539  -2.883  29.072  -9.044
    1XTA     H425540  -2.962  29.278  -8.936
    1XTA     H525541  -3.250  29.354  -9.019
    1XTA     H625542  -3.494  29.476  -9.079
    1XTA     H725543  -3.304  29.780  -9.295
    1XTA     H825544  -3.076  29.683  -9.218
    1XTA     H925545  -2.813  29.586  -9.132
    1XTA    H1025546  -2.658  29.703  -8.980
    1XTA    H1125547  -2.962  29.678  -8.674
    1XTA    H1225548  -3.111  29.569  -8.833
    1XTA    OA125549  -2.860  29.021  -9.311
    1XTA    CO125550  -2.881  28.899  -9.239
    1XTA    OA225551  -3.530  29.684  -9.195
    1XTA    CO225552  -3.544  29.767  -9.315
    1XTA    CL125553  -3.701  29.777  -9.334
    1XTA    CL225554  -3.776  29.649  -9.308
    1XTA    CL325555  -3.739  29.525  -9.392
    1XTA    CL425556  -3.849  29.417  -9.385
    1XTA    CO325557  -3.821  29.294  -9.479
    1XTA    OA325558  -3.754  29.338  -9.596
    1XTA    CO425559  -3.738  29.237  -9.690
    1XTA    CT125560  -3.655  29.288  -9.817
    1XTA    CL525561  -3.528  29.371  -9.770
    1XTA    CL625562  -3.438  29.298  -9.666
    1XTA    OA425563  -2.704  29.753  -8.730
    1XTA    CO525564  -2.759  29.805  -8.606
    1XTA    HL125565  -2.796  29.728  -8.541
    1XTA    HL225566  -2.986  28.893  -9.215
    1XTA    HL325567  -2.863  28.811  -9.300
    1XTA    HL425568  -2.815  28.888  -9.149
    1XTA    HL525569  -3.507  29.860  -9.294
    1XTA    HL625570  -3.504  29.715  -9.404
    1XTA    HL725571  -3.731  29.817  -9.429
    1XTA    HL825572  -3.739  29.863  -9.268
    1XTA    HL925573  -3.880  29.675  -9.318
    1XTA   HL1025574  -3.758  29.615  -9.203
    1XTA   HL1125575  -3.712  29.550  -9.497
    1XTA   HL1225576  -3.644  29.485  -9.345
    1XTA   HL1325577  -3.949  29.461  -9.413
    1XTA   HL1425578  -3.857  29.386  -9.284
    1XTA   HL1525579  -3.762  29.218  -9.422
    1XTA   HL1625580  -3.911  29.236  -9.495
    1XTA   HL1725581  -3.689  29.159  -9.645
    1XTA   HL1825582  -3.832  29.186  -9.724
    1XTA   HL1925583  -3.554  29.466  -9.719
    1XTA   HL2025584  -3.481  29.394  -9.867
    1XTA   HL2125585  -3.484  29.274  -9.570
    1XTA   HL2225586  -3.349  29.354  -9.643
    1XTA   HL2325587  -3.417  29.201  -9.705
    1XTA   HL2425588  -2.836  29.871  -8.622
    1XTA   HL2525589  -2.673  29.851  -8.558
    1XTA    CO825590  -3.748  29.370  -9.910
    1XTA    CO925591  -3.600  29.168  -9.897
    1XTA    OA625592  -3.688  29.109  -9.925
    1XTA   HL4225593  -3.691  29.378 -10.005
    1XTA   HL4325594  -3.864  29.296  -9.933
    1XTA   HL4825595  -3.534  29.109  -9.834
    1XTA   HL4925596  -3.552  29.196  -9.992
    1XTA     NT25597  -3.465  29.318 -10.383
    1XTA    CN125598  -3.385  29.393 -10.306
    1XTA     C125599  -3.337  29.332 -10.187
    1XTA     C225600  -3.253  29.401 -10.101
    1XTA     C325601  -3.203  29.530 -10.136
    1XTA     C425602  -3.245  29.586 -10.258
    1XTA     C525603  -3.343  29.520 -10.337
    1XTA    CN225604  -3.596  29.301 -10.355
    1XTA     C625605  -3.662  29.175 -10.380
    1XTA     C725606  -3.797  29.154 -10.347
    1XTA     C825607  -3.871  29.260 -10.298
    1XTA     C925608  -3.810  29.381 -10.275
    1XTA    C1025609  -3.677  29.403 -10.303
    1XTA    CN325610  -3.427  29.281 -10.508
    1XTA    C1125611  -3.496  29.327 -10.621
    1XTA    C1225612  -3.453  29.278 -10.747
    1XTA    C1325613  -3.350  29.183 -10.767
    1XTA    C1425614  -3.278  29.143 -10.654
    1XTA    C1525615  -3.316  29.194 -10.523
    1XTA     H125616  -3.360  29.234 -10.170
    1XTA     H225617  -3.217  29.367 -10.008
    1XTA     H325618  -3.215  29.686 -10.283
    1XTA     H425619  -3.380  29.558 -10.435
    1XTA     H525620  -3.605  29.082 -10.412
    1XTA     H625621  -3.855  29.060 -10.362
    1XTA     H725622  -3.868  29.464 -10.236
    1XTA     H825623  -3.640  29.508 -10.284
    1XTA     H925624  -3.578  29.398 -10.616
    1XTA    H1025625  -3.491  29.323 -10.829
    1XTA    H1125626  -3.188  29.080 -10.674
    1XTA    H1225627  -3.265  29.169 -10.431
    1XTA    OA125628  -3.109  29.593 -10.055
    1XTA    CO125629  -3.081  29.734 -10.070
    1XTA    OA225630  -4.008  29.247 -10.288
    1XTA    CO225631  -4.072  29.261 -10.402
    1XTA    CL125632  -4.210  29.192 -10.400
    1XTA    CL225633  -4.203  29.049 -10.361
    1XTA    CL325634  -4.335  28.978 -10.385
    1XTA    CL425635  -4.323  28.833 -10.334
    1XTA    CO325636  -4.453  28.751 -10.352
    1XTA    OA325637  -4.427  28.618 -10.305
    1XTA    CO425638  -4.529  28.526 -10.335
    1XTA    CT125639  -4.526  28.409 -10.239
    1XTA    CL525640  -4.607  28.289 -10.291
    1XTA    CL625641  -4.761  28.323 -10.321
    1XTA    OA425642  -3.318  29.139 -10.894
    1XTA    CO525643  -3.428  29.095 -10.970
    1XTA    HL125644  -3.490  29.174 -11.016
    1XTA    HL225645  -3.029  29.778  -9.979
    1XTA    HL325646  -3.039  29.758 -10.167
    1XTA    HL425647  -3.172  29.797 -10.064
    1XTA    HL525648  -4.079  29.364 -10.417
    1XTA    HL625649  -4.010  29.226 -10.485
    1XTA    HL725650  -4.251  29.192 -10.500
    1XTA    HL825651  -4.272  29.253 -10.328
    1XTA    HL925652  -4.168  29.045 -10.259
    1XTA   HL1025653  -4.112  29.009 -10.417
    1XTA   HL1125654  -4.402  29.024 -10.311
    1XTA   HL1225655  -4.374  28.970 -10.485
    1XTA   HL1325656  -4.300  28.838 -10.230
    1XTA   HL1425657  -4.235  28.783 -10.379
    1XTA   HL1525658  -4.535  28.803 -10.299
    1XTA   HL1625659  -4.483  28.741 -10.457
    1XTA   HL1725660  -4.625  28.569 -10.332
    1XTA   HL1825661  -4.516  28.509 -10.440
    1XTA   HL1925662  -4.593  28.199 -10.225
    1XTA   HL2025663  -4.565  28.248 -10.386
    1XTA   HL2125664  -4.819  28.366 -10.234
    1XTA   HL2225665  -4.819  28.236 -10.360
    1XTA   HL2325666  -4.770  28.395 -10.400
    1XTA   HL2425667  -3.493  29.045 -10.901
    1XTA   HL2525668  -3.389  29.025 -11.048
    1XTA    CO825669  -4.580  28.443 -10.100
    1XTA    CO925670  -4.381  28.357 -10.217
    1XTA    OA625671  -4.612  28.361 -10.036
    1XTA   HL4225672  -4.662  28.516 -10.120
    1XTA   HL4325673  -4.502  28.504 -10.051
    1XTA   HL4825674  -4.307  28.461 -10.147
    1XTA   HL4925675  -4.390  28.271 -10.154
    1XTA     NT25676  -4.106  23.423  -6.299
    1XTA    CN125677  -4.177  23.329  -6.357
    1XTA     C125678  -4.167  23.189  -6.332
    1XTA     C225679  -4.252  23.095  -6.391
    1XTA     C325680  -4.359  23.135  -6.473
    1XTA     C425681  -4.379  23.272  -6.492
    1XTA     C525682  -4.285  23.364  -6.434
    1XTA    CN225683  -4.117  23.443  -6.164
    1XTA     C625684  -4.053  23.358  -6.080
    1XTA     C725685  -4.057  23.377  -5.941
    1XTA     C825686  -4.127  23.484  -5.883
    1XTA     C925687  -4.207  23.570  -5.964
    1XTA    C1025688  -4.194  23.548  -6.101
    1XTA    CN325689  -4.050  23.520  -6.377
    1XTA    C1125690  -3.970  23.488  -6.489
    1XTA    C1225691  -3.916  23.587  -6.570
    1XTA    C1325692  -3.937  23.725  -6.548
    1XTA    C1425693  -4.021  23.755  -6.445
    1XTA    C1525694  -4.071  23.657  -6.359
    1XTA     H125695  -4.090  23.149  -6.268
    1XTA     H225696  -4.240  22.992  -6.357
    1XTA     H325697  -4.468  23.320  -6.537
    1XTA     H425698  -4.308  23.464  -6.443
    1XTA     H525699  -3.987  23.277  -6.110
    1XTA     H625700  -4.013  23.305  -5.873
    1XTA     H725701  -4.268  23.653  -5.930
    1XTA     H825702  -4.260  23.614  -6.155
    1XTA     H925703  -3.941  23.383  -6.521
    1XTA    H1025704  -3.861  23.562  -6.664
    1XTA    H1125705  -4.046  23.861  -6.421
    1XTA    H1225706  -4.131  23.699  -6.285
    1XTA    OA125707  -4.446  23.036  -6.518
    1XTA    CO125708  -4.573  23.076  -6.575
    1XTA    OA225709  -4.148  23.507  -5.751
    1XTA    CO225710  -4.085  23.421  -5.652
    1XTA    CL125711  -3.965  23.483  -5.604
    1XTA    CL225712  -3.985  23.623  -5.552
    1XTA    CL325713  -3.855  23.687  -5.511
    1XTA    CL425714  -3.824  23.641  -5.369
    1XTA    CO325715  -3.686  23.675  -5.330
    1XTA    OA325716  -3.593  23.600  -5.405
    1XTA    CO425717  -3.568  23.469  -5.355
    1XTA    CT125718  -3.497  23.369  -5.445
    1XTA    CL525719  -3.460  23.244  -5.355
    1XTA    CL625720  -3.572  23.166  -5.285
    1XTA    OA425721  -3.877  23.809  -6.644
    1XTA    CO525722  -3.883  23.949  -6.628
    1XTA    HL125723  -3.808  24.000  -6.685
    1XTA    HL225724  -4.626  22.997  -6.620
    1XTA    HL325725  -4.634  23.122  -6.505
    1XTA    HL425726  -4.560  23.153  -6.647
    1XTA    HL525727  -4.166  23.417  -5.576
    1XTA    HL625728  -4.063  23.322  -5.676
    1XTA    HL725729  -3.901  23.480  -5.692
    1XTA    HL825730  -3.923  23.424  -5.518
    1XTA    HL925731  -4.067  23.627  -5.479
    1XTA   HL1025732  -4.017  23.682  -5.640
    1XTA   HL1125733  -3.774  23.655  -5.579
    1XTA   HL1225734  -3.862  23.797  -5.516
    1XTA   HL1325735  -3.847  23.534  -5.359
    1XTA   HL1425736  -3.879  23.691  -5.295
    1XTA   HL1525737  -3.675  23.789  -5.359
    1XTA   HL1625738  -3.667  23.653  -5.222
    1XTA   HL1725739  -3.516  23.479  -5.262
    1XTA   HL1825740  -3.665  23.418  -5.324
    1XTA   HL1925741  -3.389  23.270  -5.285
    1XTA   HL2025742  -3.408  23.169  -5.421
    1XTA   HL2125743  -3.521  23.094  -5.223
    1XTA   HL2225744  -3.633  23.118  -5.362
    1XTA   HL2325745  -3.638  23.233  -5.227
    1XTA   HL2425746  -3.862  23.979  -6.525
    1XTA   HL2525747  -3.980  23.980  -6.658
    1XTA    CO825748  -3.363  23.423  -5.508
    1XTA    CO925749  -3.598  23.332  -5.556
    1XTA    OA625750  -3.563  23.233  -5.649
    1XTA   HL4225751  -3.293  23.458  -5.429
    1XTA   HL4325752  -3.385  23.520  -5.538
    1XTA   HL4825753  -3.626  23.417  -5.619
    1XTA   HL4925754  -3.691  23.304  -5.507
    1XTA     NT25755  -7.962  27.006  -6.077
    1XTA    CN125756  -8.034  27.031  -5.969
    1XTA     C125757  -8.149  26.953  -5.940
    1XTA     C225758  -8.208  26.976  -5.808
    1XTA     C325759  -8.156  27.072  -5.724
    1XTA     C425760  -8.048  27.154  -5.755
    1XTA     C525761  -7.990  27.131  -5.881
    1XTA    CN225762  -7.890  26.895  -6.080
    1XTA     C625763  -7.758  26.887  -6.027
    1XTA     C725764  -7.680  26.770  -6.029
    1XTA     C825765  -7.741  26.648  -6.076
    1XTA     C925766  -7.877  26.652  -6.129
    1XTA    C1025767  -7.947  26.777  -6.135
    1XTA    CN325768  -7.963  27.071  -6.197
    1XTA    C1125769  -7.848  27.127  -6.251
    1XTA    C1225770  -7.843  27.193  -6.377
    1XTA    C1325771  -7.959  27.179  -6.459
    1XTA    C1425772  -8.079  27.118  -6.407
    1XTA    C1525773  -8.080  27.074  -6.271
    1XTA     H125774  -8.182  26.873  -6.007
    1XTA     H225775  -8.286  26.904  -5.775
    1XTA     H325776  -8.018  27.229  -5.683
    1XTA     H425777  -7.906  27.195  -5.916
    1XTA     H525778  -7.719  26.980  -5.988
    1XTA     H625779  -7.581  26.766  -6.000
    1XTA     H725780  -7.933  26.565  -6.169
    1XTA     H825781  -8.051  26.782  -6.164
    1XTA     H925782  -7.757  27.132  -6.192
    1XTA    H1025783  -7.757  27.249  -6.397
    1XTA    H1125784  -8.168  27.119  -6.461
    1XTA    H1225785  -8.176  27.030  -6.237
    1XTA    OA125786  -8.205  27.068  -5.601
    1XTA    CO125787  -8.229  27.198  -5.545
    1XTA    OA225788  -7.665  26.531  -6.066
    1XTA    CO225789  -7.737  26.407  -6.091
    1XTA    CL125790  -7.648  26.284  -6.064
    1XTA    CL225791  -7.530  26.281  -6.160
    1XTA    CL325792  -7.456  26.156  -6.146
    1XTA    CL425793  -7.333  26.142  -6.233
    1XTA    CO325794  -7.279  25.996  -6.230
    1XTA    OA325795  -7.237  25.961  -6.096
    1XTA    CO425796  -7.273  25.823  -6.057
    1XTA    CT125797  -7.205  25.785  -5.924
    1XTA    CL525798  -7.067  25.733  -5.960
    1XTA    CL625799  -6.964  25.802  -6.056
    1XTA    OA425800  -7.952  27.235  -6.584
    1XTA    CO525801  -8.070  27.244  -6.666
    1XTA    HL125802  -8.045  27.278  -6.768
    1XTA    HL225803  -8.156  27.221  -5.461
    1XTA    HL325804  -8.230  27.277  -5.617
    1XTA    HL425805  -8.331  27.204  -5.501
    1XTA    HL525806  -7.821  26.398  -6.021
    1XTA    HL625807  -7.779  26.414  -6.193
    1XTA    HL725808  -7.714  26.201  -6.089
    1XTA    HL825809  -7.616  26.275  -5.955
    1XTA    HL925810  -7.474  26.369  -6.159
    1XTA   HL1025811  -7.576  26.276  -6.260
    1XTA   HL1125812  -7.429  26.139  -6.043
    1XTA   HL1225813  -7.536  26.080  -6.156
    1XTA   HL1325814  -7.250  26.211  -6.223
    1XTA   HL1425815  -7.358  26.164  -6.338
    1XTA   HL1525816  -7.361  25.941  -6.276
    1XTA   HL1625817  -7.182  25.990  -6.289
    1XTA   HL1725818  -7.380  25.816  -6.047
    1XTA   HL1825819  -7.237  25.754  -6.136
    1XTA   HL1925820  -7.059  25.619  -5.981
    1XTA   HL2025821  -7.021  25.734  -5.863
    1XTA   HL2125822  -6.876  25.736  -6.074
    1XTA   HL2225823  -6.936  25.899  -6.011
    1XTA   HL2325824  -7.018  25.821  -6.148
    1XTA   HL2425825  -8.150  27.314  -6.632
    1XTA   HL2525826  -8.118  27.146  -6.676
    1XTA    CO825827  -7.297  25.682  -5.851
    1XTA    CO925828  -7.196  25.911  -5.832
    1XTA    OA625829  -7.250  25.655  -5.753
    1XTA   HL4225830  -7.300  25.593  -5.909
    1XTA   HL4325831  -7.393  25.739  -5.834
    1XTA   HL4825832  -7.155  25.877  -5.703
    1XTA   HL4925833  -7.301  25.941  -5.825
    1XTA     NT25834  -1.566  26.934 -10.471
    1XTA    CN125835  -1.555  27.018 -10.580
    1XTA     C125836  -1.460  26.996 -10.683
    1XTA     C225837  -1.448  27.076 -10.792
    1XTA     C325838  -1.551  27.176 -10.813
    1XTA     C425839  -1.649  27.203 -10.717
    1XTA     C525840  -1.657  27.117 -10.602
    1XTA    CN225841  -1.451  26.901 -10.404
    1XTA     C625842  -1.394  26.773 -10.406
    1XTA     C725843  -1.281  26.740 -10.331
    1XTA     C825844  -1.224  26.834 -10.241
    1XTA     C925845  -1.276  26.967 -10.240
    1XTA    C1025846  -1.388  27.001 -10.323
    1XTA    CN325847  -1.657  26.840 -10.469
    1XTA    C1125848  -1.746  26.824 -10.362
    1XTA    C1225849  -1.858  26.734 -10.367
    1XTA    C1325850  -1.876  26.657 -10.486
    1XTA    C1425851  -1.789  26.677 -10.600
    1XTA    C1525852  -1.680  26.768 -10.589
    1XTA     H125853  -1.385  26.922 -10.670
    1XTA     H225854  -1.377  27.048 -10.871
    1XTA     H325855  -1.731  27.278 -10.736
    1XTA     H425856  -1.738  27.123 -10.524
    1XTA     H525857  -1.441  26.700 -10.479
    1XTA     H625858  -1.247  26.632 -10.321
    1XTA     H725859  -1.231  27.042 -10.170
    1XTA     H825860  -1.422  27.099 -10.312
    1XTA     H925861  -1.731  26.882 -10.278
    1XTA    H1025862  -1.929  26.729 -10.286
    1XTA    H1125863  -1.799  26.612 -10.678
    1XTA    H1225864  -1.623  26.790 -10.674
    1XTA    OA125865  -1.540  27.254 -10.925
    1XTA    CO125866  -1.662  27.281 -10.997
    1XTA    OA225867  -1.128  26.789 -10.156
    1XTA    CO225868  -1.062  26.880 -10.064
    1XTA    CL125869  -0.949  26.809  -9.982
    1XTA    CL225870  -1.003  26.735  -9.857
    1XTA    CL325871  -1.103  26.626  -9.877
    1XTA    CL425872  -1.056  26.517  -9.966
    1XTA    CO325873  -1.177  26.431  -9.997
    1XTA    OA325874  -1.241  26.382  -9.878
    1XTA    CO425875  -1.349  26.294  -9.909
    1XTA    CT125876  -1.437  26.269  -9.785
    1XTA    CL525877  -1.475  26.399  -9.728
    1XTA    CL625878  -1.561  26.399  -9.599
    1XTA    OA425879  -1.980  26.569 -10.488
    1XTA    CO525880  -2.021  26.512 -10.610
    1XTA    HL125881  -2.072  26.593 -10.669
    1XTA    HL225882  -1.644  27.354 -11.077
    1XTA    HL325883  -1.701  27.190 -11.043
    1XTA    HL425884  -1.737  27.334 -10.936
    1XTA    HL525885  -1.019  26.960 -10.134
    1XTA    HL625886  -1.151  26.924 -10.008
    1XTA    HL725887  -0.887  26.893  -9.940
    1XTA    HL825888  -0.875  26.753 -10.040
    1XTA    HL925889  -1.056  26.804  -9.793
    1XTA   HL1025890  -0.924  26.707  -9.795
    1XTA   HL1125891  -1.153  26.594  -9.788
    1XTA   HL1225892  -1.177  26.677  -9.935
    1XTA   HL1325893  -0.978  26.462  -9.918
    1XTA   HL1425894  -1.000  26.554 -10.047
    1XTA   HL1525895  -1.250  26.488 -10.060
    1XTA   HL1625896  -1.149  26.341 -10.055
    1XTA   HL1725897  -1.400  26.356  -9.983
    1XTA   HL1825898  -1.306  26.215  -9.950
    1XTA   HL1925899  -1.526  26.461  -9.805
    1XTA   HL2025900  -1.388  26.456  -9.702
    1XTA   HL2125901  -1.542  26.307  -9.538
    1XTA   HL2225902  -1.664  26.412  -9.608
    1XTA   HL2325903  -1.526  26.466  -9.530
    1XTA   HL2425904  -2.105  26.437 -10.588
    1XTA   HL2525905  -1.947  26.459 -10.669
    1XTA    CO825906  -1.367  26.159  -9.699
    1XTA    CO925907  -1.568  26.202  -9.836
    1XTA    OA625908  -1.614  26.281  -9.942
    1XTA   HL4225909  -1.431  26.164  -9.610
    1XTA   HL4325910  -1.269  26.201  -9.670
    1XTA   HL4825911  -1.647  26.194  -9.760
    1XTA   HL4925912  -1.545  26.102  -9.870
    1XTA     NT25913  -7.348  28.622 -11.387
    1XTA    CN125914  -7.452  28.615 -11.300
    1XTA     C125915  -7.476  28.722 -11.213
    1XTA     C225916  -7.592  28.726 -11.132
    1XTA     C325917  -7.698  28.633 -11.154
    1XTA     C425918  -7.671  28.523 -11.232
    1XTA     C525919  -7.550  28.512 -11.302
    1XTA    CN225920  -7.374  28.683 -11.500
    1XTA     C625921  -7.323  28.816 -11.507
    1XTA     C725922  -7.347  28.888 -11.629
    1XTA     C825923  -7.413  28.828 -11.738
    1XTA     C925924  -7.453  28.694 -11.725
    1XTA    C1025925  -7.444  28.623 -11.609
    1XTA    CN325926  -7.233  28.555 -11.371
    1XTA    C1125927  -7.118  28.619 -11.312
    1XTA    C1225928  -7.004  28.543 -11.299
    1XTA    C1325929  -6.996  28.404 -11.339
    1XTA    C1425930  -7.109  28.342 -11.389
    1XTA    C1525931  -7.225  28.417 -11.400
    1XTA     H125932  -7.410  28.809 -11.199
    1XTA     H225933  -7.609  28.801 -11.061
    1XTA     H325934  -7.743  28.443 -11.254
    1XTA     H425935  -7.546  28.427 -11.376
    1XTA     H525936  -7.260  28.860 -11.428
    1XTA     H625937  -7.305  28.988 -11.639
    1XTA     H725938  -7.505  28.647 -11.807
    1XTA     H825939  -7.489  28.524 -11.602
    1XTA     H925940  -7.121  28.728 -11.290
    1XTA    H1025941  -6.916  28.592 -11.263
    1XTA    H1125942  -7.119  28.239 -11.408
    1XTA    H1225943  -7.319  28.364 -11.435
    1XTA    OA125944  -7.816  28.636 -11.082
    1XTA    CO125945  -7.864  28.761 -11.030
    1XTA    OA225946  -7.438  28.890 -11.855
    1XTA    CO225947  -7.351  28.987 -11.911
    1XTA    CL125948  -7.215  28.919 -11.930
    1XTA    CL225949  -7.086  29.010 -11.932
    1XTA    CL325950  -7.044  29.063 -11.796
    1XTA    CL425951  -7.000  28.947 -11.697
    1XTA    CO325952  -6.895  28.849 -11.746
    1XTA    OA325953  -6.795  28.922 -11.820
    1XTA    CO425954  -6.690  28.831 -11.878
    1XTA    CT125955  -6.618  28.904 -11.991
    1XTA    CL525956  -6.597  29.056 -11.964
    1XTA    CL625957  -6.501  29.097 -11.846
    1XTA    OA425958  -6.875  28.343 -11.329
    1XTA    CO525959  -6.874  28.200 -11.319
    1XTA    HL125960  -6.907  28.170 -11.218
    1XTA    HL225961  -7.795  28.810 -10.966
    1XTA    HL325962  -7.875  28.833 -11.111
    1XTA    HL425963  -7.963  28.752 -10.984
    1XTA    HL525964  -7.390  29.013 -12.004
    1XTA    HL625965  -7.359  29.077 -11.857
    1XTA    HL725966  -7.229  28.878 -12.025
    1XTA    HL825967  -7.198  28.835 -11.870
    1XTA    HL925968  -7.104  29.089 -12.012
    1XTA   HL1025969  -7.009  28.950 -11.970
    1XTA   HL1125970  -6.955  29.130 -11.812
    1XTA   HL1225971  -7.124  29.120 -11.754
    1XTA   HL1325972  -7.094  28.887 -11.682
    1XTA   HL1425973  -6.957  28.993 -11.603
    1XTA   HL1525974  -6.850  28.792 -11.665
    1XTA   HL1625975  -6.949  28.780 -11.800
    1XTA   HL1725976  -6.618  28.790 -11.801
    1XTA   HL1825977  -6.734  28.742 -11.919
    1XTA   HL1925978  -6.698  29.093 -11.946
    1XTA   HL2025979  -6.565  29.108 -12.056
    1XTA   HL2125980  -6.400  29.062 -11.864
    1XTA   HL2225981  -6.532  29.062 -11.751
    1XTA   HL2325982  -6.503  29.206 -11.833
    1XTA   HL2425983  -6.774  28.162 -11.319
    1XTA   HL2525984  -6.933  28.146 -11.400
    1XTA    CO825985  -6.712  28.894 -12.113
    1XTA    CO925986  -6.479  28.844 -12.033
    1XTA    OA625987  -6.489  28.704 -12.053
    1XTA   HL4225988  -6.817  28.924 -12.091
    1XTA   HL4325989  -6.723  28.781 -12.129
    1XTA   HL4825990  -6.405  28.867 -11.961
    1XTA   HL4925991  -6.463  28.901 -12.128
    1XTA     NT25992  -3.833  27.003  -8.706
    1XTA    CN125993  -3.898  27.059  -8.602
    1XTA     C125994  -3.973  26.991  -8.512
    1XTA     C225995  -4.046  27.054  -8.413
    1XTA     C325996  -4.044  27.197  -8.397
    1XTA     C425997  -3.960  27.267  -8.488
    1XTA     C525998  -3.884  27.199  -8.586
    1XTA    CN225999  -3.730  26.911  -8.692
    1XTA     C626000  -3.721  26.834  -8.573
    1XTA     C726001  -3.620  26.735  -8.564
    1XTA     C826002  -3.529  26.712  -8.670
    1XTA     C926003  -3.537  26.786  -8.786
    1XTA    C1026004  -3.637  26.886  -8.797
    1XTA    CN326005  -3.915  27.007  -8.822
    1XTA    C1126006  -4.036  26.934  -8.822
    1XTA    C1226007  -4.113  26.940  -8.940
    1XTA    C1326008  -4.071  27.026  -9.050
    1XTA    C1426009  -3.952  27.108  -9.044
    1XTA    C1526010  -3.874  27.091  -8.930
    1XTA     H126011  -3.979  26.880  -8.515
    1XTA     H226012  -4.111  26.986  -8.358
    1XTA     H326013  -3.945  27.374  -8.478
    1XTA     H426014  -3.821  27.252  -8.656
    1XTA     H526015  -3.781  26.859  -8.488
    1XTA     H626016  -3.620  26.672  -8.479
    1XTA     H726017  -3.472  26.772  -8.869
    1XTA     H826018  -3.649  26.939  -8.889
    1XTA     H926019  -4.075  26.864  -8.752
    1XTA    H1026020  -4.212  26.893  -8.948
    1XTA    H1126021  -3.920  27.167  -9.131
    1XTA    H1226022  -3.778  27.143  -8.927
    1XTA    OA126023  -4.128  27.265  -8.313
    1XTA    CO126024  -4.260  27.201  -8.298
    1XTA    OA226025  -3.432  26.615  -8.654
    1XTA    CO226026  -3.346  26.586  -8.757
    1XTA    CL126027  -3.248  26.472  -8.724
    1XTA    CL226028  -3.131  26.473  -8.822
    1XTA    CL326029  -3.177  26.449  -8.971
    1XTA    CL426030  -3.116  26.549  -9.071
    1XTA    CO326031  -2.981  26.507  -9.125
    1XTA    OA326032  -2.897  26.451  -9.020
    1XTA    CO426033  -2.779  26.388  -9.064
    1XTA    CT126034  -2.697  26.358  -8.941
    1XTA    CL526035  -2.772  26.274  -8.822
    1XTA    CL626036  -2.786  26.127  -8.851
    1XTA    OA426037  -4.161  27.031  -9.157
    1XTA    CO526038  -4.118  27.100  -9.276
    1XTA    HL126039  -4.091  27.203  -9.261
    1XTA    HL226040  -4.256  27.106  -8.252
    1XTA    HL326041  -4.316  27.249  -8.216
    1XTA    HL426042  -4.311  27.207  -8.394
    1XTA    HL526043  -3.408  26.551  -8.842
    1XTA    HL626044  -3.296  26.676  -8.780
    1XTA    HL726045  -3.301  26.386  -8.723
    1XTA    HL826046  -3.207  26.478  -8.623
    1XTA    HL926047  -3.047  26.401  -8.796
    1XTA   HL1026048  -3.091  26.574  -8.812
    1XTA   HL1126049  -3.140  26.356  -9.006
    1XTA   HL1226050  -3.290  26.439  -8.993
    1XTA   HL1326051  -3.106  26.653  -9.026
    1XTA   HL1426052  -3.178  26.555  -9.160
    1XTA   HL1526053  -2.998  26.437  -9.208
    1XTA   HL1626054  -2.939  26.590  -9.189
    1XTA   HL1726055  -2.792  26.299  -9.118
    1XTA   HL1826056  -2.727  26.453  -9.136
    1XTA   HL1926057  -2.860  26.327  -8.788
    1XTA   HL2026058  -2.707  26.280  -8.734
    1XTA   HL2126059  -2.828  26.103  -8.948
    1XTA   HL2226060  -2.847  26.076  -8.776
    1XTA   HL2326061  -2.685  26.083  -8.848
    1XTA   HL2426062  -4.189  27.085  -9.361
    1XTA   HL2526063  -4.023  27.051  -9.306
    1XTA    CO826064  -2.657  26.494  -8.886
    1XTA    CO926065  -2.566  26.288  -8.989
    1XTA    OA626066  -2.508  26.266  -8.900
    1XTA   HL4226067  -2.745  26.539  -8.837
    1XTA   HL4326068  -2.568  26.482  -8.777
    1XTA   HL4826069  -2.514  26.354  -9.065
    1XTA   HL4926070  -2.597  26.200  -9.047
    1XTA     NT26071  -4.256  26.718  -6.779
    1XTA    CN126072  -4.273  26.601  -6.848
    1XTA     C126073  -4.391  26.576  -6.913
    1XTA     C226074  -4.416  26.450  -6.972
    1XTA     C326075  -4.328  26.339  -6.953
    1XTA     C426076  -4.212  26.355  -6.882
    1XTA     C526077  -4.188  26.486  -6.833
    1XTA    CN226078  -4.307  26.724  -6.651
    1XTA     C626079  -4.443  26.694  -6.631
    1XTA     C726080  -4.494  26.696  -6.500
    1XTA     C826081  -4.409  26.721  -6.389
    1XTA     C926082  -4.276  26.742  -6.410
    1XTA    C1026083  -4.221  26.745  -6.537
    1XTA    CN326084  -4.238  26.837  -6.845
    1XTA    C1126085  -4.111  26.879  -6.889
    1XTA    C1226086  -4.095  27.001  -6.959
    1XTA    C1326087  -4.203  27.085  -6.997
    1XTA    C1426088  -4.332  27.039  -6.956
    1XTA    C1526089  -4.348  26.919  -6.890
    1XTA     H126090  -4.468  26.647  -6.936
    1XTA     H226091  -4.513  26.444  -7.026
    1XTA     H326092  -4.140  26.271  -6.866
    1XTA     H426093  -4.093  26.494  -6.784
    1XTA     H526094  -4.505  26.697  -6.712
    1XTA     H626095  -4.601  26.686  -6.496
    1XTA     H726096  -4.208  26.758  -6.325
    1XTA     H826097  -4.114  26.752  -6.547
    1XTA     H926098  -4.027  26.819  -6.857
    1XTA    H1026099  -3.989  27.030  -6.985
    1XTA    H1126100  -4.413  27.111  -6.976
    1XTA    H1226101  -4.451  26.895  -6.862
    1XTA    OA126102  -4.350  26.217  -7.013
    1XTA    CO126103  -4.477  26.185  -7.075
    1XTA    OA226104  -4.459  26.723  -6.261
    1XTA    CO226105  -4.403  26.622  -6.182
    1XTA    CL126106  -4.497  26.504  -6.185
    1XTA    CL226107  -4.502  26.413  -6.067
    1XTA    CL326108  -4.580  26.284  -6.097
    1XTA    CL426109  -4.577  26.191  -5.981
    1XTA    CO326110  -4.673  26.076  -5.992
    1XTA    OA326111  -4.648  25.996  -5.874
    1XTA    CO426112  -4.753  25.913  -5.833
    1XTA    CT126113  -4.701  25.802  -5.739
    1XTA    CL526114  -4.816  25.737  -5.662
    1XTA    CL626115  -4.925  25.679  -5.747
    1XTA    OA426116  -4.197  27.213  -7.049
    1XTA    CO526117  -4.077  27.276  -7.070
    1XTA    HL126118  -4.108  27.369  -7.109
    1XTA    HL226119  -4.489  26.252  -7.158
    1XTA    HL326120  -4.493  26.095  -7.133
    1XTA    HL426121  -4.556  26.217  -7.003
    1XTA    HL526122  -4.297  26.594  -6.205
    1XTA    HL626123  -4.397  26.658  -6.076
    1XTA    HL726124  -4.473  26.447  -6.274
    1XTA    HL826125  -4.596  26.548  -6.190
    1XTA    HL926126  -4.555  26.462  -5.985
    1XTA   HL1026127  -4.407  26.396  -6.019
    1XTA   HL1126128  -4.681  26.301  -6.117
    1XTA   HL1226129  -4.551  26.241  -6.195
    1XTA   HL1326130  -4.594  26.237  -5.888
    1XTA   HL1426131  -4.477  26.158  -5.969
    1XTA   HL1526132  -4.777  26.114  -6.004
    1XTA   HL1626133  -4.659  26.017  -6.080
    1XTA   HL1726134  -4.819  25.990  -5.793
    1XTA   HL1826135  -4.810  25.864  -5.912
    1XTA   HL1926136  -4.865  25.809  -5.593
    1XTA   HL2026137  -4.772  25.660  -5.609
    1XTA   HL2126138  -4.903  25.658  -5.850
    1XTA   HL2226139  -5.002  25.755  -5.750
    1XTA   HL2326140  -4.969  25.595  -5.694
    1XTA   HL2426141  -4.005  27.222  -7.135
    1XTA   HL2526142  -4.031  27.294  -6.970
    1XTA    CO826143  -4.608  25.873  -5.640
    1XTA    CO926144  -4.619  25.689  -5.825
    1XTA    OA626145  -4.586  25.791  -5.530
    1XTA   HL4226146  -4.671  25.955  -5.603
    1XTA   HL4326147  -4.517  25.921  -5.678
    1XTA   HL4826148  -4.585  25.612  -5.755
    1XTA   HL4926149  -4.691  25.634  -5.884
    1XTA     NT26150  -3.961  24.535  -7.222
    1XTA    CN126151  -4.041  24.608  -7.143
    1XTA     C126152  -4.002  24.738  -7.110
    1XTA     C226153  -4.090  24.819  -7.040
    1XTA     C326154  -4.213  24.773  -6.993
    1XTA     C426155  -4.248  24.643  -7.019
    1XTA     C526156  -4.167  24.571  -7.103
    1XTA    CN226157  -3.860  24.463  -7.175
    1XTA     C626158  -3.727  24.464  -7.220
    1XTA     C726159  -3.634  24.377  -7.157
    1XTA     C826160  -3.668  24.284  -7.056
    1XTA     C926161  -3.800  24.276  -7.017
    1XTA    C1026162  -3.894  24.365  -7.077
    1XTA    CN326163  -3.991  24.534  -7.355
    1XTA    C1126164  -3.968  24.648  -7.432
    1XTA    C1226165  -3.986  24.651  -7.574
    1XTA    C1326166  -4.018  24.534  -7.644
    1XTA    C1426167  -4.037  24.411  -7.567
    1XTA    C1526168  -4.021  24.415  -7.421
    1XTA     H126169  -3.904  24.774  -7.137
    1XTA     H226170  -4.056  24.919  -7.027
    1XTA     H326171  -4.345  24.605  -6.990
    1XTA     H426172  -4.212  24.486  -7.148
    1XTA     H526173  -3.695  24.531  -7.301
    1XTA     H626174  -3.537  24.380  -7.202
    1XTA     H726175  -3.826  24.197  -6.943
    1XTA     H826176  -3.998  24.364  -7.053
    1XTA     H926177  -3.923  24.735  -7.386
    1XTA    H1026178  -3.968  24.741  -7.638
    1XTA    H1126179  -4.052  24.313  -7.609
    1XTA    H1226180  -4.036  24.320  -7.360
    1XTA    OA126181  -4.296  24.848  -6.912
    1XTA    CO126182  -4.367  24.768  -6.814
    1XTA    OA226183  -3.576  24.201  -7.003
    1XTA    CO226184  -3.436  24.204  -7.044
    1XTA    CL126185  -3.424  24.112  -7.167
    1XTA    CL226186  -3.279  24.095  -7.214
    1XTA    CL326187  -3.270  23.996  -7.326
    1XTA    CL426188  -3.125  23.992  -7.379
    1XTA    CO326189  -3.095  23.892  -7.482
    1XTA    OA326190  -2.952  23.874  -7.490
    1XTA    CO426191  -2.915  23.808  -7.611
    1XTA    CT126192  -2.774  23.757  -7.615
    1XTA    CL526193  -2.687  23.873  -7.558
    1XTA    CL626194  -2.541  23.832  -7.538
    1XTA    OA426195  -4.027  24.533  -7.780
    1XTA    CO526196  -3.950  24.445  -7.854
    1XTA    HL126197  -4.012  24.355  -7.870
    1XTA    HL226198  -4.373  24.834  -6.728
    1XTA    HL326199  -4.465  24.736  -6.847
    1XTA    HL426200  -4.294  24.694  -6.782
    1XTA    HL526201  -3.402  24.305  -7.047
    1XTA    HL626202  -3.372  24.161  -6.973
    1XTA    HL726203  -3.481  24.149  -7.249
    1XTA    HL826204  -3.473  24.014  -7.146
    1XTA    HL926205  -3.217  24.047  -7.135
    1XTA   HL1026206  -3.214  24.180  -7.244
    1XTA   HL1126207  -3.304  23.900  -7.286
    1XTA   HL1226208  -3.335  24.025  -7.403
    1XTA   HL1326209  -3.053  23.982  -7.299
    1XTA   HL1426210  -3.088  24.089  -7.420
    1XTA   HL1526211  -3.138  23.789  -7.458
    1XTA   HL1626212  -3.143  23.935  -7.574
    1XTA   HL1726213  -2.987  23.722  -7.624
    1XTA   HL1826214  -2.932  23.876  -7.692
    1XTA   HL1926215  -2.727  23.908  -7.463
    1XTA   HL2026216  -2.691  23.953  -7.636
    1XTA   HL2126217  -2.514  23.787  -7.439
    1XTA   HL2226218  -2.483  23.925  -7.524
    1XTA   HL2326219  -2.497  23.782  -7.622
    1XTA   HL2426220  -3.848  24.414  -7.822
    1XTA   HL2526221  -3.926  24.481  -7.953
    1XTA    CO826222  -2.735  23.705  -7.752
    1XTA    CO926223  -2.756  23.634  -7.521
    1XTA    OA626224  -2.804  23.542  -7.555
    1XTA   HL4226225  -2.650  23.647  -7.727
    1XTA   HL4326226  -2.845  23.631  -7.806
    1XTA   HL4826227  -2.791  23.666  -7.426
    1XTA   HL4926228  -2.653  23.612  -7.499
    1XTA     NT26229  -3.312  28.357  -6.500
    1XTA    CN126230  -3.267  28.299  -6.385
    1XTA     C126231  -3.210  28.387  -6.287
    1XTA     C226232  -3.172  28.336  -6.166
    1XTA     C326233  -3.180  28.198  -6.139
    1XTA     C426234  -3.232  28.112  -6.241
    1XTA     C526235  -3.282  28.167  -6.359
    1XTA    CN226236  -3.226  28.378  -6.606
    1XTA     C626237  -3.264  28.314  -6.726
    1XTA     C726238  -3.191  28.351  -6.842
    1XTA     C826239  -3.093  28.452  -6.841
    1XTA     C926240  -3.057  28.515  -6.724
    1XTA    C1026241  -3.121  28.472  -6.608
    1XTA    CN326242  -3.419  28.433  -6.485
    1XTA    C1126243  -3.405  28.577  -6.474
    1XTA    C1226244  -3.521  28.650  -6.454
    1XTA    C1326245  -3.647  28.581  -6.435
    1XTA    C1426246  -3.660  28.440  -6.460
    1XTA    C1526247  -3.548  28.368  -6.489
    1XTA     H126248  -3.202  28.491  -6.313
    1XTA     H226249  -3.147  28.410  -6.096
    1XTA     H326250  -3.238  28.004  -6.223
    1XTA     H426251  -3.325  28.103  -6.433
    1XTA     H526252  -3.352  28.254  -6.721
    1XTA     H626253  -3.223  28.301  -6.936
    1XTA     H726254  -2.975  28.589  -6.724
    1XTA     H826255  -3.077  28.515  -6.523
    1XTA     H926256  -3.316  28.632  -6.493
    1XTA    H1026257  -3.509  28.751  -6.433
    1XTA    H1126258  -3.746  28.377  -6.443
    1XTA    H1226259  -3.541  28.257  -6.499
    1XTA    OA126260  -3.139  28.157  -6.020
    1XTA    CO126261  -3.114  28.020  -5.998
    1XTA    OA226262  -3.035  28.489  -6.959
    1XTA    CO226263  -2.969  28.611  -6.963
    1XTA    CL126264  -2.949  28.650  -7.115
    1XTA    CL226265  -2.891  28.789  -7.126
    1XTA    CL326266  -2.805  28.796  -7.256
    1XTA    CL426267  -2.655  28.763  -7.230
    1XTA    CO326268  -2.582  28.789  -7.359
    1XTA    OA326269  -2.455  28.729  -7.346
    1XTA    CO426270  -2.448  28.590  -7.387
    1XTA    CT126271  -2.411  28.574  -7.538
    1XTA    CL526272  -2.270  28.524  -7.569
    1XTA    CL626273  -2.153  28.617  -7.517
    1XTA    OA426274  -3.750  28.664  -6.394
    1XTA    CO526275  -3.863  28.607  -6.337
    1XTA    HL126276  -3.843  28.537  -6.261
    1XTA    HL226277  -3.035  27.998  -6.064
    1XTA    HL326278  -3.078  28.000  -5.899
    1XTA    HL426279  -3.205  27.959  -6.023
    1XTA    HL526280  -3.025  28.698  -6.916
    1XTA    HL626281  -2.871  28.611  -6.906
    1XTA    HL726282  -3.037  28.637  -7.175
    1XTA    HL826283  -2.887  28.566  -7.147
    1XTA    HL926284  -2.833  28.799  -7.031
    1XTA   HL1026285  -2.969  28.865  -7.126
    1XTA   HL1126286  -2.841  28.744  -7.347
    1XTA   HL1226287  -2.825  28.902  -7.277
    1XTA   HL1326288  -2.641  28.660  -7.203
    1XTA   HL1426289  -2.611  28.816  -7.141
    1XTA   HL1526290  -2.645  28.763  -7.446
    1XTA   HL1626291  -2.563  28.897  -7.360
    1XTA   HL1726292  -2.366  28.540  -7.335
    1XTA   HL1826293  -2.536  28.538  -7.344
    1XTA   HL1926294  -2.251  28.514  -7.679
    1XTA   HL2026295  -2.252  28.422  -7.533
    1XTA   HL2126296  -2.063  28.553  -7.515
    1XTA   HL2226297  -2.183  28.658  -7.422
    1XTA   HL2326298  -2.133  28.696  -7.593
    1XTA   HL2426299  -3.916  28.543  -6.401
    1XTA   HL2526300  -3.927  28.679  -6.296
    1XTA    CO826301  -2.434  28.699  -7.617
    1XTA    CO926302  -2.512  28.473  -7.599
    1XTA    OA626303  -2.416  28.697  -7.757
    1XTA   HL4226304  -2.370  28.776  -7.586
    1XTA   HL4326305  -2.536  28.739  -7.617
    1XTA   HL4826306  -2.474  28.458  -7.702
    1XTA   HL4926307  -2.601  28.525  -7.615
    1XTA     NT26308  -3.059  28.302  -5.586
    1XTA    CN126309  -3.130  28.403  -5.639
    1XTA     C126310  -3.185  28.394  -5.771
    1XTA     C226311  -3.275  28.495  -5.812
    1XTA     C326312  -3.304  28.609  -5.739
    1XTA     C426313  -3.254  28.626  -5.607
    1XTA     C526314  -3.164  28.517  -5.564
    1XTA    CN226315  -2.932  28.285  -5.631
    1XTA     C626316  -2.886  28.163  -5.679
    1XTA     C726317  -2.756  28.142  -5.727
    1XTA     C826318  -2.674  28.252  -5.746
    1XTA     C926319  -2.710  28.382  -5.710
    1XTA    C1026320  -2.839  28.399  -5.651
    1XTA    CN326321  -3.109  28.253  -5.477
    1XTA    C1126322  -3.035  28.242  -5.357
    1XTA    C1226323  -3.098  28.196  -5.243
    1XTA    C1326324  -3.228  28.141  -5.242
    1XTA    C1426325  -3.291  28.129  -5.365
    1XTA    C1526326  -3.235  28.188  -5.482
    1XTA     H126327  -3.173  28.312  -5.833
    1XTA     H226328  -3.328  28.485  -5.907
    1XTA     H326329  -3.283  28.703  -5.539
    1XTA     H426330  -3.137  28.525  -5.464
    1XTA     H526331  -2.953  28.077  -5.671
    1XTA     H626332  -2.715  28.044  -5.760
    1XTA     H726333  -2.641  28.456  -5.734
    1XTA     H826334  -2.868  28.493  -5.629
    1XTA     H926335  -2.942  28.283  -5.351
    1XTA    H1026336  -3.044  28.195  -5.151
    1XTA    H1126337  -3.379  28.072  -5.379
    1XTA    H1226338  -3.287  28.186  -5.576
    1XTA    OA126339  -3.380  28.706  -5.793
    1XTA    CO126340  -3.409  28.822  -5.718
    1XTA    OA226341  -2.541  28.232  -5.770
    1XTA    CO226342  -2.507  28.136  -5.870
    1XTA    CL126343  -2.359  28.164  -5.893
    1XTA    CL226344  -2.339  28.305  -5.950
    1XTA    CL326345  -2.202  28.366  -5.928
    1XTA    CL426346  -2.170  28.476  -6.030
    1XTA    CO326347  -2.250  28.608  -6.015
    1XTA    OA326348  -2.304  28.639  -6.143
    1XTA    CO426349  -2.411  28.563  -6.189
    1XTA    CT126350  -2.413  28.586  -6.342
    1XTA    CL526351  -2.461  28.732  -6.362
    1XTA    CL626352  -2.506  28.775  -6.506
    1XTA    OA426353  -3.289  28.095  -5.127
    1XTA    CO526354  -3.241  28.153  -5.006
    1XTA    HL126355  -3.220  28.263  -5.014
    1XTA    HL226356  -3.478  28.800  -5.633
    1XTA    HL326357  -3.315  28.877  -5.691
    1XTA    HL426358  -3.474  28.896  -5.776
    1XTA    HL526359  -2.531  28.034  -5.847
    1XTA    HL626360  -2.558  28.173  -5.960
    1XTA    HL726361  -2.311  28.098  -5.966
    1XTA    HL826362  -2.304  28.165  -5.800
    1XTA    HL926363  -2.408  28.372  -5.910
    1XTA   HL1026364  -2.365  28.288  -6.057
    1XTA   HL1126365  -2.205  28.389  -5.823
    1XTA   HL1226366  -2.123  28.283  -5.939
    1XTA   HL1326367  -2.167  28.430  -6.134
    1XTA   HL1426368  -2.068  28.490  -6.010
    1XTA   HL1526369  -2.329  28.603  -5.941
    1XTA   HL1626370  -2.181  28.687  -5.985
    1XTA   HL1726371  -2.393  28.459  -6.168
    1XTA   HL1826372  -2.505  28.587  -6.145
    1XTA   HL1926373  -2.379  28.799  -6.324
    1XTA   HL2026374  -2.546  28.740  -6.294
    1XTA   HL2126375  -2.578  28.712  -6.545
    1XTA   HL2226376  -2.424  28.787  -6.573
    1XTA   HL2326377  -2.561  28.872  -6.509
    1XTA   HL2426378  -3.154  28.096  -4.995
    1XTA   HL2526379  -3.302  28.139  -4.922
    1XTA    CO826380  -2.517  28.484  -6.396
    1XTA    CO926381  -2.283  28.553  -6.418
    1XTA    OA626382  -2.257  28.421  -6.425
    1XTA   HL4226383  -2.511  28.391  -6.340
    1XTA   HL4326384  -2.611  28.526  -6.360
    1XTA   HL4826385  -2.199  28.612  -6.388
    1XTA   HL4926386  -2.293  28.578  -6.526
    1XTA     NT26387  -4.698  24.490  -5.967
    1XTA    CN126388  -4.642  24.595  -5.901
    1XTA     C126389  -4.663  24.610  -5.762
    1XTA     C226390  -4.616  24.716  -5.683
    1XTA     C326391  -4.549  24.817  -5.745
    1XTA     C426392  -4.527  24.808  -5.887
    1XTA     C526393  -4.571  24.701  -5.963
    1XTA    CN226394  -4.640  24.368  -5.959
    1XTA     C626395  -4.676  24.281  -5.856
    1XTA     C726396  -4.611  24.157  -5.842
    1XTA     C826397  -4.531  24.104  -5.945
    1XTA     C926398  -4.495  24.187  -6.053
    1XTA    C1026399  -4.551  24.322  -6.061
    1XTA    CN326400  -4.830  24.502  -6.009
    1XTA    C1126401  -4.858  24.509  -6.148
    1XTA    C1226402  -4.987  24.487  -6.191
    1XTA    C1326403  -5.095  24.463  -6.105
    1XTA    C1426404  -5.070  24.465  -5.965
    1XTA    C1526405  -4.937  24.481  -5.919
    1XTA     H126406  -4.721  24.527  -5.722
    1XTA     H226407  -4.637  24.717  -5.579
    1XTA     H326408  -4.473  24.884  -5.941
    1XTA     H426409  -4.552  24.703  -6.065
    1XTA     H526410  -4.743  24.314  -5.779
    1XTA     H626411  -4.636  24.105  -5.749
    1XTA     H726412  -4.430  24.152  -6.132
    1XTA     H826413  -4.519  24.386  -6.142
    1XTA     H926414  -4.780  24.511  -6.224
    1XTA    H1026415  -5.001  24.489  -6.296
    1XTA    H1126416  -5.151  24.450  -5.901
    1XTA    H1226417  -4.896  24.471  -5.814
    1XTA    OA126418  -4.516  24.932  -5.682
    1XTA    CO126419  -4.563  24.959  -5.548
    1XTA    OA226420  -4.486  23.981  -5.942
    1XTA    CO226421  -4.581  23.877  -5.918
    1XTA    CL126422  -4.534  23.757  -5.836
    1XTA    CL226423  -4.485  23.801  -5.702
    1XTA    CL326424  -4.389  23.695  -5.636
    1XTA    CL426425  -4.344  23.744  -5.502
    1XTA    CO326426  -4.243  23.858  -5.510
    1XTA    OA326427  -4.192  23.910  -5.388
    1XTA    CO426428  -4.081  23.990  -5.406
    1XTA    CT126429  -4.037  24.064  -5.274
    1XTA    CL526430  -4.147  24.146  -5.208
    1XTA    CL626431  -4.189  24.266  -5.293
    1XTA    OA426432  -5.220  24.455  -6.156
    1XTA    CO526433  -5.334  24.415  -6.088
    1XTA    HL126434  -5.321  24.314  -6.056
    1XTA    HL226435  -4.511  24.890  -5.486
    1XTA    HL326436  -4.537  25.063  -5.508
    1XTA    HL426437  -4.670  24.937  -5.549
    1XTA    HL526438  -4.677  23.922  -5.883
    1XTA    HL626439  -4.585  23.862  -6.022
    1XTA    HL726440  -4.448  23.714  -5.886
    1XTA    HL826441  -4.604  23.673  -5.829
    1XTA    HL926442  -4.573  23.816  -5.640
    1XTA   HL1026443  -4.438  23.900  -5.703
    1XTA   HL1126444  -4.438  23.596  -5.620
    1XTA   HL1226445  -4.312  23.681  -5.704
    1XTA   HL1326446  -4.294  23.655  -5.467
    1XTA   HL1426447  -4.426  23.761  -5.433
    1XTA   HL1526448  -4.158  23.814  -5.571
    1XTA   HL1626449  -4.291  23.934  -5.560
    1XTA   HL1726450  -3.998  23.923  -5.439
    1XTA   HL1826451  -4.095  24.061  -5.492
    1XTA   HL1926452  -4.118  24.178  -5.103
    1XTA   HL2026453  -4.238  24.091  -5.200
    1XTA   HL2126454  -4.235  24.245  -5.383
    1XTA   HL2226455  -4.126  24.356  -5.302
    1XTA   HL2326456  -4.269  24.309  -5.232
    1XTA   HL2426457  -5.427  24.414  -6.154
    1XTA   HL2526458  -5.346  24.478  -5.994
    1XTA    CO826459  -3.905  24.144  -5.292
    1XTA    CO926460  -3.991  23.963  -5.159
    1XTA    OA626461  -3.914  24.262  -5.374
    1XTA   HL4226462  -3.836  24.090  -5.345
    1XTA   HL4326463  -3.847  24.163  -5.206
    1XTA   HL4826464  -3.946  24.033  -5.081
    1XTA   HL4926465  -3.913  23.896  -5.203
    1XTA     NT26466  -0.886  25.862  -7.398
    1XTA    CN126467  -0.841  25.951  -7.309
    1XTA     C126468  -0.925  25.988  -7.199
    1XTA     C226469  -0.878  26.081  -7.099
    1XTA     C326470  -0.747  26.130  -7.113
    1XTA     C426471  -0.663  26.085  -7.213
    1XTA     C526472  -0.708  25.994  -7.310
    1XTA    CN226473  -0.931  25.745  -7.346
    1XTA     C626474  -0.843  25.655  -7.277
    1XTA     C726475  -0.896  25.537  -7.223
    1XTA     C826476  -1.024  25.490  -7.246
    1XTA     C926477  -1.111  25.577  -7.323
    1XTA    C1026478  -1.064  25.701  -7.364
    1XTA    CN326479  -0.930  25.894  -7.522
    1XTA    C1126480  -1.049  25.969  -7.537
    1XTA    C1226481  -1.116  25.973  -7.659
    1XTA    C1326482  -1.062  25.898  -7.761
    1XTA    C1426483  -0.932  25.838  -7.751
    1XTA    C1526484  -0.867  25.830  -7.632
    1XTA     H126485  -1.024  25.955  -7.178
    1XTA     H226486  -0.930  26.105  -7.009
    1XTA     H326487  -0.561  26.117  -7.218
    1XTA     H426488  -0.636  25.957  -7.385
    1XTA     H526489  -0.742  25.682  -7.249
    1XTA     H626490  -0.826  25.482  -7.150
    1XTA     H726491  -1.217  25.549  -7.337
    1XTA     H826492  -1.129  25.769  -7.414
    1XTA     H926493  -1.097  26.008  -7.444
    1XTA    H1026494  -1.208  26.033  -7.675
    1XTA    H1126495  -0.887  25.799  -7.836
    1XTA    H1226496  -0.786  25.767  -7.618
    1XTA    OA126497  -0.693  26.219  -7.028
    1XTA    CO126498  -0.761  26.251  -6.901
    1XTA    OA226499  -1.062  25.373  -7.189
    1XTA    CO226500  -1.041  25.342  -7.050
    1XTA    CL126501  -1.076  25.194  -7.011
    1XTA    CL226502  -1.064  25.155  -6.863
    1XTA    CL326503  -1.083  25.003  -6.846
    1XTA    CL426504  -1.225  24.946  -6.870
    1XTA    CO326505  -1.325  24.977  -6.756
    1XTA    OA326506  -1.417  24.874  -6.724
    1XTA    CO426507  -1.367  24.793  -6.623
    1XTA    CT126508  -1.475  24.685  -6.603
    1XTA    CL526509  -1.599  24.755  -6.540
    1XTA    CL626510  -1.685  24.849  -6.630
    1XTA    OA426511  -1.131  25.892  -7.876
    1XTA    CO526512  -1.062  25.828  -7.978
    1XTA    HL126513  -0.973  25.892  -8.011
    1XTA    HL226514  -0.694  26.308  -6.832
    1XTA    HL326515  -0.854  26.303  -6.897
    1XTA    HL426516  -0.793  26.163  -6.845
    1XTA    HL526517  -0.932  25.355  -7.030
    1XTA    HL626518  -1.091  25.407  -6.982
    1XTA    HL726519  -1.012  25.129  -7.066
    1XTA    HL826520  -1.174  25.198  -7.058
    1XTA    HL926521  -1.140  25.214  -6.810
    1XTA   HL1026522  -0.961  25.174  -6.825
    1XTA   HL1126523  -1.020  24.942  -6.911
    1XTA   HL1226524  -1.054  24.968  -6.751
    1XTA   HL1326525  -1.209  24.842  -6.870
    1XTA   HL1426526  -1.253  24.980  -6.965
    1XTA   HL1526527  -1.262  25.003  -6.672
    1XTA   HL1626528  -1.371  25.073  -6.778
    1XTA   HL1726529  -1.280  24.736  -6.655
    1XTA   HL1826530  -1.346  24.851  -6.536
    1XTA   HL1926531  -1.563  24.819  -6.462
    1XTA   HL2026532  -1.663  24.679  -6.509
    1XTA   HL2126533  -1.658  24.952  -6.592
    1XTA   HL2226534  -1.787  24.843  -6.608
    1XTA   HL2326535  -1.663  24.840  -6.741
    1XTA   HL2426536  -1.133  25.822  -8.057
    1XTA   HL2526537  -1.041  25.727  -7.936
    1XTA    CO826538  -1.434  24.577  -6.501
    1XTA    CO926539  -1.525  24.599  -6.733
    1XTA    OA626540  -1.423  24.551  -6.813
    1XTA   HL4226541  -1.436  24.483  -6.559
    1XTA   HL4326542  -1.329  24.586  -6.471
    1XTA   HL4826543  -1.602  24.657  -6.796
    1XTA   HL4926544  -1.590  24.514  -6.696
    1XTA     NT26545  -8.056  27.017 -12.256
    1XTA    CN126546  -7.952  27.063 -12.185
    1XTA     C126547  -7.971  27.105 -12.048
    1XTA     C226548  -7.862  27.158 -11.980
    1XTA     C326549  -7.731  27.170 -12.045
    1XTA     C426550  -7.712  27.122 -12.178
    1XTA     C526551  -7.822  27.066 -12.249
    1XTA    CN226552  -8.176  27.079 -12.247
    1XTA     C626553  -8.289  26.996 -12.234
    1XTA     C726554  -8.412  27.051 -12.210
    1XTA     C826555  -8.424  27.188 -12.193
    1XTA     C926556  -8.309  27.277 -12.203
    1XTA    C1026557  -8.186  27.217 -12.228
    1XTA    CN326558  -8.039  26.903 -12.329
    1XTA    C1126559  -8.005  26.788 -12.260
    1XTA    C1226560  -7.959  26.677 -12.334
    1XTA    C1326561  -7.958  26.671 -12.474
    1XTA    C1426562  -8.003  26.789 -12.546
    1XTA    C1526563  -8.035  26.903 -12.471
    1XTA     H126564  -8.073  27.114 -12.007
    1XTA     H226565  -7.868  27.187 -11.873
    1XTA     H326566  -7.612  27.127 -12.212
    1XTA     H426567  -7.807  27.037 -12.349
    1XTA     H526568  -8.278  26.889 -12.245
    1XTA     H626569  -8.495  26.983 -12.212
    1XTA     H726570  -8.307  27.387 -12.189
    1XTA     H826571  -8.102  27.286 -12.228
    1XTA     H926572  -8.003  26.790 -12.154
    1XTA    H1026573  -7.919  26.588 -12.280
    1XTA    H1126574  -7.990  26.805 -12.651
    1XTA    H1226575  -8.070  26.988 -12.521
    1XTA    OA126576  -7.624  27.212 -11.966
    1XTA    CO126577  -7.647  27.293 -11.850
    1XTA    OA226578  -8.554  27.233 -12.186
    1XTA    CO226579  -8.578  27.350 -12.108
    1XTA    CL126580  -8.585  27.464 -12.203
    1XTA    CL226581  -8.593  27.605 -12.142
    1XTA    CL326582  -8.463  27.665 -12.083
    1XTA    CL426583  -8.352  27.717 -12.176
    1XTA    CO326584  -8.240  27.800 -12.115
    1XTA    OA326585  -8.162  27.707 -12.046
    1XTA    CO426586  -8.022  27.737 -12.053
    1XTA    CT126587  -7.938  27.633 -11.986
    1XTA    CL526588  -7.958  27.615 -11.835
    1XTA    CL626589  -8.099  27.598 -11.784
    1XTA    OA426590  -7.918  26.563 -12.545
    1XTA    CO526591  -7.830  26.466 -12.488
    1XTA    HL126592  -7.803  26.386 -12.558
    1XTA    HL226593  -7.552  27.305 -11.796
    1XTA    HL326594  -7.684  27.388 -11.887
    1XTA    HL426595  -7.721  27.252 -11.777
    1XTA    HL526596  -8.678  27.345 -12.061
    1XTA    HL626597  -8.509  27.356 -12.020
    1XTA    HL726598  -8.663  27.458 -12.271
    1XTA    HL826599  -8.489  27.450 -12.267
    1XTA    HL926600  -8.662  27.592 -12.058
    1XTA   HL1026601  -8.629  27.679 -12.219
    1XTA   HL1126602  -8.492  27.751 -12.025
    1XTA   HL1226603  -8.415  27.603 -12.007
    1XTA   HL1326604  -8.415  27.780 -12.242
    1XTA   HL1426605  -8.299  27.639 -12.230
    1XTA   HL1526606  -8.195  27.841 -12.200
    1XTA   HL1626607  -8.282  27.867 -12.049
    1XTA   HL1726608  -8.005  27.734 -12.155
    1XTA   HL1826609  -8.015  27.839 -12.016
    1XTA   HL1926610  -7.903  27.709 -11.793
    1XTA   HL2026611  -7.904  27.532 -11.802
    1XTA   HL2126612  -8.085  27.560 -11.681
    1XTA   HL2226613  -8.156  27.528 -11.838
    1XTA   HL2326614  -8.152  27.693 -11.775
    1XTA   HL2426615  -7.881  26.424 -12.400
    1XTA   HL2526616  -7.743  26.515 -12.455
    1XTA    CO826617  -7.789  27.642 -12.024
    1XTA    CO926618  -7.937  27.503 -12.067
    1XTA    OA626619  -7.800  27.518 -12.096
    1XTA   HL4226620  -7.713  27.628 -11.934
    1XTA   HL4326621  -7.771  27.734 -12.079
    1XTA   HL4826622  -8.006  27.497 -12.153
    1XTA   HL4926623  -7.961  27.419 -12.009
    1XTA     NT26624  -8.179  28.492 -11.099
    1XTA    CN126625  -8.154  28.431 -10.985
    1XTA     C126626  -8.258  28.377 -10.911
    1XTA     C226627  -8.233  28.318 -10.785
    1XTA     C326628  -8.106  28.312 -10.731
    1XTA     C426629  -7.996  28.347 -10.818
    1XTA     C526630  -8.022  28.416 -10.935
    1XTA    CN226631  -8.176  28.414 -11.206
    1XTA     C626632  -8.050  28.384 -11.267
    1XTA     C726633  -8.049  28.315 -11.393
    1XTA     C826634  -8.169  28.267 -11.455
    1XTA     C926635  -8.290  28.299 -11.389
    1XTA    C1026636  -8.291  28.371 -11.263
    1XTA    CN326637  -8.199  28.625 -11.116
    1XTA    C1126638  -8.284  28.686 -11.025
    1XTA    C1226639  -8.310  28.822 -11.040
    1XTA    C1326640  -8.240  28.899 -11.136
    1XTA    C1426641  -8.154  28.835 -11.226
    1XTA    C1526642  -8.133  28.700 -11.216
    1XTA     H126643  -8.355  28.366 -10.952
    1XTA     H226644  -8.313  28.278 -10.721
    1XTA     H326645  -7.891  28.352 -10.792
    1XTA     H426646  -7.937  28.455 -10.989
    1XTA     H526647  -7.962  28.413 -11.205
    1XTA     H626648  -7.952  28.294 -11.437
    1XTA     H726649  -8.381  28.263 -11.429
    1XTA     H826650  -8.388  28.394 -11.216
    1XTA     H926651  -8.346  28.624 -10.955
    1XTA    H1026652  -8.386  28.864 -10.975
    1XTA    H1126653  -8.104  28.881 -11.310
    1XTA    H1226654  -8.070  28.642 -11.290
    1XTA    OA126655  -8.082  28.255 -10.604
    1XTA    CO126656  -7.964  28.311 -10.535
    1XTA    OA226657  -8.175  28.202 -11.572
    1XTA    CO226658  -8.062  28.126 -11.608
    1XTA    CL126659  -8.075  28.077 -11.748
    1XTA    CL226660  -7.934  28.068 -11.812
    1XTA    CL326661  -7.831  27.988 -11.725
    1XTA    CL426662  -7.703  27.955 -11.790
    1XTA    CO326663  -7.614  27.859 -11.717
    1XTA    OA326664  -7.502  27.919 -11.639
    1XTA    CO426665  -7.442  27.814 -11.573
    1XTA    CT126666  -7.294  27.846 -11.572
    1XTA    CL526667  -7.261  27.976 -11.494
    1XTA    CL626668  -7.358  28.015 -11.378
    1XTA    OA426669  -8.279  29.035 -11.149
    1XTA    CO526670  -8.184  29.115 -11.222
    1XTA    HL126671  -8.216  29.218 -11.212
    1XTA    HL226672  -7.927  28.400 -10.584
    1XTA    HL326673  -7.995  28.360 -10.442
    1XTA    HL426674  -7.897  28.234 -10.504
    1XTA    HL526675  -7.970  28.184 -11.602
    1XTA    HL626676  -8.045  28.039 -11.555
    1XTA    HL726677  -8.121  28.149 -11.813
    1XTA    HL826678  -8.138  27.988 -11.755
    1XTA    HL926679  -7.898  28.166 -11.822
    1XTA   HL1026680  -7.941  28.036 -11.911
    1XTA   HL1126681  -7.813  28.044 -11.641
    1XTA   HL1226682  -7.879  27.894 -11.685
    1XTA   HL1326683  -7.643  28.037 -11.825
    1XTA   HL1426684  -7.733  27.902 -11.876
    1XTA   HL1526685  -7.673  27.792 -11.653
    1XTA   HL1626686  -7.580  27.786 -11.790
    1XTA   HL1726687  -7.490  27.792 -11.472
    1XTA   HL1826688  -7.453  27.716 -11.624
    1XTA   HL1926689  -7.266  28.057 -11.567
    1XTA   HL2026690  -7.154  27.979 -11.471
    1XTA   HL2126691  -7.382  27.929 -11.313
    1XTA   HL2226692  -7.457  28.029 -11.410
    1XTA   HL2326693  -7.314  28.092 -11.314
    1XTA   HL2426694  -8.183  29.084 -11.333
    1XTA   HL2526695  -8.087  29.098 -11.174
    1XTA    CO826696  -7.231  27.839 -11.711
    1XTA    CO926697  -7.220  27.740 -11.491
    1XTA    OA626698  -7.272  27.732 -11.357
    1XTA   HL4226699  -7.270  27.927 -11.773
    1XTA   HL4326700  -7.118  27.853 -11.711
    1XTA   HL4826701  -7.112  27.769 -11.471
    1XTA   HL4926702  -7.226  27.644 -11.540
    1XTA     NT26703  -7.411  26.472  -7.324
    1XTA    CN126704  -7.381  26.508  -7.202
    1XTA     C126705  -7.416  26.628  -7.140
    1XTA     C226706  -7.360  26.670  -7.016
    1XTA     C326707  -7.269  26.584  -6.953
    1XTA     C426708  -7.240  26.455  -7.006
    1XTA     C526709  -7.295  26.423  -7.133
    1XTA    CN226710  -7.388  26.560  -7.424
    1XTA     C626711  -7.264  26.556  -7.487
    1XTA     C726712  -7.238  26.627  -7.604
    1XTA     C826713  -7.327  26.719  -7.651
    1XTA     C926714  -7.454  26.723  -7.588
    1XTA    C1026715  -7.488  26.648  -7.470
    1XTA    CN326716  -7.485  26.365  -7.355
    1XTA    C1126717  -7.425  26.267  -7.433
    1XTA    C1226718  -7.505  26.163  -7.485
    1XTA    C1326719  -7.640  26.159  -7.442
    1XTA    C1426720  -7.700  26.265  -7.370
    1XTA    C1526721  -7.620  26.372  -7.336
    1XTA     H126722  -7.482  26.698  -7.188
    1XTA     H226723  -7.391  26.761  -6.965
    1XTA     H326724  -7.168  26.404  -6.950
    1XTA     H426725  -7.265  26.328  -7.174
    1XTA     H526726  -7.189  26.478  -7.453
    1XTA     H626727  -7.144  26.624  -7.650
    1XTA     H726728  -7.520  26.800  -7.617
    1XTA     H826729  -7.582  26.657  -7.424
    1XTA     H926730  -7.321  26.269  -7.440
    1XTA    H1026731  -7.463  26.088  -7.534
    1XTA    H1126732  -7.803  26.263  -7.338
    1XTA    H1226733  -7.665  26.456  -7.282
    1XTA    OA126734  -7.208  26.621  -6.834
    1XTA    CO126735  -7.154  26.757  -6.827
    1XTA    OA226736  -7.304  26.802  -7.756
    1XTA    CO226737  -7.418  26.856  -7.825
    1XTA    CL126738  -7.377  26.877  -7.980
    1XTA    CL226739  -7.493  26.904  -8.076
    1XTA    CL326740  -7.443  26.889  -8.217
    1XTA    CL426741  -7.353  27.000  -8.267
    1XTA    CO326742  -7.256  26.965  -8.387
    1XTA    OA326743  -7.174  26.860  -8.342
    1XTA    CO426744  -7.189  26.735  -8.412
    1XTA    CT126745  -7.070  26.645  -8.382
    1XTA    CL526746  -7.115  26.498  -8.416
    1XTA    CL626747  -7.133  26.462  -8.566
    1XTA    OA426748  -7.725  26.051  -7.479
    1XTA    CO526749  -7.679  25.945  -7.564
    1XTA    HL126750  -7.766  25.879  -7.575
    1XTA    HL226751  -7.230  26.835  -6.834
    1XTA    HL326752  -7.091  26.760  -6.737
    1XTA    HL426753  -7.084  26.773  -6.911
    1XTA    HL526754  -7.509  26.797  -7.818
    1XTA    HL626755  -7.446  26.956  -7.779
    1XTA    HL726756  -7.327  26.787  -8.016
    1XTA    HL826757  -7.296  26.954  -7.981
    1XTA    HL926758  -7.518  27.008  -8.068
    1XTA   HL1026759  -7.583  26.841  -8.058
    1XTA   HL1126760  -7.397  26.793  -8.231
    1XTA   HL1226761  -7.530  26.882  -8.285
    1XTA   HL1326762  -7.280  27.021  -8.187
    1XTA   HL1426763  -7.413  27.092  -8.297
    1XTA   HL1526764  -7.309  26.952  -8.477
    1XTA   HL1626765  -7.195  27.055  -8.401
    1XTA   HL1726766  -7.282  26.688  -8.378
    1XTA   HL1826767  -7.202  26.754  -8.515
    1XTA   HL1926768  -7.214  26.492  -8.365
    1XTA   HL2026769  -7.047  26.434  -8.372
    1XTA   HL2126770  -7.224  26.510  -8.599
    1XTA   HL2226771  -7.161  26.354  -8.563
    1XTA   HL2326772  -7.045  26.478  -8.623
    1XTA   HL2426773  -7.608  25.873  -7.522
    1XTA   HL2526774  -7.641  25.987  -7.657
    1XTA    CO826775  -7.034  26.660  -8.233
    1XTA    CO926776  -6.939  26.681  -8.460
    1XTA    OA626777  -6.951  26.590  -8.205
    1XTA   HL4226778  -7.123  26.642  -8.172
    1XTA   HL4326779  -7.012  26.768  -8.209
    1XTA   HL4826780  -6.902  26.805  -8.409
    1XTA   HL4926781  -6.869  26.608  -8.430
    1XTA     NT26782  -5.728  27.380 -10.035
    1XTA    CN126783  -5.811  27.354 -10.143
    1XTA     C126784  -5.948  27.324 -10.115
    1XTA     C226785  -6.025  27.290 -10.223
    1XTA     C326786  -5.972  27.287 -10.354
    1XTA     C426787  -5.834  27.317 -10.380
    1XTA     C526788  -5.752  27.347 -10.269
    1XTA    CN226789  -5.685  27.507 -10.009
    1XTA     C626790  -5.546  27.523 -10.025
    1XTA     C726791  -5.491  27.649  -9.995
    1XTA     C826792  -5.569  27.756  -9.948
    1XTA     C926793  -5.708  27.740  -9.937
    1XTA    C1026794  -5.765  27.616  -9.956
    1XTA    CN326795  -5.706  27.282  -9.944
    1XTA    C1126796  -5.630  27.167  -9.981
    1XTA    C1226797  -5.635  27.046  -9.909
    1XTA    C1326798  -5.709  27.045  -9.789
    1XTA    C1426799  -5.784  27.159  -9.746
    1XTA    C1526800  -5.781  27.279  -9.825
    1XTA     H126801  -5.993  27.325 -10.018
    1XTA     H226802  -6.133  27.291 -10.197
    1XTA     H326803  -5.792  27.334 -10.477
    1XTA     H426804  -5.651  27.370 -10.296
    1XTA     H526805  -5.484  27.438 -10.052
    1XTA     H626806  -5.383  27.660 -10.008
    1XTA     H726807  -5.771  27.826  -9.912
    1XTA     H826808  -5.868  27.603  -9.939
    1XTA     H926809  -5.577  27.179 -10.075
    1XTA    H1026810  -5.575  26.955  -9.940
    1XTA    H1126811  -5.842  27.152  -9.658
    1XTA    H1226812  -5.835  27.366  -9.793
    1XTA    OA126813  -6.046  27.258 -10.466
    1XTA    CO126814  -6.178  27.212 -10.443
    1XTA    OA226815  -5.518  27.883  -9.911
    1XTA    CO226816  -5.384  27.889  -9.870
    1XTA    CL126817  -5.295  27.958  -9.972
    1XTA    CL226818  -5.224  27.851 -10.050
    1XTA    CL326819  -5.113  27.916 -10.136
    1XTA    CL426820  -5.040  27.823 -10.234
    1XTA    CO326821  -5.141  27.755 -10.324
    1XTA    OA326822  -5.058  27.680 -10.411
    1XTA    CO426823  -5.132  27.638 -10.524
    1XTA    CT126824  -5.039  27.556 -10.620
    1XTA    CL526825  -5.115  27.509 -10.743
    1XTA    CL626826  -5.097  27.609 -10.864
    1XTA    OA426827  -5.694  26.930  -9.717
    1XTA    CO526828  -5.804  26.879  -9.657
    1XTA    HL126829  -5.867  26.844  -9.735
    1XTA    HL226830  -6.221  27.153 -10.521
    1XTA    HL326831  -6.183  27.149 -10.363
    1XTA    HL426832  -6.235  27.305 -10.427
    1XTA    HL526833  -5.388  27.956  -9.776
    1XTA    HL626834  -5.346  27.795  -9.835
    1XTA    HL726835  -5.228  28.030  -9.924
    1XTA    HL826836  -5.350  28.019 -10.039
    1XTA    HL926837  -5.292  27.796 -10.108
    1XTA   HL1026838  -5.183  27.770  -9.977
    1XTA   HL1126839  -5.153  27.998 -10.197
    1XTA   HL1226840  -5.036  27.970 -10.082
    1XTA   HL1326841  -4.983  27.752 -10.174
    1XTA   HL1426842  -4.968  27.889 -10.289
    1XTA   HL1526843  -5.226  27.699 -10.279
    1XTA   HL1626844  -5.182  27.834 -10.390
    1XTA   HL1726845  -5.220  27.580 -10.502
    1XTA   HL1826846  -5.177  27.717 -10.592
    1XTA   HL1926847  -5.216  27.489 -10.721
    1XTA   HL2026848  -5.070  27.418 -10.762
    1XTA   HL2126849  -5.123  27.574 -10.962
    1XTA   HL2226850  -4.999  27.651 -10.874
    1XTA   HL2326851  -5.157  27.699 -10.829
    1XTA   HL2426852  -5.866  26.956  -9.609
    1XTA   HL2526853  -5.770  26.801  -9.596
    1XTA    CO826854  -4.991  27.432 -10.544
    1XTA    CO926855  -4.910  27.637 -10.643
    1XTA    OA626856  -4.837  27.587 -10.716
    1XTA   HL4226857  -4.975  27.461 -10.441
    1XTA   HL4326858  -4.871  27.374 -10.603
    1XTA   HL4826859  -4.851  27.648 -10.548
    1XTA   HL4926860  -4.936  27.734 -10.681
    1XTA     NT26861  -5.188  26.301  -6.618
    1XTA    CN126862  -5.226  26.203  -6.706
    1XTA     C126863  -5.277  26.246  -6.831
    1XTA     C226864  -5.306  26.155  -6.935
    1XTA     C326865  -5.293  26.017  -6.904
    1XTA     C426866  -5.227  25.976  -6.792
    1XTA     C526867  -5.203  26.065  -6.685
    1XTA    CN226868  -5.058  26.319  -6.599
    1XTA     C626869  -5.013  26.328  -6.466
    1XTA     C726870  -4.876  26.346  -6.442
    1XTA     C826871  -4.787  26.357  -6.549
    1XTA     C926872  -4.837  26.353  -6.682
    1XTA    C1026873  -4.973  26.334  -6.709
    1XTA    CN326874  -5.290  26.345  -6.543
    1XTA    C1126875  -5.332  26.473  -6.552
    1XTA    C1226876  -5.438  26.526  -6.478
    1XTA    C1326877  -5.490  26.452  -6.375
    1XTA    C1426878  -5.439  26.322  -6.356
    1XTA    C1526879  -5.344  26.261  -6.441
    1XTA     H126880  -5.283  26.352  -6.854
    1XTA     H226881  -5.343  26.191  -7.041
    1XTA     H326882  -5.178  25.875  -6.774
    1XTA     H426883  -5.146  26.038  -6.598
    1XTA     H526884  -5.094  26.335  -6.394
    1XTA     H626885  -4.823  26.351  -6.343
    1XTA     H726886  -4.763  26.348  -6.759
    1XTA     H826887  -5.012  26.328  -6.811
    1XTA     H926888  -5.287  26.545  -6.620
    1XTA    H1026889  -5.469  26.627  -6.497
    1XTA    H1126890  -5.476  26.260  -6.280
    1XTA    H1226891  -5.300  26.165  -6.422
    1XTA    OA126892  -5.334  25.918  -6.992
    1XTA    CO126893  -5.465  25.948  -7.051
    1XTA    OA226894  -4.653  26.353  -6.523
    1XTA    CO226895  -4.571  26.367  -6.633
    1XTA    CL126896  -4.429  26.345  -6.581
    1XTA    CL226897  -4.413  26.207  -6.505
    1XTA    CL326898  -4.267  26.188  -6.440
    1XTA    CL426899  -4.246  26.062  -6.353
    1XTA    CO326900  -4.314  26.052  -6.217
    1XTA    OA326901  -4.254  25.958  -6.130
    1XTA    CO426902  -4.342  25.916  -6.029
    1XTA    CT126903  -4.316  25.764  -6.006
    1XTA    CL526904  -4.321  25.686  -6.141
    1XTA    CL626905  -4.455  25.710  -6.216
    1XTA    OA426906  -5.612  26.483  -6.317
    1XTA    CO526907  -5.706  26.545  -6.403
    1XTA    HL126908  -5.727  26.480  -6.486
    1XTA    HL226909  -5.488  25.874  -7.128
    1XTA    HL326910  -5.551  25.952  -6.972
    1XTA    HL426911  -5.473  26.040  -7.103
    1XTA    HL526912  -4.578  26.286  -6.707
    1XTA    HL626913  -4.584  26.462  -6.679
    1XTA    HL726914  -4.417  26.422  -6.505
    1XTA    HL826915  -4.347  26.381  -6.648
    1XTA    HL926916  -4.441  26.122  -6.566
    1XTA   HL1026917  -4.483  26.199  -6.417
    1XTA   HL1126918  -4.197  26.189  -6.519
    1XTA   HL1226919  -4.246  26.276  -6.379
    1XTA   HL1326920  -4.137  26.045  -6.347
    1XTA   HL1426921  -4.267  25.972  -6.417
    1XTA   HL1526922  -4.306  26.148  -6.165
    1XTA   HL1626923  -4.420  26.041  -6.230
    1XTA   HL1726924  -4.312  25.973  -5.942
    1XTA   HL1826925  -4.451  25.927  -6.057
    1XTA   HL1926926  -4.314  25.577  -6.125
    1XTA   HL2026927  -4.239  25.711  -6.212
    1XTA   HL2126928  -4.538  25.707  -6.146
    1XTA   HL2226929  -4.468  25.633  -6.295
    1XTA   HL2326930  -4.460  25.807  -6.269
    1XTA   HL2426931  -5.676  26.642  -6.426
    1XTA   HL2526932  -5.801  26.552  -6.355
    1XTA    CO826933  -4.414  25.722  -5.895
    1XTA    CO926934  -4.177  25.752  -5.949
    1XTA    OA626935  -4.521  25.734  -5.919
    1XTA   HL4226936  -4.403  25.794  -5.816
    1XTA   HL4326937  -4.384  25.617  -5.859
    1XTA   HL4826938  -4.151  25.611  -5.936
    1XTA   HL4926939  -4.104  25.789  -6.014
    1XTA     NT26940  -4.920  24.860  -7.577
    1XTA    CN126941  -4.803  24.853  -7.509
    1XTA     C126942  -4.791  24.782  -7.389
    1XTA     C226943  -4.668  24.758  -7.326
    1XTA     C326944  -4.550  24.801  -7.393
    1XTA     C426945  -4.562  24.866  -7.516
    1XTA     C526946  -4.683  24.900  -7.571
    1XTA    CN226947  -4.977  24.976  -7.605
    1XTA     C626948  -4.986  25.020  -7.736
    1XTA     C726949  -5.046  25.144  -7.765
    1XTA     C826950  -5.106  25.223  -7.664
    1XTA     C926951  -5.094  25.182  -7.533
    1XTA    C1026952  -5.031  25.062  -7.505
    1XTA    CN326953  -4.963  24.739  -7.619
    1XTA    C1126954  -4.911  24.689  -7.737
    1XTA    C1226955  -4.967  24.575  -7.803
    1XTA    C1326956  -5.087  24.521  -7.754
    1XTA    C1426957  -5.140  24.568  -7.634
    1XTA    C1526958  -5.079  24.678  -7.567
    1XTA     H126959  -4.880  24.743  -7.349
    1XTA     H226960  -4.657  24.695  -7.238
    1XTA     H326961  -4.465  24.890  -7.565
    1XTA     H426962  -4.699  24.953  -7.663
    1XTA     H526963  -4.960  24.956  -7.814
    1XTA     H626964  -5.047  25.179  -7.868
    1XTA     H726965  -5.142  25.231  -7.452
    1XTA     H826966  -5.028  25.027  -7.407
    1XTA     H926967  -4.823  24.741  -7.766
    1XTA    H1026968  -4.919  24.536  -7.894
    1XTA    H1126969  -5.236  24.531  -7.602
    1XTA    H1226970  -5.137  24.709  -7.479
    1XTA    OA126971  -4.432  24.765  -7.338
    1XTA    CO126972  -4.324  24.734  -7.421
    1XTA    OA226973  -5.173  25.339  -7.710
    1XTA    CO226974  -5.237  25.415  -7.610
    1XTA    CL126975  -5.325  25.518  -7.680
    1XTA    CL226976  -5.425  25.444  -7.767
    1XTA    CL326977  -5.542  25.541  -7.798
    1XTA    CL426978  -5.658  25.474  -7.875
    1XTA    CO326979  -5.648  25.483  -8.031
    1XTA    OA326980  -5.532  25.411  -8.071
    1XTA    CO426981  -5.526  25.405  -8.209
    1XTA    CT126982  -5.383  25.382  -8.263
    1XTA    CL526983  -5.393  25.322  -8.409
    1XTA    CL626984  -5.499  25.384  -8.502
    1XTA    OA426985  -5.150  24.409  -7.813
    1XTA    CO526986  -5.090  24.360  -7.934
    1XTA    HL126987  -5.108  24.440  -8.007
    1XTA    HL226988  -4.374  24.681  -7.502
    1XTA    HL326989  -4.286  24.826  -7.463
    1XTA    HL426990  -4.250  24.673  -7.373
    1XTA    HL526991  -5.297  25.346  -7.560
    1XTA    HL626992  -5.166  25.458  -7.543
    1XTA    HL726993  -5.273  25.588  -7.747
    1XTA    HL826994  -5.377  25.582  -7.611
    1XTA    HL926995  -5.460  25.354  -7.710
    1XTA   HL1026996  -5.374  25.405  -7.854
    1XTA   HL1126997  -5.587  25.576  -7.702
    1XTA   HL1226998  -5.507  25.634  -7.847
    1XTA   HL1326999  -5.744  25.530  -7.863
    1XTA   HL1427000  -5.674  25.364  -7.840
    1XTA   HL1527001  -5.734  25.434  -8.081
    1XTA   HL1627002  -5.640  25.576  -8.079
    1XTA   HL1727003  -5.594  25.319  -8.238
    1XTA   HL1827004  -5.557  25.499  -8.256
    1XTA   HL1927005  -5.403  25.213  -8.405
    1XTA   HL2027006  -5.289  25.335  -8.457
    1XTA   HL2127007  -5.504  25.335  -8.601
    1XTA   HL2227008  -5.490  25.494  -8.520
    1XTA   HL2327009  -5.606  25.382  -8.462
    1XTA   HL2427010  -5.146  24.283  -7.989
    1XTA   HL2527011  -4.989  24.330  -7.932
    1XTA    CO827012  -5.300  25.286  -8.183
    1XTA    CO927013  -5.304  25.513  -8.266
    1XTA    OA627014  -5.335  25.594  -8.151
    1XTA   HL4227015  -5.297  25.324  -8.081
    1XTA   HL4327016  -5.352  25.192  -8.180
    1XTA   HL4827017  -5.328  25.582  -8.351
    1XTA   HL4927018  -5.193  25.503  -8.261
    1XTA     NT27019  -3.433  27.020 -11.182
    1XTA    CN127020  -3.510  27.090 -11.271
    1XTA     C127021  -3.476  27.221 -11.296
    1XTA     C227022  -3.551  27.302 -11.384
    1XTA     C327023  -3.663  27.246 -11.453
    1XTA     C427024  -3.682  27.109 -11.445
    1XTA     C527025  -3.611  27.033 -11.349
    1XTA    CN227026  -3.475  26.981 -11.057
    1XTA     C627027  -3.554  26.865 -11.043
    1XTA     C727028  -3.589  26.825 -10.913
    1XTA     C827029  -3.549  26.889 -10.799
    1XTA     C927030  -3.470  27.007 -10.815
    1XTA    C1027031  -3.436  27.052 -10.942
    1XTA    CN327032  -3.302  26.996 -11.216
    1XTA    C1127033  -3.198  27.081 -11.172
    1XTA    C1227034  -3.063  27.041 -11.192
    1XTA    C1327035  -3.028  26.922 -11.262
    1XTA    C1427036  -3.137  26.841 -11.308
    1XTA    C1527037  -3.274  26.874 -11.279
    1XTA     H127038  -3.393  27.271 -11.241
    1XTA     H227039  -3.514  27.396 -11.404
    1XTA     H327040  -3.765  27.058 -11.496
    1XTA     H427041  -3.633  26.930 -11.338
    1XTA     H527042  -3.608  26.812 -11.127
    1XTA     H627043  -3.651  26.744 -10.902
    1XTA     H727044  -3.441  27.062 -10.728
    1XTA     H827045  -3.373  27.142 -10.952
    1XTA     H927046  -3.222  27.169 -11.115
    1XTA    H1027047  -2.977  27.093 -11.149
    1XTA    H1127048  -3.115  26.750 -11.357
    1XTA    H1227049  -3.353  26.798 -11.303
    1XTA    OA127050  -3.752  27.317 -11.531
    1XTA    CO127051  -3.704  27.438 -11.592
    1XTA    OA227052  -3.592  26.830 -10.686
    1XTA    CO227053  -3.535  26.879 -10.565
    1XTA    CL127054  -3.546  26.777 -10.452
    1XTA    CL227055  -3.505  26.843 -10.320
    1XTA    CL327056  -3.530  26.736 -10.211
    1XTA    CL427057  -3.416  26.635 -10.193
    1XTA    CO327058  -3.447  26.499 -10.258
    1XTA    OA327059  -3.336  26.413 -10.238
    1XTA    CO427060  -3.240  26.430 -10.345
    1XTA    CT127061  -3.100  26.364 -10.312
    1XTA    CL527062  -3.127  26.218 -10.268
    1XTA    CL627063  -3.160  26.120 -10.374
    1XTA    OA427064  -2.899  26.870 -11.274
    1XTA    CO527065  -2.787  26.959 -11.259
    1XTA    HL127066  -2.788  27.039 -11.333
    1XTA    HL227067  -3.719  27.522 -11.521
    1XTA    HL327068  -3.603  27.452 -11.625
    1XTA    HL427069  -3.780  27.443 -11.675
    1XTA    HL527070  -3.425  26.892 -10.567
    1XTA    HL627071  -3.565  26.975 -10.541
    1XTA    HL727072  -3.468  26.694 -10.469
    1XTA    HL827073  -3.645  26.735 -10.450
    1XTA    HL927074  -3.588  26.914 -10.317
    1XTA   HL1027075  -3.410  26.893 -10.304
    1XTA   HL1127076  -3.553  26.784 -10.109
    1XTA   HL1227077  -3.620  26.676 -10.221
    1XTA   HL1327078  -3.385  26.613 -10.087
    1XTA   HL1427079  -3.328  26.671 -10.232
    1XTA   HL1527080  -3.530  26.452 -10.209
    1XTA   HL1627081  -3.474  26.515 -10.373
    1XTA   HL1727082  -3.287  26.386 -10.430
    1XTA   HL1827083  -3.232  26.532 -10.382
    1XTA   HL1927084  -3.210  26.225 -10.196
    1XTA   HL2027085  -3.048  26.165 -10.211
    1XTA   HL2127086  -3.236  26.162 -10.440
    1XTA   HL2227087  -3.191  26.026 -10.320
    1XTA   HL2327088  -3.083  26.091 -10.433
    1XTA   HL2427089  -2.705  26.886 -11.279
    1XTA   HL2527090  -2.777  26.994 -11.161
    1XTA    CO827091  -3.034  26.443 -10.199
    1XTA    CO927092  -3.004  26.388 -10.435
    1XTA    OA627093  -2.919  26.382 -10.159
    1XTA   HL4227094  -3.107  26.449 -10.117
    1XTA   HL4327095  -3.015  26.552 -10.220
    1XTA   HL4827096  -2.974  26.490 -10.445
    1XTA   HL4927097  -2.905  26.331 -10.421
    1XTA     NT27098  -5.956  27.520  -5.125
    1XTA    CN127099  -5.934  27.411  -5.201
    1XTA     C127100  -5.805  27.360  -5.227
    1XTA     C227101  -5.784  27.250  -5.305
    1XTA     C327102  -5.894  27.186  -5.364
    1XTA     C427103  -6.024  27.243  -5.353
    1XTA     C527104  -6.043  27.356  -5.271
    1XTA    CN227105  -5.978  27.499  -4.992
    1XTA     C627106  -6.098  27.523  -4.933
    1XTA     C727107  -6.116  27.494  -4.800
    1XTA     C827108  -6.013  27.435  -4.726
    1XTA     C927109  -5.882  27.423  -4.773
    1XTA    C1027110  -5.866  27.459  -4.911
    1XTA    CN327111  -5.952  27.650  -5.168
    1XTA    C1127112  -5.850  27.734  -5.122
    1XTA    C1227113  -5.845  27.862  -5.170
    1XTA    C1327114  -5.937  27.911  -5.263
    1XTA    C1427115  -6.027  27.822  -5.326
    1XTA    C1527116  -6.036  27.697  -5.269
    1XTA     H127117  -5.722  27.401  -5.175
    1XTA     H227118  -5.682  27.226  -5.310
    1XTA     H327119  -6.102  27.212  -5.425
    1XTA     H427120  -6.136  27.407  -5.266
    1XTA     H527121  -6.179  27.577  -4.986
    1XTA     H627122  -6.213  27.514  -4.758
    1XTA     H727123  -5.799  27.389  -4.711
    1XTA     H827124  -5.770  27.438  -4.955
    1XTA     H927125  -5.788  27.712  -5.036
    1XTA    H1027126  -5.782  27.927  -5.120
    1XTA    H1127127  -6.088  27.849  -5.412
    1XTA    H1227128  -6.086  27.619  -5.322
    1XTA    OA127129  -5.875  27.093  -5.458
    1XTA    CO127130  -5.764  27.010  -5.454
    1XTA    OA227131  -6.044  27.411  -4.592
    1XTA    CO227132  -5.939  27.433  -4.502
    1XTA    CL127133  -5.983  27.419  -4.359
    1XTA    CL227134  -6.118  27.488  -4.327
    1XTA    CL327135  -6.118  27.637  -4.341
    1XTA    CL427136  -6.113  27.702  -4.482
    1XTA    CO327137  -6.188  27.835  -4.495
    1XTA    OA327138  -6.183  27.891  -4.622
    1XTA    CO427139  -6.268  28.003  -4.642
    1XTA    CT127140  -6.262  28.065  -4.789
    1XTA    CL527141  -6.117  28.094  -4.818
    1XTA    CL627142  -6.079  28.148  -4.964
    1XTA    OA427143  -5.935  28.041  -5.305
    1XTA    CO527144  -5.816  28.098  -5.359
    1XTA    HL127145  -5.831  28.183  -5.421
    1XTA    HL227146  -5.772  26.954  -5.548
    1XTA    HL327147  -5.667  27.071  -5.449
    1XTA    HL427148  -5.764  26.937  -5.376
    1XTA    HL527149  -5.876  27.345  -4.536
    1XTA    HL627150  -5.894  27.533  -4.512
    1XTA    HL727151  -5.902  27.443  -4.289
    1XTA    HL827152  -5.994  27.312  -4.333
    1XTA    HL927153  -6.126  27.481  -4.222
    1XTA   HL1027154  -6.202  27.433  -4.371
    1XTA   HL1127155  -6.210  27.664  -4.291
    1XTA   HL1227156  -6.045  27.679  -4.282
    1XTA   HL1327157  -6.159  27.626  -4.547
    1XTA   HL1427158  -6.012  27.717  -4.519
    1XTA   HL1527159  -6.287  27.819  -4.450
    1XTA   HL1627160  -6.149  27.906  -4.417
    1XTA   HL1727161  -6.378  27.981  -4.623
    1XTA   HL1827162  -6.237  28.076  -4.568
    1XTA   HL1927163  -6.059  28.007  -4.815
    1XTA   HL2027164  -6.082  28.166  -4.745
    1XTA   HL2127165  -6.114  28.079  -5.033
    1XTA   HL2227166  -5.968  28.153  -4.967
    1XTA   HL2327167  -6.115  28.249  -4.994
    1XTA   HL2427168  -5.771  28.018  -5.426
    1XTA   HL2527169  -5.748  28.115  -5.276
    1XTA    CO827170  -6.357  28.187  -4.802
    1XTA    CO927171  -6.320  27.952  -4.882
    1XTA    OA627172  -6.441  27.885  -4.846
    1XTA   HL4227173  -6.458  28.148  -4.768
    1XTA   HL4327174  -6.367  28.217  -4.913
    1XTA   HL4827175  -6.246  27.871  -4.894
    1XTA   HL4927176  -6.331  27.985  -4.988
    1XTA     NT27177  -5.881  25.114 -13.650
    1XTA    CN127178  -5.861  25.054 -13.766
    1XTA     C127179  -5.891  25.116 -13.889
    1XTA     C227180  -5.853  25.059 -14.010
    1XTA     C327181  -5.785  24.933 -14.010
    1XTA     C427182  -5.757  24.876 -13.888
    1XTA     C527183  -5.794  24.928 -13.768
    1XTA    CN227184  -5.796  25.108 -13.541
    1XTA     C627185  -5.686  25.197 -13.519
    1XTA     C727186  -5.596  25.181 -13.407
    1XTA     C827187  -5.632  25.092 -13.302
    1XTA     C927188  -5.751  25.020 -13.316
    1XTA    C1027189  -5.833  25.021 -13.428
    1XTA    CN327190  -5.991  25.184 -13.630
    1XTA    C1127191  -6.119  25.127 -13.600
    1XTA    C1227192  -6.230  25.216 -13.586
    1XTA    C1327193  -6.217  25.356 -13.595
    1XTA    C1427194  -6.090  25.407 -13.621
    1XTA    C1527195  -5.974  25.324 -13.633
    1XTA     H127196  -5.932  25.220 -13.898
    1XTA     H227197  -5.874  25.107 -14.104
    1XTA     H327198  -5.705  24.784 -13.902
    1XTA     H427199  -5.765  24.870 -13.686
    1XTA     H527200  -5.660  25.257 -13.603
    1XTA     H627201  -5.504  25.241 -13.400
    1XTA     H727202  -5.783  24.949 -13.237
    1XTA     H827203  -5.921  24.957 -13.431
    1XTA     H927204  -6.125  25.026 -13.583
    1XTA    H1027205  -6.321  25.174 -13.570
    1XTA    H1127206  -6.060  25.513 -13.617
    1XTA    H1227207  -5.879  25.380 -13.645
    1XTA    OA127208  -5.738  24.868 -14.119
    1XTA    CO127209  -5.746  24.924 -14.249
    1XTA    OA227210  -5.567  25.074 -13.186
    1XTA    CO227211  -5.439  25.146 -13.174
    1XTA    CL127212  -5.371  25.080 -13.056
    1XTA    CL227213  -5.439  25.105 -12.920
    1XTA    CL327214  -5.439  25.252 -12.873
    1XTA    CL427215  -5.513  25.266 -12.740
    1XTA    CO327216  -5.498  25.408 -12.670
    1XTA    OA327217  -5.584  25.504 -12.725
    1XTA    CO427218  -5.712  25.505 -12.673
    1XTA    CT127219  -5.818  25.575 -12.754
    1XTA    CL527220  -5.795  25.728 -12.778
    1XTA    CL627221  -5.654  25.784 -12.810
    1XTA    OA427222  -6.325  25.447 -13.591
    1XTA    CO527223  -6.444  25.389 -13.633
    1XTA    HL127224  -6.506  25.465 -13.656
    1XTA    HL227225  -5.851  24.926 -14.272
    1XTA    HL327226  -5.699  25.017 -14.278
    1XTA    HL427227  -5.702  24.851 -14.316
    1XTA    HL527228  -5.376  25.129 -13.264
    1XTA    HL627229  -5.452  25.253 -13.170
    1XTA    HL727230  -5.260  25.107 -13.051
    1XTA    HL827231  -5.375  24.971 -13.066
    1XTA    HL927232  -5.406  25.037 -12.836
    1XTA   HL1027233  -5.549  25.086 -12.939
    1XTA   HL1127234  -5.340  25.278 -12.850
    1XTA   HL1227235  -5.481  25.323 -12.947
    1XTA   HL1327236  -5.482  25.192 -12.663
    1XTA   HL1427237  -5.619  25.244 -12.748
    1XTA   HL1527238  -5.538  25.397 -12.566
    1XTA   HL1627239  -5.401  25.457 -12.664
    1XTA   HL1727240  -5.754  25.407 -12.640
    1XTA   HL1827241  -5.709  25.574 -12.585
    1XTA   HL1927242  -5.822  25.766 -12.675
    1XTA   HL2027243  -5.866  25.771 -12.852
    1XTA   HL2127244  -5.641  25.886 -12.780
    1XTA   HL2227245  -5.628  25.753 -12.916
    1XTA   HL2327246  -5.599  25.722 -12.740
    1XTA   HL2427247  -6.502  25.330 -13.563
    1XTA   HL2527248  -6.441  25.342 -13.735
    1XTA    CO827249  -5.959  25.552 -12.682
    1XTA    CO927250  -5.817  25.503 -12.891
    1XTA    OA627251  -5.866  25.366 -12.886
    1XTA   HL4227252  -6.025  25.599 -12.755
    1XTA   HL4327253  -5.968  25.446 -12.671
    1XTA   HL4827254  -5.715  25.497 -12.926
    1XTA   HL4927255  -5.875  25.570 -12.965
    1XTA     NT27256  -6.603  25.157  -7.018
    1XTA    CN127257  -6.613  25.217  -7.133
    1XTA     C127258  -6.493  25.230  -7.211
    1XTA     C227259  -6.499  25.306  -7.333
    1XTA     C327260  -6.619  25.354  -7.382
    1XTA     C427261  -6.733  25.325  -7.309
    1XTA     C527262  -6.739  25.255  -7.187
    1XTA    CN227263  -6.596  25.024  -7.016
    1XTA     C627264  -6.494  24.950  -6.949
    1XTA     C727265  -6.495  24.807  -6.956
    1XTA     C827266  -6.603  24.741  -7.024
    1XTA     C927267  -6.708  24.820  -7.083
    1XTA    C1027268  -6.703  24.960  -7.084
    1XTA    CN327269  -6.590  25.221  -6.904
    1XTA    C1127270  -6.467  25.283  -6.860
    1XTA    C1227271  -6.473  25.362  -6.745
    1XTA    C1327272  -6.588  25.386  -6.671
    1XTA    C1427273  -6.706  25.323  -6.712
    1XTA    C1527274  -6.707  25.242  -6.831
    1XTA     H127275  -6.390  25.195  -7.183
    1XTA     H227276  -6.410  25.328  -7.382
    1XTA     H327277  -6.826  25.345  -7.357
    1XTA     H427278  -6.835  25.230  -7.133
    1XTA     H527279  -6.416  25.007  -6.903
    1XTA     H627280  -6.415  24.745  -6.909
    1XTA     H727281  -6.791  24.767  -7.127
    1XTA     H827282  -6.778  25.012  -7.137
    1XTA     H927283  -6.376  25.273  -6.914
    1XTA    H1027284  -6.378  25.405  -6.716
    1XTA    H1127285  -6.798  25.340  -6.656
    1XTA    H1227286  -6.800  25.199  -6.867
    1XTA    OA127287  -6.632  25.407  -7.505
    1XTA    CO127288  -6.517  25.423  -7.583
    1XTA    OA227289  -6.608  24.602  -7.036
    1XTA    CO227290  -6.549  24.524  -6.940
    1XTA    CL127291  -6.418  24.456  -7.006
    1XTA    CL227292  -6.303  24.544  -7.050
    1XTA    CL327293  -6.191  24.471  -7.109
    1XTA    CL427294  -6.072  24.557  -7.157
    1XTA    CO327295  -5.958  24.482  -7.192
    1XTA    OA327296  -5.859  24.572  -7.249
    1XTA    CO427297  -5.753  24.505  -7.320
    1XTA    CT127298  -5.668  24.607  -7.400
    1XTA    CL527299  -5.740  24.625  -7.540
    1XTA    CL627300  -5.892  24.651  -7.543
    1XTA    OA427301  -6.566  25.459  -6.561
    1XTA    CO527302  -6.685  25.515  -6.506
    1XTA    HL127303  -6.757  25.437  -6.472
    1XTA    HL227304  -6.537  25.460  -7.686
    1XTA    HL327305  -6.450  25.489  -7.533
    1XTA    HL427306  -6.464  25.334  -7.611
    1XTA    HL527307  -6.519  24.578  -6.847
    1XTA    HL627308  -6.624  24.454  -6.916
    1XTA    HL727309  -6.446  24.394  -7.093
    1XTA    HL827310  -6.392  24.392  -6.929
    1XTA    HL927311  -6.262  24.616  -6.978
    1XTA   HL1027312  -6.336  24.628  -7.118
    1XTA   HL1127313  -6.151  24.415  -7.029
    1XTA   HL1227314  -6.214  24.392  -7.182
    1XTA   HL1327315  -6.039  24.630  -7.086
    1XTA   HL1427316  -6.091  24.617  -7.246
    1XTA   HL1527317  -5.912  24.429  -7.106
    1XTA   HL1627318  -5.983  24.408  -7.273
    1XTA   HL1727319  -5.701  24.464  -7.240
    1XTA   HL1827320  -5.810  24.431  -7.373
    1XTA   HL1927321  -5.713  24.535  -7.605
    1XTA   HL2027322  -5.687  24.704  -7.596
    1XTA   HL2127323  -5.959  24.579  -7.495
    1XTA   HL2227324  -5.932  24.667  -7.647
    1XTA   HL2327325  -5.906  24.745  -7.493
    1XTA   HL2427326  -6.725  25.591  -6.581
    1XTA   HL2527327  -6.653  25.553  -6.414
    1XTA    CO827328  -5.523  24.560  -7.411
    1XTA    CO927329  -5.660  24.744  -7.330
    1XTA    OA627330  -5.596  24.739  -7.207
    1XTA   HL4227331  -5.474  24.582  -7.323
    1XTA   HL4327332  -5.479  24.622  -7.486
    1XTA   HL4827333  -5.756  24.793  -7.333
    1XTA   HL4927334  -5.606  24.792  -7.404
    1XTA     NT27335  -6.071  26.559 -10.352
    1XTA    CN127336  -5.975  26.473 -10.311
    1XTA     C127337  -5.894  26.523 -10.206
    1XTA     C227338  -5.781  26.445 -10.161
    1XTA     C327339  -5.760  26.315 -10.217
    1XTA     C427340  -5.845  26.261 -10.313
    1XTA     C527341  -5.955  26.338 -10.357
    1XTA    CN227342  -6.200  26.525 -10.363
    1XTA     C627343  -6.251  26.466 -10.479
    1XTA     C727344  -6.385  26.417 -10.488
    1XTA     C827345  -6.467  26.428 -10.379
    1XTA     C927346  -6.426  26.500 -10.266
    1XTA    C1027347  -6.295  26.552 -10.259
    1XTA    CN327348  -6.035  26.677 -10.408
    1XTA    C1127349  -6.033  26.796 -10.325
    1XTA    C1227350  -6.001  26.921 -10.389
    1XTA    C1327351  -5.971  26.925 -10.527
    1XTA    C1427352  -5.975  26.808 -10.602
    1XTA    C1527353  -6.004  26.682 -10.550
    1XTA     H127354  -5.924  26.619 -10.161
    1XTA     H227355  -5.726  26.493 -10.086
    1XTA     H327356  -5.838  26.162 -10.348
    1XTA     H427357  -6.022  26.311 -10.439
    1XTA     H527358  -6.188  26.440 -10.562
    1XTA     H627359  -6.426  26.358 -10.569
    1XTA     H727360  -6.496  26.524 -10.178
    1XTA     H827361  -6.262  26.598 -10.164
    1XTA     H927362  -6.062  26.801 -10.218
    1XTA    H1027363  -6.010  27.008 -10.330
    1XTA    H1127364  -5.956  26.820 -10.707
    1XTA    H1227365  -6.014  26.591 -10.609
    1XTA    OA127366  -5.664  26.230 -10.173
    1XTA    CO127367  -5.591  26.281 -10.059
    1XTA    OA227368  -6.594  26.387 -10.389
    1XTA    CO227369  -6.607  26.246 -10.349
    1XTA    CL127370  -6.634  26.149 -10.469
    1XTA    CL227371  -6.782  26.106 -10.489
    1XTA    CL327372  -6.873  26.217 -10.517
    1XTA    CL427373  -7.017  26.173 -10.509
    1XTA    CO327374  -7.125  26.287 -10.524
    1XTA    OA327375  -7.116  26.380 -10.417
    1XTA    CO427376  -7.204  26.489 -10.418
    1XTA    CT127377  -7.137  26.612 -10.471
    1XTA    CL527378  -7.225  26.727 -10.410
    1XTA    CL627379  -7.211  26.776 -10.262
    1XTA    OA427380  -5.929  27.047 -10.570
    1XTA    CO527381  -5.948  27.079 -10.704
    1XTA    HL127382  -5.903  27.010 -10.773
    1XTA    HL227383  -5.540  26.195 -10.021
    1XTA    HL327384  -5.536  26.360 -10.104
    1XTA    HL427385  -5.662  26.315  -9.983
    1XTA    HL527386  -6.518  26.212 -10.312
    1XTA    HL627387  -6.678  26.239 -10.266
    1XTA    HL727388  -6.563  26.069 -10.471
    1XTA    HL827389  -6.605  26.206 -10.554
    1XTA    HL927390  -6.810  26.067 -10.393
    1XTA   HL1027391  -6.788  26.034 -10.566
    1XTA   HL1127392  -6.851  26.297 -10.450
    1XTA   HL1227393  -6.849  26.255 -10.615
    1XTA   HL1327394  -7.032  26.117 -10.416
    1XTA   HL1427395  -7.049  26.105 -10.582
    1XTA   HL1527396  -7.129  26.333 -10.616
    1XTA   HL1627397  -7.224  26.244 -10.510
    1XTA   HL1727398  -7.291  26.449 -10.463
    1XTA   HL1827399  -7.226  26.491 -10.311
    1XTA   HL1927400  -7.331  26.704 -10.412
    1XTA   HL2027401  -7.221  26.807 -10.484
    1XTA   HL2127402  -7.224  26.684 -10.200
    1XTA   HL2227403  -7.289  26.849 -10.244
    1XTA   HL2327404  -7.112  26.816 -10.247
    1XTA   HL2427405  -5.917  27.183 -10.727
    1XTA   HL2527406  -6.052  27.075 -10.736
    1XTA    CO827407  -7.151  26.619 -10.622
    1XTA    CO927408  -6.986  26.637 -10.429
    1XTA    OA627409  -6.944  26.729 -10.482
    1XTA   HL4227410  -7.094  26.712 -10.653
    1XTA   HL4327411  -7.076  26.515 -10.683
    1XTA   HL4827412  -6.935  26.539 -10.437
    1XTA   HL4927413  -6.978  26.647 -10.321
    1XTA     NT27414  -3.770  29.475 -12.462
    1XTA    CN127415  -3.834  29.572 -12.535
    1XTA     C127416  -3.957  29.543 -12.602
    1XTA     C227417  -4.030  29.647 -12.650
    1XTA     C327418  -3.985  29.782 -12.656
    1XTA     C427419  -3.860  29.816 -12.586
    1XTA     C527420  -3.790  29.706 -12.527
    1XTA    CN227421  -3.656  29.433 -12.518
    1XTA     C627422  -3.538  29.464 -12.450
    1XTA     C727423  -3.416  29.405 -12.495
    1XTA     C827424  -3.407  29.327 -12.609
    1XTA     C927425  -3.526  29.310 -12.686
    1XTA    C1027426  -3.650  29.358 -12.638
    1XTA    CN327427  -3.829  29.418 -12.355
    1XTA    C1127428  -3.931  29.486 -12.292
    1XTA    C1227429  -3.984  29.445 -12.172
    1XTA    C1327430  -3.929  29.334 -12.099
    1XTA    C1427431  -3.825  29.261 -12.162
    1XTA    C1527432  -3.774  29.306 -12.286
    1XTA     H127433  -4.004  29.446 -12.612
    1XTA     H227434  -4.123  29.641 -12.703
    1XTA     H327435  -3.826  29.921 -12.590
    1XTA     H427436  -3.707  29.724 -12.464
    1XTA     H527437  -3.536  29.530 -12.364
    1XTA     H627438  -3.327  29.423 -12.437
    1XTA     H727439  -3.526  29.260 -12.782
    1XTA     H827440  -3.746  29.373 -12.696
    1XTA     H927441  -3.997  29.562 -12.343
    1XTA    H1027442  -4.067  29.495 -12.129
    1XTA    H1127443  -3.791  29.178 -12.123
    1XTA    H1227444  -3.692  29.257 -12.339
    1XTA    OA127445  -4.065  29.876 -12.710
    1XTA    CO127446  -4.008  30.005 -12.734
    1XTA    OA227447  -3.286  29.281 -12.649
    1XTA    CO227448  -3.271  29.217 -12.770
    1XTA    CL127449  -3.130  29.164 -12.788
    1XTA    CL227450  -3.029  29.253 -12.868
    1XTA    CL327451  -3.026  29.399 -12.827
    1XTA    CL427452  -2.948  29.423 -12.700
    1XTA    CO327453  -3.009  29.547 -12.645
    1XTA    OA327454  -2.959  29.577 -12.519
    1XTA    CO427455  -2.817  29.602 -12.523
    1XTA    CT127456  -2.772  29.689 -12.409
    1XTA    CL527457  -2.851  29.821 -12.407
    1XTA    CL627458  -2.849  29.913 -12.530
    1XTA    OA427459  -3.977  29.286 -11.979
    1XTA    CO527460  -4.039  29.388 -11.902
    1XTA    HL127461  -4.127  29.439 -11.949
    1XTA    HL227462  -3.999  30.059 -12.636
    1XTA    HL327463  -3.913  30.000 -12.788
    1XTA    HL427464  -4.083  30.057 -12.794
    1XTA    HL527465  -3.329  29.129 -12.778
    1XTA    HL627466  -3.309  29.283 -12.847
    1XTA    HL727467  -3.152  29.074 -12.852
    1XTA    HL827468  -3.077  29.128 -12.694
    1XTA    HL927469  -3.059  29.244 -12.972
    1XTA   HL1027470  -2.928  29.211 -12.859
    1XTA   HL1127471  -2.980  29.450 -12.913
    1XTA   HL1227472  -3.125  29.427 -12.835
    1XTA   HL1327473  -2.834  29.410 -12.723
    1XTA   HL1427474  -2.965  29.346 -12.619
    1XTA   HL1527475  -2.990  29.629 -12.706
    1XTA   HL1627476  -3.117  29.528 -12.645
    1XTA   HL1727477  -2.761  29.509 -12.503
    1XTA   HL1827478  -2.776  29.643 -12.613
    1XTA   HL1927479  -2.800  29.876 -12.327
    1XTA   HL2027480  -2.947  29.798 -12.369
    1XTA   HL2127481  -2.918  29.874 -12.610
    1XTA   HL2227482  -2.749  29.917 -12.581
    1XTA   HL2327483  -2.886  30.012 -12.507
    1XTA   HL2427484  -3.961  29.461 -11.871
    1XTA   HL2527485  -4.068  29.353 -11.804
    1XTA    CO827486  -2.625  29.716 -12.423
    1XTA    CO927487  -2.787  29.621 -12.270
    1XTA    OA627488  -2.750  29.688 -12.189
    1XTA   HL4227489  -2.601  29.787 -12.346
    1XTA   HL4327490  -2.568  29.595 -12.386
    1XTA   HL4827491  -2.722  29.534 -12.260
    1XTA   HL4927492  -2.890  29.593 -12.254
    1XTA     NT27493  -2.354  26.956  -3.906
    1XTA    CN127494  -2.395  26.964  -3.779
    1XTA     C127495  -2.397  27.087  -3.714
    1XTA     C227496  -2.438  27.107  -3.578
    1XTA     C327497  -2.490  26.999  -3.513
    1XTA     C427498  -2.495  26.876  -3.577
    1XTA     C527499  -2.450  26.857  -3.710
    1XTA    CN227500  -2.455  26.970  -3.994
    1XTA     C627501  -2.480  26.856  -4.082
    1XTA     C727502  -2.588  26.866  -4.174
    1XTA     C827503  -2.669  26.980  -4.188
    1XTA     C927504  -2.638  27.088  -4.107
    1XTA    C1027505  -2.536  27.088  -4.007
    1XTA    CN327506  -2.234  26.914  -3.938
    1XTA    C1127507  -2.159  26.995  -4.017
    1XTA    C1227508  -2.043  26.954  -4.081
    1XTA    C1327509  -1.989  26.825  -4.054
    1XTA    C1427510  -2.063  26.742  -3.965
    1XTA    C1527511  -2.187  26.781  -3.911
    1XTA     H127512  -2.364  27.170  -3.762
    1XTA     H227513  -2.441  27.207  -3.531
    1XTA     H327514  -2.529  26.788  -3.514
    1XTA     H427515  -2.454  26.760  -3.757
    1XTA     H527516  -2.412  26.776  -4.075
    1XTA     H627517  -2.602  26.783  -4.245
    1XTA     H727518  -2.685  27.183  -4.127
    1XTA     H827519  -2.528  27.164  -3.935
    1XTA     H927520  -2.204  27.089  -4.045
    1XTA    H1027521  -1.981  27.012  -4.149
    1XTA    H1127522  -2.021  26.641  -3.952
    1XTA    H1227523  -2.248  26.716  -3.851
    1XTA    OA127524  -2.541  26.996  -3.383
    1XTA    CO127525  -2.545  27.125  -3.317
    1XTA    OA227526  -2.770  26.992  -4.278
    1XTA    CO227527  -2.802  26.874  -4.356
    1XTA    CL127528  -2.918  26.909  -4.450
    1XTA    CL227529  -2.951  26.807  -4.558
    1XTA    CL327530  -3.048  26.850  -4.663
    1XTA    CL427531  -3.091  26.733  -4.763
    1XTA    CO327532  -3.188  26.639  -4.695
    1XTA    OA327533  -3.130  26.550  -4.599
    1XTA    CO427534  -3.220  26.471  -4.533
    1XTA    CT127535  -3.160  26.384  -4.423
    1XTA    CL527536  -3.094  26.252  -4.468
    1XTA    CL627537  -2.980  26.294  -4.559
    1XTA    OA427538  -1.878  26.787  -4.122
    1XTA    CO527539  -1.866  26.655  -4.166
    1XTA    HL127540  -1.937  26.624  -4.245
    1XTA    HL227541  -2.611  27.197  -3.355
    1XTA    HL327542  -2.586  27.090  -3.220
    1XTA    HL427543  -2.443  27.157  -3.299
    1XTA    HL527544  -2.711  26.862  -4.417
    1XTA    HL627545  -2.832  26.781  -4.296
    1XTA    HL727546  -2.890  27.004  -4.504
    1XTA    HL827547  -3.012  26.917  -4.396
    1XTA    HL927548  -2.987  26.722  -4.500
    1XTA   HL1027549  -2.853  26.788  -4.604
    1XTA   HL1127550  -3.127  26.911  -4.627
    1XTA   HL1227551  -2.998  26.926  -4.730
    1XTA   HL1327552  -3.011  26.668  -4.794
    1XTA   HL1427553  -3.142  26.771  -4.851
    1XTA   HL1527554  -3.270  26.697  -4.653
    1XTA   HL1627555  -3.231  26.568  -4.770
    1XTA   HL1727556  -3.296  26.535  -4.483
    1XTA   HL1827557  -3.280  26.419  -4.605
    1XTA   HL1927558  -3.175  26.197  -4.520
    1XTA   HL2027559  -3.072  26.190  -4.373
    1XTA   HL2127560  -2.913  26.212  -4.577
    1XTA   HL2227561  -2.914  26.379  -4.524
    1XTA   HL2327562  -3.010  26.336  -4.654
    1XTA   HL2427563  -1.860  26.591  -4.077
    1XTA   HL2527564  -1.773  26.645  -4.222
    1XTA    CO827565  -3.267  26.347  -4.316
    1XTA    CO927566  -3.088  26.458  -4.313
    1XTA    OA627567  -3.197  26.438  -4.227
    1XTA   HL4227568  -3.268  26.244  -4.291
    1XTA   HL4327569  -3.369  26.384  -4.335
    1XTA   HL4827570  -3.065  26.561  -4.327
    1XTA   HL4927571  -2.996  26.402  -4.284
    1XTA     NT27572  -4.885  26.811  -5.551
    1XTA    CN127573  -4.900  26.940  -5.507
    1XTA     C127574  -4.824  27.043  -5.561
    1XTA     C227575  -4.842  27.177  -5.526
    1XTA     C327576  -4.944  27.210  -5.430
    1XTA     C427577  -5.027  27.108  -5.378
    1XTA     C527578  -4.996  26.974  -5.414
    1XTA    CN227579  -4.877  26.710  -5.459
    1XTA     C627580  -4.763  26.705  -5.379
    1XTA     C727581  -4.758  26.596  -5.286
    1XTA     C827582  -4.856  26.501  -5.273
    1XTA     C927583  -4.978  26.520  -5.342
    1XTA    C1027584  -4.988  26.623  -5.434
    1XTA    CN327585  -4.845  26.794  -5.684
    1XTA    C1127586  -4.943  26.812  -5.784
    1XTA    C1227587  -4.909  26.824  -5.919
    1XTA    C1327588  -4.773  26.806  -5.958
    1XTA    C1427589  -4.678  26.769  -5.859
    1XTA    C1527590  -4.715  26.762  -5.724
    1XTA     H127591  -4.759  27.020  -5.645
    1XTA     H227592  -4.773  27.258  -5.557
    1XTA     H327593  -5.105  27.133  -5.306
    1XTA     H427594  -5.057  26.899  -5.363
    1XTA     H527595  -4.691  26.782  -5.397
    1XTA     H627596  -4.663  26.574  -5.229
    1XTA     H727597  -5.055  26.449  -5.325
    1XTA     H827598  -5.087  26.643  -5.478
    1XTA     H927599  -5.051  26.809  -5.766
    1XTA    H1027600  -4.992  26.850  -5.994
    1XTA    H1127601  -4.579  26.751  -5.900
    1XTA    H1227602  -4.631  26.736  -5.653
    1XTA    OA127603  -4.941  27.338  -5.386
    1XTA    CO127604  -5.030  27.379  -5.283
    1XTA    OA227605  -4.844  26.392  -5.187
    1XTA    CO227606  -4.713  26.354  -5.152
    1XTA    CL127607  -4.711  26.227  -5.071
    1XTA    CL227608  -4.590  26.204  -4.994
    1XTA    CL327609  -4.476  26.176  -5.096
    1XTA    CL427610  -4.350  26.119  -5.032
    1XTA    CO327611  -4.278  26.005  -5.110
    1XTA    OA327612  -4.381  25.916  -5.149
    1XTA    CO427613  -4.337  25.817  -5.247
    1XTA    CT127614  -4.453  25.752  -5.320
    1XTA    CL527615  -4.412  25.613  -5.378
    1XTA    CL627616  -4.298  25.630  -5.483
    1XTA    OA427617  -4.740  26.801  -6.092
    1XTA    CO527618  -4.843  26.853  -6.181
    1XTA    HL127619  -4.870  26.963  -6.162
    1XTA    HL227620  -5.033  27.488  -5.290
    1XTA    HL327621  -5.131  27.334  -5.288
    1XTA    HL427622  -4.988  27.368  -5.185
    1XTA    HL527623  -4.648  26.360  -5.233
    1XTA    HL627624  -4.675  26.435  -5.082
    1XTA    HL727625  -4.751  26.145  -5.128
    1XTA    HL827626  -4.789  26.248  -4.998
    1XTA    HL927627  -4.608  26.111  -4.935
    1XTA   HL1027628  -4.557  26.283  -4.929
    1XTA   HL1127629  -4.525  26.117  -5.174
    1XTA   HL1227630  -4.455  26.277  -5.149
    1XTA   HL1327631  -4.391  26.092  -4.935
    1XTA   HL1427632  -4.268  26.190  -5.020
    1XTA   HL1527633  -4.229  26.048  -5.197
    1XTA   HL1627634  -4.195  25.961  -5.045
    1XTA   HL1727635  -4.271  25.855  -5.319
    1XTA   HL1827636  -4.275  25.732  -5.209
    1XTA   HL1927637  -4.500  25.574  -5.428
    1XTA   HL2027638  -4.375  25.544  -5.307
    1XTA   HL2127639  -4.198  25.669  -5.447
    1XTA   HL2227640  -4.320  25.695  -5.564
    1XTA   HL2327641  -4.295  25.532  -5.522
    1XTA   HL2427642  -4.939  26.797  -6.177
    1XTA   HL2527643  -4.817  26.846  -6.285
    1XTA    CO827644  -4.498  25.836  -5.435
    1XTA    CO927645  -4.568  25.725  -5.214
    1XTA    OA627646  -4.656  25.665  -5.252
    1XTA   HL4227647  -4.550  25.918  -5.381
    1XTA   HL4327648  -4.397  25.898  -5.511
    1XTA   HL4827649  -4.612  25.819  -5.189
    1XTA   HL4927650  -4.531  25.674  -5.126
    1XTA     NT27651  -6.714  32.063  -6.275
    1XTA    CN127652  -6.700  32.015  -6.148
    1XTA     C127653  -6.565  31.985  -6.111
    1XTA     C227654  -6.537  31.952  -5.979
    1XTA     C327655  -6.649  31.949  -5.887
    1XTA     C427656  -6.781  31.973  -5.929
    1XTA     C527657  -6.806  32.003  -6.061
    1XTA    CN227658  -6.777  31.991  -6.372
    1XTA     C627659  -6.718  31.879  -6.432
    1XTA     C727660  -6.782  31.805  -6.536
    1XTA     C827661  -6.904  31.852  -6.588
    1XTA     C927662  -6.962  31.965  -6.529
    1XTA    C1027663  -6.908  32.034  -6.421
    1XTA    CN327664  -6.661  32.179  -6.307
    1XTA    C1127665  -6.671  32.291  -6.225
    1XTA    C1227666  -6.605  32.410  -6.257
    1XTA    C1327667  -6.529  32.426  -6.373
    1XTA    C1427668  -6.503  32.312  -6.448
    1XTA    C1527669  -6.570  32.187  -6.416
    1XTA     H127670  -6.485  31.987  -6.183
    1XTA     H227671  -6.439  31.905  -5.955
    1XTA     H327672  -6.861  31.970  -5.864
    1XTA     H427673  -6.906  32.023  -6.086
    1XTA     H527674  -6.620  31.842  -6.407
    1XTA     H627675  -6.742  31.710  -6.569
    1XTA     H727676  -7.059  31.991  -6.563
    1XTA     H827677  -6.956  32.119  -6.386
    1XTA     H927678  -6.725  32.279  -6.135
    1XTA    H1027679  -6.624  32.497  -6.191
    1XTA    H1127680  -6.427  32.314  -6.524
    1XTA    H1227681  -6.551  32.097  -6.483
    1XTA    OA127682  -6.633  31.914  -5.756
    1XTA    CO127683  -6.506  31.874  -5.712
    1XTA    OA227684  -6.966  31.802  -6.698
    1XTA    CO227685  -6.891  31.728  -6.788
    1XTA    CL127686  -6.970  31.749  -6.919
    1XTA    CL227687  -6.891  31.688  -7.047
    1XTA    CL327688  -6.893  31.534  -7.031
    1XTA    CL427689  -6.924  31.463  -7.164
    1XTA    CO327690  -6.923  31.319  -7.130
    1XTA    OA327691  -6.949  31.238  -7.244
    1XTA    CO427692  -6.928  31.103  -7.218
    1XTA    CT127693  -6.970  31.011  -7.335
    1XTA    CL527694  -6.930  30.863  -7.310
    1XTA    CL627695  -6.995  30.808  -7.183
    1XTA    OA427696  -6.481  32.550  -6.392
    1XTA    CO527697  -6.373  32.565  -6.480
    1XTA    HL127698  -6.303  32.479  -6.464
    1XTA    HL227699  -6.508  31.833  -5.614
    1XTA    HL327700  -6.455  31.794  -5.768
    1XTA    HL427701  -6.442  31.962  -5.696
    1XTA    HL527702  -6.789  31.767  -6.795
    1XTA    HL627703  -6.881  31.625  -6.762
    1XTA    HL727704  -6.980  31.860  -6.939
    1XTA    HL827705  -7.071  31.717  -6.908
    1XTA    HL927706  -6.786  31.718  -7.046
    1XTA   HL1027707  -6.939  31.722  -7.139
    1XTA   HL1127708  -6.807  31.502  -6.978
    1XTA   HL1227709  -6.961  31.512  -6.948
    1XTA   HL1327710  -6.855  31.495  -7.242
    1XTA   HL1427711  -7.023  31.490  -7.202
    1XTA   HL1527712  -6.834  31.291  -7.076
    1XTA   HL1627713  -7.017  31.301  -7.068
    1XTA   HL1727714  -6.827  31.088  -7.192
    1XTA   HL1827715  -6.984  31.083  -7.125
    1XTA   HL1927716  -6.827  30.849  -7.307
    1XTA   HL2027717  -6.973  30.815  -7.396
    1XTA   HL2127718  -6.968  30.700  -7.166
    1XTA   HL2227719  -7.105  30.816  -7.191
    1XTA   HL2327720  -6.956  30.866  -7.096
    1XTA   HL2427721  -6.328  32.661  -6.473
    1XTA   HL2527722  -6.400  32.551  -6.588
    1XTA    CO827723  -6.910  31.056  -7.470
    1XTA    CO927724  -7.127  31.026  -7.348
    1XTA    OA627725  -7.172  30.966  -7.421
    1XTA   HL4227726  -6.956  31.005  -7.556
    1XTA   HL4327727  -6.928  31.193  -7.476
    1XTA   HL4827728  -7.142  31.136  -7.360
    1XTA   HL4927729  -7.167  31.009  -7.251
    1XTA     NT27730  -4.234  29.151  -4.923
    1XTA    CN127731  -4.291  29.165  -4.793
    1XTA     C127732  -4.270  29.063  -4.694
    1XTA     C227733  -4.316  29.091  -4.565
    1XTA     C327734  -4.388  29.207  -4.529
    1XTA     C427735  -4.404  29.304  -4.629
    1XTA     C527736  -4.356  29.287  -4.757
    1XTA    CN227737  -4.315  29.182  -5.021
    1XTA     C627738  -4.400  29.090  -5.083
    1XTA     C727739  -4.484  29.133  -5.183
    1XTA     C827740  -4.474  29.259  -5.241
    1XTA     C927741  -4.384  29.354  -5.183
    1XTA    C1027742  -4.308  29.315  -5.073
    1XTA    CN327743  -4.112  29.096  -4.951
    1XTA    C1127744  -3.997  29.169  -4.993
    1XTA    C1227745  -3.879  29.106  -5.033
    1XTA    C1327746  -3.877  28.961  -5.027
    1XTA    C1427747  -3.995  28.892  -4.996
    1XTA    C1527748  -4.117  28.956  -4.955
    1XTA     H127749  -4.228  28.967  -4.714
    1XTA     H227750  -4.297  29.014  -4.488
    1XTA     H327751  -4.446  29.402  -4.594
    1XTA     H427752  -4.359  29.372  -4.825
    1XTA     H527753  -4.403  28.991  -5.037
    1XTA     H627754  -4.568  29.071  -5.218
    1XTA     H727755  -4.377  29.451  -5.235
    1XTA     H827756  -4.233  29.388  -5.030
    1XTA     H927757  -4.005  29.278  -4.980
    1XTA    H1027758  -3.793  29.164  -5.064
    1XTA    H1127759  -3.982  28.784  -4.994
    1XTA    H1227760  -4.210  28.899  -4.940
    1XTA    OA127761  -4.430  29.230  -4.396
    1XTA    CO127762  -4.387  29.135  -4.300
    1XTA    OA227763  -4.565  29.288  -5.338
    1XTA    CO227764  -4.599  29.417  -5.354
    1XTA    CL127765  -4.719  29.440  -5.447
    1XTA    CL227766  -4.744  29.592  -5.473
    1XTA    CL327767  -4.888  29.625  -5.449
    1XTA    CL427768  -4.919  29.781  -5.449
    1XTA    CO327769  -4.882  29.843  -5.319
    1XTA    OA327770  -4.934  29.974  -5.320
    1XTA    CO427771  -4.906  30.035  -5.201
    1XTA    CT127772  -4.984  30.167  -5.189
    1XTA    CL527773  -4.968  30.261  -5.310
    1XTA    CL627774  -4.830  30.323  -5.333
    1XTA    OA427775  -3.768  28.877  -5.055
    1XTA    CO527776  -3.642  28.933  -5.057
    1XTA    HL127777  -3.564  28.858  -5.079
    1XTA    HL227778  -4.278  29.145  -4.284
    1XTA    HL327779  -4.434  29.155  -4.204
    1XTA    HL427780  -4.414  29.037  -4.329
    1XTA    HL527781  -4.630  29.473  -5.264
    1XTA    HL627782  -4.510  29.470  -5.391
    1XTA    HL727783  -4.807  29.386  -5.417
    1XTA    HL827784  -4.703  29.388  -5.541
    1XTA    HL927785  -4.719  29.634  -5.566
    1XTA   HL1027786  -4.671  29.637  -5.402
    1XTA   HL1127787  -4.942  29.574  -5.529
    1XTA   HL1227788  -4.928  29.594  -5.354
    1XTA   HL1327789  -5.018  29.797  -5.486
    1XTA   HL1427790  -4.862  29.829  -5.529
    1XTA   HL1527791  -4.936  29.789  -5.247
    1XTA   HL1627792  -4.775  29.839  -5.299
    1XTA   HL1727793  -4.952  29.976  -5.112
    1XTA   HL1827794  -4.794  30.054  -5.191
    1XTA   HL1927795  -5.047  30.339  -5.315
    1XTA   HL2027796  -4.984  30.197  -5.395
    1XTA   HL2127797  -4.821  30.363  -5.436
    1XTA   HL2227798  -4.763  30.239  -5.339
    1XTA   HL2327799  -4.803  30.404  -5.258
    1XTA   HL2427800  -3.612  28.968  -4.962
    1XTA   HL2527801  -3.642  29.020  -5.124
    1XTA    CO827802  -4.944  30.223  -5.047
    1XTA    CO927803  -5.139  30.137  -5.193
    1XTA    OA627804  -4.985  30.139  -4.943
    1XTA   HL4227805  -4.990  30.320  -5.037
    1XTA   HL4327806  -4.837  30.253  -5.037
    1XTA   HL4827807  -5.165  30.059  -5.121
    1XTA   HL4927808  -5.195  30.221  -5.147
    1XTA     NT27809  -5.140  29.565 -10.082
    1XTA    CN127810  -5.195  29.448 -10.039
    1XTA     C127811  -5.242  29.364 -10.140
    1XTA     C227812  -5.290  29.236 -10.114
    1XTA     C327813  -5.302  29.197  -9.979
    1XTA     C427814  -5.261  29.284  -9.877
    1XTA     C527815  -5.204  29.407  -9.903
    1XTA    CN227816  -5.030  29.605 -10.018
    1XTA     C627817  -4.899  29.570 -10.055
    1XTA     C727818  -4.791  29.629  -9.987
    1XTA     C827819  -4.816  29.699  -9.865
    1XTA     C927820  -4.944  29.737  -9.834
    1XTA    C1027821  -5.048  29.699  -9.916
    1XTA    CN327822  -5.188  29.642 -10.183
    1XTA    C1127823  -5.142  29.629 -10.320
    1XTA    C1227824  -5.182  29.727 -10.413
    1XTA    C1327825  -5.286  29.811 -10.379
    1XTA    C1427826  -5.338  29.807 -10.249
    1XTA    C1527827  -5.283  29.731 -10.150
    1XTA     H127828  -5.225  29.397 -10.244
    1XTA     H227829  -5.321  29.175 -10.199
    1XTA     H327830  -5.269  29.262  -9.772
    1XTA     H427831  -5.166  29.470  -9.825
    1XTA     H527832  -4.888  29.507 -10.142
    1XTA     H627833  -4.685  29.611 -10.019
    1XTA     H727834  -4.950  29.796  -9.743
    1XTA     H827835  -5.141  29.742  -9.896
    1XTA     H927836  -5.063  29.561 -10.350
    1XTA    H1027837  -5.142  29.727 -10.511
    1XTA    H1127838  -5.421  29.879 -10.233
    1XTA    H1227839  -5.317  29.729 -10.049
    1XTA    OA127840  -5.354  29.073  -9.945
    1XTA    CO127841  -5.343  28.961 -10.038
    1XTA    OA227842  -4.707  29.747  -9.799
    1XTA    CO227843  -4.646  29.861  -9.859
    1XTA    CL127844  -4.522  29.902  -9.780
    1XTA    CL227845  -4.491  30.058  -9.800
    1XTA    CL327846  -4.486  30.095  -9.953
    1XTA    CL427847  -4.369  30.028 -10.018
    1XTA    CO327848  -4.371  30.037 -10.167
    1XTA    OA327849  -4.264  29.955 -10.211
    1XTA    CO427850  -4.281  29.814 -10.252
    1XTA    CT127851  -4.144  29.742 -10.238
    1XTA    CL527852  -4.154  29.592 -10.244
    1XTA    CL627853  -4.228  29.535 -10.119
    1XTA    OA427854  -5.348  29.910 -10.453
    1XTA    CO527855  -5.267  29.978 -10.540
    1XTA    HL127856  -5.192  30.029 -10.474
    1XTA    HL227857  -5.378  28.867  -9.994
    1XTA    HL327858  -5.404  28.981 -10.126
    1XTA    HL427859  -5.244  28.960 -10.060
    1XTA    HL527860  -4.624  29.846  -9.966
    1XTA    HL627861  -4.729  29.934  -9.849
    1XTA    HL727862  -4.432  29.847  -9.807
    1XTA    HL827863  -4.528  29.900  -9.670
    1XTA    HL927864  -4.407  30.100  -9.748
    1XTA   HL1027865  -4.575  30.118  -9.761
    1XTA   HL1127866  -4.580  30.054  -9.992
    1XTA   HL1227867  -4.493  30.203  -9.961
    1XTA   HL1327868  -4.366  29.921 -10.002
    1XTA   HL1427869  -4.277  30.073  -9.979
    1XTA   HL1527870  -4.465  30.023 -10.222
    1XTA   HL1627871  -4.337  30.143 -10.180
    1XTA   HL1727872  -4.349  29.774 -10.180
    1XTA   HL1827873  -4.329  29.798 -10.355
    1XTA   HL1927874  -4.052  29.553 -10.238
    1XTA   HL2027875  -4.184  29.559 -10.342
    1XTA   HL2127876  -4.205  29.432 -10.121
    1XTA   HL2227877  -4.329  29.556 -10.132
    1XTA   HL2327878  -4.190  29.575 -10.026
    1XTA   HL2427879  -5.304  30.060 -10.609
    1XTA   HL2527880  -5.207  29.923 -10.611
    1XTA    CO827881  -4.077  29.796 -10.101
    1XTA    CO927882  -4.068  29.780 -10.357
    1XTA    OA627883  -3.978  29.749 -10.078
    1XTA   HL4227884  -4.153  29.777 -10.024
    1XTA   HL4327885  -4.060  29.910 -10.104
    1XTA   HL4827886  -4.027  29.912 -10.341
    1XTA   HL4927887  -3.972  29.725 -10.347
    1XTA     NT27888  -5.190  28.036  -7.907
    1XTA    CN127889  -5.124  27.985  -8.019
    1XTA     C127890  -5.124  27.848  -8.043
    1XTA     C227891  -5.053  27.793  -8.149
    1XTA     C327892  -4.988  27.871  -8.243
    1XTA     C427893  -4.978  28.013  -8.217
    1XTA     C527894  -5.048  28.066  -8.108
    1XTA    CN227895  -5.117  28.052  -7.790
    1XTA     C627896  -5.035  28.161  -7.768
    1XTA     C727897  -4.977  28.183  -7.647
    1XTA     C827898  -5.003  28.094  -7.542
    1XTA     C927899  -5.085  27.983  -7.556
    1XTA    C1027900  -5.150  27.966  -7.680
    1XTA    CN327901  -5.313  28.094  -7.922
    1XTA    C1127902  -5.327  28.231  -7.955
    1XTA    C1227903  -5.457  28.279  -7.978
    1XTA    C1327904  -5.570  28.204  -7.956
    1XTA    C1427905  -5.560  28.069  -7.914
    1XTA    C1527906  -5.429  28.015  -7.903
    1XTA     H127907  -5.169  27.781  -7.975
    1XTA     H227908  -5.050  27.687  -8.164
    1XTA     H327909  -4.918  28.076  -8.278
    1XTA     H427910  -5.040  28.170  -8.089
    1XTA     H527911  -5.009  28.219  -7.854
    1XTA     H627912  -4.911  28.270  -7.632
    1XTA     H727913  -5.107  27.916  -7.476
    1XTA     H827914  -5.225  27.888  -7.679
    1XTA     H927915  -5.238  28.301  -7.957
    1XTA    H1027916  -5.473  28.382  -8.012
    1XTA    H1127917  -5.655  28.014  -7.875
    1XTA    H1227918  -5.425  27.913  -7.870
    1XTA    OA127919  -4.927  27.804  -8.349
    1XTA    CO127920  -4.864  27.885  -8.446
    1XTA    OA227921  -4.939  28.105  -7.424
    1XTA    CO227922  -4.846  28.209  -7.408
    1XTA    CL127923  -4.715  28.158  -7.470
    1XTA    CL227924  -4.617  28.273  -7.507
    1XTA    CL327925  -4.485  28.227  -7.571
    1XTA    CL427926  -4.469  28.308  -7.702
    1XTA    CO327927  -4.558  28.249  -7.812
    1XTA    OA327928  -4.531  28.113  -7.816
    1XTA    CO427929  -4.624  28.053  -7.915
    1XTA    CT127930  -4.653  27.903  -7.872
    1XTA    CL527931  -4.755  27.842  -7.974
    1XTA    CL627932  -4.783  27.694  -7.965
    1XTA    OA427933  -5.689  28.267  -8.001
    1XTA    CO527934  -5.805  28.187  -8.014
    1XTA    HL127935  -5.893  28.255  -8.031
    1XTA    HL227936  -4.777  27.942  -8.422
    1XTA    HL327937  -4.846  27.829  -8.537
    1XTA    HL427938  -4.925  27.973  -8.483
    1XTA    HL527939  -4.879  28.307  -7.440
    1XTA    HL627940  -4.818  28.223  -7.304
    1XTA    HL727941  -4.747  28.112  -7.566
    1XTA    HL827942  -4.670  28.078  -7.416
    1XTA    HL927943  -4.585  28.320  -7.419
    1XTA   HL1027944  -4.659  28.352  -7.567
    1XTA   HL1127945  -4.413  28.241  -7.490
    1XTA   HL1227946  -4.475  28.120  -7.598
    1XTA   HL1327947  -4.367  28.298  -7.734
    1XTA   HL1427948  -4.494  28.415  -7.700
    1XTA   HL1527949  -4.665  28.264  -7.780
    1XTA   HL1627950  -4.552  28.316  -7.899
    1XTA   HL1727951  -4.715  28.119  -7.922
    1XTA   HL1827952  -4.582  28.066  -8.018
    1XTA   HL1927953  -4.711  27.856  -8.074
    1XTA   HL2027954  -4.844  27.906  -7.978
    1XTA   HL2127955  -4.835  27.671  -7.868
    1XTA   HL2227956  -4.703  27.620  -7.972
    1XTA   HL2327957  -4.862  27.670  -8.042
    1XTA   HL2427958  -5.825  28.135  -7.925
    1XTA   HL2527959  -5.786  28.116  -8.094
    1XTA    CO827960  -4.715  27.896  -7.732
    1XTA    CO927961  -4.522  27.826  -7.873
    1XTA    OA627962  -4.725  27.759  -7.684
    1XTA   HL4227963  -4.817  27.926  -7.732
    1XTA   HL4327964  -4.657  27.949  -7.658
    1XTA   HL4827965  -4.448  27.876  -7.809
    1XTA   HL4927966  -4.535  27.725  -7.837
    1XTA     NT27967  -2.331  25.147 -12.373
    1XTA    CN127968  -2.208  25.200 -12.352
    1XTA     C127969  -2.091  25.118 -12.361
    1XTA     C227970  -1.972  25.173 -12.303
    1XTA     C327971  -1.961  25.306 -12.255
    1XTA     C427972  -2.075  25.389 -12.266
    1XTA     C527973  -2.197  25.333 -12.302
    1XTA    CN227974  -2.390  25.083 -12.269
    1XTA     C627975  -2.432  24.953 -12.281
    1XTA     C727976  -2.503  24.883 -12.180
    1XTA     C827977  -2.522  24.946 -12.054
    1XTA     C927978  -2.477  25.082 -12.040
    1XTA    C1027979  -2.417  25.149 -12.149
    1XTA    CN327980  -2.390  25.179 -12.488
    1XTA    C1127981  -2.483  25.285 -12.505
    1XTA    C1227982  -2.528  25.317 -12.635
    1XTA    C1327983  -2.487  25.243 -12.746
    1XTA    C1427984  -2.397  25.136 -12.727
    1XTA    C1527985  -2.354  25.103 -12.601
    1XTA     H127986  -2.092  25.012 -12.393
    1XTA     H227987  -1.891  25.102 -12.292
    1XTA     H327988  -2.070  25.491 -12.225
    1XTA     H427989  -2.287  25.390 -12.295
    1XTA     H527990  -2.415  24.914 -12.380
    1XTA     H627991  -2.542  24.786 -12.210
    1XTA     H727992  -2.496  25.134 -11.948
    1XTA     H827993  -2.381  25.245 -12.137
    1XTA     H927994  -2.504  25.353 -12.430
    1XTA    H1027995  -2.592  25.397 -12.643
    1XTA    H1127996  -2.349  25.086 -12.805
    1XTA    H1227997  -2.280  25.027 -12.580
    1XTA    OA127998  -1.854  25.361 -12.196
    1XTA    CO127999  -1.737  25.279 -12.194
    1XTA    OA228000  -2.596  24.898 -11.950
    1XTA    CO228001  -2.644  24.764 -11.961
    1XTA    CL128002  -2.747  24.757 -11.844
    1XTA    CL228003  -2.826  24.624 -11.832
    1XTA    CL328004  -2.935  24.619 -11.722
    1XTA    CL428005  -3.019  24.488 -11.724
    1XTA    CO328006  -3.139  24.511 -11.623
    1XTA    OA328007  -3.235  24.411 -11.628
    1XTA    CO428008  -3.184  24.286 -11.595
    1XTA    CT128009  -3.291  24.183 -11.559
    1XTA    CL528010  -3.343  24.214 -11.416
    1XTA    CL628011  -3.457  24.132 -11.363
    1XTA    OA428012  -2.519  25.282 -12.877
    1XTA    CO528013  -2.422  25.273 -12.981
    1XTA    HL128014  -2.323  25.256 -12.945
    1XTA    HL228015  -1.707  25.250 -12.296
    1XTA    HL328016  -1.664  25.335 -12.130
    1XTA    HL428017  -1.752  25.181 -12.147
    1XTA    HL528018  -2.687  24.753 -12.057
    1XTA    HL628019  -2.566  24.694 -11.949
    1XTA    HL728020  -2.814  24.847 -11.850
    1XTA    HL828021  -2.684  24.764 -11.757
    1XTA    HL928022  -2.763  24.543 -11.813
    1XTA   HL1028023  -2.873  24.619 -11.933
    1XTA   HL1128024  -2.883  24.637 -11.623
    1XTA   HL1228025  -3.005  24.704 -11.735
    1XTA   HL1328026  -2.957  24.402 -11.687
    1XTA   HL1428027  -3.067  24.458 -11.816
    1XTA   HL1528028  -3.098  24.504 -11.523
    1XTA   HL1628029  -3.184  24.606 -11.639
    1XTA   HL1728030  -3.124  24.241 -11.679
    1XTA   HL1828031  -3.113  24.293 -11.516
    1XTA   HL1928032  -3.369  24.313 -11.414
    1XTA   HL2028033  -3.261  24.205 -11.349
    1XTA   HL2128034  -3.462  24.145 -11.256
    1XTA   HL2228035  -3.437  24.029 -11.399
    1XTA   HL2328036  -3.557  24.159 -11.391
    1XTA   HL2428037  -2.423  25.350 -13.058
    1XTA   HL2528038  -2.443  25.170 -13.027
    1XTA    CO828039  -3.236  24.040 -11.585
    1XTA    CO928040  -3.408  24.199 -11.653
    1XTA    OA628041  -3.110  24.033 -11.518
    1XTA   HL4228042  -3.199  24.027 -11.688
    1XTA   HL4328043  -3.296  23.950 -11.561
    1XTA   HL4828044  -3.475  24.127 -11.634
    1XTA   HL4928045  -3.450  24.296 -11.630
    1XTA     NT28046  -2.794  27.416  -5.817
    1XTA    CN128047  -2.813  27.316  -5.731
    1XTA     C128048  -2.930  27.251  -5.728
    1XTA     C228049  -2.944  27.134  -5.646
    1XTA     C328050  -2.837  27.085  -5.568
    1XTA     C428051  -2.716  27.157  -5.574
    1XTA     C528052  -2.702  27.272  -5.651
    1XTA    CN228053  -2.719  27.407  -5.932
    1XTA     C628054  -2.744  27.309  -6.034
    1XTA     C728055  -2.654  27.295  -6.148
    1XTA     C828056  -2.547  27.385  -6.162
    1XTA     C928057  -2.531  27.488  -6.067
    1XTA    C1028058  -2.613  27.494  -5.953
    1XTA    CN328059  -2.854  27.535  -5.793
    1XTA    C1128060  -2.968  27.563  -5.873
    1XTA    C1228061  -3.049  27.676  -5.847
    1XTA    C1328062  -3.010  27.760  -5.735
    1XTA    C1428063  -2.899  27.729  -5.659
    1XTA    C1528064  -2.825  27.619  -5.689
    1XTA     H128065  -3.006  27.277  -5.788
    1XTA     H228066  -3.037  27.084  -5.634
    1XTA     H328067  -2.631  27.121  -5.526
    1XTA     H428068  -2.608  27.321  -5.665
    1XTA     H528069  -2.820  27.237  -6.023
    1XTA     H628070  -2.674  27.217  -6.222
    1XTA     H728071  -2.455  27.558  -6.077
    1XTA     H828072  -2.599  27.575  -5.884
    1XTA     H928073  -2.996  27.504  -5.961
    1XTA    H1028074  -3.138  27.695  -5.903
    1XTA    H1128075  -2.870  27.792  -5.576
    1XTA    H1228076  -2.741  27.594  -5.627
    1XTA    OA128077  -2.852  26.964  -5.500
    1XTA    CO128078  -2.730  26.881  -5.490
    1XTA    OA228079  -2.468  27.364  -6.274
    1XTA    CO228080  -2.337  27.417  -6.279
    1XTA    CL128081  -2.334  27.556  -6.339
    1XTA    CL228082  -2.341  27.560  -6.493
    1XTA    CL328083  -2.378  27.695  -6.548
    1XTA    CL428084  -2.270  27.796  -6.512
    1XTA    CO328085  -2.302  27.930  -6.564
    1XTA    OA328086  -2.191  28.020  -6.519
    1XTA    CO428087  -2.227  28.155  -6.515
    1XTA    CT128088  -2.100  28.235  -6.497
    1XTA    CL528089  -1.990  28.208  -6.604
    1XTA    CL628090  -1.885  28.311  -6.631
    1XTA    OA428091  -3.097  27.862  -5.699
    1XTA    CO528092  -3.134  27.870  -5.561
    1XTA    HL128093  -3.202  27.953  -5.543
    1XTA    HL228094  -2.692  26.858  -5.587
    1XTA    HL328095  -2.658  26.947  -5.436
    1XTA    HL428096  -2.749  26.785  -5.430
    1XTA    HL528097  -2.305  27.430  -6.173
    1XTA    HL628098  -2.272  27.347  -6.324
    1XTA    HL728099  -2.241  27.603  -6.316
    1XTA    HL828100  -2.420  27.607  -6.301
    1XTA    HL928101  -2.421  27.486  -6.523
    1XTA   HL1028102  -2.244  27.519  -6.529
    1XTA   HL1128103  -2.387  27.680  -6.653
    1XTA   HL1228104  -2.475  27.732  -6.528
    1XTA   HL1328105  -2.176  27.762  -6.557
    1XTA   HL1428106  -2.253  27.813  -6.410
    1XTA   HL1528107  -2.317  27.924  -6.675
    1XTA   HL1628108  -2.395  27.971  -6.524
    1XTA   HL1728109  -2.286  28.183  -6.600
    1XTA   HL1828110  -2.297  28.163  -6.431
    1XTA   HL1928111  -2.052  28.202  -6.697
    1XTA   HL2028112  -1.938  28.113  -6.582
    1XTA   HL2128113  -1.846  28.358  -6.539
    1XTA   HL2228114  -1.918  28.382  -6.709
    1XTA   HL2328115  -1.800  28.265  -6.686
    1XTA   HL2428116  -3.045  27.882  -5.504
    1XTA   HL2528117  -3.178  27.782  -5.517
    1XTA    CO828118  -2.051  28.198  -6.350
    1XTA    CO928119  -2.144  28.384  -6.494
    1XTA    OA628120  -1.942  28.278  -6.313
    1XTA   HL4228121  -2.023  28.092  -6.337
    1XTA   HL4328122  -2.129  28.218  -6.277
    1XTA   HL4828123  -2.149  28.417  -6.598
    1XTA   HL4928124  -2.076  28.449  -6.442
    1XTA     NT28125  -1.333  29.180 -11.423
    1XTA    CN128126  -1.260  29.068 -11.406
    1XTA     C128127  -1.174  29.052 -11.294
    1XTA     C228128  -1.107  28.927 -11.275
    1XTA     C328129  -1.123  28.818 -11.363
    1XTA     C428130  -1.215  28.829 -11.469
    1XTA     C528131  -1.278  28.953 -11.486
    1XTA    CN228132  -1.360  29.228 -11.547
    1XTA     C628133  -1.276  29.313 -11.618
    1XTA     C728134  -1.313  29.370 -11.740
    1XTA     C828135  -1.441  29.340 -11.790
    1XTA     C928136  -1.528  29.256 -11.724
    1XTA    C1028137  -1.492  29.205 -11.598
    1XTA    CN328138  -1.332  29.276 -11.324
    1XTA    C1128139  -1.428  29.276 -11.221
    1XTA    C1228140  -1.415  29.364 -11.115
    1XTA    C1328141  -1.307  29.451 -11.095
    1XTA    C1428142  -1.209  29.445 -11.197
    1XTA    C1528143  -1.216  29.361 -11.309
    1XTA     H128144  -1.180  29.129 -11.212
    1XTA     H228145  -1.044  28.904 -11.197
    1XTA     H328146  -1.243  28.739 -11.530
    1XTA     H428147  -1.344  28.958 -11.568
    1XTA     H528148  -1.174  29.322 -11.586
    1XTA     H628149  -1.237  29.427 -11.798
    1XTA     H728150  -1.614  29.233 -11.780
    1XTA     H828151  -1.569  29.148 -11.546
    1XTA     H928152  -1.510  29.203 -11.230
    1XTA    H1028153  -1.495  29.360 -11.046
    1XTA    H1128154  -1.125  29.514 -11.185
    1XTA    H1228155  -1.127  29.357 -11.377
    1XTA    OA128156  -1.036  28.716 -11.334
    1XTA    CO128157  -1.040  28.608 -11.420
    1XTA    OA228158  -1.484  29.380 -11.910
    1XTA    CO228159  -1.413  29.481 -11.976
    1XTA    CL128160  -1.475  29.519 -12.109
    1XTA    CL228161  -1.411  29.636 -12.182
    1XTA    CL328162  -1.456  29.651 -12.332
    1XTA    CL428163  -1.602  29.663 -12.358
    1XTA    CO328164  -1.646  29.659 -12.503
    1XTA    OA328165  -1.786  29.683 -12.506
    1XTA    CO428166  -1.857  29.566 -12.479
    1XTA    CT128167  -2.005  29.604 -12.462
    1XTA    CL528168  -2.019  29.711 -12.340
    1XTA    CL628169  -2.167  29.758 -12.317
    1XTA    OA428170  -1.292  29.533 -10.990
    1XTA    CO528171  -1.405  29.605 -10.936
    1XTA    HL128172  -1.458  29.661 -11.011
    1XTA    HL228173  -1.138  28.573 -11.418
    1XTA    HL328174  -1.023  28.655 -11.517
    1XTA    HL428175  -0.963  28.530 -11.402
    1XTA    HL528176  -1.394  29.567 -11.910
    1XTA    HL628177  -1.309  29.454 -11.993
    1XTA    HL728178  -1.580  29.545 -12.084
    1XTA    HL828179  -1.450  29.436 -12.169
    1XTA    HL928180  -1.300  29.643 -12.190
    1XTA   HL1028181  -1.435  29.728 -12.129
    1XTA   HL1128182  -1.407  29.732 -12.379
    1XTA   HL1228183  -1.422  29.559 -12.381
    1XTA   HL1328184  -1.641  29.748 -12.311
    1XTA   HL1428185  -1.641  29.579 -12.298
    1XTA   HL1528186  -1.592  29.746 -12.544
    1XTA   HL1628187  -1.614  29.563 -12.556
    1XTA   HL1728188  -1.857  29.482 -12.557
    1XTA   HL1828189  -1.824  29.544 -12.382
    1XTA   HL1928190  -1.943  29.787 -12.364
    1XTA   HL2028191  -1.984  29.672 -12.246
    1XTA   HL2128192  -2.212  29.820 -12.392
    1XTA   HL2228193  -2.165  29.813 -12.227
    1XTA   HL2328194  -2.226  29.661 -12.298
    1XTA   HL2428195  -1.361  29.676 -10.867
    1XTA   HL2528196  -1.466  29.534 -10.868
    1XTA    CO828197  -2.081  29.482 -12.422
    1XTA    CO928198  -2.063  29.664 -12.594
    1XTA    OA628199  -2.200  29.678 -12.585
    1XTA   HL4228200  -2.183  29.501 -12.415
    1XTA   HL4328201  -2.072  29.403 -12.503
    1XTA   HL4828202  -2.065  29.596 -12.682
    1XTA   HL4928203  -2.009  29.760 -12.610
    1XTA     NT28204  -6.797  24.031 -10.804
    1XTA    CN128205  -6.777  23.982 -10.929
    1XTA     C128206  -6.809  24.072 -11.041
    1XTA     C228207  -6.799  24.030 -11.179
    1XTA     C328208  -6.762  23.898 -11.211
    1XTA     C428209  -6.731  23.810 -11.103
    1XTA     C528210  -6.735  23.851 -10.963
    1XTA    CN228211  -6.784  24.163 -10.778
    1XTA     C628212  -6.660  24.228 -10.809
    1XTA     C728213  -6.656  24.368 -10.786
    1XTA     C828214  -6.758  24.440 -10.723
    1XTA     C928215  -6.877  24.373 -10.698
    1XTA    C1028216  -6.893  24.235 -10.722
    1XTA    CN328217  -6.822  23.948 -10.702
    1XTA    C1128218  -6.953  23.917 -10.656
    1XTA    C1228219  -6.972  23.819 -10.555
    1XTA    C1328220  -6.861  23.747 -10.508
    1XTA    C1428221  -6.734  23.797 -10.536
    1XTA    C1528222  -6.709  23.892 -10.638
    1XTA     H128223  -6.849  24.174 -11.014
    1XTA     H228224  -6.819  24.095 -11.263
    1XTA     H328225  -6.701  23.708 -11.132
    1XTA     H428226  -6.713  23.779 -10.884
    1XTA     H528227  -6.578  24.195 -10.862
    1XTA     H628228  -6.568  24.423 -10.808
    1XTA     H728229  -6.960  24.428 -10.653
    1XTA     H828230  -6.979  24.174 -10.702
    1XTA     H928231  -7.032  23.963 -10.713
    1XTA    H1028232  -7.065  23.789 -10.536
    1XTA    H1128233  -6.654  23.750 -10.495
    1XTA    H1228234  -6.605  23.919 -10.666
    1XTA    OA128235  -6.759  23.872 -11.345
    1XTA    CO128236  -6.719  23.747 -11.391
    1XTA    OA228237  -6.748  24.571 -10.693
    1XTA    CO228238  -6.651  24.647 -10.765
    1XTA    CL128239  -6.673  24.798 -10.733
    1XTA    CL228240  -6.608  24.886 -10.840
    1XTA    CL328241  -6.629  25.039 -10.834
    1XTA    CL428242  -6.524  25.109 -10.928
    1XTA    CO328243  -6.560  25.257 -10.959
    1XTA    OA328244  -6.489  25.309 -11.072
    1XTA    CO428245  -6.537  25.254 -11.196
    1XTA    CT128246  -6.497  25.352 -11.314
    1XTA    CL528247  -6.593  25.479 -11.313
    1XTA    CL628248  -6.573  25.571 -11.197
    1XTA    OA428249  -6.880  23.636 -10.435
    1XTA    CO528250  -6.854  23.639 -10.293
    1XTA    HL128251  -6.905  23.555 -10.249
    1XTA    HL228252  -6.702  23.761 -11.496
    1XTA    HL328253  -6.629  23.698 -11.339
    1XTA    HL428254  -6.802  23.668 -11.382
    1XTA    HL528255  -6.549  24.620 -10.754
    1XTA    HL628256  -6.676  24.635 -10.870
    1XTA    HL728257  -6.632  24.806 -10.634
    1XTA    HL828258  -6.783  24.816 -10.730
    1XTA    HL928259  -6.638  24.852 -10.941
    1XTA   HL1028260  -6.501  24.872 -10.841
    1XTA   HL1128261  -6.736  25.058 -10.867
    1XTA   HL1228262  -6.615  25.089 -10.734
    1XTA   HL1328263  -6.519  25.053 -11.023
    1XTA   HL1428264  -6.422  25.093 -10.896
    1XTA   HL1528265  -6.668  25.278 -10.979
    1XTA   HL1628266  -6.535  25.309 -10.872
    1XTA   HL1728267  -6.493  25.156 -11.212
    1XTA   HL1828268  -6.645  25.229 -11.201
    1XTA   HL1928269  -6.698  25.440 -11.300
    1XTA   HL2028270  -6.572  25.535 -11.411
    1XTA   HL2128271  -6.603  25.525 -11.100
    1XTA   HL2228272  -6.640  25.657 -11.214
    1XTA   HL2328273  -6.471  25.600 -11.196
    1XTA   HL2428274  -6.879  23.728 -10.226
    1XTA   HL2528275  -6.746  23.636 -10.291
    1XTA    CO828276  -6.511  25.284 -11.450
    1XTA    CO928277  -6.350  25.384 -11.289
    1XTA    OA628278  -6.318  25.456 -11.365
    1XTA   HL4228279  -6.522  25.367 -11.520
    1XTA   HL4328280  -6.629  25.211 -11.464
    1XTA   HL4828281  -6.281  25.297 -11.278
    1XTA   HL4928282  -6.327  25.433 -11.199
    1XTA     NT28283  -7.035  27.782  -6.744
    1XTA    CN128284  -7.171  27.797  -6.723
    1XTA     C128285  -7.257  27.861  -6.813
    1XTA     C228286  -7.388  27.885  -6.789
    1XTA     C328287  -7.440  27.837  -6.666
    1XTA     C428288  -7.362  27.774  -6.574
    1XTA     C528289  -7.226  27.749  -6.600
    1XTA    CN228290  -6.939  27.837  -6.667
    1XTA     C628291  -6.959  27.968  -6.619
    1XTA     C728292  -6.893  28.016  -6.508
    1XTA     C828293  -6.780  27.944  -6.450
    1XTA     C928294  -6.746  27.820  -6.510
    1XTA    C1028295  -6.825  27.766  -6.616
    1XTA    CN328296  -7.002  27.695  -6.843
    1XTA    C1128297  -6.917  27.745  -6.940
    1XTA    C1228298  -6.852  27.663  -7.039
    1XTA    C1328299  -6.882  27.527  -7.037
    1XTA    C1428300  -6.982  27.479  -6.951
    1XTA    C1528301  -7.036  27.555  -6.844
    1XTA     H128302  -7.213  27.902  -6.907
    1XTA     H228303  -7.456  27.936  -6.856
    1XTA     H328304  -7.410  27.738  -6.484
    1XTA     H428305  -7.171  27.705  -6.519
    1XTA     H528306  -7.038  28.022  -6.662
    1XTA     H628307  -6.921  28.112  -6.469
    1XTA     H728308  -6.655  27.766  -6.483
    1XTA     H828309  -6.808  27.664  -6.643
    1XTA     H928310  -6.892  27.845  -6.937
    1XTA    H1028311  -6.768  27.711  -7.098
    1XTA    H1128312  -6.999  27.378  -6.946
    1XTA    H1228313  -7.098  27.502  -6.769
    1XTA    OA128314  -7.571  27.863  -6.648
    1XTA    CO128315  -7.617  27.873  -6.510
    1XTA    OA228316  -6.713  27.982  -6.340
    1XTA    CO228317  -6.762  28.082  -6.256
    1XTA    CL128318  -6.889  28.021  -6.184
    1XTA    CL228319  -6.950  28.127  -6.088
    1XTA    CL328320  -7.054  28.073  -5.990
    1XTA    CL428321  -7.008  27.953  -5.899
    1XTA    CO328322  -6.864  27.974  -5.840
    1XTA    OA328323  -6.869  28.071  -5.737
    1XTA    CO428324  -6.740  28.122  -5.700
    1XTA    CT128325  -6.755  28.270  -5.675
    1XTA    CL528326  -6.846  28.298  -5.557
    1XTA    CL628327  -6.993  28.241  -5.567
    1XTA    OA428328  -6.828  27.422  -7.106
    1XTA    CO528329  -6.732  27.453  -7.205
    1XTA    HL128330  -6.768  27.496  -7.293
    1XTA    HL228331  -7.710  27.930  -6.498
    1XTA    HL328332  -7.623  27.779  -6.469
    1XTA    HL428333  -7.543  27.910  -6.445
    1XTA    HL528334  -6.683  28.114  -6.190
    1XTA    HL628335  -6.800  28.163  -6.326
    1XTA    HL728336  -6.857  27.929  -6.129
    1XTA    HL828337  -6.953  27.996  -6.263
    1XTA    HL928338  -6.998  28.209  -6.143
    1XTA   HL1028339  -6.873  28.166  -6.027
    1XTA   HL1128340  -7.077  28.152  -5.916
    1XTA   HL1228341  -7.145  28.045  -6.046
    1XTA   HL1328342  -7.011  27.854  -5.946
    1XTA   HL1428343  -7.079  27.929  -5.818
    1XTA   HL1528344  -6.811  27.891  -5.795
    1XTA   HL1628345  -6.806  28.001  -5.924
    1XTA   HL1728346  -6.705  28.065  -5.612
    1XTA   HL1828347  -6.669  28.110  -5.786
    1XTA   HL1928348  -6.856  28.400  -5.537
    1XTA   HL2028349  -6.798  28.255  -5.469
    1XTA   HL2128350  -7.031  28.248  -5.670
    1XTA   HL2228351  -7.065  28.275  -5.482
    1XTA   HL2328352  -6.974  28.136  -5.550
    1XTA   HL2428353  -6.695  27.348  -7.231
    1XTA   HL2528354  -6.648  27.514  -7.168
    1XTA    CO828355  -6.812  28.349  -5.797
    1XTA    CO928356  -6.621  28.335  -5.636
    1XTA    OA628357  -6.580  28.285  -5.545
    1XTA   HL4228358  -6.825  28.455  -5.773
    1XTA   HL4328359  -6.941  28.293  -5.836
    1XTA   HL4828360  -6.634  28.448  -5.617
    1XTA   HL4928361  -6.553  28.330  -5.717
    1XTA     NT28362  -2.880  31.683  -5.582
    1XTA    CN128363  -3.009  31.695  -5.630
    1XTA     C128364  -3.080  31.809  -5.582
    1XTA     C228365  -3.218  31.818  -5.619
    1XTA     C328366  -3.277  31.725  -5.702
    1XTA     C428367  -3.202  31.616  -5.753
    1XTA     C528368  -3.074  31.598  -5.715
    1XTA    CN228369  -2.781  31.637  -5.667
    1XTA     C628370  -2.677  31.723  -5.705
    1XTA     C728371  -2.570  31.670  -5.774
    1XTA     C828372  -2.555  31.537  -5.809
    1XTA     C928373  -2.659  31.447  -5.761
    1XTA    C1028374  -2.762  31.497  -5.687
    1XTA    CN328375  -2.867  31.666  -5.449
    1XTA    C1128376  -2.891  31.537  -5.401
    1XTA    C1228377  -2.873  31.512  -5.270
    1XTA    C1328378  -2.827  31.613  -5.181
    1XTA    C1428379  -2.795  31.741  -5.229
    1XTA    C1528380  -2.813  31.764  -5.368
    1XTA     H128381  -3.030  31.889  -5.527
    1XTA     H228382  -3.272  31.895  -5.570
    1XTA     H328383  -3.245  31.542  -5.823
    1XTA     H428384  -3.014  31.516  -5.755
    1XTA     H528385  -2.671  31.821  -5.681
    1XTA     H628386  -2.479  31.733  -5.795
    1XTA     H728387  -2.651  31.343  -5.781
    1XTA     H828388  -2.829  31.424  -5.644
    1XTA     H928389  -2.929  31.458  -5.459
    1XTA    H1028390  -2.900  31.417  -5.221
    1XTA    H1128391  -2.752  31.815  -5.173
    1XTA    H1228392  -2.779  31.866  -5.408
    1XTA    OA128393  -3.406  31.747  -5.733
    1XTA    CO128394  -3.432  31.719  -5.873
    1XTA    OA228395  -2.468  31.484  -5.895
    1XTA    CO228396  -2.424  31.574  -6.002
    1XTA    CL128397  -2.383  31.497  -6.119
    1XTA    CL228398  -2.501  31.439  -6.202
    1XTA    CL328399  -2.455  31.355  -6.326
    1XTA    CL428400  -2.576  31.325  -6.422
    1XTA    CO328401  -2.551  31.218  -6.533
    1XTA    OA328402  -2.673  31.187  -6.598
    1XTA    CO428403  -2.649  31.084  -6.700
    1XTA    CT128404  -2.713  30.944  -6.694
    1XTA    CL528405  -2.694  30.886  -6.545
    1XTA    CL628406  -2.713  30.728  -6.538
    1XTA    OA428407  -2.813  31.579  -5.044
    1XTA    CO528408  -2.813  31.680  -4.957
    1XTA    HL128409  -2.727  31.740  -4.989
    1XTA    HL228410  -3.370  31.774  -5.942
    1XTA    HL328411  -3.413  31.615  -5.898
    1XTA    HL428412  -3.535  31.736  -5.902
    1XTA    HL528413  -2.505  31.636  -6.034
    1XTA    HL628414  -2.339  31.627  -5.963
    1XTA    HL728415  -2.306  31.437  -6.075
    1XTA    HL828416  -2.331  31.564  -6.177
    1XTA    HL928417  -2.561  31.522  -6.234
    1XTA   HL1028418  -2.564  31.378  -6.142
    1XTA   HL1128419  -2.375  31.416  -6.372
    1XTA   HL1228420  -2.406  31.261  -6.296
    1XTA   HL1328421  -2.622  31.411  -6.469
    1XTA   HL1428422  -2.659  31.282  -6.365
    1XTA   HL1528423  -2.477  31.256  -6.596
    1XTA   HL1628424  -2.509  31.128  -6.477
    1XTA   HL1728425  -2.685  31.132  -6.784
    1XTA   HL1828426  -2.537  31.068  -6.703
    1XTA   HL1928427  -2.753  30.933  -6.469
    1XTA   HL2028428  -2.595  30.925  -6.514
    1XTA   HL2128429  -2.640  30.669  -6.587
    1XTA   HL2228430  -2.717  30.689  -6.437
    1XTA   HL2328431  -2.805  30.703  -6.572
    1XTA   HL2428432  -2.799  31.641  -4.854
    1XTA   HL2528433  -2.910  31.724  -4.975
    1XTA    CO828434  -2.649  30.857  -6.795
    1XTA    CO928435  -2.869  30.961  -6.724
    1XTA    OA628436  -2.938  30.835  -6.716
    1XTA   HL4228437  -2.648  30.889  -6.901
    1XTA   HL4328438  -2.703  30.761  -6.783
    1XTA   HL4828439  -2.880  30.996  -6.827
    1XTA   HL4928440  -2.907  31.038  -6.656
    1XTA     NT28441  -7.979  29.140  -6.843
    1XTA    CN128442  -7.965  29.271  -6.830
    1XTA     C128443  -8.031  29.352  -6.922
    1XTA     C228444  -8.023  29.490  -6.916
    1XTA     C328445  -7.954  29.549  -6.807
    1XTA     C428446  -7.883  29.474  -6.714
    1XTA     C528447  -7.890  29.332  -6.721
    1XTA    CN228448  -8.055  29.080  -6.748
    1XTA     C628449  -7.997  28.972  -6.679
    1XTA     C728450  -8.084  28.888  -6.600
    1XTA     C828451  -8.221  28.920  -6.582
    1XTA     C928452  -8.273  29.039  -6.640
    1XTA    C1028453  -8.192  29.117  -6.728
    1XTA    CN328454  -7.937  29.074  -6.950
    1XTA    C1128455  -8.019  29.040  -7.059
    1XTA    C1228456  -7.977  28.963  -7.167
    1XTA    C1328457  -7.845  28.919  -7.173
    1XTA    C1428458  -7.757  28.965  -7.073
    1XTA    C1528459  -7.802  29.036  -6.958
    1XTA     H128460  -8.086  29.313  -7.010
    1XTA     H228461  -8.069  29.547  -6.995
    1XTA     H328462  -7.837  29.523  -6.629
    1XTA     H428463  -7.833  29.272  -6.654
    1XTA     H528464  -7.895  28.954  -6.703
    1XTA     H628465  -8.042  28.812  -6.544
    1XTA     H728466  -8.369  29.080  -6.628
    1XTA     H828467  -8.225  29.199  -6.784
    1XTA     H928468  -8.120  29.080  -7.056
    1XTA    H1028469  -8.051  28.931  -7.240
    1XTA    H1128470  -7.652  28.932  -7.068
    1XTA    H1228471  -7.732  29.075  -6.889
    1XTA    OA128472  -7.950  29.681  -6.793
    1XTA    CO128473  -7.813  29.737  -6.798
    1XTA    OA228474  -8.297  28.830  -6.511
    1XTA    CO228475  -8.433  28.856  -6.503
    1XTA    CL128476  -8.511  28.739  -6.448
    1XTA    CL228477  -8.473  28.730  -6.295
    1XTA    CL328478  -8.583  28.667  -6.205
    1XTA    CL428479  -8.700  28.759  -6.154
    1XTA    CO328480  -8.779  28.821  -6.270
    1XTA    OA328481  -8.903  28.869  -6.227
    1XTA    CO428482  -9.009  28.781  -6.247
    1XTA    CT128483  -9.122  28.808  -6.144
    1XTA    CL528484  -9.076  28.784  -6.004
    1XTA    CL628485  -9.192  28.808  -5.903
    1XTA    OA428486  -7.806  28.848  -7.278
    1XTA    CO528487  -7.680  28.781  -7.266
    1XTA    HL128488  -7.591  28.848  -7.265
    1XTA    HL228489  -7.828  29.846  -6.805
    1XTA    HL328490  -7.765  29.712  -6.702
    1XTA    HL428491  -7.756  29.720  -6.889
    1XTA    HL528492  -8.451  28.948  -6.440
    1XTA    HL628493  -8.464  28.868  -6.605
    1XTA    HL728494  -8.496  28.647  -6.504
    1XTA    HL828495  -8.612  28.768  -6.455
    1XTA    HL928496  -8.466  28.832  -6.257
    1XTA   HL1028497  -8.371  28.684  -6.286
    1XTA   HL1128498  -8.619  28.582  -6.262
    1XTA   HL1228499  -8.533  28.632  -6.121
    1XTA   HL1328500  -8.666  28.836  -6.088
    1XTA   HL1428501  -8.761  28.687  -6.088
    1XTA   HL1528502  -8.718  28.905  -6.298
    1XTA   HL1628503  -8.793  28.755  -6.353
    1XTA   HL1728504  -9.052  28.790  -6.343
    1XTA   HL1828505  -8.967  28.684  -6.236
    1XTA   HL1928506  -9.000  28.854  -5.988
    1XTA   HL2028507  -9.033  28.689  -5.978
    1XTA   HL2128508  -9.259  28.721  -5.905
    1XTA   HL2228509  -9.250  28.892  -5.911
    1XTA   HL2328510  -9.158  28.812  -5.803
    1XTA   HL2428511  -7.671  28.711  -7.348
    1XTA   HL2528512  -7.679  28.726  -7.173
    1XTA    CO828513  -9.239  28.713  -6.185
    1XTA    CO928514  -9.171  28.948  -6.171
    1XTA    OA628515  -9.227  28.963  -6.271
    1XTA   HL4228516  -9.335  28.732  -6.136
    1XTA   HL4328517  -9.263  28.714  -6.324
    1XTA   HL4828518  -9.088  29.015  -6.166
    1XTA   HL4928519  -9.234  28.983  -6.092
    1XTA     NT28520  -8.124  29.359  -8.938
    1XTA    CN128521  -8.224  29.360  -8.846
    1XTA     C128522  -8.313  29.464  -8.836
    1XTA     C228523  -8.410  29.481  -8.739
    1XTA     C328524  -8.421  29.380  -8.643
    1XTA     C428525  -8.334  29.266  -8.654
    1XTA     C528526  -8.234  29.258  -8.754
    1XTA    CN228527  -8.155  29.346  -9.071
    1XTA     C628528  -8.101  29.228  -9.127
    1XTA     C728529  -8.120  29.207  -9.265
    1XTA     C828530  -8.164  29.319  -9.354
    1XTA     C928531  -8.215  29.435  -9.291
    1XTA    C1028532  -8.210  29.448  -9.148
    1XTA    CN328533  -8.005  29.416  -8.900
    1XTA    C1128534  -7.920  29.339  -8.824
    1XTA    C1228535  -7.809  29.408  -8.767
    1XTA    C1328536  -7.774  29.539  -8.790
    1XTA    C1428537  -7.851  29.612  -8.879
    1XTA    C1528538  -7.965  29.549  -8.936
    1XTA     H128539  -8.291  29.547  -8.905
    1XTA     H228540  -8.469  29.571  -8.731
    1XTA     H328541  -8.357  29.172  -8.602
    1XTA     H428542  -8.163  29.177  -8.770
    1XTA     H528543  -8.047  29.164  -9.056
    1XTA     H628544  -8.077  29.113  -9.303
    1XTA     H728545  -8.251  29.519  -9.354
    1XTA     H828546  -8.238  29.546  -9.107
    1XTA     H928547  -7.940  29.242  -8.791
    1XTA    H1028548  -7.742  29.355  -8.697
    1XTA    H1128549  -7.812  29.708  -8.907
    1XTA    H1228550  -8.023  29.611  -9.000
    1XTA    OA128551  -8.511  29.369  -8.540
    1XTA    CO128552  -8.574  29.494  -8.503
    1XTA    OA228553  -8.161  29.299  -9.493
    1XTA    CO228554  -8.060  29.208  -9.548
    1XTA    CL128555  -8.055  29.211  -9.700
    1XTA    CL228556  -7.921  29.147  -9.742
    1XTA    CL328557  -7.897  29.167  -9.897
    1XTA    CL428558  -7.763  29.115  -9.946
    1XTA    CO328559  -7.753  29.086 -10.100
    1XTA    OA328560  -7.628  29.040 -10.147
    1XTA    CO428561  -7.618  28.897 -10.136
    1XTA    CT128562  -7.470  28.869 -10.176
    1XTA    CL528563  -7.367  28.965 -10.112
    1XTA    CL628564  -7.390  28.987  -9.959
    1XTA    OA428565  -7.663  29.597  -8.743
    1XTA    CO528566  -7.597  29.535  -8.643
    1XTA    HL128567  -7.543  29.450  -8.681
    1XTA    HL228568  -8.662  29.525  -8.569
    1XTA    HL328569  -8.604  29.479  -8.402
    1XTA    HL428570  -8.497  29.577  -8.503
    1XTA    HL528571  -7.958  29.234  -9.512
    1XTA    HL628572  -8.087  29.107  -9.525
    1XTA    HL728573  -8.062  29.314  -9.739
    1XTA    HL828574  -8.145  29.162  -9.733
    1XTA    HL928575  -7.919  29.037  -9.729
    1XTA   HL1028576  -7.836  29.184  -9.683
    1XTA   HL1128577  -7.971  29.105  -9.945
    1XTA   HL1228578  -7.913  29.267  -9.938
    1XTA   HL1328579  -7.745  29.017  -9.898
    1XTA   HL1428580  -7.678  29.179  -9.917
    1XTA   HL1528581  -7.832  29.027 -10.136
    1XTA   HL1628582  -7.753  29.179 -10.155
    1XTA   HL1728583  -7.631  28.872 -10.030
    1XTA   HL1828584  -7.697  28.840 -10.189
    1XTA   HL1928585  -7.364  29.067 -10.149
    1XTA   HL2028586  -7.262  28.922 -10.108
    1XTA   HL2128587  -7.397  28.888  -9.912
    1XTA   HL2228588  -7.478  29.037  -9.955
    1XTA   HL2328589  -7.315  29.048  -9.905
    1XTA   HL2428590  -7.654  29.511  -8.554
    1XTA   HL2528591  -7.518  29.600  -8.609
    1XTA    CO828592  -7.462  28.873 -10.331
    1XTA    CO928593  -7.441  28.732 -10.134
    1XTA    OA628594  -7.474  28.711 -10.029
    1XTA   HL4228595  -7.544  28.822 -10.382
    1XTA   HL4328596  -7.475  29.012 -10.372
    1XTA   HL4828597  -7.337  28.705 -10.158
    1XTA   HL4928598  -7.505  28.673 -10.190
    1XTA     NT28599  -5.468  25.610 -12.204
    1XTA    CN128600  -5.495  25.713 -12.288
    1XTA     C128601  -5.441  25.711 -12.415
    1XTA     C228602  -5.471  25.815 -12.506
    1XTA     C328603  -5.540  25.930 -12.467
    1XTA     C428604  -5.588  25.937 -12.337
    1XTA     C528605  -5.567  25.823 -12.251
    1XTA    CN228606  -5.362  25.530 -12.227
    1XTA     C628607  -5.370  25.414 -12.308
    1XTA     C728608  -5.263  25.326 -12.306
    1XTA     C828609  -5.137  25.362 -12.239
    1XTA     C928610  -5.132  25.482 -12.173
    1XTA    C1028611  -5.247  25.562 -12.161
    1XTA    CN328612  -5.575  25.553 -12.149
    1XTA    C1128613  -5.589  25.550 -12.014
    1XTA    C1228614  -5.691  25.487 -11.949
    1XTA    C1328615  -5.795  25.424 -12.018
    1XTA    C1428616  -5.791  25.434 -12.159
    1XTA    C1528617  -5.678  25.491 -12.225
    1XTA     H128618  -5.383  25.627 -12.446
    1XTA     H228619  -5.444  25.797 -12.610
    1XTA     H328620  -5.646  26.023 -12.299
    1XTA     H428621  -5.600  25.830 -12.152
    1XTA     H528622  -5.468  25.390 -12.351
    1XTA     H628623  -5.284  25.233 -12.362
    1XTA     H728624  -5.043  25.501 -12.118
    1XTA     H828625  -5.240  25.655 -12.101
    1XTA     H928626  -5.511  25.589 -11.946
    1XTA    H1028627  -5.692  25.498 -11.845
    1XTA    H1128628  -5.875  25.405 -12.218
    1XTA    H1228629  -5.672  25.513 -12.333
    1XTA    OA128630  -5.564  26.018 -12.568
    1XTA    CO128631  -5.630  26.133 -12.523
    1XTA    OA228632  -5.031  25.273 -12.223
    1XTA    CO228633  -5.021  25.162 -12.311
    1XTA    CL128634  -4.998  25.205 -12.453
    1XTA    CL228635  -5.036  25.101 -12.555
    1XTA    CL328636  -5.037  25.155 -12.696
    1XTA    CL428637  -4.901  25.189 -12.758
    1XTA    CO328638  -4.916  25.286 -12.873
    1XTA    OA328639  -4.958  25.412 -12.819
    1XTA    CO428640  -4.851  25.480 -12.781
    1XTA    CT128641  -4.894  25.600 -12.695
    1XTA    CL528642  -5.008  25.565 -12.582
    1XTA    CL628643  -5.076  25.690 -12.522
    1XTA    OA428644  -5.907  25.359 -11.965
    1XTA    CO528645  -5.905  25.358 -11.820
    1XTA    HL128646  -5.996  25.317 -11.772
    1XTA    HL228647  -5.590  26.171 -12.429
    1XTA    HL328648  -5.606  26.209 -12.593
    1XTA    HL428649  -5.734  26.117 -12.512
    1XTA    HL528650  -4.939  25.103 -12.283
    1XTA    HL628651  -5.105  25.099 -12.294
    1XTA    HL728652  -4.896  25.243 -12.467
    1XTA    HL828653  -5.067  25.286 -12.468
    1XTA    HL928654  -5.136  25.058 -12.540
    1XTA   HL1028655  -4.960  25.024 -12.542
    1XTA   HL1128656  -5.093  25.083 -12.758
    1XTA   HL1228657  -5.095  25.250 -12.683
    1XTA   HL1328658  -4.848  25.102 -12.808
    1XTA   HL1428659  -4.835  25.219 -12.681
    1XTA   HL1528660  -4.825  25.315 -12.938
    1XTA   HL1628661  -4.996  25.237 -12.936
    1XTA   HL1728662  -4.784  25.417 -12.720
    1XTA   HL1828663  -4.800  25.518 -12.868
    1XTA   HL1928664  -4.983  25.506 -12.494
    1XTA   HL2028665  -5.095  25.512 -12.627
    1XTA   HL2128666  -5.007  25.765 -12.483
    1XTA   HL2228667  -5.143  25.661 -12.444
    1XTA   HL2328668  -5.148  25.730 -12.588
    1XTA   HL2428669  -5.887  25.449 -11.785
    1XTA   HL2528670  -5.822  25.295 -11.789
    1XTA    CO828671  -4.925  25.721 -12.787
    1XTA    CO928672  -4.768  25.635 -12.617
    1XTA    OA628673  -4.960  25.815 -12.741
    1XTA   HL4228674  -4.988  25.679 -12.861
    1XTA   HL4328675  -4.836  25.756 -12.839
    1XTA   HL4828676  -4.778  25.742 -12.533
    1XTA   HL4928677  -4.750  25.550 -12.545
    1XTA     NT28678  -4.741  28.664  -7.128
    1XTA    CN128679  -4.719  28.695  -6.998
    1XTA     C128680  -4.707  28.830  -6.965
    1XTA     C228681  -4.692  28.874  -6.836
    1XTA     C328682  -4.674  28.778  -6.731
    1XTA     C428683  -4.680  28.637  -6.762
    1XTA     C528684  -4.707  28.597  -6.896
    1XTA    CN228685  -4.869  28.628  -7.167
    1XTA     C628686  -4.902  28.498  -7.212
    1XTA     C728687  -5.032  28.471  -7.269
    1XTA     C828688  -5.129  28.574  -7.277
    1XTA     C928689  -5.096  28.704  -7.239
    1XTA    C1028690  -4.966  28.728  -7.182
    1XTA    CN328691  -4.641  28.660  -7.219
    1XTA    C1128692  -4.553  28.549  -7.221
    1XTA    C1228693  -4.446  28.555  -7.313
    1XTA    C1328694  -4.425  28.656  -7.403
    1XTA    C1428695  -4.520  28.763  -7.406
    1XTA    C1528696  -4.624  28.758  -7.310
    1XTA     H128697  -4.711  28.904  -7.039
    1XTA     H228698  -4.697  28.979  -6.816
    1XTA     H328699  -4.682  28.556  -6.688
    1XTA     H428700  -4.720  28.490  -6.923
    1XTA     H528701  -4.834  28.416  -7.212
    1XTA     H628702  -5.055  28.371  -7.302
    1XTA     H728703  -5.172  28.782  -7.245
    1XTA     H828704  -4.952  28.828  -7.152
    1XTA     H928705  -4.567  28.471  -7.146
    1XTA    H1028706  -4.383  28.466  -7.310
    1XTA    H1128707  -4.502  28.851  -7.470
    1XTA    H1228708  -4.697  28.841  -7.314
    1XTA    OA128709  -4.644  28.835  -6.605
    1XTA    CO128710  -4.640  28.727  -6.508
    1XTA    OA228711  -5.255  28.540  -7.312
    1XTA    CO228712  -5.273  28.580  -7.448
    1XTA    CL128713  -5.183  28.499  -7.547
    1XTA    CL228714  -5.239  28.498  -7.694
    1XTA    CL328715  -5.189  28.621  -7.776
    1XTA    CL428716  -5.236  28.616  -7.920
    1XTA    CO328717  -5.216  28.755  -7.989
    1XTA    OA328718  -5.317  28.831  -7.923
    1XTA    CO428719  -5.279  28.964  -7.936
    1XTA    CT128720  -5.398  29.053  -7.916
    1XTA    CL528721  -5.350  29.196  -7.940
    1XTA    CL628722  -5.457  29.313  -7.920
    1XTA    OA428723  -4.325  28.670  -7.497
    1XTA    CO528724  -4.225  28.570  -7.496
    1XTA    HL128725  -4.264  28.474  -7.532
    1XTA    HL228726  -4.739  28.678  -6.506
    1XTA    HL328727  -4.549  28.663  -6.516
    1XTA    HL428728  -4.622  28.763  -6.410
    1XTA    HL528729  -5.382  28.558  -7.465
    1XTA    HL628730  -5.270  28.689  -7.459
    1XTA    HL728731  -5.172  28.395  -7.512
    1XTA    HL828732  -5.083  28.538  -7.540
    1XTA    HL928733  -5.339  28.501  -7.698
    1XTA   HL1028734  -5.233  28.396  -7.744
    1XTA   HL1128735  -5.222  28.717  -7.742
    1XTA   HL1228736  -5.079  28.617  -7.765
    1XTA   HL1328737  -5.342  28.590  -7.926
    1XTA   HL1428738  -5.172  28.546  -7.973
    1XTA   HL1528739  -5.116  28.789  -7.977
    1XTA   HL1628740  -5.241  28.751  -8.090
    1XTA   HL1728741  -5.202  29.000  -7.868
    1XTA   HL1828742  -5.237  28.968  -8.037
    1XTA   HL1928743  -5.312  29.212  -8.032
    1XTA   HL2028744  -5.252  29.207  -7.876
    1XTA   HL2128745  -5.407  29.402  -7.947
    1XTA   HL2228746  -5.488  29.317  -7.822
    1XTA   HL2328747  -5.544  29.298  -7.980
    1XTA   HL2428748  -4.186  28.543  -7.399
    1XTA   HL2528749  -4.136  28.595  -7.555
    1XTA    CO828750  -5.475  29.040  -7.774
    1XTA    CO928751  -5.508  29.019  -8.018
    1XTA    OA628752  -5.412  29.068  -7.688
    1XTA   HL4228753  -5.508  28.937  -7.783
    1XTA   HL4328754  -5.564  29.104  -7.777
    1XTA   HL4828755  -5.438  29.009  -8.141
    1XTA   HL4928756  -5.535  28.918  -7.993
    1XTA     NT28757  -1.245  25.801 -10.376
    1XTA    CN128758  -1.158  25.719 -10.311
    1XTA     C128759  -1.017  25.705 -10.348
    1XTA     C228760  -0.924  25.636 -10.273
    1XTA     C328761  -0.964  25.568 -10.152
    1XTA     C428762  -1.099  25.586 -10.111
    1XTA     C528763  -1.191  25.655 -10.187
    1XTA    CN228764  -1.363  25.829 -10.318
    1XTA     C628765  -1.471  25.746 -10.343
    1XTA     C728766  -1.596  25.770 -10.285
    1XTA     C828767  -1.616  25.886 -10.208
    1XTA     C928768  -1.503  25.970 -10.182
    1XTA    C1028769  -1.378  25.947 -10.243
    1XTA    CN328770  -1.226  25.838 -10.499
    1XTA    C1128771  -1.205  25.747 -10.604
    1XTA    C1228772  -1.182  25.795 -10.738
    1XTA    C1328773  -1.170  25.932 -10.770
    1XTA    C1428774  -1.185  26.024 -10.662
    1XTA    C1528775  -1.209  25.976 -10.525
    1XTA     H128776  -0.974  25.759 -10.432
    1XTA     H228777  -0.821  25.621 -10.311
    1XTA     H328778  -1.133  25.535 -10.026
    1XTA     H428779  -1.283  25.662 -10.134
    1XTA     H528780  -1.456  25.665 -10.417
    1XTA     H628781  -1.668  25.699 -10.304
    1XTA     H728782  -1.515  26.062 -10.122
    1XTA     H828783  -1.285  26.004 -10.228
    1XTA     H928784  -1.202  25.644 -10.582
    1XTA    H1028785  -1.182  25.724 -10.819
    1XTA    H1128786  -1.182  26.132 -10.668
    1XTA    H1228787  -1.199  26.045 -10.439
    1XTA    OA128788  -0.887  25.489 -10.071
    1XTA    CO128789  -0.745  25.503 -10.087
    1XTA    OA228790  -1.740  25.917 -10.159
    1XTA    CO228791  -1.854  25.834 -10.172
    1XTA    CL128792  -1.939  25.845 -10.302
    1XTA    CL228793  -1.946  25.988 -10.350
    1XTA    CL328794  -1.842  26.026 -10.449
    1XTA    CL428795  -1.842  26.173 -10.487
    1XTA    CO328796  -1.756  26.263 -10.405
    1XTA    OA328797  -1.819  26.301 -10.281
    1XTA    CO428798  -1.741  26.376 -10.191
    1XTA    CT128799  -1.815  26.377 -10.052
    1XTA    CL528800  -1.970  26.345 -10.060
    1XTA    CL628801  -2.057  26.435 -10.143
    1XTA    OA428802  -1.153  25.989 -10.899
    1XTA    CO528803  -1.088  25.890 -10.989
    1XTA    HL128804  -1.004  25.852 -10.939
    1XTA    HL228805  -0.708  25.477  -9.985
    1XTA    HL328806  -0.716  25.432 -10.164
    1XTA    HL428807  -0.725  25.606 -10.115
    1XTA    HL528808  -1.827  25.735 -10.142
    1XTA    HL628809  -1.914  25.872 -10.085
    1XTA    HL728810  -2.030  25.809 -10.259
    1XTA    HL828811  -1.909  25.767 -10.378
    1XTA    HL928812  -1.937  26.060 -10.274
    1XTA   HL1028813  -2.048  26.013 -10.398
    1XTA   HL1128814  -1.743  25.990 -10.415
    1XTA   HL1228815  -1.864  25.986 -10.543
    1XTA   HL1328816  -1.944  26.213 -10.482
    1XTA   HL1428817  -1.828  26.191 -10.597
    1XTA   HL1528818  -1.656  26.224 -10.382
    1XTA   HL1628819  -1.746  26.364 -10.449
    1XTA   HL1728820  -1.637  26.354 -10.186
    1XTA   HL1828821  -1.756  26.477 -10.229
    1XTA   HL1928822  -2.013  26.354  -9.960
    1XTA   HL2028823  -2.008  26.241 -10.071
    1XTA   HL2128824  -2.025  26.537 -10.123
    1XTA   HL2228825  -2.161  26.436 -10.110
    1XTA   HL2328826  -2.034  26.408 -10.247
    1XTA   HL2428827  -1.052  25.932 -11.079
    1XTA   HL2528828  -1.151  25.804 -11.002
    1XTA    CO828829  -1.782  26.509  -9.979
    1XTA    CO928830  -1.750  26.271  -9.969
    1XTA    OA628831  -1.852  26.505  -9.850
    1XTA   HL4228832  -1.833  26.589 -10.034
    1XTA   HL4328833  -1.675  26.531  -9.964
    1XTA   HL4828834  -1.766  26.175 -10.014
    1XTA   HL4928835  -1.815  26.271  -9.886
    1XTA     NT28836  -4.207  26.490  -8.688
    1XTA    CN128837  -4.265  26.377  -8.739
    1XTA     C128838  -4.401  26.373  -8.763
    1XTA     C228839  -4.459  26.266  -8.828
    1XTA     C328840  -4.382  26.162  -8.867
    1XTA     C428841  -4.242  26.166  -8.839
    1XTA     C528842  -4.180  26.269  -8.771
    1XTA    CN228843  -4.091  26.534  -8.749
    1XTA     C628844  -3.962  26.518  -8.698
    1XTA     C728845  -3.849  26.554  -8.782
    1XTA     C828846  -3.870  26.597  -8.916
    1XTA     C928847  -4.001  26.625  -8.958
    1XTA    C1028848  -4.108  26.587  -8.877
    1XTA    CN328849  -4.246  26.561  -8.587
    1XTA    C1128850  -4.291  26.695  -8.603
    1XTA    C1228851  -4.326  26.778  -8.491
    1XTA    C1328852  -4.307  26.728  -8.365
    1XTA    C1428853  -4.257  26.597  -8.342
    1XTA    C1528854  -4.230  26.511  -8.454
    1XTA     H128855  -4.466  26.463  -8.733
    1XTA     H228856  -4.557  26.273  -8.873
    1XTA     H328857  -4.183  26.080  -8.861
    1XTA     H428858  -4.077  26.278  -8.747
    1XTA     H528859  -3.949  26.474  -8.600
    1XTA     H628860  -3.751  26.524  -8.749
    1XTA     H728861  -4.006  26.668  -9.065
    1XTA     H828862  -4.210  26.606  -8.910
    1XTA     H928863  -4.277  26.748  -8.696
    1XTA    H1028864  -4.365  26.875  -8.498
    1XTA    H1128865  -4.238  26.562  -8.245
    1XTA    H1228866  -4.185  26.406  -8.443
    1XTA    OA128867  -4.437  26.060  -8.942
    1XTA    CO128868  -4.343  25.961  -8.996
    1XTA    OA228869  -3.764  26.615  -9.006
    1XTA    CO228870  -3.652  26.527  -8.994
    1XTA    CL128871  -3.671  26.390  -9.062
    1XTA    CL228872  -3.796  26.312  -9.009
    1XTA    CL328873  -3.829  26.177  -9.077
    1XTA    CL428874  -3.962  26.118  -9.029
    1XTA    CO328875  -3.988  25.982  -9.088
    1XTA    OA328876  -3.877  25.898  -9.065
    1XTA    CO428877  -3.862  25.786  -9.151
    1XTA    CT128878  -3.716  25.728  -9.140
    1XTA    CL528879  -3.723  25.596  -9.219
    1XTA    CL628880  -3.805  25.479  -9.163
    1XTA    OA428881  -4.325  26.811  -8.261
    1XTA    CO528882  -4.361  26.773  -8.130
    1XTA    HL128883  -4.299  26.690  -8.101
    1XTA    HL228884  -4.282  26.001  -9.075
    1XTA    HL328885  -4.279  25.927  -8.918
    1XTA    HL428886  -4.405  25.875  -9.023
    1XTA    HL528887  -3.584  26.580  -9.053
    1XTA    HL628888  -3.607  26.527  -8.892
    1XTA    HL728889  -3.585  26.326  -9.067
    1XTA    HL828890  -3.683  26.412  -9.171
    1XTA    HL928891  -3.882  26.372  -9.015
    1XTA   HL1028892  -3.779  26.288  -8.903
    1XTA   HL1128893  -3.830  26.202  -9.183
    1XTA   HL1228894  -3.750  26.106  -9.046
    1XTA   HL1328895  -4.047  26.182  -9.041
    1XTA   HL1428896  -3.971  26.095  -8.929
    1XTA   HL1528897  -4.083  25.934  -9.052
    1XTA   HL1628898  -3.986  25.990  -9.201
    1XTA   HL1728899  -3.930  25.711  -9.130
    1XTA   HL1828900  -3.869  25.818  -9.260
    1XTA   HL1928901  -3.621  25.564  -9.222
    1XTA   HL2028902  -3.748  25.619  -9.320
    1XTA   HL2128903  -3.802  25.475  -9.052
    1XTA   HL2228904  -3.762  25.385  -9.201
    1XTA   HL2328905  -3.906  25.483  -9.198
    1XTA   HL2428906  -4.458  26.722  -8.132
    1XTA   HL2528907  -4.363  26.851  -8.056
    1XTA    CO828908  -3.676  25.693  -8.993
    1XTA    CO928909  -3.619  25.836  -9.182
    1XTA    OA628910  -3.591  25.626  -8.996
    1XTA   HL4228911  -3.758  25.645  -8.939
    1XTA   HL4328912  -3.643  25.779  -8.938
    1XTA   HL4828913  -3.665  25.966  -9.172
    1XTA   HL4928914  -3.535  25.848  -9.113
    1XTA     NT28915  -3.598  27.196  -7.280
    1XTA    CN128916  -3.492  27.117  -7.304
    1XTA     C128917  -3.458  27.068  -7.433
    1XTA     C228918  -3.339  26.995  -7.451
    1XTA     C328919  -3.256  26.962  -7.345
    1XTA     C428920  -3.283  27.013  -7.215
    1XTA     C528921  -3.409  27.081  -7.196
    1XTA    CN228922  -3.718  27.152  -7.320
    1XTA     C628923  -3.773  27.223  -7.431
    1XTA     C728924  -3.890  27.180  -7.493
    1XTA     C828925  -3.967  27.081  -7.428
    1XTA     C928926  -3.915  27.004  -7.321
    1XTA    C1028927  -3.790  27.038  -7.268
    1XTA    CN328928  -3.596  27.303  -7.196
    1XTA    C1128929  -3.549  27.428  -7.236
    1XTA    C1228930  -3.543  27.532  -7.145
    1XTA    C1328931  -3.599  27.519  -7.019
    1XTA    C1428932  -3.663  27.401  -6.983
    1XTA    C1528933  -3.657  27.289  -7.066
    1XTA     H128934  -3.522  27.088  -7.520
    1XTA     H228935  -3.310  26.966  -7.548
    1XTA     H328936  -3.225  26.995  -7.123
    1XTA     H428937  -3.428  27.096  -7.094
    1XTA     H528938  -3.719  27.305  -7.462
    1XTA     H628939  -3.925  27.244  -7.574
    1XTA     H728940  -3.976  26.919  -7.276
    1XTA     H828941  -3.754  26.979  -7.187
    1XTA     H928942  -3.500  27.438  -7.336
    1XTA    H1028943  -3.503  27.632  -7.166
    1XTA    H1128944  -3.709  27.383  -6.885
    1XTA    H1228945  -3.697  27.202  -7.031
    1XTA    OA128946  -3.137  26.888  -7.371
    1XTA    CO128947  -3.042  26.890  -7.270
    1XTA    OA228948  -4.099  27.056  -7.465
    1XTA    CO228949  -4.117  27.082  -7.608
    1XTA    CL128950  -4.239  27.001  -7.645
    1XTA    CL228951  -4.272  27.011  -7.792
    1XTA    CL328952  -4.310  27.157  -7.836
    1XTA    CL428953  -4.434  27.159  -7.937
    1XTA    CO328954  -4.495  27.296  -7.940
    1XTA    OA328955  -4.411  27.391  -8.001
    1XTA    CO428956  -4.452  27.525  -8.001
    1XTA    CT128957  -4.360  27.617  -8.085
    1XTA    CL528958  -4.434  27.654  -8.215
    1XTA    CL628959  -4.438  27.547  -8.323
    1XTA    OA428960  -3.580  27.625  -6.925
    1XTA    CO528961  -3.664  27.627  -6.814
    1XTA    HL128962  -3.765  27.619  -6.851
    1XTA    HL228963  -2.941  26.856  -7.302
    1XTA    HL328964  -3.024  26.977  -7.219
    1XTA    HL428965  -3.074  26.814  -7.203
    1XTA    HL528966  -4.116  27.191  -7.621
    1XTA    HL628967  -4.042  27.040  -7.662
    1XTA    HL728968  -4.326  27.024  -7.587
    1XTA    HL828969  -4.203  26.901  -7.630
    1XTA    HL928970  -4.356  26.944  -7.805
    1XTA   HL1028971  -4.192  26.963  -7.851
    1XTA   HL1128972  -4.333  27.208  -7.746
    1XTA   HL1228973  -4.224  27.195  -7.877
    1XTA   HL1328974  -4.512  27.084  -7.923
    1XTA   HL1428975  -4.391  27.126  -8.030
    1XTA   HL1528976  -4.596  27.294  -7.985
    1XTA   HL1628977  -4.523  27.329  -7.837
    1XTA   HL1728978  -4.552  27.539  -8.037
    1XTA   HL1828979  -4.462  27.553  -7.894
    1XTA   HL1928980  -4.403  27.749  -8.258
    1XTA   HL2028981  -4.541  27.677  -8.194
    1XTA   HL2128982  -4.494  27.579  -8.411
    1XTA   HL2228983  -4.477  27.451  -8.285
    1XTA   HL2328984  -4.344  27.532  -8.353
    1XTA   HL2428985  -3.672  27.735  -6.792
    1XTA   HL2528986  -3.640  27.567  -6.732
    1XTA    CO828987  -4.222  27.558  -8.109
    1XTA    CO928988  -4.334  27.750  -8.001
    1XTA    OA628989  -4.452  27.836  -7.989
    1XTA   HL4228990  -4.196  27.531  -8.014
    1XTA   HL4328991  -4.226  27.469  -8.168
    1XTA   HL4828992  -4.244  27.805  -8.034
    1XTA   HL4928993  -4.312  27.722  -7.898
    1XTA     NT28994  -4.365  25.223  -8.908
    1XTA    CN128995  -4.336  25.339  -8.975
    1XTA     C128996  -4.385  25.469  -8.941
    1XTA     C228997  -4.364  25.583  -9.024
    1XTA     C328998  -4.288  25.567  -9.139
    1XTA     C428999  -4.238  25.438  -9.176
    1XTA     C529000  -4.265  25.332  -9.096
    1XTA    CN229001  -4.412  25.116  -8.976
    1XTA     C629002  -4.327  25.008  -9.012
    1XTA     C729003  -4.381  24.890  -9.079
    1XTA     C829004  -4.523  24.880  -9.099
    1XTA     C929005  -4.607  24.991  -9.069
    1XTA    C1029006  -4.547  25.108  -9.014
    1XTA    CN329007  -4.364  25.228  -8.774
    1XTA    C1129008  -4.490  25.214  -8.709
    1XTA    C1229009  -4.502  25.215  -8.573
    1XTA    C1329010  -4.387  25.256  -8.497
    1XTA    C1429011  -4.263  25.284  -8.564
    1XTA    C1529012  -4.249  25.260  -8.700
    1XTA     H129013  -4.459  25.477  -8.863
    1XTA     H229014  -4.410  25.676  -8.999
    1XTA     H329015  -4.185  25.429  -9.268
    1XTA     H429016  -4.225  25.230  -9.133
    1XTA     H529017  -4.223  25.007  -9.005
    1XTA     H629018  -4.325  24.804  -9.095
    1XTA     H729019  -4.712  24.989  -9.100
    1XTA     H829020  -4.603  25.197  -8.998
    1XTA     H929021  -4.580  25.183  -8.765
    1XTA    H1029022  -4.593  25.189  -8.523
    1XTA    H1129023  -4.182  25.321  -8.513
    1XTA    H1229024  -4.149  25.263  -8.740
    1XTA    OA129025  -4.258  25.682  -9.210
    1XTA    CO129026  -4.149  25.673  -9.310
    1XTA    OA229027  -4.561  24.758  -9.138
    1XTA    CO229028  -4.682  24.728  -9.099
    1XTA    CL129029  -4.719  24.577  -9.120
    1XTA    CL229030  -4.861  24.535  -9.075
    1XTA    CL329031  -4.877  24.485  -8.936
    1XTA    CL429032  -4.932  24.585  -8.838
    1XTA    CO329033  -4.922  24.549  -8.689
    1XTA    OA329034  -4.958  24.651  -8.595
    1XTA    CO429035  -4.916  24.635  -8.462
    1XTA    CT129036  -4.967  24.737  -8.358
    1XTA    CL529037  -4.928  24.700  -8.212
    1XTA    CL629038  -4.798  24.609  -8.196
    1XTA    OA429039  -4.388  25.262  -8.357
    1XTA    CO529040  -4.511  25.252  -8.293
    1XTA    HL129041  -4.488  25.243  -8.190
    1XTA    HL229042  -4.129  25.774  -9.330
    1XTA    HL329043  -4.057  25.623  -9.277
    1XTA    HL429044  -4.170  25.623  -9.403
    1XTA    HL529045  -4.682  24.752  -8.988
    1XTA    HL629046  -4.757  24.787  -9.151
    1XTA    HL729047  -4.652  24.500  -9.081
    1XTA    HL829048  -4.717  24.579  -9.227
    1XTA    HL929049  -4.888  24.452  -9.142
    1XTA   HL1029050  -4.937  24.617  -9.093
    1XTA   HL1129051  -4.936  24.395  -8.936
    1XTA   HL1229052  -4.778  24.447  -8.921
    1XTA   HL1329053  -5.038  24.607  -8.852
    1XTA   HL1429054  -4.886  24.685  -8.861
    1XTA   HL1529055  -4.980  24.461  -8.662
    1XTA   HL1629056  -4.817  24.525  -8.676
    1XTA   HL1729057  -4.948  24.534  -8.426
    1XTA   HL1829058  -4.804  24.636  -8.459
    1XTA   HL1929059  -5.017  24.652  -8.167
    1XTA   HL2029060  -4.932  24.789  -8.154
    1XTA   HL2129061  -4.710  24.653  -8.245
    1XTA   HL2229062  -4.799  24.513  -8.251
    1XTA   HL2329063  -4.769  24.612  -8.094
    1XTA   HL2429064  -4.573  25.178  -8.334
    1XTA   HL2529065  -4.575  25.340  -8.308
    1XTA    CO829066  -5.119  24.765  -8.357
    1XTA    CO929067  -4.908  24.874  -8.385
    1XTA    OA629068  -4.940  24.968  -8.285
    1XTA   HL4229069  -5.171  24.673  -8.330
    1XTA   HL4329070  -5.136  24.843  -8.282
    1XTA   HL4829071  -4.923  24.912  -8.487
    1XTA   HL4929072  -4.804  24.870  -8.373
    1XTA     NT29073  -6.378  28.893  -9.414
    1XTA    CN129074  -6.485  28.877  -9.337
    1XTA     C129075  -6.603  28.811  -9.391
    1XTA     C229076  -6.715  28.792  -9.307
    1XTA     C329077  -6.717  28.854  -9.183
    1XTA     C429078  -6.600  28.918  -9.129
    1XTA     C529079  -6.487  28.926  -9.204
    1XTA    CN229080  -6.292  28.791  -9.437
    1XTA     C629081  -6.289  28.728  -9.565
    1XTA     C729082  -6.182  28.641  -9.598
    1XTA     C829083  -6.096  28.606  -9.498
    1XTA     C929084  -6.105  28.653  -9.366
    1XTA    C1029085  -6.204  28.746  -9.335
    1XTA    CN329086  -6.345  29.014  -9.465
    1XTA    C1129087  -6.208  29.061  -9.454
    1XTA    C1229088  -6.179  29.190  -9.507
    1XTA    C1329089  -6.282  29.267  -9.564
    1XTA    C1429090  -6.410  29.211  -9.591
    1XTA    C1529091  -6.443  29.080  -9.547
    1XTA     H129092  -6.591  28.766  -9.488
    1XTA     H229093  -6.801  28.747  -9.356
    1XTA     H329094  -6.610  28.963  -9.037
    1XTA     H429095  -6.404  28.981  -9.165
    1XTA     H529096  -6.363  28.754  -9.640
    1XTA     H629097  -6.177  28.586  -9.691
    1XTA     H729098  -6.041  28.610  -9.288
    1XTA     H829099  -6.222  28.781  -9.234
    1XTA     H929100  -6.133  29.008  -9.395
    1XTA    H1029101  -6.091  29.238  -9.484
    1XTA    H1129102  -6.482  29.272  -9.639
    1XTA    H1229103  -6.548  29.044  -9.549
    1XTA    OA129104  -6.820  28.857  -9.096
    1XTA    CO129105  -6.944  28.802  -9.140
    1XTA    OA229106  -5.998  28.516  -9.532
    1XTA    CO229107  -5.948  28.429  -9.433
    1XTA    CL129108  -5.805  28.455  -9.363
    1XTA    CL229109  -5.790  28.580  -9.281
    1XTA    CL329110  -5.645  28.621  -9.235
    1XTA    CL429111  -5.655  28.752  -9.161
    1XTA    CO329112  -5.652  28.879  -9.246
    1XTA    OA329113  -5.523  28.891  -9.300
    1XTA    CO429114  -5.521  29.022  -9.364
    1XTA    CT129115  -5.380  29.057  -9.426
    1XTA    CL529116  -5.400  29.106  -9.572
    1XTA    CL629117  -5.490  29.231  -9.594
    1XTA    OA429118  -6.251  29.401  -9.602
    1XTA    CO529119  -6.352  29.493  -9.630
    1XTA    HL129120  -6.404  29.458  -9.719
    1XTA    HL229121  -7.028  28.820  -9.071
    1XTA    HL329122  -6.967  28.855  -9.235
    1XTA    HL429123  -6.935  28.699  -9.171
    1XTA    HL529124  -6.014  28.409  -9.352
    1XTA    HL629125  -5.928  28.340  -9.489
    1XTA    HL729126  -5.732  28.458  -9.440
    1XTA    HL829127  -5.782  28.369  -9.303
    1XTA    HL929128  -5.857  28.568  -9.196
    1XTA   HL1029129  -5.828  28.656  -9.343
    1XTA   HL1129130  -5.607  28.546  -9.179
    1XTA   HL1229131  -5.579  28.627  -9.327
    1XTA   HL1329132  -5.565  28.750  -9.104
    1XTA   HL1429133  -5.744  28.747  -9.106
    1XTA   HL1529134  -5.713  28.870  -9.330
    1XTA   HL1629135  -5.685  28.961  -9.184
    1XTA   HL1729136  -5.582  29.008  -9.450
    1XTA   HL1829137  -5.566  29.105  -9.302
    1XTA   HL1929138  -5.453  29.024  -9.619
    1XTA   HL2029139  -5.310  29.114  -9.619
    1XTA   HL2129140  -5.500  29.250  -9.700
    1XTA   HL2229141  -5.456  29.312  -9.533
    1XTA   HL2329142  -5.591  29.201  -9.561
    1XTA   HL2429143  -6.307  29.593  -9.647
    1XTA   HL2529144  -6.417  29.505  -9.552
    1XTA    CO829145  -5.290  28.938  -9.425
    1XTA    CO929146  -5.308  29.166  -9.340
    1XTA    OA629147  -5.314  29.129  -9.234
    1XTA   HL4229148  -5.350  28.847  -9.454
    1XTA   HL4329149  -5.256  28.910  -9.299
    1XTA   HL4829150  -5.378  29.256  -9.348
    1XTA   HL4929151  -5.203  29.193  -9.366
    1XTA     NT29152  -3.593  26.783  -9.559
    1XTA    CN129153  -3.724  26.808  -9.538
    1XTA     C129154  -3.813  26.846  -9.640
    1XTA     C229155  -3.954  26.855  -9.625
    1XTA     C329156  -4.001  26.811  -9.495
    1XTA     C429157  -3.915  26.761  -9.395
    1XTA     C529158  -3.776  26.765  -9.413
    1XTA    CN229159  -3.549  26.666  -9.614
    1XTA     C629160  -3.557  26.641  -9.749
    1XTA     C729161  -3.526  26.516  -9.799
    1XTA     C829162  -3.457  26.418  -9.724
    1XTA     C929163  -3.446  26.443  -9.586
    1XTA    C1029164  -3.495  26.562  -9.533
    1XTA    CN329165  -3.499  26.876  -9.527
    1XTA    C1129166  -3.453  26.973  -9.624
    1XTA    C1229167  -3.349  27.059  -9.601
    1XTA    C1329168  -3.276  27.044  -9.482
    1XTA    C1429169  -3.328  26.959  -9.383
    1XTA    C1529170  -3.446  26.883  -9.402
    1XTA     H129171  -3.764  26.882  -9.732
    1XTA     H229172  -4.024  26.870  -9.708
    1XTA     H329173  -3.950  26.726  -9.309
    1XTA     H429174  -3.712  26.722  -9.334
    1XTA     H529175  -3.579  26.725  -9.808
    1XTA     H629176  -3.533  26.504  -9.906
    1XTA     H729177  -3.403  26.367  -9.521
    1XTA     H829178  -3.481  26.579  -9.422
    1XTA     H929179  -3.504  26.970  -9.715
    1XTA    H1029180  -3.325  27.128  -9.682
    1XTA    H1129181  -3.264  26.955  -9.294
    1XTA    H1229182  -3.487  26.825  -9.318
    1XTA    OA129183  -4.128  26.796  -9.458
    1XTA    CO129184  -4.217  26.788  -9.569
    1XTA    OA229185  -3.417  26.299  -9.773
    1XTA    CO229186  -3.350  26.307  -9.898
    1XTA    CL129187  -3.434  26.220  -9.994
    1XTA    CL229188  -3.402  26.075  -9.964
    1XTA    CL329189  -3.283  26.011 -10.031
    1XTA    CL429190  -3.252  25.868 -10.001
    1XTA    CO329191  -3.368  25.783 -10.049
    1XTA    OA329192  -3.394  25.802 -10.185
    1XTA    CO429193  -3.450  25.679 -10.238
    1XTA    CT129194  -3.482  25.692 -10.386
    1XTA    CL529195  -3.366  25.744 -10.472
    1XTA    CL629196  -3.403  25.766 -10.620
    1XTA    OA429197  -3.164  27.126  -9.455
    1XTA    CO529198  -3.144  27.231  -9.556
    1XTA    HL129199  -3.061  27.289  -9.522
    1XTA    HL229200  -4.314  26.745  -9.539
    1XTA    HL329201  -4.227  26.888  -9.608
    1XTA    HL429202  -4.179  26.710  -9.638
    1XTA    HL529203  -3.337  26.411  -9.941
    1XTA    HL629204  -3.249  26.265  -9.887
    1XTA    HL729205  -3.406  26.238 -10.097
    1XTA    HL829206  -3.538  26.247  -9.984
    1XTA    HL929207  -3.487  26.006  -9.982
    1XTA   HL1029208  -3.386  26.065  -9.852
    1XTA   HL1129209  -3.288  26.015 -10.141
    1XTA   HL1229210  -3.192  26.069 -10.013
    1XTA   HL1329211  -3.233  25.847  -9.894
    1XTA   HL1429212  -3.167  25.838 -10.049
    1XTA   HL1529213  -3.334  25.683 -10.035
    1XTA   HL1629214  -3.444  25.810  -9.979
    1XTA   HL1729215  -3.374  25.600 -10.220
    1XTA   HL1829216  -3.544  25.648 -10.192
    1XTA   HL1929217  -3.279  25.677 -10.466
    1XTA   HL2029218  -3.329  25.841 -10.430
    1XTA   HL2129219  -3.476  25.845 -10.650
    1XTA   HL2229220  -3.433  25.670 -10.673
    1XTA   HL2329221  -3.308  25.798 -10.664
    1XTA   HL2429222  -3.225  27.301  -9.572
    1XTA   HL2529223  -3.108  27.187  -9.646
    1XTA    CO829224  -3.600  25.790 -10.393
    1XTA    CO929225  -3.533  25.557 -10.442
    1XTA    OA629226  -3.560  25.464 -10.339
    1XTA   HL4229227  -3.669  25.757 -10.319
    1XTA   HL4329228  -3.565  25.887 -10.357
    1XTA   HL4829229  -3.465  25.505 -10.512
    1XTA   HL4929230  -3.628  25.575 -10.502
    1XTA     NT29231  -3.422  26.335  -6.851
    1XTA    CN129232  -3.437  26.255  -6.743
    1XTA     C129233  -3.466  26.118  -6.753
    1XTA     C229234  -3.487  26.038  -6.641
    1XTA     C329235  -3.467  26.095  -6.512
    1XTA     C429236  -3.410  26.226  -6.499
    1XTA     C529237  -3.402  26.305  -6.614
    1XTA    CN229238  -3.311  26.316  -6.927
    1XTA     C629239  -3.186  26.368  -6.893
    1XTA     C729240  -3.071  26.344  -6.976
    1XTA     C829241  -3.091  26.274  -7.098
    1XTA     C929242  -3.219  26.238  -7.140
    1XTA    C1029243  -3.334  26.259  -7.058
    1XTA    CN329244  -3.509  26.435  -6.886
    1XTA    C1129245  -3.486  26.568  -6.849
    1XTA    C1229246  -3.572  26.676  -6.891
    1XTA    C1329247  -3.677  26.635  -6.980
    1XTA    C1429248  -3.695  26.500  -7.019
    1XTA    C1529249  -3.609  26.398  -6.979
    1XTA     H129250  -3.478  26.080  -6.855
    1XTA     H229251  -3.505  25.934  -6.652
    1XTA     H329252  -3.379  26.279  -6.411
    1XTA     H429253  -3.374  26.403  -6.612
    1XTA     H529254  -3.173  26.405  -6.795
    1XTA     H629255  -2.981  26.392  -6.933
    1XTA     H729256  -3.229  26.185  -7.233
    1XTA     H829257  -3.432  26.228  -7.102
    1XTA     H929258  -3.405  26.594  -6.780
    1XTA    H1029259  -3.572  26.786  -6.858
    1XTA    H1129260  -3.779  26.469  -7.075
    1XTA    H1229261  -3.623  26.295  -7.020
    1XTA    OA129262  -3.477  26.011  -6.401
    1XTA    CO129263  -3.447  26.063  -6.273
    1XTA    OA229264  -2.981  26.249  -7.181
    1XTA    CO229265  -2.851  26.273  -7.132
    1XTA    CL129266  -2.741  26.255  -7.234
    1XTA    CL229267  -2.599  26.290  -7.187
    1XTA    CL329268  -2.555  26.224  -7.057
    1XTA    CL429269  -2.587  26.295  -6.927
    1XTA    CO329270  -2.587  26.211  -6.806
    1XTA    OA329271  -2.586  26.280  -6.689
    1XTA    CO429272  -2.609  26.187  -6.585
    1XTA    CT129273  -2.538  26.227  -6.451
    1XTA    CL529274  -2.385  26.211  -6.458
    1XTA    CL629275  -2.311  26.263  -6.335
    1XTA    OA429276  -3.764  26.737  -7.013
    1XTA    CO529277  -3.847  26.723  -7.130
    1XTA    HL129278  -3.898  26.818  -7.122
    1XTA    HL229279  -3.509  26.150  -6.254
    1XTA    HL329280  -3.469  25.991  -6.189
    1XTA    HL429281  -3.341  26.095  -6.266
    1XTA    HL529282  -2.866  26.375  -7.118
    1XTA    HL629283  -2.821  26.220  -7.047
    1XTA    HL729284  -2.775  26.303  -7.328
    1XTA    HL829285  -2.734  26.147  -7.262
    1XTA    HL929286  -2.598  26.404  -7.172
    1XTA   HL1029287  -2.546  26.258  -7.270
    1XTA   HL1129288  -2.600  26.126  -7.041
    1XTA   HL1229289  -2.449  26.203  -7.059
    1XTA   HL1329290  -2.686  26.341  -6.929
    1XTA   HL1429291  -2.518  26.375  -6.917
    1XTA   HL1529292  -2.663  26.129  -6.819
    1XTA   HL1629293  -2.495  26.154  -6.806
    1XTA   HL1729294  -2.713  26.178  -6.577
    1XTA   HL1829295  -2.578  26.084  -6.598
    1XTA   HL1929296  -2.347  26.272  -6.544
    1XTA   HL2029297  -2.347  26.112  -6.472
    1XTA   HL2129298  -2.209  26.240  -6.362
    1XTA   HL2229299  -2.340  26.195  -6.261
    1XTA   HL2329300  -2.335  26.370  -6.317
    1XTA   HL2429301  -3.915  26.648  -7.113
    1XTA   HL2529302  -3.794  26.722  -7.228
    1XTA    CO829303  -2.604  26.168  -6.343
    1XTA    CO929304  -2.592  26.365  -6.413
    1XTA    OA629305  -2.633  26.265  -6.292
    1XTA   HL4229306  -2.531  26.125  -6.277
    1XTA   HL4329307  -2.692  26.114  -6.362
    1XTA   HL4829308  -2.703  26.423  -6.479
    1XTA   HL4929309  -2.512  26.442  -6.396
    1XTA     NT29310  -3.080  29.650  -8.194
    1XTA    CN129311  -3.167  29.602  -8.283
    1XTA     C129312  -3.240  29.690  -8.369
    1XTA     C229313  -3.350  29.646  -8.446
    1XTA     C329314  -3.394  29.513  -8.438
    1XTA     C429315  -3.317  29.427  -8.359
    1XTA     C529316  -3.207  29.468  -8.281
    1XTA    CN229317  -3.125  29.684  -8.069
    1XTA     C629318  -3.232  29.773  -8.051
    1XTA     C729319  -3.273  29.811  -7.922
    1XTA     C829320  -3.212  29.763  -7.804
    1XTA     C929321  -3.103  29.679  -7.823
    1XTA    C1029322  -3.066  29.642  -7.952
    1XTA    CN329323  -2.952  29.661  -8.226
    1XTA    C1129324  -2.867  29.548  -8.248
    1XTA    C1229325  -2.731  29.561  -8.283
    1XTA    C1329326  -2.672  29.692  -8.299
    1XTA    C1429327  -2.759  29.801  -8.278
    1XTA    C1529328  -2.895  29.790  -8.242
    1XTA     H129329  -3.223  29.793  -8.372
    1XTA     H229330  -3.409  29.716  -8.500
    1XTA     H329331  -3.346  29.320  -8.351
    1XTA     H429332  -3.147  29.401  -8.215
    1XTA     H529333  -3.288  29.812  -8.132
    1XTA     H629334  -3.357  29.881  -7.911
    1XTA     H729335  -3.056  29.634  -7.734
    1XTA     H829336  -2.978  29.581  -7.955
    1XTA     H929337  -2.897  29.443  -8.243
    1XTA    H1029338  -2.674  29.469  -8.276
    1XTA    H1129339  -2.723  29.908  -8.287
    1XTA    H1229340  -2.959  29.873  -8.219
    1XTA    OA129341  -3.507  29.466  -8.504
    1XTA    CO129342  -3.558  29.552  -8.604
    1XTA    OA229343  -3.249  29.815  -7.683
    1XTA    CO229344  -3.221  29.737  -7.572
    1XTA    CL129345  -3.324  29.788  -7.470
    1XTA    CL229346  -3.463  29.746  -7.502
    1XTA    CL329347  -3.524  29.785  -7.635
    1XTA    CL429348  -3.679  29.788  -7.636
    1XTA    CO329349  -3.733  29.803  -7.772
    1XTA    OA329350  -3.680  29.924  -7.816
    1XTA    CO429351  -3.727  29.952  -7.950
    1XTA    CT129352  -3.724  30.101  -7.979
    1XTA    CL529353  -3.758  30.138  -8.127
    1XTA    CL629354  -3.667  30.071  -8.236
    1XTA    OA429355  -2.541  29.712  -8.316
    1XTA    CO529356  -2.466  29.610  -8.369
    1XTA    HL129357  -2.439  29.524  -8.306
    1XTA    HL229358  -3.645  29.505  -8.648
    1XTA    HL329359  -3.596  29.643  -8.563
    1XTA    HL429360  -3.488  29.594  -8.681
    1XTA    HL529361  -3.223  29.632  -7.595
    1XTA    HL629362  -3.120  29.758  -7.544
    1XTA    HL729363  -3.325  29.900  -7.461
    1XTA    HL829364  -3.295  29.730  -7.381
    1XTA    HL929365  -3.527  29.777  -7.417
    1XTA   HL1029366  -3.466  29.638  -7.503
    1XTA   HL1129367  -3.485  29.890  -7.663
    1XTA   HL1229368  -3.484  29.737  -7.723
    1XTA   HL1329369  -3.735  29.866  -7.576
    1XTA   HL1429370  -3.701  29.687  -7.604
    1XTA   HL1529371  -3.708  29.728  -7.837
    1XTA   HL1629372  -3.840  29.806  -7.763
    1XTA   HL1729373  -3.659  29.884  -8.020
    1XTA   HL1829374  -3.831  29.912  -7.969
    1XTA   HL1929375  -3.757  30.246  -8.138
    1XTA   HL2029376  -3.861  30.109  -8.153
    1XTA   HL2129377  -3.637  30.144  -8.311
    1XTA   HL2229378  -3.719  29.979  -8.275
    1XTA   HL2329379  -3.576  30.044  -8.187
    1XTA   HL2429380  -2.378  29.642  -8.420
    1XTA   HL2529381  -2.532  29.568  -8.449
    1XTA    CO829382  -3.588  30.159  -7.937
    1XTA    CO929383  -3.833  30.165  -7.891
    1XTA    OA629384  -3.924  30.121  -7.918
    1XTA   HL4229385  -3.515  30.114  -8.008
    1XTA   HL4329386  -3.562  30.104  -7.804
    1XTA   HL4829387  -3.833  30.271  -7.918
    1XTA   HL4929388  -3.805  30.150  -7.788
    1XTA     NT29389  -1.008  25.077 -12.081
    1XTA    CN129390  -0.943  24.995 -12.000
    1XTA     C129391  -0.870  24.882 -12.043
    1XTA     C229392  -0.798  24.807 -11.946
    1XTA     C329393  -0.791  24.848 -11.809
    1XTA     C429394  -0.860  24.965 -11.761
    1XTA     C529395  -0.937  25.036 -11.858
    1XTA    CN229396  -1.142  25.085 -12.074
    1XTA     C629397  -1.211  25.001 -12.159
    1XTA     C729398  -1.348  24.993 -12.163
    1XTA     C829399  -1.419  25.067 -12.062
    1XTA     C929400  -1.351  25.153 -11.974
    1XTA    C1029401  -1.209  25.162 -11.980
    1XTA    CN329402  -0.951  25.189 -12.127
    1XTA    C1129403  -0.913  25.193 -12.264
    1XTA    C1229404  -0.865  25.310 -12.318
    1XTA    C1329405  -0.840  25.422 -12.233
    1XTA    C1429406  -0.879  25.418 -12.096
    1XTA    C1529407  -0.933  25.297 -12.039
    1XTA     H129408  -0.874  24.854 -12.147
    1XTA     H229409  -0.748  24.715 -11.979
    1XTA     H329410  -0.854  24.995 -11.657
    1XTA     H429411  -0.991  25.127 -11.829
    1XTA     H529412  -1.160  24.937 -12.231
    1XTA     H629413  -1.400  24.920 -12.224
    1XTA     H729414  -1.395  25.218 -11.900
    1XTA     H829415  -1.160  25.223 -11.907
    1XTA     H929416  -0.925  25.108 -12.335
    1XTA    H1029417  -0.850  25.327 -12.422
    1XTA    H1129418  -0.849  25.496 -12.023
    1XTA    H1229419  -0.951  25.293 -11.936
    1XTA    OA129420  -0.715  24.774 -11.715
    1XTA    CO129421  -0.609  24.700 -11.760
    1XTA    OA229422  -1.563  25.068 -12.061
    1XTA    CO229423  -1.628  25.075 -11.925
    1XTA    CL129424  -1.609  24.951 -11.843
    1XTA    CL229425  -1.652  24.940 -11.695
    1XTA    CL329426  -1.638  24.798 -11.643
    1XTA    CL429427  -1.498  24.756 -11.614
    1XTA    CO329428  -1.493  24.627 -11.537
    1XTA    OA329429  -1.584  24.537 -11.594
    1XTA    CO429430  -1.572  24.423 -11.510
    1XTA    CT129431  -1.656  24.306 -11.560
    1XTA    CL529432  -1.679  24.211 -11.441
    1XTA    CL629433  -1.565  24.127 -11.390
    1XTA    OA429434  -0.786  25.534 -12.291
    1XTA    CO529435  -0.736  25.629 -12.199
    1XTA    HL129436  -0.698  25.707 -12.258
    1XTA    HL229437  -0.637  24.624 -11.837
    1XTA    HL329438  -0.527  24.769 -11.798
    1XTA    HL429439  -0.572  24.633 -11.681
    1XTA    HL529440  -1.592  25.166 -11.862
    1XTA    HL629441  -1.732  25.071 -11.933
    1XTA    HL729442  -1.506  24.920 -11.857
    1XTA    HL829443  -1.675  24.877 -11.892
    1XTA    HL929444  -1.759  24.966 -11.671
    1XTA   HL1029445  -1.596  25.015 -11.634
    1XTA   HL1129446  -1.701  24.806 -11.548
    1XTA   HL1229447  -1.678  24.733 -11.721
    1XTA   HL1329448  -1.452  24.833 -11.555
    1XTA   HL1429449  -1.445  24.750 -11.707
    1XTA   HL1529450  -1.395  24.590 -11.540
    1XTA   HL1629451  -1.507  24.644 -11.431
    1XTA   HL1729452  -1.468  24.394 -11.509
    1XTA   HL1829453  -1.596  24.450 -11.410
    1XTA   HL1929454  -1.758  24.137 -11.487
    1XTA   HL2029455  -1.722  24.269 -11.357
    1XTA   HL2129456  -1.548  24.044 -11.449
    1XTA   HL2229457  -1.584  24.089 -11.288
    1XTA   HL2329458  -1.470  24.184 -11.375
    1XTA   HL2429459  -0.651  25.580 -12.147
    1XTA   HL2529460  -0.802  25.677 -12.124
    1XTA    CO829461  -1.577  24.230 -11.675
    1XTA    CO929462  -1.787  24.354 -11.623
    1XTA    OA629463  -1.858  24.400 -11.511
    1XTA   HL4229464  -1.474  24.228 -11.642
    1XTA   HL4329465  -1.606  24.131 -11.667
    1XTA   HL4829466  -1.841  24.278 -11.669
    1XTA   HL4929467  -1.774  24.436 -11.693
    1XTA     NT29468  -5.137  27.397  -8.357
    1XTA    CN129469  -5.029  27.312  -8.342
    1XTA     C129470  -4.904  27.355  -8.289
    1XTA     C229471  -4.797  27.264  -8.260
    1XTA     C329472  -4.821  27.131  -8.295
    1XTA     C429473  -4.949  27.083  -8.340
    1XTA     C529474  -5.049  27.177  -8.375
    1XTA    CN229475  -5.253  27.353  -8.302
    1XTA     C629476  -5.369  27.320  -8.378
    1XTA     C729477  -5.492  27.283  -8.313
    1XTA     C829478  -5.496  27.276  -8.172
    1XTA     C929479  -5.385  27.311  -8.096
    1XTA    C1029480  -5.262  27.344  -8.160
    1XTA    CN329481  -5.137  27.501  -8.438
    1XTA    C1129482  -5.193  27.628  -8.400
    1XTA    C1229483  -5.203  27.730  -8.499
    1XTA    C1329484  -5.139  27.714  -8.620
    1XTA    C1429485  -5.082  27.592  -8.648
    1XTA    C1529486  -5.079  27.479  -8.564
    1XTA     H129487  -4.900  27.459  -8.256
    1XTA     H229488  -4.701  27.299  -8.212
    1XTA     H329489  -4.960  26.975  -8.345
    1XTA     H429490  -5.138  27.143  -8.424
    1XTA     H529491  -5.367  27.333  -8.486
    1XTA     H629492  -5.580  27.260  -8.370
    1XTA     H729493  -5.386  27.302  -7.985
    1XTA     H829494  -5.174  27.375  -8.105
    1XTA     H929495  -5.238  27.645  -8.302
    1XTA    H1029496  -5.252  27.822  -8.467
    1XTA    H1129497  -5.043  27.575  -8.752
    1XTA    H1229498  -5.020  27.401  -8.604
    1XTA    OA129499  -4.731  27.040  -8.270
    1XTA    CO129500  -4.594  27.066  -8.303
    1XTA    OA229501  -5.617  27.239  -8.123
    1XTA    CO229502  -5.606  27.133  -8.030
    1XTA    CL129503  -5.591  26.992  -8.099
    1XTA    CL229504  -5.721  26.908  -8.114
    1XTA    CL329505  -5.713  26.806  -8.231
    1XTA    CL429506  -5.620  26.688  -8.215
    1XTA    CO329507  -5.659  26.577  -8.309
    1XTA    OA329508  -5.585  26.455  -8.287
    1XTA    CO429509  -5.646  26.341  -8.351
    1XTA    CT129510  -5.563  26.213  -8.363
    1XTA    CL529511  -5.514  26.179  -8.219
    1XTA    CL629512  -5.422  26.056  -8.199
    1XTA    OA429513  -5.139  27.807  -8.721
    1XTA    CO529514  -5.214  27.929  -8.699
    1XTA    HL129515  -5.319  27.895  -8.687
    1XTA    HL229516  -4.533  26.979  -8.299
    1XTA    HL329517  -4.584  27.091  -8.415
    1XTA    HL429518  -4.547  27.136  -8.233
    1XTA    HL529519  -5.520  27.150  -7.963
    1XTA    HL629520  -5.698  27.146  -7.975
    1XTA    HL729521  -5.520  26.930  -8.044
    1XTA    HL829522  -5.553  27.002  -8.195
    1XTA    HL929523  -5.807  26.968  -8.136
    1XTA   HL1029524  -5.746  26.851  -8.022
    1XTA   HL1129525  -5.806  26.773  -8.260
    1XTA   HL1229526  -5.675  26.855  -8.327
    1XTA   HL1329527  -5.637  26.642  -8.118
    1XTA   HL1429528  -5.511  26.710  -8.226
    1XTA   HL1529529  -5.766  26.547  -8.298
    1XTA   HL1629530  -5.641  26.610  -8.404
    1XTA   HL1729531  -5.735  26.326  -8.289
    1XTA   HL1829532  -5.685  26.349  -8.451
    1XTA   HL1929533  -5.600  26.150  -8.169
    1XTA   HL2029534  -5.468  26.262  -8.165
    1XTA   HL2129535  -5.326  26.066  -8.246
    1XTA   HL2229536  -5.469  25.967  -8.243
    1XTA   HL2329537  -5.412  26.038  -8.089
    1XTA   HL2429538  -5.203  27.990  -8.782
    1XTA   HL2529539  -5.177  27.986  -8.619
    1XTA    CO829540  -5.437  26.252  -8.449
    1XTA    CO929541  -5.640  26.106  -8.432
    1XTA    OA629542  -5.574  25.978  -8.449
    1XTA   HL4229543  -5.467  26.266  -8.560
    1XTA   HL4329544  -5.375  26.162  -8.454
    1XTA   HL4829545  -5.661  26.136  -8.539
    1XTA   HL4929546  -5.746  26.078  -8.407
    1XTA     NT29547  -3.192  30.200  -9.223
    1XTA    CN129548  -3.111  30.091  -9.224
    1XTA     C129549  -3.038  30.030  -9.120
    1XTA     C229550  -2.944  29.927  -9.148
    1XTA     C329551  -2.930  29.866  -9.277
    1XTA     C429552  -3.007  29.913  -9.377
    1XTA     C529553  -3.093  30.026  -9.350
    1XTA    CN229554  -3.149  30.330  -9.246
    1XTA     C629555  -3.103  30.417  -9.138
    1XTA     C729556  -3.056  30.545  -9.168
    1XTA     C829557  -3.060  30.594  -9.300
    1XTA     C929558  -3.105  30.513  -9.405
    1XTA    C1029559  -3.138  30.374  -9.377
    1XTA    CN329560  -3.326  30.180  -9.221
    1XTA    C1129561  -3.396  30.185  -9.103
    1XTA    C1229562  -3.533  30.177  -9.110
    1XTA    C1329563  -3.600  30.144  -9.228
    1XTA    C1429564  -3.530  30.138  -9.354
    1XTA    C1529565  -3.396  30.161  -9.346
    1XTA     H129566  -3.047  30.069  -9.023
    1XTA     H229567  -2.890  29.885  -9.066
    1XTA     H329568  -2.982  29.877  -9.478
    1XTA     H429569  -3.141  30.073  -9.434
    1XTA     H529570  -3.091  30.373  -9.036
    1XTA     H629571  -3.004  30.599  -9.093
    1XTA     H729572  -3.103  30.545  -9.514
    1XTA     H829573  -3.180  30.316  -9.457
    1XTA     H929574  -3.348  30.192  -9.012
    1XTA    H1029575  -3.581  30.182  -9.013
    1XTA    H1129576  -3.581  30.115  -9.445
    1XTA    H1229577  -3.341  30.169  -9.442
    1XTA    OA129578  -2.853  29.757  -9.289
    1XTA    CO129579  -2.818  29.693  -9.412
    1XTA    OA229580  -3.009  30.713  -9.333
    1XTA    CO229581  -2.919  30.776  -9.239
    1XTA    CL129582  -2.862  30.898  -9.303
    1XTA    CL229583  -2.793  30.985  -9.193
    1XTA    CL329584  -2.707  31.098  -9.240
    1XTA    CL429585  -2.783  31.185  -9.341
    1XTA    CO329586  -2.866  31.299  -9.283
    1XTA    OA329587  -2.974  31.251  -9.200
    1XTA    CO429588  -3.103  31.257  -9.256
    1XTA    CT129589  -3.209  31.208  -9.149
    1XTA    CL529590  -3.333  31.148  -9.223
    1XTA    CL629591  -3.303  31.027  -9.308
    1XTA    OA429592  -3.735  30.118  -9.229
    1XTA    CO529593  -3.808  30.099  -9.110
    1XTA    HL129594  -3.750  30.023  -9.049
    1XTA    HL229595  -2.912  29.667  -9.475
    1XTA    HL329596  -2.754  29.769  -9.464
    1XTA    HL429597  -2.758  29.605  -9.392
    1XTA    HL529598  -2.974  30.809  -9.151
    1XTA    HL629599  -2.845  30.703  -9.200
    1XTA    HL729600  -2.950  30.963  -9.341
    1XTA    HL829601  -2.804  30.882  -9.388
    1XTA    HL929602  -2.713  30.931  -9.146
    1XTA   HL1029603  -2.857  31.019  -9.115
    1XTA   HL1129604  -2.654  31.161  -9.170
    1XTA   HL1229605  -2.628  31.055  -9.300
    1XTA   HL1329606  -2.841  31.127  -9.406
    1XTA   HL1429607  -2.701  31.229  -9.409
    1XTA   HL1529608  -2.806  31.346  -9.202
    1XTA   HL1629609  -2.905  31.365  -9.365
    1XTA   HL1729610  -3.118  31.354  -9.294
    1XTA   HL1829611  -3.104  31.198  -9.354
    1XTA   HL1929612  -3.386  31.226  -9.276
    1XTA   HL2029613  -3.403  31.120  -9.148
    1XTA   HL2129614  -3.214  30.972  -9.277
    1XTA   HL2229615  -3.286  31.058  -9.410
    1XTA   HL2329616  -3.394  30.966  -9.303
    1XTA   HL2429617  -3.904  30.049  -9.128
    1XTA   HL2529618  -3.834  30.185  -9.042
    1XTA    CO829619  -3.250  31.327  -9.058
    1XTA    CO929620  -3.142  31.103  -9.061
    1XTA    OA629621  -3.218  31.067  -8.987
    1XTA   HL4229622  -3.339  31.286  -9.005
    1XTA   HL4329623  -3.160  31.361  -8.958
    1XTA   HL4829624  -3.058  31.148  -9.011
    1XTA   HL4929625  -3.100  31.027  -9.118
    1XTA     NT29626  -5.861  32.812 -10.845
    1XTA    CN129627  -5.886  32.895 -10.736
    1XTA     C129628  -5.834  32.849 -10.613
    1XTA     C229629  -5.863  32.924 -10.493
    1XTA     C329630  -5.951  33.037 -10.501
    1XTA     C429631  -5.995  33.084 -10.626
    1XTA     C529632  -5.965  33.008 -10.741
    1XTA    CN229633  -5.953  32.715 -10.887
    1XTA     C629634  -6.058  32.738 -10.981
    1XTA     C729635  -6.146  32.637 -11.027
    1XTA     C829636  -6.138  32.510 -10.970
    1XTA     C929637  -6.034  32.483 -10.872
    1XTA    C1029638  -5.940  32.581 -10.837
    1XTA    CN329639  -5.756  32.847 -10.924
    1XTA    C1129640  -5.627  32.842 -10.868
    1XTA    C1229641  -5.516  32.901 -10.935
    1XTA    C1329642  -5.537  32.967 -11.057
    1XTA    C1429643  -5.667  32.971 -11.114
    1XTA    C1529644  -5.772  32.908 -11.048
    1XTA     H129645  -5.753  32.770 -10.613
    1XTA     H229646  -5.825  32.882 -10.402
    1XTA     H329647  -6.046  33.177 -10.631
    1XTA     H429648  -6.000  33.046 -10.834
    1XTA     H529649  -6.078  32.839 -11.026
    1XTA     H629650  -6.222  32.645 -11.102
    1XTA     H729651  -6.020  32.392 -10.819
    1XTA     H829652  -5.859  32.567 -10.760
    1XTA     H929653  -5.617  32.785 -10.772
    1XTA    H1029654  -5.416  32.897 -10.890
    1XTA    H1129655  -5.683  33.035 -11.197
    1XTA    H1229656  -5.868  32.931 -11.077
    1XTA    OA129657  -6.000  33.077 -10.383
    1XTA    CO129658  -6.073  33.199 -10.377
    1XTA    OA229659  -6.217  32.405 -11.013
    1XTA    CO229660  -6.230  32.281 -10.942
    1XTA    CL129661  -6.146  32.167 -10.992
    1XTA    CL229662  -6.152  32.041 -10.913
    1XTA    CL329663  -6.051  31.938 -10.964
    1XTA    CL429664  -6.092  31.803 -10.922
    1XTA    CO329665  -6.092  31.774 -10.775
    1XTA    OA329666  -5.966  31.783 -10.713
    1XTA    CO429667  -5.979  31.759 -10.571
    1XTA    CT129668  -5.844  31.717 -10.513
    1XTA    CL529669  -5.748  31.842 -10.491
    1XTA    CL629670  -5.599  31.819 -10.452
    1XTA    OA429671  -5.442  33.035 -11.136
    1XTA    CO529672  -5.318  33.058 -11.077
    1XTA    HL129673  -5.265  32.972 -11.051
    1XTA    HL229674  -6.137  33.200 -10.288
    1XTA    HL329675  -6.004  33.288 -10.385
    1XTA    HL429676  -6.151  33.205 -10.454
    1XTA    HL529677  -6.219  32.304 -10.836
    1XTA    HL629678  -6.340  32.260 -10.959
    1XTA    HL729679  -6.040  32.189 -10.996
    1XTA    HL829680  -6.183  32.151 -11.091
    1XTA    HL929681  -6.257  32.012 -10.916
    1XTA   HL1029682  -6.137  32.067 -10.815
    1XTA   HL1129683  -6.062  31.947 -11.076
    1XTA   HL1229684  -5.949  31.951 -10.925
    1XTA   HL1329685  -6.022  31.738 -10.971
    1XTA   HL1429686  -6.193  31.771 -10.958
    1XTA   HL1529687  -6.153  31.854 -10.734
    1XTA   HL1629688  -6.139  31.682 -10.757
    1XTA   HL1729689  -6.026  31.843 -10.522
    1XTA   HL1829690  -6.058  31.681 -10.562
    1XTA   HL1929691  -5.794  31.912 -10.427
    1XTA   HL2029692  -5.749  31.889 -10.584
    1XTA   HL2129693  -5.595  31.756 -10.361
    1XTA   HL2229694  -5.543  31.910 -10.421
    1XTA   HL2329695  -5.548  31.774 -10.533
    1XTA   HL2429696  -5.321  33.138 -11.002
    1XTA   HL2529697  -5.263  33.105 -11.160
    1XTA    CO829698  -5.772  31.602 -10.600
    1XTA    CO929699  -5.875  31.646 -10.382
    1XTA    OA629700  -5.667  31.542 -10.530
    1XTA   HL4229701  -5.736  31.648 -10.689
    1XTA   HL4329702  -5.839  31.515 -10.625
    1XTA   HL4829703  -5.794  31.608 -10.320
    1XTA   HL4929704  -5.937  31.555 -10.406
    1XTA     NT29705  -3.472  27.328  -4.551
    1XTA    CN129706  -3.506  27.207  -4.502
    1XTA     C129707  -3.530  27.185  -4.368
    1XTA     C229708  -3.560  27.057  -4.326
    1XTA     C329709  -3.561  26.949  -4.414
    1XTA     C429710  -3.542  26.972  -4.550
    1XTA     C529711  -3.525  27.101  -4.595
    1XTA    CN229712  -3.544  27.436  -4.509
    1XTA     C629713  -3.484  27.545  -4.441
    1XTA     C729714  -3.560  27.644  -4.387
    1XTA     C829715  -3.699  27.646  -4.415
    1XTA     C929716  -3.757  27.548  -4.502
    1XTA    C1029717  -3.683  27.439  -4.544
    1XTA    CN329718  -3.368  27.341  -4.631
    1XTA    C1129719  -3.248  27.267  -4.620
    1XTA    C1229720  -3.143  27.280  -4.716
    1XTA    C1329721  -3.160  27.364  -4.823
    1XTA    C1429722  -3.282  27.439  -4.836
    1XTA    C1529723  -3.385  27.424  -4.738
    1XTA     H129724  -3.526  27.259  -4.292
    1XTA     H229725  -3.595  27.054  -4.217
    1XTA     H329726  -3.558  26.894  -4.628
    1XTA     H429727  -3.520  27.127  -4.695
    1XTA     H529728  -3.382  27.531  -4.423
    1XTA     H629729  -3.514  27.724  -4.340
    1XTA     H729730  -3.865  27.562  -4.516
    1XTA     H829731  -3.726  27.360  -4.605
    1XTA     H929732  -3.240  27.193  -4.535
    1XTA    H1029733  -3.061  27.208  -4.693
    1XTA    H1129734  -3.308  27.501  -4.926
    1XTA    H1229735  -3.482  27.469  -4.755
    1XTA    OA129736  -3.605  26.825  -4.376
    1XTA    CO129737  -3.623  26.806  -4.234
    1XTA    OA229738  -3.785  27.737  -4.369
    1XTA    CO229739  -3.745  27.820  -4.263
    1XTA    CL129740  -3.868  27.893  -4.222
    1XTA    CL229741  -3.930  27.985  -4.329
    1XTA    CL329742  -4.065  28.035  -4.287
    1XTA    CL429743  -4.099  28.183  -4.328
    1XTA    CO329744  -4.073  28.222  -4.476
    1XTA    OA329745  -4.163  28.157  -4.563
    1XTA    CO429746  -4.140  28.196  -4.696
    1XTA    CT129747  -4.192  28.077  -4.780
    1XTA    CL529748  -4.134  27.936  -4.739
    1XTA    CL629749  -4.172  27.816  -4.815
    1XTA    OA429750  -3.056  27.367  -4.914
    1XTA    CO529751  -3.052  27.484  -4.994
    1XTA    HL129752  -2.977  27.478  -5.076
    1XTA    HL229753  -3.674  26.706  -4.231
    1XTA    HL329754  -3.534  26.807  -4.173
    1XTA    HL429755  -3.690  26.883  -4.189
    1XTA    HL529756  -3.717  27.755  -4.180
    1XTA    HL629757  -3.666  27.894  -4.284
    1XTA    HL729758  -3.866  27.953  -4.128
    1XTA    HL829759  -3.939  27.808  -4.193
    1XTA    HL929760  -3.931  27.942  -4.425
    1XTA   HL1029761  -3.874  28.077  -4.346
    1XTA   HL1129762  -4.142  27.962  -4.329
    1XTA   HL1229763  -4.074  28.047  -4.179
    1XTA   HL1329764  -4.035  28.259  -4.278
    1XTA   HL1429765  -4.200  28.206  -4.298
    1XTA   HL1529766  -4.091  28.328  -4.493
    1XTA   HL1629767  -3.971  28.191  -4.510
    1XTA   HL1729768  -4.185  28.290  -4.712
    1XTA   HL1829769  -4.030  28.201  -4.697
    1XTA   HL1929770  -4.161  27.928  -4.636
    1XTA   HL2029771  -4.023  27.951  -4.740
    1XTA   HL2129772  -4.275  27.797  -4.819
    1XTA   HL2229773  -4.123  27.732  -4.759
    1XTA   HL2329774  -4.137  27.820  -4.915
    1XTA   HL2429775  -3.029  27.562  -4.920
    1XTA   HL2529776  -3.139  27.517  -5.052
    1XTA    CO829777  -4.162  28.110  -4.928
    1XTA    CO929778  -4.346  28.079  -4.773
    1XTA    OA629779  -4.066  28.156  -4.955
    1XTA   HL4229780  -4.242  28.177  -4.949
    1XTA   HL4329781  -4.186  28.017  -4.991
    1XTA   HL4829782  -4.395  28.002  -4.660
    1XTA   HL4929783  -4.389  28.024  -4.859
    1XTA     NT29784  -2.033  24.218  -8.916
    1XTA    CN129785  -1.922  24.153  -8.889
    1XTA     C129786  -1.840  24.093  -8.989
    1XTA     C229787  -1.719  24.022  -8.951
    1XTA     C329788  -1.681  23.998  -8.817
    1XTA     C429789  -1.765  24.059  -8.721
    1XTA     C529790  -1.879  24.139  -8.752
    1XTA    CN229791  -2.030  24.299  -9.025
    1XTA     C629792  -1.941  24.408  -9.012
    1XTA     C729793  -1.936  24.504  -9.116
    1XTA     C829794  -1.997  24.488  -9.240
    1XTA     C929795  -2.087  24.380  -9.256
    1XTA    C1029796  -2.097  24.286  -9.149
    1XTA    CN329797  -2.152  24.195  -8.854
    1XTA    C1129798  -2.187  24.267  -8.742
    1XTA    C1229799  -2.311  24.248  -8.675
    1XTA    C1329800  -2.405  24.157  -8.727
    1XTA    C1429801  -2.370  24.079  -8.843
    1XTA    C1529802  -2.252  24.111  -8.916
    1XTA     H129803  -1.872  24.102  -9.094
    1XTA     H229804  -1.658  23.989  -9.031
    1XTA     H329805  -1.748  24.048  -8.618
    1XTA     H429806  -1.942  24.178  -8.671
    1XTA     H529807  -1.873  24.420  -8.926
    1XTA     H629808  -1.879  24.591  -9.100
    1XTA     H729809  -2.126  24.365  -9.360
    1XTA     H829810  -2.159  24.206  -9.163
    1XTA     H929811  -2.118  24.340  -8.702
    1XTA    H1029812  -2.333  24.308  -8.587
    1XTA    H1129813  -2.438  24.001  -8.883
    1XTA    H1229814  -2.227  24.054  -9.007
    1XTA    OA129815  -1.566  23.931  -8.793
    1XTA    CO129816  -1.525  23.877  -8.672
    1XTA    OA229817  -1.966  24.569  -9.346
    1XTA    CO229818  -1.877  24.513  -9.433
    1XTA    CL129819  -1.800  24.610  -9.517
    1XTA    CL229820  -1.679  24.650  -9.434
    1XTA    CL329821  -1.574  24.738  -9.506
    1XTA    CL429822  -1.551  24.691  -9.651
    1XTA    CO329823  -1.429  24.767  -9.706
    1XTA    OA329824  -1.313  24.719  -9.641
    1XTA    CO429825  -1.268  24.598  -9.711
    1XTA    CT129826  -1.137  24.555  -9.645
    1XTA    CL529827  -1.155  24.498  -9.503
    1XTA    CL629828  -1.172  24.595  -9.387
    1XTA    OA429829  -2.527  24.139  -8.674
    1XTA    CO529830  -2.550  24.185  -8.536
    1XTA    HL129831  -2.546  24.306  -8.536
    1XTA    HL229832  -1.497  23.960  -8.599
    1XTA    HL329833  -1.591  23.804  -8.621
    1XTA    HL429834  -1.427  23.828  -8.688
    1XTA    HL529835  -1.803  24.451  -9.381
    1XTA    HL629836  -1.935  24.448  -9.504
    1XTA    HL729837  -1.861  24.693  -9.555
    1XTA    HL829838  -1.776  24.546  -9.598
    1XTA    HL929839  -1.625  24.565  -9.398
    1XTA   HL1029840  -1.717  24.698  -9.344
    1XTA   HL1129841  -1.617  24.839  -9.527
    1XTA   HL1229842  -1.482  24.746  -9.452
    1XTA   HL1329843  -1.636  24.707  -9.714
    1XTA   HL1429844  -1.534  24.586  -9.649
    1XTA   HL1529845  -1.422  24.746  -9.808
    1XTA   HL1629846  -1.427  24.870  -9.690
    1XTA   HL1729847  -1.336  24.517  -9.727
    1XTA   HL1829848  -1.246  24.631  -9.814
    1XTA   HL1929849  -1.068  24.437  -9.481
    1XTA   HL2029850  -1.232  24.423  -9.500
    1XTA   HL2129851  -1.188  24.538  -9.296
    1XTA   HL2229852  -1.257  24.667  -9.391
    1XTA   HL2329853  -1.081  24.648  -9.376
    1XTA   HL2429854  -2.472  24.128  -8.475
    1XTA   HL2529855  -2.653  24.170  -8.499
    1XTA    CO829856  -1.036  24.677  -9.642
    1XTA    CO929857  -1.077  24.456  -9.759
    1XTA    OA629858  -1.141  24.373  -9.779
    1XTA   HL4229859  -1.033  24.727  -9.737
    1XTA   HL4329860  -1.076  24.775  -9.556
    1XTA   HL4829861  -0.980  24.407  -9.722
    1XTA   HL4929862  -1.054  24.518  -9.851
    1XTA     NT29863  -4.865  27.084  -8.820
    1XTA    CN129864  -4.882  26.958  -8.789
    1XTA     C129865  -4.895  26.917  -8.654
    1XTA     C229866  -4.911  26.782  -8.622
    1XTA     C329867  -4.902  26.692  -8.724
    1XTA     C429868  -4.908  26.729  -8.863
    1XTA     C529869  -4.897  26.864  -8.891
    1XTA    CN229870  -4.746  27.135  -8.778
    1XTA     C629871  -4.743  27.246  -8.688
    1XTA     C729872  -4.617  27.288  -8.626
    1XTA     C829873  -4.496  27.225  -8.661
    1XTA     C929874  -4.496  27.119  -8.752
    1XTA    C1029875  -4.622  27.077  -8.812
    1XTA    CN329876  -4.965  27.155  -8.878
    1XTA    C1129877  -4.978  27.186  -9.014
    1XTA    C1229878  -5.081  27.267  -9.061
    1XTA    C1329879  -5.177  27.313  -8.968
    1XTA    C1429880  -5.172  27.272  -8.832
    1XTA    C1529881  -5.062  27.202  -8.788
    1XTA     H129882  -4.894  26.988  -8.574
    1XTA     H229883  -4.924  26.746  -8.518
    1XTA     H329884  -4.917  26.654  -8.944
    1XTA     H429885  -4.888  26.891  -8.997
    1XTA     H529886  -4.831  27.301  -8.662
    1XTA     H629887  -4.613  27.365  -8.549
    1XTA     H729888  -4.405  27.080  -8.786
    1XTA     H829889  -4.622  26.995  -8.884
    1XTA     H929890  -4.908  27.134  -9.083
    1XTA    H1029891  -5.092  27.291  -9.169
    1XTA    H1129892  -5.245  27.303  -8.764
    1XTA    H1229893  -5.049  27.179  -8.687
    1XTA    OA129894  -4.898  26.556  -8.707
    1XTA    CO129895  -4.802  26.510  -8.617
    1XTA    OA229896  -4.385  27.255  -8.593
    1XTA    CO229897  -4.279  27.287  -8.676
    1XTA    CL129898  -4.235  27.424  -8.627
    1XTA    CL229899  -4.316  27.531  -8.694
    1XTA    CL329900  -4.267  27.670  -8.656
    1XTA    CL429901  -4.135  27.706  -8.723
    1XTA    CO329902  -4.070  27.828  -8.659
    1XTA    OA329903  -4.067  27.803  -8.517
    1XTA    CO429904  -3.962  27.722  -8.479
    1XTA    CT129905  -3.954  27.709  -8.326
    1XTA    CL529906  -3.836  27.618  -8.291
    1XTA    CL629907  -3.817  27.596  -8.141
    1XTA    OA429908  -5.283  27.384  -9.014
    1XTA    CO529909  -5.399  27.307  -9.043
    1XTA    HL129910  -5.484  27.374  -9.031
    1XTA    HL229911  -4.710  26.525  -8.673
    1XTA    HL329912  -4.811  26.565  -8.528
    1XTA    HL429913  -4.815  26.408  -8.590
    1XTA    HL529914  -4.196  27.220  -8.660
    1XTA    HL629915  -4.289  27.279  -8.780
    1XTA    HL729916  -4.128  27.437  -8.665
    1XTA    HL829917  -4.237  27.429  -8.522
    1XTA    HL929918  -4.423  27.520  -8.665
    1XTA   HL1029919  -4.307  27.530  -8.803
    1XTA   HL1129920  -4.354  27.738  -8.663
    1XTA   HL1229921  -4.257  27.668  -8.552
    1XTA   HL1329922  -4.154  27.742  -8.825
    1XTA   HL1429923  -4.072  27.621  -8.720
    1XTA   HL1529924  -3.981  27.852  -8.712
    1XTA   HL1629925  -4.142  27.903  -8.693
    1XTA   HL1729926  -3.980  27.621  -8.517
    1XTA   HL1829927  -3.876  27.753  -8.535
    1XTA   HL1929928  -3.743  27.653  -8.331
    1XTA   HL2029929  -3.857  27.527  -8.344
    1XTA   HL2129930  -3.735  27.531  -8.114
    1XTA   HL2229931  -3.912  27.559  -8.109
    1XTA   HL2329932  -3.809  27.692  -8.089
    1XTA   HL2429933  -5.415  27.215  -8.982
    1XTA   HL2529934  -5.399  27.275  -9.149
    1XTA    CO829935  -4.096  27.656  -8.291
    1XTA    CO929936  -3.934  27.854  -8.265
    1XTA    OA629937  -4.108  27.630  -8.143
    1XTA   HL4229938  -4.123  27.568  -8.342
    1XTA   HL4329939  -4.173  27.723  -8.318
    1XTA   HL4829940  -4.033  27.910  -8.259
    1XTA   HL4929941  -3.910  27.848  -8.162
    1XTA     NT29942  -5.008  31.415  -4.318
    1XTA    CN129943  -4.946  31.533  -4.339
    1XTA     C129944  -4.802  31.548  -4.318
    1XTA     C229945  -4.742  31.671  -4.342
    1XTA     C329946  -4.819  31.781  -4.373
    1XTA     C429947  -4.958  31.772  -4.385
    1XTA     C529948  -5.023  31.645  -4.366
    1XTA    CN229949  -4.966  31.301  -4.387
    1XTA     C629950  -4.983  31.281  -4.530
    1XTA     C729951  -4.947  31.159  -4.583
    1XTA     C829952  -4.904  31.049  -4.507
    1XTA     C929953  -4.884  31.077  -4.372
    1XTA    C1029954  -4.913  31.197  -4.311
    1XTA    CN329955  -5.117  31.406  -4.245
    1XTA    C1129956  -5.103  31.391  -4.102
    1XTA    C1229957  -5.213  31.370  -4.019
    1XTA    C1329958  -5.342  31.358  -4.085
    1XTA    C1429959  -5.354  31.368  -4.222
    1XTA    C1529960  -5.244  31.393  -4.305
    1XTA     H129961  -4.743  31.461  -4.293
    1XTA     H229962  -4.636  31.684  -4.351
    1XTA     H329963  -5.032  31.851  -4.413
    1XTA     H429964  -5.129  31.633  -4.371
    1XTA     H529965  -5.026  31.358  -4.596
    1XTA     H629966  -4.948  31.150  -4.695
    1XTA     H729967  -4.848  30.997  -4.314
    1XTA     H829968  -4.885  31.209  -4.210
    1XTA     H929969  -5.012  31.385  -4.057
    1XTA    H1029970  -5.212  31.368  -3.914
    1XTA    H1129971  -5.447  31.352  -4.276
    1XTA    H1229972  -5.248  31.392  -4.418
    1XTA    OA129973  -4.753  31.894  -4.399
    1XTA    CO129974  -4.823  32.007  -4.457
    1XTA    OA229975  -4.877  30.928  -4.558
    1XTA    CO229976  -4.991  30.851  -4.542
    1XTA    CL129977  -4.962  30.709  -4.591
    1XTA    CL229978  -4.966  30.703  -4.736
    1XTA    CL329979  -4.884  30.594  -4.803
    1XTA    CL429980  -4.868  30.604  -4.957
    1XTA    CO329981  -4.767  30.703  -5.010
    1XTA    OA329982  -4.646  30.685  -4.939
    1XTA    CO429983  -4.538  30.755  -4.996
    1XTA    CT129984  -4.447  30.792  -4.876
    1XTA    CL529985  -4.423  30.664  -4.787
    1XTA    CL629986  -4.377  30.538  -4.863
    1XTA    OA429987  -5.451  31.350  -4.005
    1XTA    CO529988  -5.586  31.364  -4.055
    1XTA    HL129989  -5.583  31.449  -4.122
    1XTA    HL229990  -4.887  31.974  -4.541
    1XTA    HL329991  -4.889  32.051  -4.380
    1XTA    HL429992  -4.743  32.074  -4.480
    1XTA    HL529993  -5.025  30.854  -4.436
    1XTA    HL629994  -5.067  30.889  -4.607
    1XTA    HL729995  -5.037  30.638  -4.552
    1XTA    HL829996  -4.873  30.667  -4.550
    1XTA    HL929997  -4.935  30.803  -4.773
    1XTA   HL1029998  -5.072  30.704  -4.764
    1XTA   HL1129999  -4.790  30.602  -4.759
    1XTA   HL1230000  -4.927  30.491  -4.786
    1XTA   HL1330001  -4.975  30.603  -5.006
    1XTA   HL1430002  -4.836  30.506  -4.985
    1XTA   HL1530003  -4.749  30.683  -5.116
    1XTA   HL1630004  -4.812  30.800  -5.010
    1XTA   HL1730005  -4.499  30.689  -5.075
    1XTA   HL1830006  -4.575  30.847  -5.039
    1XTA   HL1930007  -4.519  30.647  -4.736
    1XTA   HL2030008  -4.353  30.682  -4.714
    1XTA   HL2130009  -4.464  30.508  -4.920
    1XTA   HL2230010  -4.360  30.452  -4.797
    1XTA   HL2330011  -4.291  30.551  -4.938
    1XTA   HL2430012  -5.661  31.388  -3.985
    1XTA   HL2530013  -5.605  31.267  -4.101
    1XTA    CO830014  -4.529  30.892  -4.792
    1XTA    CO930015  -4.314  30.861  -4.920
    1XTA    OA630016  -4.335  30.967  -4.941
    1XTA   HL4230017  -4.542  30.985  -4.854
    1XTA   HL4330018  -4.662  30.856  -4.777
    1XTA   HL4830019  -4.279  30.800  -5.001
    1XTA   HL4930020  -4.242  30.865  -4.838
    1XTA     NT30021  -1.573  24.037  -5.394
    1XTA    CN130022  -1.696  23.988  -5.432
    1XTA     C130023  -1.717  23.925  -5.557
    1XTA     C230024  -1.844  23.885  -5.599
    1XTA     C330025  -1.952  23.892  -5.512
    1XTA     C430026  -1.935  23.946  -5.385
    1XTA     C530027  -1.812  23.992  -5.344
    1XTA    CN230028  -1.566  24.163  -5.348
    1XTA     C630029  -1.653  24.269  -5.381
    1XTA     C730030  -1.628  24.398  -5.336
    1XTA     C830031  -1.522  24.424  -5.247
    1XTA     C930032  -1.437  24.322  -5.208
    1XTA    C1030033  -1.453  24.193  -5.266
    1XTA    CN330034  -1.460  23.962  -5.417
    1XTA    C1130035  -1.354  24.011  -5.496
    1XTA    C1230036  -1.242  23.926  -5.528
    1XTA    C1330037  -1.236  23.789  -5.493
    1XTA    C1430038  -1.342  23.739  -5.424
    1XTA    C1530039  -1.449  23.827  -5.374
    1XTA     H130040  -1.645  23.925  -5.638
    1XTA     H230041  -1.856  23.850  -5.706
    1XTA     H330042  -2.022  23.955  -5.314
    1XTA     H430043  -1.797  24.046  -5.249
    1XTA     H530044  -1.732  24.257  -5.451
    1XTA     H630045  -1.698  24.472  -5.374
    1XTA     H730046  -1.359  24.335  -5.132
    1XTA     H830047  -1.386  24.118  -5.228
    1XTA     H930048  -1.355  24.118  -5.524
    1XTA    H1030049  -1.159  23.976  -5.578
    1XTA    H1130050  -1.338  23.638  -5.405
    1XTA    H1230051  -1.528  23.772  -5.322
    1XTA    OA130052  -2.071  23.844  -5.545
    1XTA    CO130053  -2.073  23.727  -5.631
    1XTA    OA230054  -1.515  24.550  -5.191
    1XTA    CO230055  -1.394  24.579  -5.121
    1XTA    CL130056  -1.383  24.725  -5.095
    1XTA    CL230057  -1.499  24.765  -5.004
    1XTA    CL330058  -1.502  24.688  -4.869
    1XTA    CL430059  -1.629  24.719  -4.787
    1XTA    CO330060  -1.624  24.656  -4.651
    1XTA    OA330061  -1.618  24.510  -4.670
    1XTA    CO430062  -1.619  24.446  -4.545
    1XTA    CT130063  -1.554  24.309  -4.575
    1XTA    CL530064  -1.650  24.201  -4.640
    1XTA    CL630065  -1.681  24.238  -4.784
    1XTA    OA430066  -1.133  23.705  -5.510
    1XTA    CO530067  -1.016  23.751  -5.573
    1XTA    HL130068  -0.945  23.784  -5.501
    1XTA    HL230069  -1.995  23.658  -5.626
    1XTA    HL330070  -2.158  23.660  -5.619
    1XTA    HL430071  -2.090  23.758  -5.737
    1XTA    HL530072  -1.391  24.516  -5.029
    1XTA    HL630073  -1.307  24.552  -5.177
    1XTA    HL730074  -1.402  24.778  -5.187
    1XTA    HL830075  -1.296  24.771  -5.058
    1XTA    HL930076  -1.592  24.757  -5.060
    1XTA   HL1030077  -1.496  24.877  -4.985
    1XTA   HL1130078  -1.522  24.580  -4.889
    1XTA   HL1230079  -1.411  24.697  -4.818
    1XTA   HL1330080  -1.710  24.677  -4.846
    1XTA   HL1430081  -1.649  24.824  -4.775
    1XTA   HL1530082  -1.538  24.692  -4.595
    1XTA   HL1630083  -1.717  24.680  -4.601
    1XTA   HL1730084  -1.565  24.506  -4.473
    1XTA   HL1830085  -1.726  24.452  -4.521
    1XTA   HL1930086  -1.743  24.185  -4.583
    1XTA   HL2030087  -1.588  24.113  -4.648
    1XTA   HL2130088  -1.718  24.151  -4.842
    1XTA   HL2230089  -1.594  24.283  -4.832
    1XTA   HL2330090  -1.761  24.310  -4.799
    1XTA   HL2430091  -1.035  23.817  -5.655
    1XTA   HL2530092  -0.981  23.662  -5.631
    1XTA    CO830093  -1.515  24.260  -4.431
    1XTA    CO930094  -1.420  24.338  -4.654
    1XTA    OA630095  -1.600  24.249  -4.363
    1XTA   HL4230096  -1.452  24.330  -4.388
    1XTA   HL4330097  -1.457  24.165  -4.436
    1XTA   HL4830098  -1.331  24.433  -4.594
    1XTA   HL4930099  -1.440  24.389  -4.747
    1XTA     NT30100  -2.614  25.703  -4.627
    1XTA    CN130101  -2.511  25.733  -4.720
    1XTA     C130102  -2.490  25.864  -4.770
    1XTA     C230103  -2.391  25.893  -4.868
    1XTA     C330104  -2.301  25.795  -4.909
    1XTA     C430105  -2.317  25.665  -4.855
    1XTA     C530106  -2.422  25.636  -4.765
    1XTA    CN230107  -2.652  25.785  -4.525
    1XTA     C630108  -2.779  25.842  -4.527
    1XTA     C730109  -2.817  25.936  -4.425
    1XTA     C830110  -2.730  25.957  -4.312
    1XTA     C930111  -2.602  25.899  -4.313
    1XTA    C1030112  -2.561  25.824  -4.420
    1XTA    CN330113  -2.662  25.578  -4.614
    1XTA    C1130114  -2.725  25.519  -4.721
    1XTA    C1230115  -2.759  25.381  -4.726
    1XTA    C1330116  -2.749  25.302  -4.610
    1XTA    C1430117  -2.691  25.366  -4.496
    1XTA    C1530118  -2.655  25.501  -4.496
    1XTA     H130119  -2.565  25.937  -4.738
    1XTA     H230120  -2.397  25.995  -4.913
    1XTA     H330121  -2.253  25.586  -4.890
    1XTA     H430122  -2.435  25.542  -4.712
    1XTA     H530123  -2.855  25.806  -4.593
    1XTA     H630124  -2.907  25.994  -4.433
    1XTA     H730125  -2.534  25.914  -4.239
    1XTA     H830126  -2.460  25.787  -4.416
    1XTA     H930127  -2.725  25.575  -4.813
    1XTA    H1030128  -2.792  25.350  -4.813
    1XTA    H1130129  -2.681  25.303  -4.407
    1XTA    H1230130  -2.631  25.534  -4.397
    1XTA    OA130131  -2.202  25.804  -5.006
    1XTA    CO130132  -2.170  25.936  -5.043
    1XTA    OA230133  -2.760  26.047  -4.215
    1XTA    CO230134  -2.887  26.027  -4.160
    1XTA    CL130135  -2.907  25.897  -4.086
    1XTA    CL230136  -3.052  25.878  -4.047
    1XTA    CL330137  -3.076  25.734  -3.986
    1XTA    CL430138  -3.104  25.628  -4.092
    1XTA    CO330139  -2.985  25.561  -4.161
    1XTA    OA330140  -2.876  25.540  -4.074
    1XTA    CO430141  -2.795  25.425  -4.119
    1XTA    CT130142  -2.678  25.396  -4.022
    1XTA    CL530143  -2.571  25.304  -4.087
    1XTA    CL630144  -2.471  25.356  -4.191
    1XTA    OA430145  -2.772  25.170  -4.602
    1XTA    CO530146  -2.774  25.105  -4.726
    1XTA    HL130147  -2.857  25.138  -4.788
    1XTA    HL230148  -2.075  25.941  -5.097
    1XTA    HL330149  -2.234  25.975  -5.117
    1XTA    HL430150  -2.157  25.999  -4.955
    1XTA    HL530151  -2.903  26.110  -4.089
    1XTA    HL630152  -2.968  26.037  -4.231
    1XTA    HL730153  -2.845  25.884  -3.999
    1XTA    HL830154  -2.880  25.807  -4.145
    1XTA    HL930155  -3.120  25.904  -4.127
    1XTA   HL1030156  -3.069  25.952  -3.969
    1XTA   HL1130157  -2.995  25.697  -3.924
    1XTA   HL1230158  -3.167  25.745  -3.924
    1XTA   HL1330159  -3.151  25.674  -4.184
    1XTA   HL1430160  -3.180  25.554  -4.055
    1XTA   HL1530161  -3.018  25.476  -4.212
    1XTA   HL1630162  -2.942  25.633  -4.241
    1XTA   HL1730163  -2.851  25.338  -4.159
    1XTA   HL1830164  -2.744  25.458  -4.209
    1XTA   HL1930165  -2.618  25.212  -4.129
    1XTA   HL2030166  -2.509  25.267  -4.005
    1XTA   HL2130167  -2.533  25.418  -4.258
    1XTA   HL2230168  -2.422  25.279  -4.248
    1XTA   HL2330169  -2.403  25.424  -4.147
    1XTA   HL2430170  -2.788  24.999  -4.703
    1XTA   HL2530171  -2.682  25.111  -4.784
    1XTA    CO830172  -2.731  25.339  -3.890
    1XTA    CO930173  -2.606  25.526  -3.973
    1XTA    OA630174  -2.810  25.264  -3.911
    1XTA   HL4230175  -2.771  25.420  -3.829
    1XTA   HL4330176  -2.650  25.290  -3.840
    1XTA   HL4830177  -2.569  25.601  -4.086
    1XTA   HL4930178  -2.682  25.592  -3.923
    1XTA     NT30179  -4.651  24.411 -10.892
    1XTA    CN130180  -4.764  24.375 -10.957
    1XTA     C130181  -4.759  24.290 -11.067
    1XTA     C230182  -4.878  24.245 -11.121
    1XTA     C330183  -5.005  24.282 -11.059
    1XTA     C430184  -5.009  24.369 -10.951
    1XTA     C530185  -4.883  24.407 -10.889
    1XTA    CN230186  -4.629  24.362 -10.770
    1XTA     C630187  -4.629  24.439 -10.650
    1XTA     C730188  -4.607  24.376 -10.527
    1XTA     C830189  -4.600  24.234 -10.514
    1XTA     C930190  -4.605  24.163 -10.639
    1XTA    C1030191  -4.627  24.223 -10.762
    1XTA    CN330192  -4.559  24.488 -10.964
    1XTA    C1130193  -4.436  24.426 -10.998
    1XTA    C1230194  -4.354  24.498 -11.088
    1XTA    C1330195  -4.394  24.620 -11.145
    1XTA    C1430196  -4.510  24.690 -11.094
    1XTA    C1530197  -4.597  24.619 -11.004
    1XTA     H130198  -4.665  24.257 -11.103
    1XTA     H230199  -4.886  24.182 -11.208
    1XTA     H330200  -5.102  24.388 -10.904
    1XTA     H430201  -4.876  24.476 -10.805
    1XTA     H530202  -4.630  24.551 -10.657
    1XTA     H630203  -4.600  24.430 -10.437
    1XTA     H730204  -4.590  24.057 -10.634
    1XTA     H830205  -4.641  24.167 -10.854
    1XTA     H930206  -4.399  24.322 -10.974
    1XTA    H1030207  -4.257  24.455 -11.106
    1XTA    H1130208  -4.539  24.786 -11.136
    1XTA    H1230209  -4.693  24.659 -10.981
    1XTA    OA130210  -5.120  24.243 -11.117
    1XTA    CO130211  -5.226  24.335 -11.113
    1XTA    OA230212  -4.591  24.179 -10.389
    1XTA    CO230213  -4.614  24.041 -10.370
    1XTA    CL130214  -4.760  24.002 -10.386
    1XTA    CL230215  -4.846  24.057 -10.269
    1XTA    CL330216  -4.994  24.015 -10.274
    1XTA    CL430217  -5.076  24.061 -10.399
    1XTA    CO330218  -5.114  24.201 -10.401
    1XTA    OA330219  -5.154  24.240 -10.266
    1XTA    CO430220  -5.166  24.375 -10.243
    1XTA    CT130221  -5.239  24.404 -10.102
    1XTA    CL530222  -5.384  24.354 -10.091
    1XTA    CL630223  -5.401  24.201 -10.106
    1XTA    OA430224  -4.312  24.687 -11.227
    1XTA    CO530225  -4.255  24.615 -11.333
    1XTA    HL130226  -4.270  24.504 -11.322
    1XTA    HL230227  -5.299  24.306 -11.190
    1XTA    HL330228  -5.270  24.343 -11.013
    1XTA    HL430229  -5.177  24.433 -11.141
    1XTA    HL530230  -4.552  23.999 -10.446
    1XTA    HL630231  -4.573  24.024 -10.271
    1XTA    HL730232  -4.766  23.888 -10.387
    1XTA    HL830233  -4.804  24.028 -10.485
    1XTA    HL930234  -4.844  24.161 -10.269
    1XTA   HL1030235  -4.800  24.017 -10.179
    1XTA   HL1130236  -5.004  23.900 -10.266
    1XTA   HL1230237  -5.053  24.047 -10.189
    1XTA   HL1330238  -5.163  23.992 -10.381
    1XTA   HL1430239  -5.034  24.031 -10.493
    1XTA   HL1530240  -5.038  24.269 -10.443
    1XTA   HL1630241  -5.190  24.221 -10.474
    1XTA   HL1730242  -5.064  24.419 -10.251
    1XTA   HL1830243  -5.233  24.431 -10.310
    1XTA   HL1930244  -5.442  24.404 -10.162
    1XTA   HL2030245  -5.423  24.395 -10.000
    1XTA   HL2130246  -5.380  24.168 -10.204
    1XTA   HL2230247  -5.502  24.167 -10.081
    1XTA   HL2330248  -5.335  24.150 -10.031
    1XTA   HL2430249  -4.148  24.643 -11.356
    1XTA   HL2530250  -4.309  24.650 -11.420
    1XTA    CO830251  -5.243  24.553 -10.088
    1XTA    CO930252  -5.158  24.347  -9.981
    1XTA    OA630253  -5.271  24.606 -10.184
    1XTA   HL4230254  -5.145  24.590 -10.069
    1XTA   HL4330255  -5.304  24.578  -9.999
    1XTA   HL4830256  -5.133  24.199  -9.999
    1XTA   HL4930257  -5.218  24.355  -9.893
    1XTA     NT30258  -4.696  26.147  -8.182
    1XTA    CN130259  -4.681  26.267  -8.248
    1XTA     C130260  -4.582  26.278  -8.350
    1XTA     C230261  -4.553  26.406  -8.402
    1XTA     C330262  -4.613  26.521  -8.358
    1XTA     C430263  -4.697  26.504  -8.246
    1XTA     C530264  -4.743  26.382  -8.200
    1XTA    CN230265  -4.595  26.087  -8.113
    1XTA     C630266  -4.579  26.109  -7.976
    1XTA     C730267  -4.466  26.054  -7.908
    1XTA     C830268  -4.368  25.977  -7.978
    1XTA     C930269  -4.397  25.938  -8.113
    1XTA    C1030270  -4.509  25.993  -8.175
    1XTA    CN330271  -4.806  26.077  -8.212
    1XTA    C1130272  -4.858  25.997  -8.108
    1XTA    C1230273  -4.974  25.924  -8.133
    1XTA    C1330274  -5.055  25.937  -8.246
    1XTA    C1430275  -5.009  26.026  -8.342
    1XTA    C1530276  -4.886  26.092  -8.328
    1XTA     H130277  -4.520  26.195  -8.366
    1XTA     H230278  -4.477  26.416  -8.483
    1XTA     H330279  -4.731  26.591  -8.193
    1XTA     H430280  -4.819  26.381  -8.119
    1XTA     H530281  -4.649  26.170  -7.925
    1XTA     H630282  -4.446  26.085  -7.805
    1XTA     H730283  -4.343  25.868  -8.170
    1XTA     H830284  -4.532  25.963  -8.275
    1XTA     H930285  -4.800  25.982  -8.022
    1XTA    H1030286  -5.012  25.855  -8.062
    1XTA    H1130287  -5.058  26.025  -8.433
    1XTA    H1230288  -4.856  26.159  -8.409
    1XTA    OA130289  -4.581  26.643  -8.406
    1XTA    CO130290  -4.652  26.755  -8.364
    1XTA    OA230291  -4.258  25.932  -7.907
    1XTA    CO230292  -4.177  25.842  -7.980
    1XTA    CL130293  -4.069  25.805  -7.890
    1XTA    CL230294  -3.995  25.689  -7.939
    1XTA    CL330295  -3.888  25.645  -7.834
    1XTA    CL430296  -3.814  25.517  -7.876
    1XTA    CO330297  -3.674  25.499  -7.814
    1XTA    OA330298  -3.592  25.614  -7.828
    1XTA    CO430299  -3.458  25.584  -7.807
    1XTA    CT130300  -3.377  25.716  -7.812
    1XTA    CL530301  -3.433  25.820  -7.724
    1XTA    CL630302  -3.424  25.793  -7.569
    1XTA    OA430303  -5.171  25.861  -8.253
    1XTA    CO530304  -5.242  25.855  -8.373
    1XTA    HL130305  -5.353  25.832  -8.338
    1XTA    HL230306  -4.617  26.776  -8.261
    1XTA    HL330307  -4.637  26.847  -8.422
    1XTA    HL430308  -4.759  26.735  -8.356
    1XTA    HL530309  -4.241  25.753  -8.015
    1XTA    HL630310  -4.129  25.887  -8.063
    1XTA    HL730311  -4.109  25.780  -7.787
    1XTA    HL830312  -3.998  25.888  -7.882
    1XTA    HL930313  -3.958  25.713  -8.038
    1XTA   HL1030314  -4.074  25.624  -7.955
    1XTA   HL1130315  -3.818  25.733  -7.823
    1XTA   HL1230316  -3.931  25.623  -7.737
    1XTA   HL1330317  -3.801  25.505  -7.992
    1XTA   HL1430318  -3.876  25.434  -7.853
    1XTA   HL1530319  -3.689  25.468  -7.715
    1XTA   HL1630320  -3.623  25.415  -7.873
    1XTA   HL1730321  -3.435  25.532  -7.717
    1XTA   HL1830322  -3.431  25.528  -7.894
    1XTA   HL1930323  -3.545  25.827  -7.755
    1XTA   HL2030324  -3.374  25.910  -7.742
    1XTA   HL2130325  -3.444  25.688  -7.543
    1XTA   HL2230326  -3.481  25.863  -7.509
    1XTA   HL2330327  -3.318  25.818  -7.534
    1XTA   HL2430328  -5.212  25.787  -8.449
    1XTA   HL2530329  -5.256  25.955  -8.407
    1XTA    CO830330  -3.392  25.780  -7.955
    1XTA    CO930331  -3.232  25.690  -7.791
    1XTA    OA630332  -3.227  25.603  -7.678
    1XTA   HL4230333  -3.406  25.701  -8.027
    1XTA   HL4330334  -3.477  25.847  -7.973
    1XTA   HL4830335  -3.180  25.783  -7.768
    1XTA   HL4930336  -3.195  25.633  -7.875
    1XTA     NT30337  -4.677  28.541  -5.255
    1XTA    CN130338  -4.779  28.516  -5.338
    1XTA     C130339  -4.764  28.549  -5.474
    1XTA     C230340  -4.872  28.513  -5.560
    1XTA     C330341  -4.981  28.441  -5.509
    1XTA     C430342  -4.995  28.421  -5.369
    1XTA     C530343  -4.890  28.458  -5.282
    1XTA    CN230344  -4.583  28.439  -5.240
    1XTA     C630345  -4.595  28.335  -5.145
    1XTA     C730346  -4.507  28.232  -5.136
    1XTA     C830347  -4.401  28.223  -5.228
    1XTA     C930348  -4.389  28.323  -5.322
    1XTA    C1030349  -4.476  28.434  -5.328
    1XTA    CN330350  -4.681  28.647  -5.170
    1XTA    C1130351  -4.639  28.651  -5.041
    1XTA    C1230352  -4.638  28.770  -4.967
    1XTA    C1330353  -4.679  28.890  -5.016
    1XTA    C1430354  -4.724  28.893  -5.148
    1XTA    C1530355  -4.715  28.774  -5.228
    1XTA     H130356  -4.683  28.601  -5.510
    1XTA     H230357  -4.850  28.517  -5.665
    1XTA     H330358  -5.088  28.388  -5.327
    1XTA     H430359  -4.889  28.441  -5.173
    1XTA     H530360  -4.690  28.344  -5.082
    1XTA     H630361  -4.523  28.154  -5.059
    1XTA     H730362  -4.307  28.323  -5.395
    1XTA     H830363  -4.460  28.520  -5.396
    1XTA     H930364  -4.604  28.554  -5.000
    1XTA    H1030365  -4.595  28.770  -4.868
    1XTA    H1130366  -4.773  28.978  -5.190
    1XTA    H1230367  -4.740  28.778  -5.333
    1XTA    OA130368  -5.080  28.400  -5.595
    1XTA    CO130369  -5.043  28.340  -5.717
    1XTA    OA230370  -4.322  28.104  -5.222
    1XTA    CO230371  -4.260  28.068  -5.342
    1XTA    CL130372  -4.181  27.939  -5.318
    1XTA    CL230373  -4.275  27.826  -5.314
    1XTA    CL330374  -4.219  27.684  -5.291
    1XTA    CL430375  -4.180  27.650  -5.149
    1XTA    CO330376  -4.188  27.505  -5.118
    1XTA    OA330377  -4.149  27.483  -4.981
    1XTA    CO430378  -4.034  27.403  -4.960
    1XTA    CT130379  -3.893  27.473  -4.972
    1XTA    CL530380  -3.872  27.514  -5.122
    1XTA    CL630381  -3.734  27.551  -5.167
    1XTA    OA430382  -4.688  28.991  -4.924
    1XTA    CO530383  -4.760  29.109  -4.959
    1XTA    HL130384  -4.870  29.098  -4.958
    1XTA    HL230385  -5.016  28.411  -5.794
    1XTA    HL330386  -4.966  28.266  -5.701
    1XTA    HL430387  -5.132  28.290  -5.753
    1XTA    HL530388  -4.323  28.082  -5.427
    1XTA    HL630389  -4.177  28.134  -5.365
    1XTA    HL730390  -4.111  27.944  -5.241
    1XTA    HL830391  -4.112  27.923  -5.403
    1XTA    HL930392  -4.323  27.820  -5.410
    1XTA   HL1030393  -4.346  27.859  -5.243
    1XTA   HL1130394  -4.305  27.618  -5.306
    1XTA   HL1230395  -4.137  27.662  -5.352
    1XTA   HL1330396  -4.255  27.701  -5.086
    1XTA   HL1430397  -4.088  27.698  -5.123
    1XTA   HL1530398  -4.286  27.460  -5.134
    1XTA   HL1630399  -4.122  27.456  -5.194
    1XTA   HL1730400  -4.037  27.359  -4.858
    1XTA   HL1830401  -4.032  27.316  -5.029
    1XTA   HL1930402  -3.925  27.609  -5.144
    1XTA   HL2030403  -3.921  27.433  -5.182
    1XTA   HL2130404  -3.736  27.602  -5.266
    1XTA   HL2230405  -3.672  27.463  -5.170
    1XTA   HL2330406  -3.687  27.632  -5.099
    1XTA   HL2430407  -4.734  29.133  -5.067
    1XTA   HL2530408  -4.728  29.190  -4.901
    1XTA    CO830409  -3.784  27.374  -4.927
    1XTA    CO930410  -3.885  27.596  -4.889
    1XTA    OA630411  -3.812  27.254  -5.002
    1XTA   HL4230412  -3.791  27.343  -4.827
    1XTA   HL4330413  -3.682  27.404  -4.949
    1XTA   HL4830414  -3.911  27.573  -4.778
    1XTA   HL4930415  -3.967  27.659  -4.913
    1XTA     NT30416  -8.661  23.620  -6.443
    1XTA    CN130417  -8.646  23.485  -6.419
    1XTA     C130418  -8.621  23.442  -6.287
    1XTA     C230419  -8.590  23.307  -6.266
    1XTA     C330420  -8.593  23.212  -6.371
    1XTA     C430421  -8.609  23.260  -6.503
    1XTA     C530422  -8.640  23.398  -6.527
    1XTA    CN230423  -8.789  23.661  -6.455
    1XTA     C630424  -8.866  23.683  -6.337
    1XTA     C730425  -9.009  23.716  -6.341
    1XTA     C830426  -9.073  23.731  -6.470
    1XTA     C930427  -8.987  23.715  -6.581
    1XTA    C1030428  -8.850  23.680  -6.578
    1XTA    CN330429  -8.564  23.711  -6.427
    1XTA    C1130430  -8.509  23.768  -6.541
    1XTA    C1230431  -8.393  23.851  -6.538
    1XTA    C1330432  -8.328  23.873  -6.412
    1XTA    C1430433  -8.390  23.820  -6.294
    1XTA    C1530434  -8.504  23.736  -6.303
    1XTA     H130435  -8.619  23.506  -6.201
    1XTA     H230436  -8.558  23.274  -6.168
    1XTA     H330437  -8.599  23.196  -6.586
    1XTA     H430438  -8.656  23.430  -6.628
    1XTA     H530439  -8.830  23.682  -6.237
    1XTA     H630440  -9.060  23.740  -6.249
    1XTA     H730441  -9.037  23.730  -6.680
    1XTA     H830442  -8.794  23.662  -6.663
    1XTA     H930443  -8.556  23.744  -6.633
    1XTA    H1030444  -8.356  23.900  -6.626
    1XTA    H1130445  -8.350  23.838  -6.194
    1XTA    H1230446  -8.544  23.698  -6.210
    1XTA    OA130447  -8.562  23.084  -6.334
    1XTA    CO130448  -8.555  22.990  -6.442
    1XTA    OA230449  -9.205  23.761  -6.476
    1XTA    CO230450  -9.291  23.692  -6.397
    1XTA    CL130451  -9.436  23.714  -6.439
    1XTA    CL230452  -9.538  23.628  -6.355
    1XTA    CL330453  -9.553  23.474  -6.394
    1XTA    CL430454  -9.672  23.406  -6.330
    1XTA    CO330455  -9.693  23.261  -6.379
    1XTA    OA330456  -9.663  23.245  -6.515
    1XTA    CO430457  -9.783  23.251  -6.582
    1XTA    CT130458  -9.746  23.272  -6.735
    1XTA    CL530459  -9.662  23.162  -6.808
    1XTA    CL630460  -9.541  23.115  -6.732
    1XTA    OA430461  -8.219  23.958  -6.402
    1XTA    CO530462  -8.153  24.004  -6.517
    1XTA    HL130463  -8.209  24.070  -6.584
    1XTA    HL230464  -8.512  22.896  -6.400
    1XTA    HL330465  -8.651  22.972  -6.486
    1XTA    HL430466  -8.493  23.030  -6.528
    1XTA    HL530467  -9.262  23.586  -6.408
    1XTA    HL630468  -9.264  23.724  -6.293
    1XTA    HL730469  -9.454  23.678  -6.542
    1XTA    HL830470  -9.460  23.819  -6.433
    1XTA    HL930471  -9.639  23.668  -6.356
    1XTA   HL1030472  -9.508  23.622  -6.256
    1XTA   HL1130473  -9.559  23.476  -6.502
    1XTA   HL1230474  -9.463  23.418  -6.366
    1XTA   HL1330475  -9.771  23.466  -6.335
    1XTA   HL1430476  -9.668  23.399  -6.224
    1XTA   HL1530477  -9.608  23.222  -6.329
    1XTA   HL1630478  -9.781  23.213  -6.344
    1XTA   HL1730479  -9.843  23.159  -6.561
    1XTA   HL1830480  -9.837  23.333  -6.528
    1XTA   HL1930481  -9.642  23.189  -6.912
    1XTA   HL2030482  -9.722  23.069  -6.830
    1XTA   HL2130483  -9.590  23.048  -6.658
    1XTA   HL2230484  -9.489  23.197  -6.681
    1XTA   HL2330485  -9.475  23.051  -6.793
    1XTA   HL2430486  -8.104  23.920  -6.564
    1XTA   HL2530487  -8.072  24.061  -6.468
    1XTA    CO830488  -9.662  23.401  -6.749
    1XTA    CO930489  -9.883  23.295  -6.807
    1XTA    OA630490  -9.960  23.404  -6.753
    1XTA   HL4230491  -9.713  23.480  -6.683
    1XTA   HL4330492  -9.560  23.392  -6.703
    1XTA   HL4830493  -9.934  23.200  -6.801
    1XTA   HL4930494  -9.853  23.310  -6.909
    1XTA     NT30495  -8.424  26.580  -8.867
    1XTA    CN130496  -8.542  26.628  -8.920
    1XTA     C130497  -8.585  26.607  -9.055
    1XTA     C230498  -8.692  26.673  -9.111
    1XTA     C330499  -8.769  26.759  -9.032
    1XTA     C430500  -8.731  26.783  -8.897
    1XTA     C530501  -8.622  26.714  -8.844
    1XTA    CN230502  -8.313  26.660  -8.866
    1XTA     C630503  -8.288  26.745  -8.976
    1XTA     C730504  -8.167  26.821  -8.979
    1XTA     C830505  -8.075  26.818  -8.872
    1XTA     C930506  -8.100  26.733  -8.760
    1XTA    C1030507  -8.221  26.657  -8.758
    1XTA    CN330508  -8.414  26.451  -8.837
    1XTA    C1130509  -8.331  26.358  -8.901
    1XTA    C1230510  -8.316  26.233  -8.842
    1XTA    C1330511  -8.387  26.198  -8.725
    1XTA    C1430512  -8.470  26.291  -8.660
    1XTA    C1530513  -8.483  26.419  -8.717
    1XTA     H130514  -8.531  26.538  -9.120
    1XTA     H230515  -8.706  26.657  -9.214
    1XTA     H330516  -8.789  26.846  -8.827
    1XTA     H430517  -8.594  26.735  -8.744
    1XTA     H530518  -8.363  26.744  -9.056
    1XTA     H630519  -8.175  26.888  -9.065
    1XTA     H730520  -8.028  26.731  -8.676
    1XTA     H830521  -8.242  26.592  -8.674
    1XTA     H930522  -8.276  26.377  -8.992
    1XTA    H1030523  -8.258  26.152  -8.895
    1XTA    H1130524  -8.519  26.250  -8.574
    1XTA    H1230525  -8.532  26.500  -8.671
    1XTA    OA130526  -8.862  26.839  -9.086
    1XTA    CO130527  -8.894  26.836  -9.223
    1XTA    OA230528  -7.965  26.890  -8.879
    1XTA    CO230529  -7.842  26.804  -8.874
    1XTA    CL130530  -7.810  26.770  -9.015
    1XTA    CL230531  -7.781  26.893  -9.104
    1XTA    CL330532  -7.754  26.842  -9.250
    1XTA    CL430533  -7.722  26.957  -9.346
    1XTA    CO330534  -7.692  26.909  -9.485
    1XTA    OA330535  -7.802  26.883  -9.580
    1XTA    CO430536  -7.870  26.766  -9.554
    1XTA    CT130537  -7.946  26.726  -9.682
    1XTA    CL530538  -8.046  26.837  -9.722
    1XTA    CL630539  -8.152  26.867  -9.627
    1XTA    OA430540  -8.373  26.064  -8.680
    1XTA    CO530541  -8.494  25.994  -8.634
    1XTA    HL130542  -8.463  25.886  -8.616
    1XTA    HL230543  -8.957  26.751  -9.237
    1XTA    HL330544  -8.952  26.929  -9.233
    1XTA    HL430545  -8.810  26.850  -9.287
    1XTA    HL530546  -7.763  26.855  -8.822
    1XTA    HL630547  -7.852  26.716  -8.812
    1XTA    HL730548  -7.896  26.714  -9.049
    1XTA    HL830549  -7.717  26.710  -9.019
    1XTA    HL930550  -7.701  26.948  -9.058
    1XTA   HL1030551  -7.862  26.966  -9.079
    1XTA   HL1130552  -7.668  26.780  -9.247
    1XTA   HL1230553  -7.848  26.782  -9.287
    1XTA   HL1330554  -7.628  27.009  -9.311
    1XTA   HL1430555  -7.807  27.027  -9.362
    1XTA   HL1530556  -7.629  26.991  -9.531
    1XTA   HL1630557  -7.613  26.826  -9.487
    1XTA   HL1730558  -7.813  26.683  -9.513
    1XTA   HL1830559  -7.943  26.775  -9.470
    1XTA   HL1930560  -8.097  26.813  -9.822
    1XTA   HL2030561  -7.987  26.925  -9.738
    1XTA   HL2130562  -8.220  26.929  -9.687
    1XTA   HL2230563  -8.117  26.923  -9.541
    1XTA   HL2330564  -8.214  26.781  -9.598
    1XTA   HL2430565  -8.581  25.993  -8.700
    1XTA   HL2530566  -8.526  26.035  -8.534
    1XTA    CO830567  -8.016  26.586  -9.662
    1XTA    CO930568  -7.845  26.702  -9.800
    1XTA    OA630569  -7.919  26.484  -9.628
    1XTA   HL4230570  -8.078  26.561  -9.753
    1XTA   HL4330571  -8.076  26.599  -9.573
    1XTA   HL4830572  -7.821  26.801  -9.830
    1XTA   HL4930573  -7.912  26.664  -9.879
    1XTA     NT30574  -3.527  27.491  -8.558
    1XTA    CN130575  -3.540  27.416  -8.445
    1XTA     C130576  -3.509  27.466  -8.316
    1XTA     C230577  -3.516  27.377  -8.208
    1XTA     C330578  -3.558  27.244  -8.237
    1XTA     C430579  -3.592  27.193  -8.360
    1XTA     C530580  -3.583  27.286  -8.467
    1XTA    CN230581  -3.609  27.491  -8.668
    1XTA     C630582  -3.715  27.581  -8.672
    1XTA     C730583  -3.796  27.587  -8.790
    1XTA     C830584  -3.770  27.505  -8.899
    1XTA     C930585  -3.664  27.411  -8.893
    1XTA    C1030586  -3.587  27.408  -8.777
    1XTA    CN330587  -3.423  27.575  -8.557
    1XTA    C1130588  -3.442  27.711  -8.531
    1XTA    C1230589  -3.332  27.801  -8.534
    1XTA    C1330590  -3.201  27.754  -8.541
    1XTA    C1430591  -3.185  27.622  -8.575
    1XTA    C1530592  -3.289  27.532  -8.576
    1XTA     H130593  -3.480  27.566  -8.294
    1XTA     H230594  -3.503  27.421  -8.105
    1XTA     H330595  -3.623  27.093  -8.383
    1XTA     H430596  -3.613  27.263  -8.560
    1XTA     H530597  -3.740  27.648  -8.593
    1XTA     H630598  -3.875  27.660  -8.776
    1XTA     H730599  -3.640  27.343  -8.971
    1XTA     H830600  -3.512  27.337  -8.765
    1XTA     H930601  -3.544  27.744  -8.525
    1XTA    H1030602  -3.351  27.905  -8.503
    1XTA    H1130603  -3.090  27.579  -8.563
    1XTA    H1230604  -3.253  27.432  -8.597
    1XTA    OA130605  -3.554  27.157  -8.126
    1XTA    CO130606  -3.582  27.023  -8.149
    1XTA    OA230607  -3.843  27.509  -9.012
    1XTA    CO230608  -3.984  27.519  -8.988
    1XTA    CL130609  -4.048  27.493  -9.124
    1XTA    CL230610  -4.198  27.448  -9.105
    1XTA    CL330611  -4.278  27.414  -9.236
    1XTA    CL430612  -4.219  27.475  -9.366
    1XTA    CO330613  -4.244  27.398  -9.486
    1XTA    OA330614  -4.119  27.356  -9.541
    1XTA    CO430615  -4.142  27.309  -9.675
    1XTA    CT130616  -4.006  27.290  -9.745
    1XTA    CL530617  -4.033  27.279  -9.893
    1XTA    CL630618  -4.104  27.144  -9.943
    1XTA    OA430619  -3.099  27.842  -8.504
    1XTA    CO530620  -3.000  27.797  -8.408
    1XTA    HL130621  -2.934  27.877  -8.369
    1XTA    HL230622  -3.565  26.970  -8.063
    1XTA    HL330623  -3.686  27.007  -8.174
    1XTA    HL430624  -3.514  26.990  -8.234
    1XTA    HL530625  -4.010  27.439  -8.915
    1XTA    HL630626  -4.023  27.617  -8.957
    1XTA    HL730627  -4.003  27.420  -9.186
    1XTA    HL830628  -4.039  27.588  -9.177
    1XTA    HL930629  -4.247  27.530  -9.055
    1XTA   HL1030630  -4.204  27.363  -9.038
    1XTA   HL1130631  -4.301  27.307  -9.240
    1XTA   HL1230632  -4.370  27.467  -9.218
    1XTA   HL1330633  -4.107  27.470  -9.359
    1XTA   HL1430634  -4.258  27.579  -9.362
    1XTA   HL1530635  -4.303  27.310  -9.467
    1XTA   HL1630636  -4.300  27.461  -9.556
    1XTA   HL1730637  -4.198  27.215  -9.686
    1XTA   HL1830638  -4.204  27.375  -9.733
    1XTA   HL1930639  -3.942  27.283  -9.944
    1XTA   HL2030640  -4.094  27.362  -9.922
    1XTA   HL2130641  -4.204  27.141  -9.892
    1XTA   HL2230642  -4.051  27.049  -9.928
    1XTA   HL2330643  -4.128  27.158 -10.051
    1XTA   HL2430644  -2.934  27.727  -8.458
    1XTA   HL2530645  -3.053  27.742  -8.329
    1XTA    CO830646  -3.915  27.205  -9.678
    1XTA    CO930647  -3.908  27.404  -9.718
    1XTA    OA630648  -3.829  27.282  -9.660
    1XTA   HL4230649  -3.893  27.114  -9.731
    1XTA   HL4330650  -3.958  27.169  -9.583
    1XTA   HL4830651  -3.964  27.493  -9.636
    1XTA   HL4930652  -3.851  27.449  -9.796
    1XTA     NT30653  -6.507  31.004  -8.878
    1XTA    CN130654  -6.636  31.005  -8.845
    1XTA     C130655  -6.731  31.040  -8.942
    1XTA     C230656  -6.866  31.057  -8.902
    1XTA     C330657  -6.910  31.024  -8.773
    1XTA     C430658  -6.813  30.979  -8.680
    1XTA     C530659  -6.676  30.977  -8.713
    1XTA    CN230660  -6.418  30.918  -8.827
    1XTA     C630661  -6.305  30.970  -8.755
    1XTA     C730662  -6.210  30.889  -8.697
    1XTA     C830663  -6.223  30.752  -8.717
    1XTA     C930664  -6.329  30.693  -8.788
    1XTA    C1030665  -6.434  30.774  -8.829
    1XTA    CN330666  -6.448  31.104  -8.956
    1XTA    C1130667  -6.397  31.083  -9.088
    1XTA    C1230668  -6.327  31.184  -9.150
    1XTA    C1330669  -6.294  31.305  -9.082
    1XTA    C1430670  -6.338  31.325  -8.948
    1XTA    C1530671  -6.416  31.227  -8.889
    1XTA     H130672  -6.697  31.070  -9.036
    1XTA     H230673  -6.939  31.098  -8.973
    1XTA     H330674  -6.844  30.934  -8.587
    1XTA     H430675  -6.601  30.941  -8.641
    1XTA     H530676  -6.293  31.076  -8.738
    1XTA     H630677  -6.129  30.935  -8.645
    1XTA     H730678  -6.349  30.587  -8.796
    1XTA     H830679  -6.512  30.736  -8.897
    1XTA     H930680  -6.418  30.991  -9.123
    1XTA    H1030681  -6.286  31.165  -9.252
    1XTA    H1130682  -6.321  31.414  -8.900
    1XTA    H1230683  -6.463  31.254  -8.800
    1XTA    OA130684  -7.043  31.037  -8.737
    1XTA    CO130685  -7.078  31.076  -8.605
    1XTA    OA230686  -6.132  30.668  -8.658
    1XTA    CO230687  -6.184  30.591  -8.549
    1XTA    CL130688  -6.168  30.660  -8.411
    1XTA    CL230689  -6.247  30.789  -8.384
    1XTA    CL330690  -6.232  30.832  -8.242
    1XTA    CL430691  -6.291  30.969  -8.224
    1XTA    CO330692  -6.284  31.023  -8.082
    1XTA    OA330693  -6.333  30.921  -8.001
    1XTA    CO430694  -6.353  30.955  -7.863
    1XTA    CT130695  -6.350  30.823  -7.788
    1XTA    CL530696  -6.211  30.767  -7.815
    1XTA    CL630697  -6.173  30.625  -7.776
    1XTA    OA430698  -6.211  31.395  -9.145
    1XTA    CO530699  -6.112  31.349  -9.224
    1XTA    HL130700  -6.160  31.314  -9.312
    1XTA    HL230701  -7.182  31.110  -8.588
    1XTA    HL330702  -7.057  31.001  -8.533
    1XTA    HL430703  -7.019  31.166  -8.587
    1XTA    HL530704  -6.287  30.562  -8.566
    1XTA    HL630705  -6.119  30.506  -8.551
    1XTA    HL730706  -6.056  30.683  -8.386
    1XTA    HL830707  -6.198  30.580  -8.343
    1XTA    HL930708  -6.352  30.773  -8.413
    1XTA   HL1030709  -6.211  30.872  -8.448
    1XTA   HL1130710  -6.291  30.756  -8.187
    1XTA   HL1230711  -6.126  30.836  -8.206
    1XTA   HL1330712  -6.393  30.984  -8.265
    1XTA   HL1430713  -6.239  31.047  -8.287
    1XTA   HL1530714  -6.173  31.041  -8.067
    1XTA   HL1630715  -6.333  31.116  -8.059
    1XTA   HL1730716  -6.265  31.009  -7.823
    1XTA   HL1830717  -6.434  31.025  -7.868
    1XTA   HL1930718  -6.146  30.823  -7.745
    1XTA   HL2030719  -6.165  30.793  -7.913
    1XTA   HL2130720  -6.175  30.608  -7.663
    1XTA   HL2230721  -6.067  30.610  -7.798
    1XTA   HL2330722  -6.232  30.549  -7.829
    1XTA   HL2430723  -6.068  31.277  -9.154
    1XTA   HL2530724  -6.039  31.430  -9.247
    1XTA    CO830725  -6.468  30.735  -7.850
    1XTA    CO930726  -6.382  30.844  -7.640
    1XTA    OA630727  -6.472  30.893  -7.615
    1XTA   HL4230728  -6.453  30.734  -7.954
    1XTA   HL4330729  -6.438  30.603  -7.824
    1XTA   HL4830730  -6.302  30.895  -7.588
    1XTA   HL4930731  -6.399  30.741  -7.599
    1XTA     NT30732   0.786  24.964  -7.859
    1XTA    CN130733   0.829  24.835  -7.880
    1XTA     C130734   0.905  24.771  -7.780
    1XTA     C230735   0.937  24.637  -7.783
    1XTA     C330736   0.893  24.562  -7.887
    1XTA     C430737   0.829  24.623  -7.998
    1XTA     C530738   0.798  24.760  -7.994
    1XTA    CN230739   0.691  24.988  -7.768
    1XTA     C630740   0.570  24.916  -7.762
    1XTA     C730741   0.477  24.926  -7.654
    1XTA     C830742   0.506  25.023  -7.552
    1XTA     C930743   0.629  25.093  -7.557
    1XTA    C1030744   0.721  25.073  -7.661
    1XTA    CN330745   0.835  25.071  -7.925
    1XTA    C1130746   0.745  25.147  -7.998
    1XTA    C1230747   0.790  25.250  -8.083
    1XTA    C1330748   0.927  25.285  -8.091
    1XTA    C1430749   1.019  25.208  -8.013
    1XTA    C1530750   0.980  25.102  -7.935
    1XTA     H130751   0.927  24.824  -7.691
    1XTA     H230752   0.989  24.595  -7.696
    1XTA     H330753   0.793  24.565  -8.076
    1XTA     H430754   0.736  24.816  -8.064
    1XTA     H530755   0.545  24.850  -7.851
    1XTA     H630756   0.392  24.860  -7.657
    1XTA     H730757   0.658  25.161  -7.479
    1XTA     H830758   0.821  25.116  -7.668
    1XTA     H930759   0.644  25.117  -7.988
    1XTA    H1030760   0.723  25.308  -8.145
    1XTA    H1130761   1.121  25.232  -8.014
    1XTA    H1230762   1.049  25.036  -7.890
    1XTA    OA130763   0.890  24.426  -7.888
    1XTA    CO130764   0.939  24.362  -7.770
    1XTA    OA230765   0.407  25.054  -7.462
    1XTA    CO230766   0.396  25.190  -7.435
    1XTA    CL130767   0.253  25.218  -7.431
    1XTA    CL230768   0.221  25.369  -7.425
    1XTA    CL330769   0.063  25.391  -7.441
    1XTA    CL430770  -0.019  25.349  -7.320
    1XTA    CO330771  -0.170  25.374  -7.342
    1XTA    OA330772  -0.245  25.299  -7.245
    1XTA    CO430773  -0.382  25.299  -7.271
    1XTA    CT130774  -0.449  25.271  -7.134
    1XTA    CL530775  -0.418  25.122  -7.105
    1XTA    CL630776  -0.494  25.079  -6.987
    1XTA    OA430777   0.987  25.384  -8.167
    1XTA    CO530778   0.904  25.474  -8.242
    1XTA    HL130779   0.846  25.410  -8.309
    1XTA    HL230780   0.945  24.258  -7.798
    1XTA    HL330781   1.042  24.396  -7.749
    1XTA    HL430782   0.874  24.372  -7.674
    1XTA    HL530783   0.436  25.224  -7.343
    1XTA    HL630784   0.433  25.248  -7.520
    1XTA    HL730785   0.203  25.173  -7.351
    1XTA    HL830786   0.214  25.162  -7.525
    1XTA    HL930787   0.270  25.434  -7.495
    1XTA   HL1030788   0.254  25.408  -7.326
    1XTA   HL1130789   0.052  25.495  -7.454
    1XTA   HL1230790   0.011  25.352  -7.532
    1XTA   HL1330791   0.008  25.406  -7.230
    1XTA   HL1430792   0.002  25.248  -7.295
    1XTA   HL1530793  -0.187  25.478  -7.325
    1XTA   HL1630794  -0.198  25.361  -7.450
    1XTA   HL1730795  -0.405  25.404  -7.285
    1XTA   HL1830796  -0.422  25.243  -7.353
    1XTA   HL1930797  -0.314  25.104  -7.094
    1XTA   HL2030798  -0.428  25.068  -7.197
    1XTA   HL2130799  -0.600  25.063  -7.006
    1XTA   HL2230800  -0.490  25.144  -6.903
    1XTA   HL2330801  -0.456  24.988  -6.960
    1XTA   HL2430802   0.974  25.538  -8.296
    1XTA   HL2530803   0.839  25.524  -8.180
    1XTA    CO830804  -0.600  25.289  -7.158
    1XTA    CO930805  -0.406  25.378  -7.029
    1XTA    OA630806  -0.634  25.208  -7.226
    1XTA   HL4230807  -0.618  25.394  -7.203
    1XTA   HL4330808  -0.657  25.298  -7.068
    1XTA   HL4830809  -0.446  25.508  -7.071
    1XTA   HL4930810  -0.470  25.362  -6.944
    1XTA     NT30811  -4.363  25.262  -7.558
    1XTA    CN130812  -4.483  25.318  -7.550
    1XTA     C130813  -4.492  25.451  -7.498
    1XTA     C230814  -4.622  25.504  -7.471
    1XTA     C330815  -4.732  25.424  -7.500
    1XTA     C430816  -4.725  25.299  -7.567
    1XTA     C530817  -4.598  25.245  -7.589
    1XTA    CN230818  -4.302  25.236  -7.440
    1XTA     C630819  -4.199  25.317  -7.390
    1XTA     C730820  -4.134  25.277  -7.269
    1XTA     C830821  -4.171  25.155  -7.218
    1XTA     C930822  -4.265  25.066  -7.277
    1XTA    C1030823  -4.328  25.105  -7.395
    1XTA    CN330824  -4.310  25.253  -7.683
    1XTA    C1130825  -4.236  25.362  -7.739
    1XTA    C1230826  -4.179  25.356  -7.864
    1XTA    C1330827  -4.198  25.238  -7.944
    1XTA    C1430828  -4.267  25.128  -7.891
    1XTA    C1530829  -4.330  25.132  -7.764
    1XTA     H130830  -4.403  25.509  -7.477
    1XTA     H230831  -4.628  25.602  -7.430
    1XTA     H330832  -4.816  25.252  -7.593
    1XTA     H430833  -4.573  25.154  -7.641
    1XTA     H530834  -4.176  25.409  -7.436
    1XTA     H630835  -4.066  25.342  -7.216
    1XTA     H730836  -4.291  24.975  -7.234
    1XTA     H830837  -4.404  25.044  -7.436
    1XTA     H930838  -4.227  25.449  -7.678
    1XTA    H1030839  -4.117  25.435  -7.898
    1XTA    H1130840  -4.270  25.037  -7.950
    1XTA    H1230841  -4.373  25.047  -7.723
    1XTA    OA130842  -4.865  25.470  -7.492
    1XTA    CO130843  -4.895  25.582  -7.412
    1XTA    OA230844  -4.112  25.113  -7.102
    1XTA    CO230845  -4.177  25.159  -6.987
    1XTA    CL130846  -4.085  25.164  -6.857
    1XTA    CL230847  -3.964  25.251  -6.886
    1XTA    CL330848  -3.837  25.244  -6.799
    1XTA    CL430849  -3.732  25.360  -6.818
    1XTA    CO330850  -3.616  25.357  -6.718
    1XTA    OA330851  -3.515  25.452  -6.754
    1XTA    CO430852  -3.435  25.408  -6.856
    1XTA    CT130853  -3.287  25.413  -6.829
    1XTA    CL530854  -3.248  25.558  -6.784
    1XTA    CL630855  -3.279  25.667  -6.891
    1XTA    OA430856  -4.126  25.221  -8.055
    1XTA    CO530857  -4.089  25.346  -8.116
    1XTA    HL130858  -4.002  25.396  -8.069
    1XTA    HL230859  -4.992  25.597  -7.428
    1XTA    HL330860  -4.874  25.567  -7.305
    1XTA    HL430861  -4.842  25.671  -7.454
    1XTA    HL530862  -4.207  25.259  -7.002
    1XTA    HL630863  -4.267  25.093  -6.964
    1XTA    HL730864  -4.071  25.056  -6.832
    1XTA    HL830865  -4.138  25.210  -6.774
    1XTA    HL930866  -3.996  25.354  -6.886
    1XTA   HL1030867  -3.941  25.253  -6.993
    1XTA   HL1130868  -3.875  25.247  -6.695
    1XTA   HL1230869  -3.787  25.148  -6.812
    1XTA   HL1330870  -3.780  25.459  -6.815
    1XTA   HL1430871  -3.703  25.342  -6.924
    1XTA   HL1530872  -3.660  25.381  -6.625
    1XTA   HL1630873  -3.574  25.262  -6.697
    1XTA   HL1730874  -3.468  25.313  -6.895
    1XTA   HL1830875  -3.462  25.471  -6.942
    1XTA   HL1930876  -3.140  25.563  -6.759
    1XTA   HL2030877  -3.308  25.580  -6.695
    1XTA   HL2130878  -3.384  25.694  -6.883
    1XTA   HL2230879  -3.268  25.631  -6.999
    1XTA   HL2330880  -3.215  25.758  -6.889
    1XTA   HL2430881  -4.159  25.425  -8.125
    1XTA   HL2530882  -4.059  25.335  -8.216
    1XTA    CO830883  -3.209  25.373  -6.952
    1XTA    CO930884  -3.257  25.319  -6.705
    1XTA    OA630885  -3.273  25.217  -6.740
    1XTA   HL4230886  -3.220  25.268  -6.972
    1XTA   HL4330887  -3.267  25.427  -7.069
    1XTA   HL4830888  -3.325  25.344  -6.623
    1XTA   HL4930889  -3.155  25.334  -6.657
    1XTA     NT30890  -4.635  27.739  -9.047
    1XTA    CN130891  -4.750  27.813  -9.052
    1XTA     C130892  -4.863  27.777  -8.973
    1XTA     C230893  -4.979  27.845  -8.969
    1XTA     C330894  -4.984  27.965  -9.045
    1XTA     C430895  -4.886  27.994  -9.140
    1XTA     C530896  -4.764  27.925  -9.132
    1XTA    CN230897  -4.647  27.614  -9.099
    1XTA     C630898  -4.676  27.596  -9.236
    1XTA     C730899  -4.668  27.471  -9.294
    1XTA     C830900  -4.674  27.358  -9.214
    1XTA     C930901  -4.662  27.373  -9.071
    1XTA    C1030902  -4.635  27.501  -9.017
    1XTA    CN330903  -4.519  27.809  -9.046
    1XTA    C1130904  -4.415  27.780  -9.141
    1XTA    C1230905  -4.299  27.853  -9.137
    1XTA    C1330906  -4.281  27.952  -9.035
    1XTA    C1430907  -4.378  27.970  -8.939
    1XTA    C1530908  -4.497  27.896  -8.940
    1XTA     H130909  -4.862  27.680  -8.930
    1XTA     H230910  -5.061  27.811  -8.916
    1XTA     H330911  -4.903  28.083  -9.201
    1XTA     H430912  -4.679  27.960  -9.193
    1XTA     H530913  -4.698  27.678  -9.305
    1XTA     H630914  -4.675  27.454  -9.396
    1XTA     H730915  -4.663  27.295  -8.999
    1XTA     H830916  -4.608  27.505  -8.910
    1XTA     H930917  -4.426  27.711  -9.224
    1XTA    H1030918  -4.218  27.833  -9.207
    1XTA    H1130919  -4.363  28.044  -8.866
    1XTA    H1230920  -4.566  27.913  -8.861
    1XTA    OA130921  -5.099  28.042  -9.030
    1XTA    CO130922  -5.099  28.173  -9.089
    1XTA    OA230923  -4.668  27.238  -9.275
    1XTA    CO230924  -4.617  27.130  -9.203
    1XTA    CL130925  -4.540  27.022  -9.288
    1XTA    CL230926  -4.483  26.922  -9.188
    1XTA    CL330927  -4.420  26.790  -9.238
    1XTA    CL430928  -4.366  26.705  -9.127
    1XTA    CO330929  -4.322  26.565  -9.165
    1XTA    OA330930  -4.375  26.535  -9.296
    1XTA    CO430931  -4.474  26.432  -9.317
    1XTA    CT130932  -4.500  26.411  -9.469
    1XTA    CL530933  -4.372  26.375  -9.545
    1XTA    CL630934  -4.315  26.238  -9.515
    1XTA    OA430935  -4.169  28.035  -9.039
    1XTA    CO530936  -4.177  28.167  -8.992
    1XTA    HL130937  -4.096  28.228  -9.029
    1XTA    HL230938  -5.119  28.160  -9.192
    1XTA    HL330939  -5.181  28.235  -9.040
    1XTA    HL430940  -5.013  28.237  -9.079
    1XTA    HL530941  -4.556  27.162  -9.118
    1XTA    HL630942  -4.704  27.090  -9.146
    1XTA    HL730943  -4.457  27.061  -9.339
    1XTA    HL830944  -4.606  26.968  -9.354
    1XTA    HL930945  -4.553  26.902  -9.109
    1XTA   HL1030946  -4.410  26.985  -9.137
    1XTA   HL1130947  -4.504  26.741  -9.290
    1XTA   HL1230948  -4.347  26.817  -9.313
    1XTA   HL1330949  -4.446  26.694  -9.057
    1XTA   HL1430950  -4.280  26.733  -9.078
    1XTA   HL1530951  -4.214  26.573  -9.184
    1XTA   HL1630952  -4.344  26.497  -9.087
    1XTA   HL1730953  -4.426  26.341  -9.272
    1XTA   HL1830954  -4.569  26.451  -9.265
    1XTA   HL1930955  -4.287  26.441  -9.523
    1XTA   HL2030956  -4.399  26.392  -9.652
    1XTA   HL2130957  -4.389  26.161  -9.526
    1XTA   HL2230958  -4.273  26.206  -9.415
    1XTA   HL2330959  -4.237  26.207  -9.591
    1XTA   HL2430960  -4.184  28.161  -8.882
    1XTA   HL2530961  -4.266  28.211  -9.039
    1XTA    CO830962  -4.549  26.555  -9.518
    1XTA    CO930963  -4.616  26.312  -9.485
    1XTA    OA630964  -4.543  26.546  -9.634
    1XTA   HL4230965  -4.480  26.634  -9.494
    1XTA   HL4330966  -4.648  26.590  -9.485
    1XTA   HL4830967  -4.584  26.181  -9.443
    1XTA   HL4930968  -4.692  26.357  -9.415
    1XTA     NT30969  -7.074  22.932  -8.255
    1XTA    CN130970  -7.133  22.869  -8.360
    1XTA     C130971  -7.266  22.894  -8.400
    1XTA     C230972  -7.321  22.823  -8.503
    1XTA     C330973  -7.242  22.727  -8.573
    1XTA     C430974  -7.109  22.697  -8.538
    1XTA     C530975  -7.055  22.765  -8.421
    1XTA    CN230976  -7.118  22.886  -8.135
    1XTA     C630977  -7.048  22.780  -8.072
    1XTA     C730978  -7.075  22.738  -7.938
    1XTA     C830979  -7.190  22.791  -7.872
    1XTA     C930980  -7.257  22.900  -7.937
    1XTA    C1030981  -7.230  22.948  -8.068
    1XTA    CN330982  -7.009  23.047  -8.270
    1XTA    C1130983  -7.089  23.160  -8.279
    1XTA    C1230984  -7.027  23.288  -8.287
    1XTA    C1330985  -6.887  23.299  -8.277
    1XTA    C1430986  -6.806  23.184  -8.272
    1XTA    C1530987  -6.865  23.057  -8.267
    1XTA     H130988  -7.330  22.971  -8.343
    1XTA     H230989  -7.417  22.850  -8.537
    1XTA     H330990  -7.062  22.612  -8.586
    1XTA     H430991  -6.953  22.738  -8.398
    1XTA     H530992  -6.968  22.741  -8.126
    1XTA     H630993  -7.014  22.658  -7.895
    1XTA     H730994  -7.333  22.949  -7.877
    1XTA     H830995  -7.285  23.034  -8.109
    1XTA     H930996  -7.202  23.156  -8.275
    1XTA    H1030997  -7.085  23.373  -8.306
    1XTA    H1130998  -6.696  23.186  -8.263
    1XTA    H1230999  -6.806  22.967  -8.262
    1XTA    OA131000  -7.290  22.661  -8.687
    1XTA    CO131001  -7.423  22.687  -8.733
    1XTA    OA231002  -7.221  22.750  -7.747
    1XTA    CO231003  -7.327  22.819  -7.674
    1XTA    CL131004  -7.329  22.770  -7.531
    1XTA    CL231005  -7.392  22.872  -7.433
    1XTA    CL331006  -7.374  22.825  -7.283
    1XTA    CL431007  -7.431  22.924  -7.181
    1XTA    CO331008  -7.407  22.883  -7.030
    1XTA    OA331009  -7.271  22.897  -7.002
    1XTA    CO431010  -7.248  22.896  -6.866
    1XTA    CT131011  -7.097  22.915  -6.843
    1XTA    CL531012  -7.019  22.820  -6.934
    1XTA    CL631013  -7.036  22.673  -6.908
    1XTA    OA431014  -6.839  23.429  -8.275
    1XTA    CO531015  -6.698  23.447  -8.277
    1XTA    HL131016  -6.661  23.390  -8.363
    1XTA    HL231017  -7.448  22.619  -8.811
    1XTA    HL331018  -7.504  22.672  -8.658
    1XTA    HL431019  -7.421  22.793  -8.765
    1XTA    HL531020  -7.318  22.927  -7.664
    1XTA    HL631021  -7.424  22.803  -7.720
    1XTA    HL731022  -7.232  22.737  -7.501
    1XTA    HL831023  -7.383  22.678  -7.534
    1XTA    HL931024  -7.490  22.909  -7.452
    1XTA   HL1031025  -7.320  22.957  -7.438
    1XTA   HL1131026  -7.413  22.722  -7.263
    1XTA   HL1231027  -7.267  22.822  -7.262
    1XTA   HL1331028  -7.538  22.920  -7.202
    1XTA   HL1431029  -7.394  23.027  -7.193
    1XTA   HL1531030  -7.469  22.954  -6.972
    1XTA   HL1631031  -7.438  22.776  -7.019
    1XTA   HL1731032  -7.312  22.965  -6.817
    1XTA   HL1831033  -7.274  22.797  -6.834
    1XTA   HL1931034  -6.909  22.839  -6.927
    1XTA   HL2031035  -7.044  22.837  -7.044
    1XTA   HL2131036  -6.985  22.620  -6.986
    1XTA   HL2231037  -7.145  22.657  -6.914
    1XTA   HL2331038  -7.001  22.657  -6.807
    1XTA   HL2431039  -6.642  23.424  -8.184
    1XTA   HL2531040  -6.677  23.547  -8.307
    1XTA    CO831041  -7.069  22.901  -6.695
    1XTA    CO931042  -7.067  23.067  -6.878
    1XTA    OA631043  -6.934  22.880  -6.658
    1XTA   HL4231044  -7.117  22.808  -6.662
    1XTA   HL4331045  -7.114  22.985  -6.637
    1XTA   HL4831046  -6.962  23.085  -6.856
    1XTA   HL4931047  -7.069  23.078  -6.995
    1XTA     NT31048  -1.547  24.052  -7.941
    1XTA    CN131049  -1.484  24.014  -8.057
    1XTA     C131050  -1.538  23.912  -8.141
    1XTA     C231051  -1.467  23.874  -8.252
    1XTA     C331052  -1.351  23.941  -8.292
    1XTA     C431053  -1.292  24.038  -8.208
    1XTA     C531054  -1.359  24.073  -8.091
    1XTA    CN231055  -1.550  23.970  -7.831
    1XTA     C631056  -1.661  23.885  -7.802
    1XTA     C731057  -1.669  23.813  -7.682
    1XTA     C831058  -1.568  23.829  -7.591
    1XTA     C931059  -1.449  23.902  -7.622
    1XTA    C1031060  -1.447  23.980  -7.738
    1XTA    CN331061  -1.573  24.185  -7.916
    1XTA    C1131062  -1.481  24.270  -7.853
    1XTA    C1231063  -1.517  24.401  -7.823
    1XTA    C1331064  -1.636  24.464  -7.860
    1XTA    C1431065  -1.723  24.374  -7.930
    1XTA    C1531066  -1.696  24.237  -7.955
    1XTA     H131067  -1.624  23.856  -8.110
    1XTA     H231068  -1.515  23.791  -8.309
    1XTA     H331069  -1.194  24.079  -8.227
    1XTA     H431070  -1.314  24.148  -8.025
    1XTA     H531071  -1.751  23.893  -7.863
    1XTA     H631072  -1.755  23.756  -7.655
    1XTA     H731073  -1.371  23.909  -7.550
    1XTA     H831074  -1.362  24.039  -7.760
    1XTA     H931075  -1.380  24.241  -7.830
    1XTA    H1031076  -1.438  24.466  -7.775
    1XTA    H1131077  -1.816  24.419  -7.973
    1XTA    H1231078  -1.772  24.175  -7.995
    1XTA    OA131079  -1.294  23.913  -8.418
    1XTA    CO131080  -1.157  23.931  -8.421
    1XTA    OA231081  -1.587  23.767  -7.468
    1XTA    CO231082  -1.476  23.731  -7.390
    1XTA    CL131083  -1.532  23.672  -7.263
    1XTA    CL231084  -1.575  23.525  -7.280
    1XTA    CL331085  -1.700  23.517  -7.367
    1XTA    CL431086  -1.747  23.374  -7.371
    1XTA    CO331087  -1.888  23.352  -7.299
    1XTA    OA331088  -1.866  23.394  -7.165
    1XTA    CO431089  -1.989  23.445  -7.111
    1XTA    CT131090  -1.976  23.509  -6.969
    1XTA    CL531091  -1.901  23.412  -6.876
    1XTA    CL631092  -1.835  23.471  -6.747
    1XTA    OA431093  -1.665  24.597  -7.853
    1XTA    CO531094  -1.550  24.680  -7.853
    1XTA    HL131095  -1.491  24.654  -7.939
    1XTA    HL231096  -1.107  23.881  -8.337
    1XTA    HL331097  -1.108  23.901  -8.518
    1XTA    HL431098  -1.133  24.038  -8.409
    1XTA    HL531099  -1.406  23.664  -7.433
    1XTA    HL631100  -1.424  23.821  -7.356
    1XTA    HL731101  -1.623  23.716  -7.231
    1XTA    HL831102  -1.469  23.665  -7.176
    1XTA    HL931103  -1.599  23.493  -7.179
    1XTA   HL1031104  -1.487  23.466  -7.314
    1XTA   HL1131105  -1.792  23.573  -7.334
    1XTA   HL1231106  -1.672  23.538  -7.467
    1XTA   HL1331107  -1.683  23.306  -7.327
    1XTA   HL1431108  -1.780  23.352  -7.480
    1XTA   HL1531109  -1.961  23.411  -7.354
    1XTA   HL1631110  -1.927  23.247  -7.311
    1XTA   HL1731111  -2.022  23.521  -7.179
    1XTA   HL1831112  -2.068  23.365  -7.101
    1XTA   HL1931113  -1.826  23.371  -6.940
    1XTA   HL2031114  -1.956  23.323  -6.844
    1XTA   HL2131115  -1.782  23.389  -6.694
    1XTA   HL2231116  -1.902  23.518  -6.677
    1XTA   HL2331117  -1.762  23.543  -6.768
    1XTA   HL2431118  -1.490  24.690  -7.760
    1XTA   HL2531119  -1.589  24.779  -7.861
    1XTA    CO831120  -2.102  23.551  -6.896
    1XTA    CO931121  -1.893  23.634  -6.987
    1XTA    OA631122  -2.198  23.451  -6.880
    1XTA   HL4231123  -2.155  23.623  -6.959
    1XTA   HL4331124  -2.079  23.595  -6.807
    1XTA   HL4831125  -1.898  23.668  -7.092
    1XTA   HL4931126  -1.786  23.618  -6.968
    1XTA     NT31127  -5.743  30.157  -9.905
    1XTA    CN131128  -5.643  30.253  -9.918
    1XTA     C131129  -5.548  30.254 -10.023
    1XTA     C231130  -5.448  30.351 -10.026
    1XTA     C331131  -5.439  30.454  -9.932
    1XTA     C431132  -5.543  30.461  -9.838
    1XTA     C531133  -5.642  30.363  -9.835
    1XTA    CN231134  -5.777  30.106  -9.783
    1XTA     C631135  -5.693  30.020  -9.711
    1XTA     C731136  -5.731  29.970  -9.583
    1XTA     C831137  -5.857  30.023  -9.530
    1XTA     C931138  -5.940  30.113  -9.602
    1XTA    C1031139  -5.895  30.151  -9.730
    1XTA    CN331140  -5.810  30.111 -10.012
    1XTA    C1131141  -5.764  29.990 -10.072
    1XTA    C1231142  -5.823  29.933 -10.188
    1XTA    C1331143  -5.949  29.977 -10.224
    1XTA    C1431144  -5.992  30.099 -10.172
    1XTA    C1531145  -5.927  30.167 -10.067
    1XTA     H131146  -5.553  30.173 -10.095
    1XTA     H231147  -5.377  30.351 -10.110
    1XTA     H331148  -5.541  30.533  -9.757
    1XTA     H431149  -5.730  30.377  -9.770
    1XTA     H531150  -5.601  29.981  -9.750
    1XTA     H631151  -5.660  29.906  -9.523
    1XTA     H731152  -6.028  30.148  -9.562
    1XTA     H831153  -5.954  30.222  -9.786
    1XTA     H931154  -5.671  29.948 -10.044
    1XTA    H1031155  -5.774  29.843 -10.231
    1XTA    H1131156  -6.068  30.154 -10.220
    1XTA    H1231157  -5.961  30.262 -10.044
    1XTA    OA131158  -5.331  30.532  -9.935
    1XTA    CO131159  -5.296  30.591  -9.810
    1XTA    OA231160  -5.899  29.994  -9.403
    1XTA    CO231161  -5.811  29.940  -9.315
    1XTA    CL131162  -5.859  29.940  -9.172
    1XTA    CL231163  -5.741  29.931  -9.074
    1XTA    CL331164  -5.640  30.050  -9.084
    1XTA    CL431165  -5.541  30.070  -8.976
    1XTA    CO331166  -5.598  30.112  -8.838
    1XTA    OA331167  -5.496  30.118  -8.734
    1XTA    CO431168  -5.455  29.991  -8.691
    1XTA    CT131169  -5.340  29.997  -8.586
    1XTA    CL531170  -5.231  30.080  -8.652
    1XTA    CL631171  -5.166  30.032  -8.780
    1XTA    OA431172  -6.011  29.906 -10.325
    1XTA    CO531173  -6.142  29.933 -10.365
    1XTA    HL131174  -6.185  29.846 -10.405
    1XTA    HL231175  -5.204  30.635  -9.809
    1XTA    HL331176  -5.362  30.671  -9.780
    1XTA    HL431177  -5.292  30.519  -9.718
    1XTA    HL531178  -5.781  29.832  -9.333
    1XTA    HL631179  -5.727  30.011  -9.322
    1XTA    HL731180  -5.924  29.851  -9.157
    1XTA    HL831181  -5.924  30.031  -9.155
    1XTA    HL931182  -5.680  29.838  -9.097
    1XTA   HL1031183  -5.780  29.925  -8.972
    1XTA   HL1131184  -5.589  30.047  -9.183
    1XTA   HL1231185  -5.698  30.138  -9.093
    1XTA   HL1331186  -5.464  30.137  -9.010
    1XTA   HL1431187  -5.494  29.974  -8.979
    1XTA   HL1531188  -5.643  30.209  -8.843
    1XTA   HL1631189  -5.676  30.038  -8.810
    1XTA   HL1731190  -5.548  29.947  -8.644
    1XTA   HL1831191  -5.426  29.937  -8.787
    1XTA   HL1931192  -5.156  30.085  -8.575
    1XTA   HL2031193  -5.270  30.178  -8.676
    1XTA   HL2131194  -5.087  30.086  -8.823
    1XTA   HL2231195  -5.249  30.012  -8.857
    1XTA   HL2331196  -5.126  29.928  -8.773
    1XTA   HL2431197  -6.145  30.012 -10.431
    1XTA   HL2531198  -6.206  29.950 -10.277
    1XTA    CO831199  -5.296  29.851  -8.563
    1XTA    CO931200  -5.389  30.068  -8.457
    1XTA    OA631201  -5.412  29.981  -8.344
    1XTA   HL4231202  -5.382  29.794  -8.525
    1XTA   HL4331203  -5.209  29.863  -8.492
    1XTA   HL4831204  -5.472  30.141  -8.486
    1XTA   HL4931205  -5.309  30.130  -8.422
    1XTA     NT31206  -7.949  26.820 -11.506
    1XTA    CN131207  -8.001  26.914 -11.587
    1XTA     C131208  -7.941  27.044 -11.585
    1XTA     C231209  -8.009  27.158 -11.648
    1XTA     C331210  -8.135  27.143 -11.718
    1XTA     C431211  -8.185  27.012 -11.728
    1XTA     C531212  -8.117  26.905 -11.665
    1XTA    CN231213  -7.922  26.697 -11.559
    1XTA     C631214  -8.018  26.616 -11.607
    1XTA     C731215  -7.989  26.490 -11.664
    1XTA     C831216  -7.859  26.440 -11.664
    1XTA     C931217  -7.755  26.527 -11.624
    1XTA    C1031218  -7.788  26.653 -11.570
    1XTA    CN331219  -7.943  26.838 -11.371
    1XTA    C1131220  -8.050  26.814 -11.295
    1XTA    C1231221  -8.048  26.841 -11.158
    1XTA    C1331222  -7.937  26.907 -11.102
    1XTA    C1431223  -7.826  26.931 -11.181
    1XTA    C1531224  -7.827  26.894 -11.312
    1XTA     H131225  -7.862  27.064 -11.520
    1XTA     H231226  -7.960  27.257 -11.652
    1XTA     H331227  -8.279  26.987 -11.781
    1XTA     H431228  -8.172  26.818 -11.689
    1XTA     H531229  -8.125  26.651 -11.597
    1XTA     H631230  -8.070  26.428 -11.704
    1XTA     H731231  -7.657  26.494 -11.627
    1XTA     H831232  -7.706  26.723 -11.537
    1XTA     H931233  -8.142  26.769 -11.338
    1XTA    H1031234  -8.139  26.817 -11.104
    1XTA    H1131235  -7.743  26.989 -11.144
    1XTA    H1231236  -7.741  26.901 -11.379
    1XTA    OA131237  -8.195  27.252 -11.779
    1XTA    CO131238  -8.309  27.224 -11.867
    1XTA    OA231239  -7.835  26.316 -11.716
    1XTA    CO231240  -7.699  26.266 -11.694
    1XTA    CL131241  -7.671  26.184 -11.567
    1XTA    CL231242  -7.543  26.096 -11.583
    1XTA    CL331243  -7.525  26.009 -11.457
    1XTA    CL431244  -7.448  26.084 -11.346
    1XTA    CO331245  -7.385  25.995 -11.244
    1XTA    OA331246  -7.341  26.075 -11.132
    1XTA    CO431247  -7.279  25.992 -11.029
    1XTA    CT131248  -7.196  26.084 -10.937
    1XTA    CL531249  -7.126  25.995 -10.830
    1XTA    CL631250  -7.031  25.890 -10.891
    1XTA    OA431251  -7.912  26.947 -10.972
    1XTA    CO531252  -7.980  26.886 -10.866
    1XTA    HL131253  -7.922  26.892 -10.778
    1XTA    HL231254  -8.283  27.155 -11.943
    1XTA    HL331255  -8.398  27.191 -11.810
    1XTA    HL431256  -8.325  27.320 -11.915
    1XTA    HL531257  -7.695  26.181 -11.757
    1XTA    HL631258  -7.617  26.321 -11.736
    1XTA    HL731259  -7.760  26.130 -11.557
    1XTA    HL831260  -7.675  26.233 -11.469
    1XTA    HL931261  -7.456  26.150 -11.614
    1XTA   HL1031262  -7.564  26.019 -11.663
    1XTA   HL1131263  -7.618  25.973 -11.426
    1XTA   HL1231264  -7.471  25.916 -11.493
    1XTA   HL1331265  -7.519  26.147 -11.296
    1XTA   HL1431266  -7.372  26.138 -11.380
    1XTA   HL1531267  -7.449  25.910 -11.209
    1XTA   HL1631268  -7.309  25.940 -11.286
    1XTA   HL1731269  -7.362  25.940 -10.977
    1XTA   HL1831270  -7.223  25.916 -11.081
    1XTA   HL1931271  -7.193  25.955 -10.754
    1XTA   HL2031272  -7.057  26.057 -10.770
    1XTA   HL2131273  -7.083  25.824 -10.957
    1XTA   HL2231274  -6.991  25.830 -10.807
    1XTA   HL2331275  -6.946  25.927 -10.939
    1XTA   HL2431276  -8.000  26.780 -10.889
    1XTA   HL2531277  -8.074  26.927 -10.852
    1XTA    CO831278  -7.283  26.186 -10.862
    1XTA    CO931279  -7.086  26.164 -11.013
    1XTA    OA631280  -7.363  26.126 -10.813
    1XTA   HL4231281  -7.324  26.262 -10.928
    1XTA   HL4331282  -7.222  26.242 -10.784
    1XTA   HL4831283  -7.000  26.073 -11.085
    1XTA   HL4931284  -7.136  26.218 -11.086
    1XTA     NT31285  -5.946  26.447  -9.778
    1XTA    CN131286  -5.975  26.312  -9.782
    1XTA     C131287  -6.022  26.251  -9.668
    1XTA     C231288  -6.037  26.112  -9.660
    1XTA     C331289  -6.002  26.032  -9.771
    1XTA     C431290  -5.958  26.091  -9.891
    1XTA     C531291  -5.938  26.236  -9.896
    1XTA    CN231292  -5.821  26.493  -9.754
    1XTA     C631293  -5.720  26.427  -9.679
    1XTA     C731294  -5.590  26.473  -9.672
    1XTA     C831295  -5.554  26.594  -9.732
    1XTA     C931296  -5.653  26.661  -9.810
    1XTA    C1031297  -5.781  26.609  -9.829
    1XTA    CN331298  -6.052  26.530  -9.765
    1XTA    C1131299  -6.164  26.537  -9.855
    1XTA    C1231300  -6.278  26.627  -9.838
    1XTA    C1331301  -6.272  26.717  -9.727
    1XTA    C1431302  -6.171  26.703  -9.634
    1XTA    C1531303  -6.068  26.609  -9.647
    1XTA     H131304  -6.034  26.302  -9.571
    1XTA     H231305  -6.072  26.069  -9.562
    1XTA     H331306  -5.936  26.032  -9.981
    1XTA     H431307  -5.902  26.281  -9.991
    1XTA     H531308  -5.741  26.321  -9.642
    1XTA     H631309  -5.514  26.421  -9.616
    1XTA     H731310  -5.625  26.752  -9.858
    1XTA     H831311  -5.858  26.659  -9.897
    1XTA     H931312  -6.162  26.488  -9.952
    1XTA    H1031313  -6.359  26.630  -9.915
    1XTA    H1131314  -6.169  26.761  -9.543
    1XTA    H1231315  -5.988  26.602  -9.573
    1XTA    OA131316  -6.009  25.895  -9.767
    1XTA    CO131317  -6.061  25.844  -9.648
    1XTA    OA231318  -5.426  26.642  -9.719
    1XTA    CO231319  -5.387  26.753  -9.798
    1XTA    CL131320  -5.233  26.767  -9.770
    1XTA    CL231321  -5.179  26.881  -9.862
    1XTA    CL331322  -5.050  26.935  -9.799
    1XTA    CL431323  -4.958  26.970  -9.899
    1XTA    CO331324  -4.890  26.848  -9.962
    1XTA    OA331325  -4.787  26.796  -9.874
    1XTA    CO431326  -4.703  26.702  -9.936
    1XTA    CT131327  -4.586  26.660  -9.843
    1XTA    CL531328  -4.487  26.768  -9.825
    1XTA    CL631329  -4.443  26.838  -9.952
    1XTA    OA431330  -6.377  26.805  -9.709
    1XTA    CO531331  -6.376  26.885  -9.592
    1XTA    HL131332  -6.382  26.828  -9.506
    1XTA    HL231333  -6.154  25.897  -9.620
    1XTA    HL331334  -6.091  25.735  -9.650
    1XTA    HL431335  -5.986  25.870  -9.584
    1XTA    HL531336  -5.397  26.732  -9.905
    1XTA    HL631337  -5.443  26.836  -9.765
    1XTA    HL731338  -5.174  26.673  -9.783
    1XTA    HL831339  -5.231  26.790  -9.663
    1XTA    HL931340  -5.248  26.960  -9.886
    1XTA   HL1031341  -5.153  26.832  -9.957
    1XTA   HL1131342  -5.070  27.025  -9.742
    1XTA   HL1231343  -5.009  26.867  -9.726
    1XTA   HL1331344  -4.887  27.026  -9.836
    1XTA   HL1431345  -5.002  27.039  -9.969
    1XTA   HL1531346  -4.962  26.769  -9.983
    1XTA   HL1631347  -4.856  26.866 -10.059
    1XTA   HL1731348  -4.768  26.617  -9.948
    1XTA   HL1831349  -4.673  26.735 -10.039
    1XTA   HL1931350  -4.401  26.729  -9.770
    1XTA   HL2031351  -4.528  26.849  -9.764
    1XTA   HL2131352  -4.513  26.902 -10.007
    1XTA   HL2231353  -4.401  26.774 -10.040
    1XTA   HL2331354  -4.350  26.897  -9.924
    1XTA   HL2431355  -6.467  26.945  -9.596
    1XTA   HL2531356  -6.284  26.946  -9.589
    1XTA    CO831357  -4.512  26.535  -9.903
    1XTA    CO931358  -4.640  26.616  -9.705
    1XTA    OA631359  -4.437  26.556 -10.022
    1XTA   HL4231360  -4.589  26.457  -9.929
    1XTA   HL4331361  -4.439  26.494  -9.838
    1XTA   HL4831362  -4.727  26.558  -9.721
    1XTA   HL4931363  -4.680  26.705  -9.651
    1XTA     NT31364  -4.694  29.299  -6.330
    1XTA    CN131365  -4.755  29.184  -6.361
    1XTA     C131366  -4.865  29.177  -6.447
    1XTA     C231367  -4.933  29.051  -6.474
    1XTA     C331368  -4.894  28.940  -6.403
    1XTA     C431369  -4.779  28.948  -6.315
    1XTA     C531370  -4.715  29.071  -6.290
    1XTA    CN231371  -4.565  29.315  -6.367
    1XTA     C631372  -4.535  29.323  -6.509
    1XTA     C731373  -4.400  29.334  -6.542
    1XTA     C831374  -4.293  29.327  -6.446
    1XTA     C931375  -4.325  29.318  -6.306
    1XTA    C1031376  -4.465  29.307  -6.272
    1XTA    CN331377  -4.740  29.375  -6.231
    1XTA    C1131378  -4.770  29.328  -6.104
    1XTA    C1231379  -4.810  29.411  -5.997
    1XTA    C1331380  -4.826  29.551  -6.025
    1XTA    C1431381  -4.801  29.593  -6.157
    1XTA    C1531382  -4.757  29.510  -6.263
    1XTA     H131383  -4.915  29.258  -6.498
    1XTA     H231384  -5.008  29.062  -6.549
    1XTA     H331385  -4.748  28.855  -6.261
    1XTA     H431386  -4.639  29.087  -6.220
    1XTA     H531387  -4.610  29.298  -6.582
    1XTA     H631388  -4.365  29.346  -6.644
    1XTA     H731389  -4.249  29.298  -6.236
    1XTA     H831390  -4.499  29.293  -6.166
    1XTA     H931391  -4.758  29.226  -6.073
    1XTA    H1031392  -4.812  29.369  -5.897
    1XTA    H1131393  -4.823  29.698  -6.176
    1XTA    H1231394  -4.736  29.548  -6.368
    1XTA    OA131395  -4.955  28.818  -6.433
    1XTA    CO131396  -4.962  28.725  -6.328
    1XTA    OA231397  -4.164  29.352  -6.486
    1XTA    CO231398  -4.059  29.330  -6.389
    1XTA    CL131399  -3.916  29.340  -6.450
    1XTA    CL231400  -3.886  29.225  -6.551
    1XTA    CL331401  -3.744  29.236  -6.601
    1XTA    CL431402  -3.697  29.106  -6.667
    1XTA    CO331403  -3.558  29.130  -6.727
    1XTA    OA331404  -3.523  29.017  -6.800
    1XTA    CO431405  -3.385  29.028  -6.835
    1XTA    CT131406  -3.342  28.889  -6.883
    1XTA    CL531407  -3.190  28.889  -6.916
    1XTA    CL631408  -3.100  28.901  -6.789
    1XTA    OA431409  -4.877  29.646  -5.935
    1XTA    CO531410  -4.929  29.582  -5.816
    1XTA    HL131411  -4.849  29.524  -5.758
    1XTA    HL231412  -4.995  28.632  -6.374
    1XTA    HL331413  -4.862  28.690  -6.294
    1XTA    HL431414  -5.022  28.741  -6.239
    1XTA    HL531415  -4.074  29.412  -6.313
    1XTA    HL631416  -4.067  29.237  -6.341
    1XTA    HL731417  -3.844  29.326  -6.370
    1XTA    HL831418  -3.917  29.438  -6.494
    1XTA    HL931419  -3.955  29.232  -6.634
    1XTA   HL1031420  -3.902  29.125  -6.504
    1XTA   HL1131421  -3.734  29.319  -6.668
    1XTA   HL1231422  -3.678  29.246  -6.518
    1XTA   HL1331423  -3.767  29.078  -6.753
    1XTA   HL1431424  -3.703  29.022  -6.605
    1XTA   HL1531425  -3.569  29.213  -6.798
    1XTA   HL1631426  -3.484  29.165  -6.662
    1XTA   HL1731427  -3.380  29.107  -6.909
    1XTA   HL1831428  -3.322  29.056  -6.753
    1XTA   HL1931429  -3.184  28.978  -6.974
    1XTA   HL2031430  -3.162  28.802  -6.981
    1XTA   HL2131431  -2.992  28.914  -6.817
    1XTA   HL2231432  -3.109  28.816  -6.726
    1XTA   HL2331433  -3.135  28.981  -6.735
    1XTA   HL2431434  -5.007  29.508  -5.846
    1XTA   HL2531435  -4.974  29.649  -5.747
    1XTA    CO831436  -3.422  28.841  -7.008
    1XTA    CO931437  -3.386  28.765  -6.801
    1XTA    OA631438  -3.461  28.731  -6.918
    1XTA   HL4231439  -3.368  28.817  -7.100
    1XTA   HL4331440  -3.509  28.903  -7.037
    1XTA   HL4831441  -3.450  28.784  -6.714
    1XTA   HL4931442  -3.310  28.689  -6.786
    1XTA     NT31443  -0.820  29.415  -4.439
    1XTA    CN131444  -0.904  29.509  -4.389
    1XTA     C131445  -1.016  29.552  -4.461
    1XTA     C231446  -1.114  29.638  -4.408
    1XTA     C331447  -1.103  29.698  -4.281
    1XTA     C431448  -0.985  29.664  -4.210
    1XTA     C531449  -0.885  29.576  -4.265
    1XTA    CN231450  -0.752  29.444  -4.553
    1XTA     C631451  -0.786  29.378  -4.671
    1XTA     C731452  -0.726  29.393  -4.798
    1XTA     C831453  -0.630  29.497  -4.798
    1XTA     C931454  -0.603  29.585  -4.687
    1XTA    C1031455  -0.662  29.552  -4.562
    1XTA    CN331456  -0.808  29.295  -4.369
    1XTA    C1131457  -0.702  29.213  -4.408
    1XTA    C1231458  -0.676  29.099  -4.335
    1XTA    C1331459  -0.766  29.055  -4.238
    1XTA    C1431460  -0.877  29.137  -4.200
    1XTA    C1531461  -0.895  29.258  -4.266
    1XTA     H131462  -1.040  29.500  -4.552
    1XTA     H231463  -1.200  29.661  -4.462
    1XTA     H331464  -0.957  29.697  -4.112
    1XTA     H431465  -0.799  29.541  -4.212
    1XTA     H531466  -0.868  29.310  -4.663
    1XTA     H631467  -0.750  29.349  -4.895
    1XTA     H731468  -0.539  29.670  -4.692
    1XTA     H831469  -0.635  29.599  -4.466
    1XTA     H931470  -0.637  29.255  -4.483
    1XTA    H1031471  -0.603  29.030  -4.361
    1XTA    H1131472  -0.944  29.110  -4.121
    1XTA    H1231473  -0.985  29.313  -4.236
    1XTA    OA131474  -1.199  29.783  -4.228
    1XTA    CO131475  -1.194  29.807  -4.094
    1XTA    OA231476  -0.561  29.523  -4.915
    1XTA    CO231477  -0.595  29.453  -5.034
    1XTA    CL131478  -0.529  29.508  -5.153
    1XTA    CL231479  -0.579  29.432  -5.276
    1XTA    CL331480  -0.597  29.528  -5.400
    1XTA    CL431481  -0.462  29.549  -5.464
    1XTA    CO331482  -0.476  29.639  -5.583
    1XTA    OA331483  -0.351  29.642  -5.654
    1XTA    CO431484  -0.354  29.748  -5.747
    1XTA    CT131485  -0.234  29.767  -5.840
    1XTA    CL531486  -0.209  29.629  -5.912
    1XTA    CL631487  -0.094  29.638  -6.017
    1XTA    OA431488  -0.735  28.933  -4.186
    1XTA    CO531489  -0.828  28.879  -4.092
    1XTA    HL131490  -0.826  28.945  -4.011
    1XTA    HL231491  -1.286  29.864  -4.075
    1XTA    HL331492  -1.195  29.719  -4.026
    1XTA    HL431493  -1.107  29.862  -4.063
    1XTA    HL531494  -0.573  29.344  -5.027
    1XTA    HL631495  -0.701  29.459  -5.054
    1XTA    HL731496  -0.418  29.508  -5.143
    1XTA    HL831497  -0.543  29.618  -5.166
    1XTA    HL931498  -0.674  29.379  -5.247
    1XTA   HL1031499  -0.509  29.349  -5.297
    1XTA   HL1131500  -0.668  29.496  -5.472
    1XTA   HL1231501  -0.646  29.622  -5.379
    1XTA   HL1331502  -0.417  29.458  -5.496
    1XTA   HL1431503  -0.386  29.589  -5.400
    1XTA   HL1531504  -0.561  29.616  -5.643
    1XTA   HL1631505  -0.496  29.731  -5.543
    1XTA   HL1731506  -0.435  29.743  -5.812
    1XTA   HL1831507  -0.378  29.842  -5.694
    1XTA   HL1931508  -0.312  29.608  -5.956
    1XTA   HL2031509  -0.190  29.555  -5.834
    1XTA   HL2131510  -0.071  29.540  -6.048
    1XTA   HL2231511  -0.002  29.692  -5.990
    1XTA   HL2331512  -0.137  29.682  -6.104
    1XTA   HL2431513  -0.790  28.788  -4.044
    1XTA   HL2531514  -0.930  28.872  -4.122
    1XTA    CO831515  -0.113  29.798  -5.745
    1XTA    CO931516  -0.266  29.881  -5.940
    1XTA    OA631517  -0.320  29.990  -5.866
    1XTA   HL4231518  -0.016  29.824  -5.795
    1XTA   HL4331519  -0.091  29.706  -5.681
    1XTA   HL4831520  -0.331  29.851  -6.015
    1XTA   HL4931521  -0.167  29.913  -5.982
    1XTA     NT31522  -7.787  27.641 -10.548
    1XTA    CN131523  -7.854  27.557 -10.620
    1XTA     C131524  -7.831  27.555 -10.762
    1XTA     C231525  -7.916  27.473 -10.839
    1XTA     C331526  -8.027  27.408 -10.789
    1XTA     C431527  -8.051  27.411 -10.649
    1XTA     C531528  -7.968  27.490 -10.572
    1XTA    CN231529  -7.843  27.714 -10.453
    1XTA     C631530  -7.892  27.843 -10.478
    1XTA     C731531  -7.969  27.908 -10.375
    1XTA     C831532  -7.972  27.846 -10.246
    1XTA     C931533  -7.904  27.728 -10.219
    1XTA    C1031534  -7.838  27.660 -10.322
    1XTA    CN331535  -7.656  27.642 -10.563
    1XTA    C1131536  -7.578  27.547 -10.490
    1XTA    C1231537  -7.444  27.546 -10.504
    1XTA    C1331538  -7.373  27.638 -10.583
    1XTA    C1431539  -7.446  27.730 -10.660
    1XTA    C1531540  -7.588  27.725 -10.651
    1XTA     H131541  -7.745  27.607 -10.806
    1XTA     H231542  -7.901  27.466 -10.946
    1XTA     H331543  -8.120  27.350 -10.597
    1XTA     H431544  -7.990  27.486 -10.462
    1XTA     H531545  -7.894  27.900 -10.574
    1XTA     H631546  -8.012  28.001 -10.390
    1XTA     H731547  -7.903  27.687 -10.121
    1XTA     H831548  -7.782  27.565 -10.296
    1XTA     H931549  -7.619  27.479 -10.419
    1XTA    H1031550  -7.385  27.471 -10.457
    1XTA    H1131551  -7.406  27.795 -10.732
    1XTA    H1231552  -7.646  27.794 -10.707
    1XTA    OA131553  -8.101  27.337 -10.880
    1XTA    CO131554  -8.171  27.222 -10.818
    1XTA    OA231555  -8.042  27.905 -10.141
    1XTA    CO231556  -8.069  27.825 -10.027
    1XTA    CL131557  -8.147  27.904  -9.926
    1XTA    CL231558  -8.147  27.841  -9.794
    1XTA    CL331559  -8.205  27.933  -9.692
    1XTA    CL431560  -8.270  27.856  -9.573
    1XTA    CO331561  -8.174  27.758  -9.512
    1XTA    OA331562  -8.049  27.825  -9.495
    1XTA    CO431563  -7.955  27.757  -9.416
    1XTA    CT131564  -7.828  27.844  -9.386
    1XTA    CL531565  -7.731  27.751  -9.303
    1XTA    CL631566  -7.698  27.615  -9.360
    1XTA    OA431567  -7.239  27.633 -10.599
    1XTA    CO531568  -7.149  27.561 -10.507
    1XTA    HL131569  -7.047  27.586 -10.538
    1XTA    HL231570  -8.206  27.151 -10.891
    1XTA    HL331571  -8.112  27.175 -10.743
    1XTA    HL431572  -8.261  27.251 -10.761
    1XTA    HL531573  -8.122  27.735 -10.042
    1XTA    HL631574  -7.971  27.794  -9.986
    1XTA    HL731575  -8.246  27.932  -9.965
    1XTA    HL831576  -8.082  27.993  -9.926
    1XTA    HL931577  -8.044  27.809  -9.772
    1XTA   HL1031578  -8.200  27.749  -9.797
    1XTA   HL1131579  -8.129  27.994  -9.652
    1XTA   HL1231580  -8.284  27.995  -9.727
    1XTA   HL1331581  -8.364  27.815  -9.599
    1XTA   HL1431582  -8.312  27.931  -9.503
    1XTA   HL1531583  -8.200  27.717  -9.414
    1XTA   HL1631584  -8.156  27.665  -9.572
    1XTA   HL1731585  -8.002  27.723  -9.320
    1XTA   HL1831586  -7.934  27.666  -9.473
    1XTA   HL1931587  -7.800  27.724  -9.216
    1XTA   HL2031588  -7.650  27.818  -9.261
    1XTA   HL2131589  -7.787  27.540  -9.371
    1XTA   HL2231590  -7.634  27.576  -9.279
    1XTA   HL2331591  -7.639  27.617  -9.450
    1XTA   HL2431592  -7.170  27.455 -10.520
    1XTA   HL2531593  -7.165  27.596 -10.402
    1XTA    CO831594  -7.874  27.964  -9.296
    1XTA    CO931595  -7.752  27.903  -9.510
    1XTA    OA631596  -7.782  28.031  -9.268
    1XTA   HL4231597  -7.935  27.926  -9.210
    1XTA   HL4331598  -7.934  28.014  -9.364
    1XTA   HL4831599  -7.649  27.985  -9.464
    1XTA   HL4931600  -7.831  27.956  -9.559
    1XTA     NT31601  -2.128  27.397  -8.991
    1XTA    CN131602  -2.027  27.309  -8.969
    1XTA     C131603  -2.027  27.236  -8.846
    1XTA     C231604  -1.950  27.122  -8.832
    1XTA     C331605  -1.857  27.085  -8.933
    1XTA     C431606  -1.846  27.164  -9.047
    1XTA     C531607  -1.930  27.276  -9.068
    1XTA    CN231608  -2.194  27.401  -9.103
    1XTA     C631609  -2.315  27.335  -9.111
    1XTA     C731610  -2.404  27.350  -9.222
    1XTA     C831611  -2.358  27.432  -9.327
    1XTA     C931612  -2.233  27.496  -9.319
    1XTA    C1031613  -2.148  27.471  -9.215
    1XTA    CN331614  -2.151  27.492  -8.898
    1XTA    C1131615  -2.242  27.469  -8.788
    1XTA    C1231616  -2.257  27.572  -8.694
    1XTA    C1331617  -2.186  27.693  -8.699
    1XTA    C1431618  -2.078  27.702  -8.793
    1XTA    C1531619  -2.070  27.611  -8.899
    1XTA     H131620  -2.092  27.267  -8.762
    1XTA     H231621  -1.960  27.062  -8.745
    1XTA     H331622  -1.777  27.132  -9.121
    1XTA     H431623  -1.926  27.331  -9.157
    1XTA     H531624  -2.356  27.279  -9.025
    1XTA     H631625  -2.501  27.303  -9.227
    1XTA     H731626  -2.194  27.550  -9.395
    1XTA     H831627  -2.049  27.519  -9.205
    1XTA     H931628  -2.306  27.385  -8.775
    1XTA    H1031629  -2.331  27.555  -8.613
    1XTA    H1131630  -2.008  27.789  -8.801
    1XTA    H1231631  -2.010  27.630  -8.985
    1XTA    OA131632  -1.775  26.974  -8.917
    1XTA    CO131633  -1.711  26.917  -9.031
    1XTA    OA231634  -2.429  27.470  -9.437
    1XTA    CO231635  -2.544  27.388  -9.462
    1XTA    CL131636  -2.660  27.446  -9.372
    1XTA    CL231637  -2.775  27.345  -9.365
    1XTA    CL331638  -2.751  27.229  -9.262
    1XTA    CL431639  -2.753  27.285  -9.118
    1XTA    CO331640  -2.674  27.197  -9.013
    1XTA    OA331641  -2.720  27.062  -9.025
    1XTA    CO431642  -2.644  26.958  -8.970
    1XTA    CT131643  -2.692  26.818  -9.010
    1XTA    CL531644  -2.693  26.815  -9.164
    1XTA    CL631645  -2.578  26.885  -9.238
    1XTA    OA431646  -2.194  27.770  -8.586
    1XTA    CO531647  -2.111  27.884  -8.579
    1XTA    HL131648  -2.129  27.958  -8.653
    1XTA    HL231649  -1.692  26.812  -8.999
    1XTA    HL331650  -1.771  26.904  -9.121
    1XTA    HL431651  -1.618  26.965  -9.055
    1XTA    HL531652  -2.575  27.407  -9.566
    1XTA    HL631653  -2.513  27.286  -9.452
    1XTA    HL731654  -2.695  27.538  -9.416
    1XTA    HL831655  -2.629  27.474  -9.266
    1XTA    HL931656  -2.806  27.309  -9.465
    1XTA   HL1031657  -2.863  27.397  -9.329
    1XTA   HL1131658  -2.821  27.148  -9.264
    1XTA   HL1231659  -2.651  27.184  -9.277
    1XTA   HL1331660  -2.861  27.295  -9.097
    1XTA   HL1431661  -2.714  27.385  -9.127
    1XTA   HL1531662  -2.568  27.200  -9.029
    1XTA   HL1631663  -2.688  27.238  -8.911
    1XTA   HL1731664  -2.541  26.969  -9.008
    1XTA   HL1831665  -2.634  26.970  -8.859
    1XTA   HL1931666  -2.781  26.861  -9.190
    1XTA   HL2031667  -2.706  26.708  -9.194
    1XTA   HL2131668  -2.570  26.849  -9.341
    1XTA   HL2231669  -2.486  26.870  -9.184
    1XTA   HL2331670  -2.600  26.990  -9.240
    1XTA   HL2431671  -2.004  27.873  -8.570
    1XTA   HL2531672  -2.144  27.927  -8.478
    1XTA    CO831673  -2.836  26.793  -8.957
    1XTA    CO931674  -2.593  26.721  -8.944
    1XTA    OA631675  -2.608  26.587  -8.984
    1XTA   HL4231676  -2.848  26.691  -8.988
    1XTA   HL4331677  -2.836  26.803  -8.850
    1XTA   HL4831678  -2.584  26.732  -8.840
    1XTA   HL4931679  -2.496  26.749  -8.974
    1XTA     NT31680  -3.687  28.327 -11.671
    1XTA    CN131681  -3.562  28.269 -11.658
    1XTA     C131682  -3.449  28.344 -11.688
    1XTA     C231683  -3.320  28.296 -11.678
    1XTA     C331684  -3.297  28.158 -11.640
    1XTA     C431685  -3.408  28.078 -11.617
    1XTA     C531686  -3.542  28.135 -11.625
    1XTA    CN231687  -3.760  28.341 -11.559
    1XTA     C631688  -3.735  28.450 -11.472
    1XTA     C731689  -3.816  28.456 -11.353
    1XTA     C831690  -3.932  28.379 -11.334
    1XTA     C931691  -3.949  28.270 -11.420
    1XTA    C1031692  -3.867  28.248 -11.535
    1XTA    CN331693  -3.727  28.384 -11.781
    1XTA    C1131694  -3.789  28.510 -11.786
    1XTA    C1231695  -3.824  28.564 -11.904
    1XTA    C1331696  -3.809  28.490 -12.026
    1XTA    C1431697  -3.756  28.360 -12.023
    1XTA    C1531698  -3.713  28.309 -11.899
    1XTA     H131699  -3.471  28.449 -11.710
    1XTA     H231700  -3.231  28.362 -11.696
    1XTA     H331701  -3.409  27.978 -11.584
    1XTA     H431702  -3.629  28.084 -11.604
    1XTA     H531703  -3.646  28.509 -11.475
    1XTA     H631704  -3.781  28.530 -11.281
    1XTA     H731705  -4.043  28.217 -11.406
    1XTA     H831706  -3.891  28.174 -11.611
    1XTA     H931707  -3.816  28.560 -11.700
    1XTA    H1031708  -3.878  28.657 -11.904
    1XTA    H1131709  -3.748  28.311 -12.114
    1XTA    H1231710  -3.665  28.214 -11.895
    1XTA    OA131711  -3.177  28.097 -11.644
    1XTA    CO131712  -3.062  28.187 -11.651
    1XTA    OA231713  -4.020  28.401 -11.231
    1XTA    CO231714  -3.998  28.517 -11.156
    1XTA    CL131715  -4.111  28.519 -11.056
    1XTA    CL231716  -4.112  28.650 -10.982
    1XTA    CL331717  -4.211  28.641 -10.863
    1XTA    CL431718  -4.199  28.520 -10.764
    1XTA    CO331719  -4.264  28.551 -10.632
    1XTA    OA331720  -4.238  28.431 -10.553
    1XTA    CO431721  -4.112  28.435 -10.489
    1XTA    CT131722  -4.077  28.298 -10.428
    1XTA    CL531723  -4.093  28.191 -10.533
    1XTA    CL631724  -4.068  28.052 -10.484
    1XTA    OA431725  -3.859  28.536 -12.142
    1XTA    CO531726  -3.957  28.637 -12.135
    1XTA    HL131727  -4.043  28.623 -12.069
    1XTA    HL231728  -3.042  28.235 -11.745
    1XTA    HL331729  -3.070  28.273 -11.584
    1XTA    HL431730  -2.978  28.129 -11.622
    1XTA    HL531731  -3.900  28.510 -11.102
    1XTA    HL631732  -3.995  28.605 -11.215
    1XTA    HL731733  -4.101  28.435 -10.982
    1XTA    HL831734  -4.208  28.504 -11.102
    1XTA    HL931735  -4.145  28.725 -11.055
    1XTA   HL1031736  -4.013  28.687 -10.949
    1XTA   HL1131737  -4.215  28.733 -10.803
    1XTA   HL1231738  -4.302  28.647 -10.924
    1XTA   HL1331739  -4.092  28.500 -10.752
    1XTA   HL1431740  -4.242  28.431 -10.813
    1XTA   HL1531741  -4.240  28.650 -10.589
    1XTA   HL1631742  -4.372  28.549 -10.633
    1XTA   HL1731743  -4.024  28.469 -10.554
    1XTA   HL1831744  -4.110  28.507 -10.410
    1XTA   HL1931745  -4.040  28.212 -10.620
    1XTA   HL2031746  -4.200  28.199 -10.555
    1XTA   HL2131747  -3.957  28.031 -10.471
    1XTA   HL2231748  -4.101  27.974 -10.554
    1XTA   HL2331749  -4.105  28.023 -10.386
    1XTA   HL2431750  -4.010  28.627 -12.236
    1XTA   HL2531751  -3.914  28.738 -12.137
    1XTA    CO831752  -4.175  28.279 -10.310
    1XTA    CO931753  -3.923  28.306 -10.378
    1XTA    OA631754  -4.312  28.317 -10.336
    1XTA   HL4231755  -4.147  28.350 -10.229
    1XTA   HL4331756  -4.170  28.179 -10.259
    1XTA   HL4831757  -3.884  28.202 -10.379
    1XTA   HL4931758  -3.853  28.371 -10.434
    1XTA     NT31759  -1.707  22.584  -7.576
    1XTA    CN131760  -1.706  22.566  -7.707
    1XTA     C131761  -1.621  22.646  -7.790
    1XTA     C231762  -1.628  22.646  -7.931
    1XTA     C331763  -1.725  22.563  -7.989
    1XTA     C431764  -1.812  22.487  -7.909
    1XTA     C531765  -1.803  22.488  -7.770
    1XTA    CN231766  -1.822  22.628  -7.510
    1XTA     C631767  -1.873  22.556  -7.402
    1XTA     C731768  -2.000  22.574  -7.350
    1XTA     C831769  -2.084  22.676  -7.408
    1XTA     C931770  -2.030  22.753  -7.514
    1XTA    C1031771  -1.900  22.737  -7.560
    1XTA    CN331772  -1.591  22.576  -7.511
    1XTA    C1131773  -1.516  22.451  -7.513
    1XTA    C1231774  -1.399  22.436  -7.433
    1XTA    C1331775  -1.358  22.547  -7.354
    1XTA    C1431776  -1.423  22.671  -7.360
    1XTA    C1531777  -1.539  22.685  -7.439
    1XTA     H131778  -1.550  22.700  -7.744
    1XTA     H231779  -1.548  22.691  -7.976
    1XTA     H331780  -1.884  22.423  -7.954
    1XTA     H431781  -1.872  22.439  -7.704
    1XTA     H531782  -1.823  22.472  -7.352
    1XTA     H631783  -2.029  22.526  -7.255
    1XTA     H731784  -2.081  22.833  -7.560
    1XTA     H831785  -1.853  22.798  -7.642
    1XTA     H931786  -1.557  22.366  -7.572
    1XTA    H1031787  -1.345  22.341  -7.438
    1XTA    H1131788  -1.396  22.757  -7.305
    1XTA    H1231789  -1.592  22.784  -7.441
    1XTA    OA131790  -1.741  22.555  -8.119
    1XTA    CO131791  -1.617  22.555  -8.200
    1XTA    OA231792  -2.201  22.700  -7.354
    1XTA    CO231793  -2.286  22.781  -7.433
    1XTA    CL131794  -2.427  22.796  -7.374
    1XTA    CL231795  -2.516  22.886  -7.457
    1XTA    CL331796  -2.564  22.824  -7.587
    1XTA    CL431797  -2.659  22.928  -7.651
    1XTA    CO331798  -2.712  22.892  -7.789
    1XTA    OA331799  -2.803  22.993  -7.806
    1XTA    CO431800  -2.872  23.003  -7.932
    1XTA    CT131801  -3.007  23.076  -7.911
    1XTA    CL531802  -3.073  23.111  -8.047
    1XTA    CL631803  -2.998  23.208  -8.136
    1XTA    OA431804  -1.239  22.536  -7.279
    1XTA    CO531805  -1.140  22.636  -7.312
    1XTA    HL131806  -1.150  22.721  -7.239
    1XTA    HL231807  -1.554  22.642  -8.179
    1XTA    HL331808  -1.560  22.461  -8.182
    1XTA    HL431809  -1.653  22.550  -8.299
    1XTA    HL531810  -2.246  22.883  -7.454
    1XTA    HL631811  -2.306  22.736  -7.534
    1XTA    HL731812  -2.418  22.845  -7.279
    1XTA    HL831813  -2.468  22.692  -7.361
    1XTA    HL931814  -2.467  22.983  -7.463
    1XTA   HL1031815  -2.605  22.912  -7.402
    1XTA   HL1131816  -2.481  22.811  -7.659
    1XTA   HL1231817  -2.605  22.717  -7.585
    1XTA   HL1331818  -2.600  23.021  -7.642
    1XTA   HL1431819  -2.738  22.924  -7.581
    1XTA   HL1531820  -2.627  22.897  -7.865
    1XTA   HL1631821  -2.761  22.797  -7.790
    1XTA   HL1731822  -2.813  23.069  -7.996
    1XTA   HL1831823  -2.895  22.908  -7.981
    1XTA   HL1931824  -3.174  23.145  -8.023
    1XTA   HL2031825  -3.084  23.019  -8.108
    1XTA   HL2131826  -2.955  23.292  -8.085
    1XTA   HL2231827  -3.062  23.244  -8.221
    1XTA   HL2331828  -2.919  23.153  -8.175
    1XTA   HL2431829  -1.148  22.683  -7.408
    1XTA   HL2531830  -1.030  22.621  -7.299
    1XTA    CO831831  -2.983  23.189  -7.822
    1XTA    CO931832  -3.097  22.974  -7.836
    1XTA    OA631833  -3.192  23.038  -7.810
    1XTA   HL4231834  -2.903  23.245  -7.869
    1XTA   HL4331835  -2.931  23.161  -7.693
    1XTA   HL4831836  -3.049  22.940  -7.746
    1XTA   HL4931837  -3.133  22.891  -7.895
    1XTA     NT31838  -6.597  27.232 -10.388
    1XTA    CN131839  -6.542  27.288 -10.504
    1XTA     C131840  -6.509  27.426 -10.509
    1XTA     C231841  -6.430  27.472 -10.614
    1XTA     C331842  -6.394  27.385 -10.717
    1XTA     C431843  -6.437  27.252 -10.720
    1XTA     C531844  -6.492  27.200 -10.604
    1XTA    CN231845  -6.732  27.224 -10.376
    1XTA     C631846  -6.815  27.312 -10.301
    1XTA     C731847  -6.951  27.288 -10.291
    1XTA     C831848  -7.015  27.179 -10.353
    1XTA     C931849  -6.933  27.083 -10.424
    1XTA    C1031850  -6.795  27.107 -10.433
    1XTA    CN331851  -6.515  27.161 -10.308
    1XTA    C1131852  -6.497  27.021 -10.325
    1XTA    C1231853  -6.409  26.958 -10.238
    1XTA    C1331854  -6.340  27.030 -10.138
    1XTA    C1431855  -6.365  27.169 -10.115
    1XTA    C1531856  -6.458  27.235 -10.200
    1XTA     H131857  -6.525  27.486 -10.420
    1XTA     H231858  -6.391  27.574 -10.605
    1XTA     H331859  -6.429  27.198 -10.814
    1XTA     H431860  -6.522  27.098 -10.617
    1XTA     H531861  -6.768  27.395 -10.249
    1XTA     H631862  -7.013  27.355 -10.232
    1XTA     H731863  -6.970  26.996 -10.467
    1XTA     H831864  -6.739  27.039 -10.498
    1XTA     H931865  -6.545  26.957 -10.400
    1XTA    H1031866  -6.391  26.852 -10.248
    1XTA    H1131867  -6.323  27.230 -10.035
    1XTA    H1231868  -6.488  27.332 -10.167
    1XTA    OA131869  -6.316  27.431 -10.818
    1XTA    CO131870  -6.189  27.386 -10.817
    1XTA    OA231871  -7.155  27.173 -10.347
    1XTA    CO231872  -7.219  27.136 -10.472
    1XTA    CL131873  -7.365  27.114 -10.448
    1XTA    CL231874  -7.449  27.097 -10.574
    1XTA    CL331875  -7.596  27.048 -10.539
    1XTA    CL431876  -7.683  27.038 -10.661
    1XTA    CO331877  -7.625  26.964 -10.783
    1XTA    OA331878  -7.633  26.818 -10.772
    1XTA    CO431879  -7.525  26.745 -10.728
    1XTA    CT131880  -7.435  26.682 -10.837
    1XTA    CL531881  -7.501  26.550 -10.877
    1XTA    CL631882  -7.642  26.556 -10.932
    1XTA    OA431883  -6.268  26.951 -10.049
    1XTA    CO531884  -6.199  27.026  -9.947
    1XTA    HL131885  -6.268  27.066  -9.872
    1XTA    HL231886  -6.136  27.426 -10.732
    1XTA    HL331887  -6.189  27.282 -10.789
    1XTA    HL431888  -6.138  27.406 -10.909
    1XTA    HL531889  -7.202  27.207 -10.554
    1XTA    HL631890  -7.188  27.039 -10.505
    1XTA    HL731891  -7.415  27.187 -10.386
    1XTA    HL831892  -7.374  27.022 -10.392
    1XTA    HL931893  -7.401  27.018 -10.634
    1XTA   HL1031894  -7.453  27.194 -10.626
    1XTA   HL1131895  -7.588  26.949 -10.483
    1XTA   HL1231896  -7.638  27.103 -10.458
    1XTA   HL1331897  -7.722  27.136 -10.680
    1XTA   HL1431898  -7.763  26.979 -10.639
    1XTA   HL1531899  -7.677  27.000 -10.870
    1XTA   HL1631900  -7.522  26.997 -10.816
    1XTA   HL1731901  -7.468  26.800 -10.664
    1XTA   HL1831902  -7.546  26.663 -10.658
    1XTA   HL1931903  -7.509  26.481 -10.795
    1XTA   HL2031904  -7.447  26.507 -10.954
    1XTA   HL2131905  -7.711  26.594 -10.853
    1XTA   HL2231906  -7.682  26.459 -10.961
    1XTA   HL2331907  -7.637  26.616 -11.018
    1XTA   HL2431908  -6.132  27.092  -9.992
    1XTA   HL2531909  -6.140  26.963  -9.879
    1XTA    CO831910  -7.297  26.650 -10.786
    1XTA    CO931911  -7.418  26.770 -10.966
    1XTA    OA631912  -7.290  26.612 -10.658
    1XTA   HL4231913  -7.256  26.750 -10.782
    1XTA   HL4331914  -7.238  26.599 -10.858
    1XTA   HL4831915  -7.391  26.710 -11.051
    1XTA   HL4931916  -7.513  26.808 -11.004
    1XTA     NT31917  -6.400  29.342  -6.655
    1XTA    CN131918  -6.435  29.213  -6.677
    1XTA     C131919  -6.333  29.112  -6.672
    1XTA     C231920  -6.372  28.975  -6.692
    1XTA     C331921  -6.505  28.941  -6.731
    1XTA     C431922  -6.601  29.047  -6.739
    1XTA     C531923  -6.566  29.180  -6.705
    1XTA    CN231924  -6.304  29.393  -6.729
    1XTA     C631925  -6.338  29.449  -6.847
    1XTA     C731926  -6.236  29.492  -6.931
    1XTA     C831927  -6.102  29.466  -6.913
    1XTA     C931928  -6.065  29.411  -6.794
    1XTA    C1031929  -6.167  29.377  -6.695
    1XTA    CN331930  -6.423  29.400  -6.534
    1XTA    C1131931  -6.400  29.325  -6.413
    1XTA    C1231932  -6.405  29.390  -6.292
    1XTA    C1331933  -6.441  29.528  -6.280
    1XTA    C1431934  -6.469  29.601  -6.397
    1XTA    C1531935  -6.466  29.534  -6.521
    1XTA     H131936  -6.233  29.135  -6.645
    1XTA     H231937  -6.294  28.896  -6.691
    1XTA     H331938  -6.708  29.031  -6.756
    1XTA     H431939  -6.637  29.249  -6.706
    1XTA     H531940  -6.433  29.466  -6.884
    1XTA     H631941  -6.262  29.542  -7.024
    1XTA     H731942  -5.966  29.396  -6.761
    1XTA     H831943  -6.134  29.337  -6.602
    1XTA     H931944  -6.386  29.218  -6.422
    1XTA    H1031945  -6.390  29.329  -6.203
    1XTA    H1131946  -6.509  29.699  -6.377
    1XTA    H1231947  -6.490  29.590  -6.608
    1XTA    OA131948  -6.530  28.807  -6.759
    1XTA    CO131949  -6.676  28.785  -6.779
    1XTA    OA231950  -6.014  29.504  -7.010
    1XTA    CO231951  -5.938  29.389  -7.051
    1XTA    CL131952  -6.017  29.267  -7.104
    1XTA    CL231953  -5.925  29.145  -7.103
    1XTA    CL331954  -6.010  29.035  -7.160
    1XTA    CL431955  -5.962  28.886  -7.135
    1XTA    CO331956  -6.081  28.788  -7.105
    1XTA    OA331957  -6.170  28.760  -7.210
    1XTA    CO431958  -6.116  28.659  -7.295
    1XTA    CT131959  -6.132  28.702  -7.442
    1XTA    CL531960  -6.048  28.604  -7.533
    1XTA    CL631961  -6.096  28.462  -7.534
    1XTA    OA431962  -6.435  29.593  -6.162
    1XTA    CO531963  -6.364  29.534  -6.052
    1XTA    HL131964  -6.418  29.444  -6.020
    1XTA    HL231965  -6.736  28.822  -6.698
    1XTA    HL331966  -6.715  28.834  -6.864
    1XTA    HL431967  -6.698  28.682  -6.804
    1XTA    HL531968  -5.872  29.421  -7.128
    1XTA    HL631969  -5.873  29.372  -6.969
    1XTA    HL731970  -6.056  29.285  -7.211
    1XTA    HL831971  -6.107  29.248  -7.042
    1XTA    HL931972  -5.904  29.124  -6.996
    1XTA   HL1031973  -5.835  29.154  -7.160
    1XTA   HL1131974  -6.103  29.040  -7.113
    1XTA   HL1231975  -6.031  29.055  -7.263
    1XTA   HL1331976  -5.894  28.889  -7.049
    1XTA   HL1431977  -5.898  28.850  -7.212
    1XTA   HL1531978  -6.029  28.691  -7.074
    1XTA   HL1631979  -6.137  28.830  -7.023
    1XTA   HL1731980  -6.010  28.643  -7.278
    1XTA   HL1831981  -6.166  28.565  -7.282
    1XTA   HL1931982  -5.946  28.598  -7.497
    1XTA   HL2031983  -6.033  28.637  -7.639
    1XTA   HL2131984  -6.021  28.396  -7.575
    1XTA   HL2231985  -6.189  28.446  -7.589
    1XTA   HL2331986  -6.109  28.426  -7.433
    1XTA   HL2431987  -6.351  29.600  -5.968
    1XTA   HL2531988  -6.266  29.504  -6.090
    1XTA    CO831989  -6.072  28.841  -7.462
    1XTA    CO931990  -6.282  28.724  -7.483
    1XTA    OA631991  -6.095  28.878  -7.597
    1XTA   HL4231992  -5.963  28.832  -7.439
    1XTA   HL4331993  -6.117  28.906  -7.396
    1XTA   HL4831994  -6.304  28.778  -7.582
    1XTA   HL4931995  -6.324  28.798  -7.414
    1XTA     NT31996  -3.392  26.930  -5.904
    1XTA    CN131997  -3.493  27.012  -5.952
    1XTA     C131998  -3.603  26.962  -6.028
    1XTA     C231999  -3.694  27.048  -6.085
    1XTA     C332000  -3.684  27.184  -6.053
    1XTA     C432001  -3.568  27.233  -5.990
    1XTA     C532002  -3.475  27.149  -5.938
    1XTA    CN232003  -3.279  26.914  -5.972
    1XTA     C632004  -3.274  26.844  -6.096
    1XTA     C732005  -3.152  26.827  -6.166
    1XTA     C832006  -3.040  26.885  -6.105
    1XTA     C932007  -3.049  26.965  -5.988
    1XTA    C1032008  -3.165  26.974  -5.916
    1XTA    CN332009  -3.404  26.848  -5.791
    1XTA    C1132010  -3.316  26.862  -5.682
    1XTA    C1232011  -3.325  26.778  -5.570
    1XTA    C1332012  -3.432  26.693  -5.551
    1XTA    C1432013  -3.524  26.682  -5.656
    1XTA    C1532014  -3.516  26.762  -5.770
    1XTA     H132015  -3.615  26.863  -6.044
    1XTA     H232016  -3.786  27.024  -6.135
    1XTA     H332017  -3.559  27.340  -5.978
    1XTA     H432018  -3.393  27.179  -5.881
    1XTA     H532019  -3.360  26.801  -6.137
    1XTA     H632020  -3.148  26.760  -6.250
    1XTA     H732021  -2.958  27.019  -5.961
    1XTA     H832022  -3.183  27.035  -5.823
    1XTA     H932023  -3.238  26.932  -5.688
    1XTA    H1032024  -3.252  26.783  -5.484
    1XTA    H1132025  -3.605  26.616  -5.645
    1XTA    H1232026  -3.592  26.747  -5.849
    1XTA    OA132027  -3.759  27.288  -6.097
    1XTA    CO132028  -3.864  27.251  -6.186
    1XTA    OA232029  -2.917  26.894  -6.172
    1XTA    CO232030  -2.895  26.809  -6.287
    1XTA    CL132031  -2.744  26.784  -6.329
    1XTA    CL232032  -2.668  26.702  -6.225
    1XTA    CL332033  -2.520  26.697  -6.255
    1XTA    CL432034  -2.446  26.621  -6.149
    1XTA    CO332035  -2.295  26.630  -6.152
    1XTA    OA332036  -2.252  26.591  -6.277
    1XTA    CO432037  -2.216  26.701  -6.360
    1XTA    CT132038  -2.180  26.646  -6.496
    1XTA    CL532039  -2.319  26.606  -6.552
    1XTA    CL632040  -2.305  26.540  -6.689
    1XTA    OA432041  -3.450  26.616  -5.438
    1XTA    CO532042  -3.357  26.626  -5.337
    1XTA    HL132043  -3.390  26.573  -5.248
    1XTA    HL232044  -3.920  27.339  -6.212
    1XTA    HL332045  -3.816  27.205  -6.268
    1XTA    HL432046  -3.929  27.179  -6.132
    1XTA    HL532047  -2.947  26.714  -6.272
    1XTA    HL632048  -2.946  26.857  -6.368
    1XTA    HL732049  -2.705  26.885  -6.344
    1XTA    HL832050  -2.731  26.749  -6.437
    1XTA    HL932051  -2.719  26.605  -6.218
    1XTA   HL1032052  -2.681  26.753  -6.135
    1XTA   HL1132053  -2.498  26.667  -6.362
    1XTA   HL1232054  -2.491  26.798  -6.243
    1XTA   HL1332055  -2.484  26.527  -6.175
    1XTA   HL1432056  -2.490  26.663  -6.057
    1XTA   HL1532057  -2.270  26.729  -6.124
    1XTA   HL1632058  -2.239  26.566  -6.078
    1XTA   HL1732059  -2.292  26.777  -6.365
    1XTA   HL1832060  -2.130  26.757  -6.317
    1XTA   HL1932061  -2.384  26.698  -6.567
    1XTA   HL2032062  -2.371  26.537  -6.489
    1XTA   HL2132063  -2.313  26.625  -6.764
    1XTA   HL2232064  -2.401  26.490  -6.711
    1XTA   HL2332065  -2.225  26.466  -6.703
    1XTA   HL2432066  -3.357  26.733  -5.299
    1XTA   HL2532067  -3.265  26.578  -5.373
    1XTA    CO832068  -2.095  26.515  -6.482
    1XTA    CO932069  -2.108  26.757  -6.576
    1XTA    OA632070  -2.208  26.860  -6.604
    1XTA   HL4232071  -2.013  26.546  -6.416
    1XTA   HL4332072  -2.153  26.444  -6.438
    1XTA   HL4832073  -2.078  26.712  -6.669
    1XTA   HL4932074  -2.031  26.800  -6.512
    1XTA     NT32075  -3.299  27.597 -10.902
    1XTA    CN132076  -3.200  27.668 -10.949
    1XTA     C132077  -3.095  27.600 -11.015
    1XTA     C232078  -2.988  27.673 -11.055
    1XTA     C332079  -2.983  27.813 -11.048
    1XTA     C432080  -3.090  27.885 -10.991
    1XTA     C532081  -3.193  27.810 -10.938
    1XTA    CN232082  -3.317  27.571 -10.765
    1XTA     C632083  -3.238  27.470 -10.705
    1XTA     C732084  -3.239  27.442 -10.568
    1XTA     C832085  -3.335  27.513 -10.486
    1XTA     C932086  -3.426  27.607 -10.548
    1XTA    C1032087  -3.413  27.631 -10.689
    1XTA    CN332088  -3.414  27.587 -10.973
    1XTA    C1132089  -3.443  27.466 -11.036
    1XTA    C1232090  -3.560  27.458 -11.114
    1XTA    C1332091  -3.642  27.578 -11.139
    1XTA    C1432092  -3.606  27.693 -11.068
    1XTA    C1532093  -3.493  27.703 -10.995
    1XTA     H132094  -3.094  27.492 -11.027
    1XTA     H232095  -2.901  27.622 -11.101
    1XTA     H332096  -3.097  27.987 -11.000
    1XTA     H432097  -3.279  27.870 -10.896
    1XTA     H532098  -3.183  27.404 -10.771
    1XTA     H632099  -3.170  27.368 -10.525
    1XTA     H732100  -3.506  27.662 -10.500
    1XTA     H832101  -3.484  27.707 -10.725
    1XTA     H932102  -3.380  27.382 -11.017
    1XTA    H1032103  -3.591  27.365 -11.154
    1XTA    H1132104  -3.665  27.786 -11.067
    1XTA    H1232105  -3.468  27.789 -10.946
    1XTA    OA132106  -2.872  27.878 -11.102
    1XTA    CO132107  -2.805  27.958 -11.008
    1XTA    OA232108  -3.331  27.496 -10.350
    1XTA    CO232109  -3.400  27.585 -10.266
    1XTA    CL132110  -3.332  27.566 -10.127
    1XTA    CL232111  -3.376  27.665 -10.026
    1XTA    CL332112  -3.326  27.646  -9.876
    1XTA    CL432113  -3.433  27.614  -9.779
    1XTA    CO332114  -3.516  27.487  -9.816
    1XTA    OA332115  -3.617  27.466  -9.717
    1XTA    CO432116  -3.577  27.380  -9.611
    1XTA    CT132117  -3.672  27.373  -9.489
    1XTA    CL532118  -3.707  27.518  -9.443
    1XTA    CL632119  -3.796  27.541  -9.327
    1XTA    OA432120  -3.759  27.553 -11.213
    1XTA    CO532121  -3.830  27.668 -11.260
    1XTA    HL132122  -3.900  27.701 -11.186
    1XTA    HL232123  -2.742  27.875 -10.958
    1XTA    HL332124  -2.738  28.029 -11.052
    1XTA    HL432125  -2.868  28.010 -10.938
    1XTA    HL532126  -3.382  27.690 -10.302
    1XTA    HL632127  -3.501  27.567 -10.267
    1XTA    HL732128  -3.224  27.556 -10.139
    1XTA    HL832129  -3.377  27.470 -10.087
    1XTA    HL932130  -3.488  27.687 -10.023
    1XTA   HL1032131  -3.339  27.761 -10.065
    1XTA   HL1132132  -3.247  27.570  -9.863
    1XTA   HL1232133  -3.273  27.734  -9.848
    1XTA   HL1332134  -3.501  27.699  -9.748
    1XTA   HL1432135  -3.377  27.602  -9.690
    1XTA   HL1532136  -3.571  27.500  -9.912
    1XTA   HL1632137  -3.466  27.389  -9.819
    1XTA   HL1732138  -3.563  27.283  -9.647
    1XTA   HL1832139  -3.475  27.415  -9.578
    1XTA   HL1932140  -3.750  27.564  -9.530
    1XTA   HL2032141  -3.613  27.574  -9.422
    1XTA   HL2132142  -3.788  27.644  -9.280
    1XTA   HL2232143  -3.784  27.469  -9.253
    1XTA   HL2332144  -3.901  27.536  -9.359
    1XTA   HL2432145  -3.896  27.641 -11.346
    1XTA   HL2532146  -3.769  27.760 -11.279
    1XTA    CO832147  -3.601  27.291  -9.375
    1XTA    CO932148  -3.806  27.302  -9.519
    1XTA    OA632149  -3.514  27.347  -9.329
    1XTA   HL4232150  -3.564  27.190  -9.411
    1XTA   HL4332151  -3.675  27.281  -9.293
    1XTA   HL4832152  -3.819  27.174  -9.453
    1XTA   HL4932153  -3.892  27.362  -9.480
    1XTA     NT32154  -4.310  22.822  -4.497
    1XTA    CN132155  -4.328  22.743  -4.390
    1XTA     C132156  -4.248  22.629  -4.378
    1XTA     C232157  -4.271  22.541  -4.267
    1XTA     C332158  -4.378  22.563  -4.173
    1XTA     C432159  -4.446  22.687  -4.192
    1XTA     C532160  -4.426  22.775  -4.296
    1XTA    CN232161  -4.214  22.911  -4.490
    1XTA     C632162  -4.221  23.016  -4.397
    1XTA     C732163  -4.115  23.111  -4.386
    1XTA     C832164  -4.004  23.094  -4.462
    1XTA     C932165  -3.999  22.995  -4.565
    1XTA    C1032166  -4.103  22.901  -4.576
    1XTA    CN332167  -4.386  22.809  -4.610
    1XTA    C1132168  -4.343  22.723  -4.710
    1XTA    C1232169  -4.417  22.705  -4.828
    1XTA    C1332170  -4.544  22.767  -4.842
    1XTA    C1432171  -4.593  22.846  -4.735
    1XTA    C1532172  -4.512  22.868  -4.617
    1XTA     H132173  -4.164  22.622  -4.442
    1XTA     H232174  -4.206  22.459  -4.263
    1XTA     H332175  -4.529  22.712  -4.123
    1XTA     H432176  -4.487  22.855  -4.307
    1XTA     H532177  -4.309  23.035  -4.335
    1XTA     H632178  -4.109  23.199  -4.321
    1XTA     H732179  -3.912  22.973  -4.632
    1XTA     H832180  -4.084  22.822  -4.649
    1XTA     H932181  -4.250  22.676  -4.696
    1XTA    H1032182  -4.372  22.633  -4.897
    1XTA    H1132183  -4.692  22.898  -4.748
    1XTA    H1232184  -4.552  22.927  -4.539
    1XTA    OA132185  -4.413  22.490  -4.061
    1XTA    CO132186  -4.324  22.386  -4.020
    1XTA    OA232187  -3.903  23.182  -4.445
    1XTA    CO232188  -3.771  23.124  -4.449
    1XTA    CL132189  -3.759  23.039  -4.322
    1XTA    CL232190  -3.786  23.125  -4.199
    1XTA    CL332191  -3.683  23.240  -4.187
    1XTA    CL432192  -3.695  23.322  -4.056
    1XTA    CO332193  -3.836  23.382  -4.032
    1XTA    OA332194  -3.857  23.481  -4.136
    1XTA    CO432195  -3.984  23.462  -4.194
    1XTA    CT132196  -4.001  23.558  -4.313
    1XTA    CL532197  -4.034  23.699  -4.252
    1XTA    CL632198  -4.051  23.802  -4.359
    1XTA    OA432199  -4.622  22.764  -4.953
    1XTA    CO532200  -4.557  22.791  -5.075
    1XTA    HL132201  -4.455  22.751  -5.085
    1XTA    HL232202  -4.316  22.317  -4.103
    1XTA    HL332203  -4.229  22.421  -3.998
    1XTA    HL432204  -4.371  22.340  -3.935
    1XTA    HL532205  -3.748  23.056  -4.539
    1XTA    HL632206  -3.703  23.208  -4.456
    1XTA    HL732207  -3.654  22.999  -4.303
    1XTA    HL832208  -3.824  22.955  -4.348
    1XTA    HL932209  -3.775  23.058  -4.118
    1XTA   HL1032210  -3.887  23.164  -4.198
    1XTA   HL1132211  -3.583  23.205  -4.191
    1XTA   HL1232212  -3.686  23.310  -4.271
    1XTA   HL1332213  -3.624  23.405  -4.060
    1XTA   HL1432214  -3.659  23.276  -3.968
    1XTA   HL1532215  -3.913  23.303  -4.024
    1XTA   HL1632216  -3.838  23.423  -3.932
    1XTA   HL1732217  -3.970  23.357  -4.241
    1XTA   HL1832218  -4.077  23.458  -4.128
    1XTA   HL1932219  -3.945  23.729  -4.190
    1XTA   HL2032220  -4.114  23.695  -4.182
    1XTA   HL2132221  -3.978  23.792  -4.439
    1XTA   HL2232222  -4.052  23.903  -4.311
    1XTA   HL2332223  -4.145  23.795  -4.411
    1XTA   HL2432224  -4.550  22.896  -5.075
    1XTA   HL2532225  -4.616  22.756  -5.156
    1XTA    CO832226  -4.110  23.500  -4.405
    1XTA    CO932227  -3.876  23.558  -4.397
    1XTA    OA632228  -4.209  23.491  -4.356
    1XTA   HL4232229  -4.076  23.398  -4.437
    1XTA   HL4332230  -4.107  23.558  -4.494
    1XTA   HL4832231  -3.903  23.619  -4.526
    1XTA   HL4932232  -3.857  23.452  -4.408
    1XTA     NT32233  -8.400  26.760  -7.090
    1XTA    CN132234  -8.345  26.794  -6.969
    1XTA     C132235  -8.292  26.686  -6.888
    1XTA     C232236  -8.237  26.716  -6.761
    1XTA     C332237  -8.221  26.848  -6.719
    1XTA     C432238  -8.276  26.949  -6.796
    1XTA     C532239  -8.330  26.927  -6.925
    1XTA    CN232240  -8.345  26.665  -7.171
    1XTA     C632241  -8.260  26.698  -7.278
    1XTA     C732242  -8.220  26.601  -7.369
    1XTA     C832243  -8.281  26.472  -7.365
    1XTA     C932244  -8.359  26.433  -7.252
    1XTA    C1032245  -8.395  26.530  -7.160
    1XTA    CN332246  -8.526  26.790  -7.104
    1XTA    C1132247  -8.569  26.893  -7.193
    1XTA    C1232248  -8.706  26.919  -7.210
    1XTA    C1332249  -8.803  26.844  -7.141
    1XTA    C1432250  -8.762  26.731  -7.068
    1XTA    C1532251  -8.627  26.710  -7.047
    1XTA     H132252  -8.289  26.585  -6.914
    1XTA     H232253  -8.197  26.634  -6.700
    1XTA     H332254  -8.277  27.042  -6.752
    1XTA     H432255  -8.382  27.013  -6.981
    1XTA     H532256  -8.219  26.797  -7.278
    1XTA     H632257  -8.160  26.640  -7.448
    1XTA     H732258  -8.400  26.328  -7.246
    1XTA     H832259  -8.458  26.508  -7.078
    1XTA     H932260  -8.502  26.964  -7.238
    1XTA    H1032261  -8.740  26.999  -7.271
    1XTA    H1132262  -8.842  26.670  -7.022
    1XTA    H1232263  -8.597  26.633  -6.979
    1XTA    OA132264  -8.164  26.888  -6.600
    1XTA    CO132265  -8.143  26.780  -6.508
    1XTA    OA232266  -8.252  26.380  -7.463
    1XTA    CO232267  -8.359  26.314  -7.503
    1XTA    CL132268  -8.338  26.280  -7.648
    1XTA    CL232269  -8.303  26.386  -7.754
    1XTA    CL332270  -8.394  26.505  -7.759
    1XTA    CL432271  -8.358  26.599  -7.872
    1XTA    CO332272  -8.440  26.725  -7.893
    1XTA    OA332273  -8.385  26.810  -7.987
    1XTA    CO432274  -8.402  26.760  -8.124
    1XTA    CT132275  -8.340  26.842  -8.228
    1XTA    CL532276  -8.371  26.788  -8.369
    1XTA    CL632277  -8.516  26.797  -8.412
    1XTA    OA432278  -8.940  26.867  -7.166
    1XTA    CO532279  -8.986  26.961  -7.265
    1XTA    HL132280  -8.944  26.947  -7.363
    1XTA    HL232281  -8.236  26.730  -6.472
    1XTA    HL332282  -8.070  26.712  -6.560
    1XTA    HL432283  -8.085  26.829  -6.430
    1XTA    HL532284  -8.390  26.236  -7.437
    1XTA    HL632285  -8.444  26.386  -7.499
    1XTA    HL732286  -8.425  26.221  -7.678
    1XTA    HL832287  -8.254  26.216  -7.644
    1XTA    HL932288  -8.302  26.337  -7.853
    1XTA   HL1032289  -8.208  26.416  -7.734
    1XTA   HL1132290  -8.502  26.459  -7.778
    1XTA   HL1232291  -8.392  26.561  -7.664
    1XTA   HL1332292  -8.351  26.542  -7.965
    1XTA   HL1432293  -8.258  26.630  -7.842
    1XTA   HL1532294  -8.542  26.691  -7.922
    1XTA   HL1632295  -8.449  26.783  -7.807
    1XTA   HL1732296  -8.368  26.655  -8.132
    1XTA   HL1832297  -8.509  26.761  -8.144
    1XTA   HL1932298  -8.355  26.677  -8.367
    1XTA   HL2032299  -8.316  26.835  -8.443
    1XTA   HL2132300  -8.550  26.898  -8.413
    1XTA   HL2232301  -8.588  26.741  -8.350
    1XTA   HL2332302  -8.527  26.752  -8.509
    1XTA   HL2432303  -8.968  27.066  -7.233
    1XTA   HL2532304  -9.093  26.969  -7.265
    1XTA    CO832305  -8.186  26.843  -8.210
    1XTA    CO932306  -8.394  26.988  -8.210
    1XTA    OA632307  -8.353  27.073  -8.315
    1XTA   HL4232308  -8.156  26.910  -8.291
    1XTA   HL4332309  -8.171  26.902  -8.116
    1XTA   HL4832310  -8.366  27.033  -8.114
    1XTA   HL4932311  -8.505  26.985  -8.205
    1XTA     NT32312  -1.366  26.097 -11.461
    1XTA    CN132313  -1.234  26.115 -11.495
    1XTA     C132314  -1.179  26.055 -11.612
    1XTA     C232315  -1.049  26.089 -11.649
    1XTA     C332316  -0.969  26.177 -11.571
    1XTA     C432317  -1.023  26.223 -11.447
    1XTA     C532318  -1.152  26.193 -11.413
    1XTA    CN232319  -1.466  26.160 -11.523
    1XTA     C632320  -1.491  26.298 -11.508
    1XTA     C732321  -1.588  26.364 -11.583
    1XTA     C832322  -1.680  26.281 -11.650
    1XTA     C932323  -1.665  26.140 -11.652
    1XTA    C1032324  -1.559  26.082 -11.593
    1XTA    CN332325  -1.387  26.037 -11.342
    1XTA    C1132326  -1.415  26.108 -11.226
    1XTA    C1232327  -1.435  26.036 -11.107
    1XTA    C1332328  -1.410  25.901 -11.094
    1XTA    C1432329  -1.365  25.838 -11.211
    1XTA    C1532330  -1.363  25.900 -11.336
    1XTA     H132331  -1.231  25.990 -11.681
    1XTA     H232332  -1.012  26.050 -11.745
    1XTA     H332333  -0.961  26.271 -11.376
    1XTA     H432334  -1.193  26.229 -11.321
    1XTA     H532335  -1.431  26.362 -11.445
    1XTA     H632336  -1.597  26.475 -11.579
    1XTA     H732337  -1.732  26.076 -11.707
    1XTA     H832338  -1.539  25.972 -11.595
    1XTA     H932339  -1.433  26.214 -11.237
    1XTA    H1032340  -1.460  26.087 -11.011
    1XTA    H1132341  -1.325  25.740 -11.204
    1XTA    H1232342  -1.334  25.848 -11.429
    1XTA    OA132343  -0.841  26.198 -11.613
    1XTA    CO132344  -0.752  26.254 -11.519
    1XTA    OA232345  -1.784  26.344 -11.704
    1XTA    CO232346  -1.885  26.267 -11.769
    1XTA    CL132347  -1.982  26.376 -11.812
    1XTA    CL232348  -1.915  26.471 -11.917
    1XTA    CL332349  -1.918  26.423 -12.059
    1XTA    CL432350  -1.880  26.530 -12.160
    1XTA    CO332351  -1.733  26.518 -12.192
    1XTA    OA332352  -1.702  26.631 -12.271
    1XTA    CO432353  -1.571  26.630 -12.329
    1XTA    CT132354  -1.536  26.761 -12.405
    1XTA    CL532355  -1.533  26.876 -12.305
    1XTA    CL632356  -1.665  26.920 -12.238
    1XTA    OA432357  -1.416  25.840 -10.968
    1XTA    CO532358  -1.454  25.704 -10.982
    1XTA    HL132359  -1.377  25.638 -11.022
    1XTA    HL232360  -0.738  26.175 -11.441
    1XTA    HL332361  -0.654  26.266 -11.556
    1XTA    HL432362  -0.799  26.341 -11.474
    1XTA    HL532363  -1.850  26.231 -11.860
    1XTA    HL632364  -1.931  26.192 -11.707
    1XTA    HL732365  -2.021  26.429 -11.728
    1XTA    HL832366  -2.069  26.337 -11.868
    1XTA    HL932367  -1.817  26.506 -11.889
    1XTA   HL1032368  -1.971  26.565 -11.926
    1XTA   HL1132369  -1.854  26.338 -12.064
    1XTA   HL1232370  -2.021  26.388 -12.068
    1XTA   HL1332371  -1.914  26.631 -12.128
    1XTA   HL1432372  -1.938  26.505 -12.250
    1XTA   HL1532373  -1.665  26.522 -12.109
    1XTA   HL1632374  -1.712  26.423 -12.241
    1XTA   HL1732375  -1.497  26.611 -12.250
    1XTA   HL1832376  -1.572  26.549 -12.406
    1XTA   HL1932377  -1.498  26.963 -12.352
    1XTA   HL2032378  -1.448  26.860 -12.236
    1XTA   HL2132379  -1.684  26.860 -12.153
    1XTA   HL2232380  -1.744  26.923 -12.310
    1XTA   HL2332381  -1.648  27.023 -12.204
    1XTA   HL2432382  -1.535  25.694 -11.050
    1XTA   HL2532383  -1.490  25.669 -10.893
    1XTA    CO832384  -1.641  26.779 -12.518
    1XTA    CO932385  -1.399  26.751 -12.477
    1XTA    OA632386  -1.662  26.657 -12.582
    1XTA   HL4232387  -1.605  26.852 -12.588
    1XTA   HL4332388  -1.741  26.810 -12.478
    1XTA   HL4832389  -1.398  26.672 -12.546
    1XTA   HL4932390  -1.316  26.745 -12.403
    1XTA     NT32391  -1.935  26.229  -8.231
    1XTA    CN132392  -1.904  26.220  -8.103
    1XTA     C132393  -1.980  26.133  -8.021
    1XTA     C232394  -1.943  26.121  -7.888
    1XTA     C332395  -1.852  26.207  -7.830
    1XTA     C432396  -1.778  26.299  -7.907
    1XTA     C532397  -1.803  26.303  -8.049
    1XTA    CN232398  -1.878  26.142  -8.316
    1XTA     C632399  -1.748  26.165  -8.375
    1XTA     C732400  -1.699  26.082  -8.477
    1XTA     C832401  -1.776  25.967  -8.520
    1XTA     C932402  -1.903  25.952  -8.464
    1XTA    C1032403  -1.954  26.038  -8.365
    1XTA    CN332404  -1.998  26.332  -8.282
    1XTA    C1132405  -2.137  26.351  -8.267
    1XTA    C1232406  -2.205  26.458  -8.323
    1XTA    C1332407  -2.134  26.553  -8.406
    1XTA    C1432408  -1.992  26.545  -8.405
    1XTA    C1532409  -1.925  26.434  -8.339
    1XTA     H132410  -2.053  26.071  -8.076
    1XTA     H232411  -2.007  26.053  -7.834
    1XTA     H332412  -1.703  26.361  -7.862
    1XTA     H432413  -1.747  26.377  -8.107
    1XTA     H532414  -1.696  26.244  -8.340
    1XTA     H632415  -1.608  26.115  -8.522
    1XTA     H732416  -1.967  25.880  -8.496
    1XTA     H832417  -2.048  26.021  -8.319
    1XTA     H932418  -2.199  26.290  -8.200
    1XTA    H1032419  -2.311  26.460  -8.304
    1XTA    H1132420  -1.939  26.614  -8.462
    1XTA    H1232421  -1.820  26.426  -8.337
    1XTA    OA132422  -1.812  26.170  -7.708
    1XTA    CO132423  -1.701  26.230  -7.652
    1XTA    OA232424  -1.747  25.886  -8.627
    1XTA    CO232425  -1.645  25.935  -8.710
    1XTA    CL132426  -1.614  25.816  -8.805
    1XTA    CL232427  -1.732  25.807  -8.907
    1XTA    CL332428  -1.713  25.691  -9.006
    1XTA    CL432429  -1.809  25.691  -9.130
    1XTA    CO332430  -1.955  25.680  -9.096
    1XTA    OA332431  -1.984  25.577  -9.006
    1XTA    CO432432  -2.123  25.536  -9.002
    1XTA    CT132433  -2.132  25.417  -8.906
    1XTA    CL532434  -2.041  25.295  -8.948
    1XTA    CL632435  -1.895  25.301  -8.899
    1XTA    OA432436  -2.189  26.645  -8.486
    1XTA    CO532437  -2.323  26.624  -8.499
    1XTA    HL132438  -2.347  26.522  -8.500
    1XTA    HL232439  -1.686  26.182  -7.554
    1XTA    HL332440  -1.614  26.199  -7.712
    1XTA    HL432441  -1.699  26.334  -7.648
    1XTA    HL532442  -1.664  26.031  -8.764
    1XTA    HL632443  -1.552  25.956  -8.653
    1XTA    HL732444  -1.619  25.721  -8.752
    1XTA    HL832445  -1.517  25.833  -8.854
    1XTA    HL932446  -1.721  25.898  -8.965
    1XTA   HL1032447  -1.829  25.794  -8.855
    1XTA   HL1132448  -1.607  25.704  -9.046
    1XTA   HL1232449  -1.714  25.591  -8.964
    1XTA   HL1332450  -1.781  25.602  -9.185
    1XTA   HL1432451  -1.795  25.783  -9.190
    1XTA   HL1532452  -2.002  25.772  -9.048
    1XTA   HL1632453  -2.005  25.665  -9.190
    1XTA   HL1732454  -2.191  25.622  -8.970
    1XTA   HL1832455  -2.155  25.495  -9.095
    1XTA   HL1932456  -2.031  25.284  -9.058
    1XTA   HL2032457  -2.089  25.207  -8.898
    1XTA   HL2132458  -1.852  25.204  -8.925
    1XTA   HL2232459  -1.888  25.304  -8.791
    1XTA   HL2332460  -1.828  25.374  -8.945
    1XTA   HL2432461  -2.349  26.670  -8.591
    1XTA   HL2532462  -2.380  26.674  -8.434
    1XTA    CO832463  -2.287  25.375  -8.907
    1XTA    CO932464  -2.101  25.472  -8.761
    1XTA    OA632465  -2.314  25.340  -9.010
    1XTA   HL4232466  -2.357  25.448  -8.858
    1XTA   HL4332467  -2.299  25.283  -8.847
    1XTA   HL4832468  -1.968  25.518  -8.747
    1XTA   HL4932469  -2.111  25.393  -8.686
    1XTA     NT32470  -6.517  26.240  -9.721
    1XTA    CN132471  -6.477  26.217  -9.847
    1XTA     C132472  -6.353  26.256  -9.895
    1XTA     C232473  -6.318  26.227 -10.028
    1XTA     C332474  -6.392  26.137 -10.105
    1XTA     C432475  -6.508  26.086 -10.056
    1XTA     C532476  -6.555  26.127  -9.928
    1XTA    CN232477  -6.498  26.146  -9.630
    1XTA     C632478  -6.386  26.155  -9.541
    1XTA     C732479  -6.365  26.065  -9.437
    1XTA     C832480  -6.444  25.951  -9.432
    1XTA     C932481  -6.553  25.938  -9.523
    1XTA    C1032482  -6.584  26.035  -9.620
    1XTA    CN332483  -6.590  26.347  -9.683
    1XTA    C1132484  -6.728  26.339  -9.666
    1XTA    C1232485  -6.812  26.456  -9.643
    1XTA    C1332486  -6.748  26.584  -9.638
    1XTA    C1432487  -6.605  26.582  -9.645
    1XTA    C1532488  -6.524  26.470  -9.675
    1XTA     H132489  -6.282  26.306  -9.826
    1XTA     H232490  -6.234  26.266 -10.066
    1XTA     H332491  -6.568  26.020 -10.115
    1XTA     H432492  -6.654  26.098  -9.891
    1XTA     H532493  -6.324  26.244  -9.553
    1XTA     H632494  -6.284  26.074  -9.365
    1XTA     H732495  -6.614  25.859  -9.505
    1XTA     H832496  -6.674  26.018  -9.677
    1XTA     H932497  -6.775  26.244  -9.681
    1XTA    H1032498  -6.917  26.440  -9.639
    1XTA    H1132499  -6.541  26.667  -9.622
    1XTA    H1232500  -6.418  26.475  -9.695
    1XTA    OA132501  -6.344  26.092 -10.225
    1XTA    CO132502  -6.218  26.136 -10.271
    1XTA    OA232503  -6.427  25.854  -9.336
    1XTA    CO232504  -6.411  25.898  -9.199
    1XTA    CL132505  -6.474  25.797  -9.110
    1XTA    CL232506  -6.632  25.777  -9.137
    1XTA    CL332507  -6.716  25.897  -9.092
    1XTA    CL432508  -6.866  25.877  -9.119
    1XTA    CO332509  -6.949  25.999  -9.100
    1XTA    OA332510  -7.090  25.979  -9.082
    1XTA    CO432511  -7.128  25.923  -8.957
    1XTA    CT132512  -7.280  25.924  -8.945
    1XTA    CL532513  -7.353  26.064  -8.959
    1XTA    CL632514  -7.319  26.175  -8.855
    1XTA    OA432515  -6.815  26.704  -9.605
    1XTA    CO532516  -6.748  26.823  -9.631
    1XTA    HL132517  -6.717  26.826  -9.737
    1XTA    HL232518  -6.216  26.117 -10.384
    1XTA    HL332519  -6.200  26.238 -10.270
    1XTA    HL432520  -6.137  26.079 -10.219
    1XTA    HL532521  -6.308  25.921  -9.170
    1XTA    HL632522  -6.474  25.988  -9.190
    1XTA    HL732523  -6.441  25.821  -9.006
    1XTA    HL832524  -6.420  25.707  -9.131
    1XTA    HL932525  -6.674  25.697  -9.084
    1XTA   HL1032526  -6.651  25.769  -9.244
    1XTA   HL1132527  -6.717  25.923  -8.994
    1XTA   HL1232528  -6.682  25.988  -9.148
    1XTA   HL1332529  -6.906  25.797  -9.054
    1XTA   HL1432530  -6.874  25.845  -9.225
    1XTA   HL1532531  -6.923  26.062  -9.017
    1XTA   HL1632532  -6.926  26.063  -9.182
    1XTA   HL1732533  -7.084  25.825  -8.928
    1XTA   HL1832534  -7.089  25.995  -8.882
    1XTA   HL1932535  -7.455  26.040  -8.964
    1XTA   HL2032536  -7.330  26.108  -9.051
    1XTA   HL2132537  -7.239  26.238  -8.881
    1XTA   HL2232538  -7.310  26.134  -8.756
    1XTA   HL2332539  -7.397  26.250  -8.851
    1XTA   HL2432540  -6.660  26.839  -9.571
    1XTA   HL2532541  -6.821  26.911  -9.611
    1XTA    CO832542  -7.321  25.860  -8.806
    1XTA    CO932543  -7.329  25.828  -9.059
    1XTA    OA632544  -7.238  25.877  -8.732
    1XTA   HL4232545  -7.337  25.751  -8.810
    1XTA   HL4332546  -7.412  25.904  -8.768
    1XTA   HL4832547  -7.472  25.805  -9.060
    1XTA   HL4932548  -7.324  25.878  -9.156
    1XTA     NT32549  -4.948  27.594  -6.361
    1XTA    CN132550  -4.882  27.472  -6.344
    1XTA     C132551  -4.889  27.379  -6.451
    1XTA     C232552  -4.821  27.257  -6.434
    1XTA     C332553  -4.737  27.227  -6.325
    1XTA     C432554  -4.734  27.327  -6.225
    1XTA     C532555  -4.806  27.443  -6.230
    1XTA    CN232556  -4.931  27.682  -6.460
    1XTA     C632557  -4.829  27.777  -6.438
    1XTA     C732558  -4.819  27.890  -6.530
    1XTA     C832559  -4.889  27.885  -6.661
    1XTA     C932560  -4.971  27.768  -6.686
    1XTA    C1032561  -4.987  27.669  -6.586
    1XTA    CN332562  -5.072  27.591  -6.314
    1XTA    C1132563  -5.167  27.498  -6.356
    1XTA    C1232564  -5.298  27.497  -6.295
    1XTA    C1332565  -5.334  27.601  -6.207
    1XTA    C1432566  -5.239  27.696  -6.169
    1XTA    C1532567  -5.109  27.688  -6.219
    1XTA     H132568  -4.947  27.405  -6.534
    1XTA     H232569  -4.832  27.185  -6.512
    1XTA     H332570  -4.689  27.311  -6.126
    1XTA     H432571  -4.807  27.515  -6.153
    1XTA     H532572  -4.780  27.775  -6.347
    1XTA     H632573  -4.753  27.971  -6.501
    1XTA     H732574  -5.024  27.755  -6.777
    1XTA     H832575  -5.046  27.587  -6.619
    1XTA     H932576  -5.143  27.421  -6.424
    1XTA    H1032577  -5.370  27.423  -6.325
    1XTA    H1132578  -5.266  27.769  -6.099
    1XTA    H1232579  -5.042  27.768  -6.181
    1XTA    OA132580  -4.679  27.109  -6.322
    1XTA    CO132581  -4.595  27.084  -6.207
    1XTA    OA232582  -4.874  27.992  -6.746
    1XTA    CO232583  -4.911  27.970  -6.878
    1XTA    CL132584  -4.890  28.101  -6.956
    1XTA    CL232585  -4.746  28.150  -6.971
    1XTA    CL332586  -4.638  28.041  -6.991
    1XTA    CL432587  -4.633  27.980  -7.135
    1XTA    CO332588  -4.735  27.865  -7.165
    1XTA    OA332589  -4.730  27.818  -7.294
    1XTA    CO432590  -4.829  27.718  -7.322
    1XTA    CT132591  -4.793  27.656  -7.455
    1XTA    CL532592  -4.652  27.594  -7.446
    1XTA    CL632593  -4.605  27.507  -7.561
    1XTA    OA432594  -5.461  27.628  -6.158
    1XTA    CO532595  -5.571  27.576  -6.225
    1XTA    HL132596  -5.671  27.603  -6.184
    1XTA    HL232597  -4.537  26.992  -6.217
    1XTA    HL332598  -4.517  27.162  -6.191
    1XTA    HL432599  -4.654  27.061  -6.124
    1XTA    HL532600  -4.851  27.885  -6.904
    1XTA    HL632601  -5.018  27.945  -6.886
    1XTA    HL732602  -4.952  28.193  -6.927
    1XTA    HL832603  -4.919  28.077  -7.058
    1XTA    HL932604  -4.733  28.208  -6.877
    1XTA   HL1032605  -4.735  28.231  -7.043
    1XTA   HL1132606  -4.544  28.083  -6.971
    1XTA   HL1232607  -4.638  27.954  -6.927
    1XTA   HL1332608  -4.541  27.930  -7.151
    1XTA   HL1432609  -4.634  28.064  -7.204
    1XTA   HL1532610  -4.716  27.795  -7.091
    1XTA   HL1632611  -4.834  27.898  -7.134
    1XTA   HL1732612  -4.831  27.646  -7.244
    1XTA   HL1832613  -4.925  27.763  -7.318
    1XTA   HL1932614  -4.650  27.525  -7.367
    1XTA   HL2032615  -4.578  27.672  -7.420
    1XTA   HL2132616  -4.507  27.472  -7.540
    1XTA   HL2232617  -4.608  27.552  -7.656
    1XTA   HL2332618  -4.659  27.417  -7.573
    1XTA   HL2432619  -5.569  27.469  -6.229
    1XTA   HL2532620  -5.582  27.599  -6.326
    1XTA    CO832621  -4.801  27.760  -7.564
    1XTA    CO932622  -4.901  27.545  -7.488
    1XTA    OA632623  -5.001  27.587  -7.481
    1XTA   HL4232624  -4.903  27.761  -7.588
    1XTA   HL4332625  -4.800  27.887  -7.503
    1XTA   HL4832626  -4.885  27.457  -7.418
    1XTA   HL4932627  -4.887  27.508  -7.592
    1XTA     NT32628  -2.948  29.446 -10.723
    1XTA    CN132629  -2.902  29.427 -10.600
    1XTA     C132630  -2.921  29.304 -10.533
    1XTA     C232631  -2.862  29.287 -10.404
    1XTA     C332632  -2.793  29.392 -10.343
    1XTA     C432633  -2.786  29.515 -10.411
    1XTA     C532634  -2.832  29.532 -10.540
    1XTA    CN232635  -3.043  29.536 -10.749
    1XTA     C632636  -3.173  29.519 -10.694
    1XTA     C732637  -3.285  29.603 -10.725
    1XTA     C832638  -3.266  29.710 -10.809
    1XTA     C932639  -3.133  29.738 -10.852
    1XTA    C1032640  -3.023  29.652 -10.827
    1XTA    CN332641  -2.887  29.383 -10.823
    1XTA    C1132642  -2.959  29.302 -10.918
    1XTA    C1232643  -2.888  29.228 -11.013
    1XTA    C1332644  -2.748  29.241 -11.023
    1XTA    C1432645  -2.676  29.321 -10.931
    1XTA    C1532646  -2.746  29.385 -10.824
    1XTA     H132647  -2.971  29.224 -10.578
    1XTA     H232648  -2.877  29.190 -10.367
    1XTA     H332649  -2.744  29.601 -10.362
    1XTA     H432650  -2.822  29.623 -10.598
    1XTA     H532651  -3.175  29.424 -10.628
    1XTA     H632652  -3.382  29.580 -10.692
    1XTA     H732653  -3.125  29.829 -10.911
    1XTA     H832654  -2.932  29.666 -10.880
    1XTA     H932655  -3.064  29.294 -10.914
    1XTA    H1032656  -2.955  29.160 -11.066
    1XTA    H1132657  -2.568  29.329 -10.941
    1XTA    H1232658  -2.684  29.437 -10.752
    1XTA    OA132659  -2.742  29.369 -10.218
    1XTA    CO132660  -2.801  29.438 -10.108
    1XTA    OA232661  -3.363  29.788 -10.861
    1XTA    CO232662  -3.359  29.927 -10.837
    1XTA    CL132663  -3.468  30.009 -10.916
    1XTA    CL232664  -3.604  30.022 -10.850
    1XTA    CL332665  -3.699  29.895 -10.880
    1XTA    CL432666  -3.667  29.769 -10.807
    1XTA    CO332667  -3.795  29.681 -10.805
    1XTA    OA332668  -3.895  29.746 -10.723
    1XTA    CO432669  -4.030  29.707 -10.745
    1XTA    CT132670  -4.128  29.814 -10.697
    1XTA    CL532671  -4.270  29.757 -10.722
    1XTA    CL632672  -4.318  29.772 -10.866
    1XTA    OA432673  -2.678  29.170 -11.115
    1XTA    CO532674  -2.750  29.059 -11.175
    1XTA    HL132675  -2.768  28.989 -11.097
    1XTA    HL232676  -2.788  29.550 -10.111
    1XTA    HL332677  -2.912  29.427 -10.109
    1XTA    HL432678  -2.759  29.415 -10.014
    1XTA    HL532679  -3.357  29.952 -10.734
    1XTA    HL632680  -3.267  29.971 -10.886
    1XTA    HL732681  -3.486  29.967 -11.020
    1XTA    HL832682  -3.426  30.110 -10.936
    1XTA    HL932683  -3.654  30.102 -10.896
    1XTA   HL1032684  -3.602  30.043 -10.747
    1XTA   HL1132685  -3.796  29.924 -10.848
    1XTA   HL1232686  -3.698  29.888 -10.986
    1XTA   HL1332687  -3.639  29.795 -10.702
    1XTA   HL1432688  -3.587  29.711 -10.861
    1XTA   HL1532689  -3.827  29.661 -10.904
    1XTA   HL1632690  -3.775  29.579 -10.758
    1XTA   HL1732691  -4.042  29.687 -10.852
    1XTA   HL1832692  -4.045  29.616 -10.698
    1XTA   HL1932693  -4.341  29.800 -10.648
    1XTA   HL2032694  -4.269  29.651 -10.692
    1XTA   HL2132695  -4.261  29.707 -10.933
    1XTA   HL2232696  -4.316  29.877 -10.897
    1XTA   HL2332697  -4.417  29.730 -10.876
    1XTA   HL2432698  -2.693  29.011 -11.252
    1XTA   HL2532699  -2.841  29.080 -11.234
    1XTA    CO832700  -4.109  29.948 -10.768
    1XTA    CO932701  -4.119  29.838 -10.547
    1XTA    OA632702  -4.115  29.752 -10.490
    1XTA   HL4232703  -4.017  29.989 -10.735
    1XTA   HL4332704  -4.102  29.921 -10.904
    1XTA   HL4832705  -4.203  29.908 -10.520
    1XTA   HL4932706  -4.026  29.895 -10.537
    1XTA     NT32707  -2.390  27.990  -9.643
    1XTA    CN132708  -2.286  27.984  -9.549
    1XTA     C132709  -2.163  27.923  -9.590
    1XTA     C232710  -2.059  27.905  -9.493
    1XTA     C332711  -2.085  27.944  -9.362
    1XTA     C432712  -2.201  28.014  -9.326
    1XTA     C532713  -2.300  28.033  -9.419
    1XTA    CN232714  -2.466  27.882  -9.652
    1XTA     C632715  -2.594  27.871  -9.608
    1XTA     C732716  -2.677  27.762  -9.637
    1XTA     C832717  -2.619  27.655  -9.702
    1XTA     C932718  -2.488  27.661  -9.742
    1XTA    C1032719  -2.415  27.772  -9.723
    1XTA    CN332720  -2.415  28.105  -9.718
    1XTA    C1132721  -2.533  28.177  -9.714
    1XTA    C1232722  -2.561  28.282  -9.800
    1XTA    C1332723  -2.471  28.304  -9.908
    1XTA    C1432724  -2.352  28.229  -9.920
    1XTA    C1532725  -2.318  28.144  -9.815
    1XTA     H132726  -2.142  27.880  -9.686
    1XTA     H232727  -1.963  27.861  -9.529
    1XTA     H332728  -2.210  28.068  -9.229
    1XTA     H432729  -2.394  28.080  -9.393
    1XTA     H532730  -2.636  27.953  -9.552
    1XTA     H632731  -2.773  27.752  -9.600
    1XTA     H732732  -2.445  27.581  -9.797
    1XTA     H832733  -2.313  27.772  -9.763
    1XTA     H932734  -2.602  28.151  -9.632
    1XTA    H1032735  -2.660  28.331  -9.789
    1XTA    H1132736  -2.282  28.258 -10.002
    1XTA    H1232737  -2.229  28.086  -9.825
    1XTA    OA132738  -1.990  27.925  -9.269
    1XTA    CO132739  -1.944  27.792  -9.263
    1XTA    OA232740  -2.688  27.535  -9.733
    1XTA    CO232741  -2.829  27.551  -9.752
    1XTA    CL132742  -2.907  27.528  -9.620
    1XTA    CL232743  -3.043  27.588  -9.634
    1XTA    CL332744  -3.120  27.572  -9.501
    1XTA    CL432745  -3.055  27.653  -9.384
    1XTA    CO332746  -3.140  27.668  -9.258
    1XTA    OA332747  -3.172  27.546  -9.190
    1XTA    CO432748  -3.285  27.483  -9.234
    1XTA    CT132749  -3.306  27.352  -9.163
    1XTA    CL532750  -3.348  27.377  -9.011
    1XTA    CL632751  -3.239  27.441  -8.916
    1XTA    OA432752  -2.499  28.394 -10.005
    1XTA    CO532753  -2.636  28.419 -10.036
    1XTA    HL132754  -2.645  28.494 -10.113
    1XTA    HL232755  -1.895  27.779  -9.166
    1XTA    HL332756  -2.024  27.724  -9.257
    1XTA    HL432757  -1.883  27.753  -9.344
    1XTA    HL532758  -2.850  27.652  -9.788
    1XTA    HL632759  -2.856  27.488  -9.829
    1XTA    HL732760  -2.848  27.563  -9.537
    1XTA    HL832761  -2.919  27.421  -9.610
    1XTA    HL932762  -3.095  27.530  -9.710
    1XTA   HL1032763  -3.041  27.692  -9.680
    1XTA   HL1132764  -3.227  27.598  -9.520
    1XTA   HL1232765  -3.125  27.467  -9.484
    1XTA   HL1332766  -3.029  27.755  -9.427
    1XTA   HL1432767  -2.954  27.611  -9.364
    1XTA   HL1532768  -3.086  27.720  -9.183
    1XTA   HL1632769  -3.231  27.726  -9.273
    1XTA   HL1732770  -3.379  27.539  -9.219
    1XTA   HL1832771  -3.273  27.459  -9.344
    1XTA   HL1932772  -3.371  27.279  -8.968
    1XTA   HL2032773  -3.440  27.427  -8.997
    1XTA   HL2132774  -3.180  27.524  -8.958
    1XTA   HL2232775  -3.167  27.367  -8.889
    1XTA   HL2332776  -3.291  27.485  -8.828
    1XTA   HL2432777  -2.687  28.462  -9.950
    1XTA   HL2532778  -2.704  28.338 -10.064
    1XTA    CO832779  -3.181  27.269  -9.157
    1XTA    CO932780  -3.423  27.282  -9.245
    1XTA    OA632781  -3.201  27.176  -9.102
    1XTA   HL4232782  -3.096  27.319  -9.112
    1XTA   HL4332783  -3.144  27.239  -9.253
    1XTA   HL4832784  -3.511  27.218  -9.154
    1XTA   HL4932785  -3.381  27.185  -9.291
    1XTA     NT32786  -4.738  28.924 -11.368
    1XTA    CN132787  -4.627  28.934 -11.294
    1XTA     C132788  -4.579  29.061 -11.248
    1XTA     C232789  -4.454  29.069 -11.185
    1XTA     C332790  -4.371  28.953 -11.172
    1XTA     C432791  -4.417  28.827 -11.218
    1XTA     C532792  -4.544  28.818 -11.280
    1XTA    CN232793  -4.847  28.887 -11.306
    1XTA     C632794  -4.906  28.762 -11.333
    1XTA     C732795  -5.018  28.726 -11.247
    1XTA     C832796  -5.066  28.814 -11.146
    1XTA     C932797  -5.004  28.936 -11.131
    1XTA    C1032798  -4.900  28.975 -11.213
    1XTA    CN332799  -4.739  28.952 -11.502
    1XTA    C1132800  -4.669  28.861 -11.585
    1XTA    C1232801  -4.653  28.892 -11.724
    1XTA    C1332802  -4.708  29.013 -11.772
    1XTA    C1432803  -4.779  29.101 -11.686
    1XTA    C1532804  -4.791  29.075 -11.553
    1XTA     H132805  -4.643  29.141 -11.258
    1XTA     H232806  -4.419  29.165 -11.164
    1XTA     H332807  -4.345  28.745 -11.230
    1XTA     H432808  -4.582  28.724 -11.318
    1XTA     H532809  -4.873  28.699 -11.416
    1XTA     H632810  -5.075  28.640 -11.271
    1XTA     H732811  -5.039  28.998 -11.047
    1XTA     H832812  -4.841  29.066 -11.201
    1XTA     H932813  -4.617  28.776 -11.540
    1XTA    H1032814  -4.600  28.821 -11.793
    1XTA    H1132815  -4.828  29.188 -11.732
    1XTA    H1232816  -4.854  29.135 -11.486
    1XTA    OA132817  -4.249  28.964 -11.104
    1XTA    CO132818  -4.180  29.085 -11.126
    1XTA    OA232819  -5.158  28.777 -11.053
    1XTA    CO232820  -5.176  28.639 -11.030
    1XTA    CL132821  -5.309  28.585 -11.064
    1XTA    CL232822  -5.335  28.439 -11.021
    1XTA    CL332823  -5.471  28.403 -10.946
    1XTA    CL432824  -5.464  28.279 -10.849
    1XTA    CO332825  -5.573  28.282 -10.735
    1XTA    OA332826  -5.699  28.263 -10.799
    1XTA    CO432827  -5.809  28.332 -10.748
    1XTA    CT132828  -5.917  28.335 -10.858
    1XTA    CL532829  -5.977  28.194 -10.892
    1XTA    CL632830  -6.038  28.127 -10.769
    1XTA    OA432831  -4.695  29.057 -11.906
    1XTA    CO532832  -4.619  28.965 -11.995
    1XTA    HL132833  -4.518  28.969 -11.950
    1XTA    HL232834  -4.090  29.085 -11.073
    1XTA    HL332835  -4.157  29.079 -11.234
    1XTA    HL432836  -4.235  29.171 -11.096
    1XTA    HL532837  -5.092  28.586 -11.073
    1XTA    HL632838  -5.172  28.614 -10.925
    1XTA    HL732839  -5.337  28.595 -11.167
    1XTA    HL832840  -5.375  28.640 -11.002
    1XTA    HL932841  -5.254  28.412 -10.956
    1XTA   HL1032842  -5.319  28.374 -11.108
    1XTA   HL1132843  -5.494  28.495 -10.886
    1XTA   HL1232844  -5.557  28.400 -11.007
    1XTA   HL1332845  -5.364  28.263 -10.808
    1XTA   HL1432846  -5.469  28.188 -10.899
    1XTA   HL1532847  -5.560  28.205 -10.661
    1XTA   HL1632848  -5.563  28.379 -10.684
    1XTA   HL1732849  -5.828  28.280 -10.652
    1XTA   HL1832850  -5.783  28.431 -10.711
    1XTA   HL1932851  -5.886  28.147 -10.936
    1XTA   HL2032852  -6.054  28.218 -10.963
    1XTA   HL2132853  -6.066  28.023 -10.786
    1XTA   HL2232854  -6.126  28.182 -10.737
    1XTA   HL2332855  -5.964  28.131 -10.688
    1XTA   HL2432856  -4.601  29.000 -12.096
    1XTA   HL2532857  -4.667  28.865 -12.006
    1XTA    CO832858  -5.854  28.376 -11.000
    1XTA    CO932859  -6.031  28.430 -10.811
    1XTA    OA632860  -5.988  28.531 -10.789
    1XTA   HL4232861  -5.803  28.293 -11.055
    1XTA   HL4332862  -5.769  28.493 -10.975
    1XTA   HL4832863  -6.071  28.393 -10.713
    1XTA   HL4932864  -6.116  28.423 -10.885
    1XTA     NT32865  -6.320  27.481  -7.120
    1XTA    CN132866  -6.229  27.406  -7.053
    1XTA     C132867  -6.131  27.461  -6.968
    1XTA     C232868  -6.042  27.372  -6.899
    1XTA     C332869  -6.036  27.231  -6.920
    1XTA     C432870  -6.137  27.182  -7.007
    1XTA     C532871  -6.224  27.271  -7.079
    1XTA    CN232872  -6.316  27.497  -7.255
    1XTA     C632873  -6.245  27.603  -7.321
    1XTA     C732874  -6.273  27.619  -7.458
    1XTA     C832875  -6.350  27.525  -7.532
    1XTA     C932876  -6.412  27.420  -7.462
    1XTA    C1032877  -6.398  27.407  -7.327
    1XTA    CN332878  -6.388  27.566  -7.049
    1XTA    C1132879  -6.346  27.704  -7.042
    1XTA    C1232880  -6.416  27.786  -6.957
    1XTA    C1332881  -6.529  27.738  -6.889
    1XTA    C1432882  -6.574  27.609  -6.902
    1XTA    C1532883  -6.501  27.515  -6.981
    1XTA     H132884  -6.134  27.565  -6.939
    1XTA     H232885  -5.978  27.426  -6.829
    1XTA     H332886  -6.134  27.077  -7.046
    1XTA     H432887  -6.294  27.232  -7.154
    1XTA     H532888  -6.187  27.669  -7.262
    1XTA     H632889  -6.219  27.697  -7.518
    1XTA     H732890  -6.471  27.348  -7.514
    1XTA     H832891  -6.447  27.323  -7.276
    1XTA     H932892  -6.273  27.747  -7.102
    1XTA    H1032893  -6.388  27.891  -6.960
    1XTA    H1132894  -6.656  27.586  -6.840
    1XTA    H1232895  -6.528  27.412  -6.990
    1XTA    OA132896  -5.951  27.143  -6.858
    1XTA    CO132897  -5.825  27.201  -6.820
    1XTA    OA232898  -6.375  27.543  -7.668
    1XTA    CO232899  -6.429  27.438  -7.748
    1XTA    CL132900  -6.443  27.487  -7.895
    1XTA    CL232901  -6.324  27.549  -7.960
    1XTA    CL332902  -6.345  27.560  -8.109
    1XTA    CL432903  -6.245  27.654  -8.179
    1XTA    CO332904  -6.275  27.670  -8.331
    1XTA    OA332905  -6.339  27.564  -8.385
    1XTA    CO432906  -6.251  27.466  -8.434
    1XTA    CT132907  -6.336  27.342  -8.484
    1XTA    CL532908  -6.427  27.389  -8.594
    1XTA    CL632909  -6.502  27.267  -8.670
    1XTA    OA432910  -6.614  27.807  -6.814
    1XTA    CO532911  -6.550  27.910  -6.751
    1XTA    HL132912  -6.532  27.992  -6.815
    1XTA    HL232913  -5.749  27.125  -6.840
    1XTA    HL332914  -5.792  27.296  -6.875
    1XTA    HL432915  -5.810  27.219  -6.711
    1XTA    HL532916  -6.363  27.360  -7.748
    1XTA    HL632917  -6.528  27.402  -7.716
    1XTA    HL732918  -6.532  27.551  -7.896
    1XTA    HL832919  -6.472  27.409  -7.964
    1XTA    HL932920  -6.231  27.504  -7.927
    1XTA   HL1032921  -6.322  27.653  -7.925
    1XTA   HL1132922  -6.342  27.454  -8.139
    1XTA   HL1232923  -6.442  27.589  -8.140
    1XTA   HL1332924  -6.141  27.621  -8.176
    1XTA   HL1432925  -6.248  27.742  -8.123
    1XTA   HL1532926  -6.340  27.751  -8.345
    1XTA   HL1632927  -6.172  27.701  -8.368
    1XTA   HL1732928  -6.196  27.508  -8.513
    1XTA   HL1832929  -6.179  27.438  -8.359
    1XTA   HL1932930  -6.369  27.445  -8.667
    1XTA   HL2032931  -6.498  27.461  -8.543
    1XTA   HL2132932  -6.428  27.201  -8.706
    1XTA   HL2232933  -6.579  27.303  -8.743
    1XTA   HL2332934  -6.570  27.214  -8.606
    1XTA   HL2432935  -6.462  27.886  -6.698
    1XTA   HL2532936  -6.611  27.946  -6.673
    1XTA    CO832937  -6.417  27.289  -8.356
    1XTA    CO932938  -6.235  27.231  -8.525
    1XTA    OA632939  -6.464  27.191  -8.389
    1XTA   HL4232940  -6.503  27.364  -8.343
    1XTA   HL4332941  -6.348  27.280  -8.270
    1XTA   HL4832942  -6.168  27.277  -8.647
    1XTA   HL4932943  -6.289  27.144  -8.560
    1XTA     NT32944  -3.283  24.941  -5.719
    1XTA    CN132945  -3.168  24.953  -5.789
    1XTA     C132946  -3.164  25.022  -5.913
    1XTA     C232947  -3.052  25.023  -5.999
    1XTA     C332948  -2.932  24.959  -5.961
    1XTA     C432949  -2.937  24.889  -5.838
    1XTA     C532950  -3.050  24.882  -5.754
    1XTA    CN232951  -3.403  24.932  -5.781
    1XTA     C632952  -3.435  24.833  -5.873
    1XTA     C732953  -3.567  24.818  -5.933
    1XTA     C832954  -3.667  24.915  -5.907
    1XTA     C932955  -3.636  25.015  -5.809
    1XTA    C1032956  -3.509  25.018  -5.742
    1XTA    CN332957  -3.275  24.882  -5.593
    1XTA    C1132958  -3.303  24.747  -5.566
    1XTA    C1232959  -3.301  24.698  -5.435
    1XTA    C1332960  -3.281  24.777  -5.322
    1XTA    C1432961  -3.254  24.910  -5.351
    1XTA    C1532962  -3.259  24.965  -5.483
    1XTA     H132963  -3.246  25.077  -5.951
    1XTA     H232964  -3.051  25.065  -6.097
    1XTA     H332965  -2.853  24.831  -5.800
    1XTA     H432966  -3.052  24.820  -5.660
    1XTA     H532967  -3.360  24.762  -5.901
    1XTA     H632968  -3.582  24.746  -6.010
    1XTA     H732969  -3.710  25.096  -5.796
    1XTA     H832970  -3.492  25.099  -5.669
    1XTA     H932971  -3.317  24.689  -5.651
    1XTA    H1032972  -3.309  24.596  -5.423
    1XTA    H1132973  -3.226  24.976  -5.272
    1XTA    H1232974  -3.225  25.056  -5.505
    1XTA    OA132975  -2.830  24.959  -6.051
    1XTA    CO132976  -2.714  24.882  -6.006
    1XTA    OA232977  -3.789  24.909  -5.966
    1XTA    CO232978  -3.786  24.912  -6.106
    1XTA    CL132979  -3.723  25.040  -6.165
    1XTA    CL232980  -3.707  25.057  -6.314
    1XTA    CL332981  -3.679  25.202  -6.357
    1XTA    CL432982  -3.545  25.253  -6.294
    1XTA    CO332983  -3.497  25.393  -6.342
    1XTA    OA332984  -3.360  25.404  -6.341
    1XTA    CO432985  -3.288  25.440  -6.230
    1XTA    CT132986  -3.140  25.424  -6.277
    1XTA    CL532987  -3.039  25.464  -6.163
    1XTA    CL632988  -3.057  25.394  -6.033
    1XTA    OA432989  -3.263  24.730  -5.192
    1XTA    CO532990  -3.249  24.580  -5.190
    1XTA    HL132991  -3.345  24.534  -5.218
    1XTA    HL232992  -2.629  24.909  -6.060
    1XTA    HL332993  -2.698  24.913  -5.894
    1XTA    HL432994  -2.741  24.772  -6.015
    1XTA    HL532995  -3.720  24.829  -6.133
    1XTA    HL632996  -3.880  24.893  -6.146
    1XTA    HL732997  -3.618  25.047  -6.138
    1XTA    HL832998  -3.770  25.130  -6.128
    1XTA    HL932999  -3.793  25.026  -6.368
    1XTA   HL1033000  -3.622  24.991  -6.346
    1XTA   HL1133001  -3.672  25.209  -6.465
    1XTA   HL1233002  -3.750  25.268  -6.327
    1XTA   HL1333003  -3.468  25.187  -6.323
    1XTA   HL1433004  -3.544  25.251  -6.186
    1XTA   HL1533005  -3.537  25.410  -6.444
    1XTA   HL1633006  -3.526  25.486  -6.285
    1XTA   HL1733007  -3.302  25.536  -6.193
    1XTA   HL1833008  -3.303  25.369  -6.151
    1XTA   HL1933009  -3.041  25.570  -6.141
    1XTA   HL2033010  -2.936  25.449  -6.195
    1XTA   HL2133011  -3.052  25.284  -6.036
    1XTA   HL2233012  -3.154  25.418  -6.005
    1XTA   HL2333013  -2.991  25.424  -5.959
    1XTA   HL2433014  -3.245  24.533  -5.090
    1XTA   HL2533015  -3.171  24.541  -5.255
    1XTA    CO833016  -3.109  25.517  -6.396
    1XTA    CO933017  -3.116  25.283  -6.332
    1XTA    OA633018  -3.010  25.279  -6.370
    1XTA   HL4233019  -3.024  25.482  -6.448
    1XTA   HL4333020  -3.205  25.520  -6.505
    1XTA   HL4833021  -3.172  25.278  -6.423
    1XTA   HL4933022  -3.144  25.198  -6.268
    1XTA     NT33023  -5.572  27.245 -10.905
    1XTA    CN133024  -5.480  27.141 -10.914
    1XTA     C133025  -5.508  27.015 -10.870
    1XTA     C233026  -5.404  26.922 -10.858
    1XTA     C333027  -5.280  26.944 -10.922
    1XTA     C433028  -5.258  27.071 -10.989
    1XTA     C533029  -5.356  27.173 -10.974
    1XTA    CN233030  -5.539  27.347 -10.821
    1XTA     C633031  -5.597  27.364 -10.691
    1XTA     C733032  -5.586  27.489 -10.626
    1XTA     C833033  -5.530  27.600 -10.689
    1XTA     C933034  -5.458  27.576 -10.807
    1XTA    C1033035  -5.462  27.455 -10.875
    1XTA    CN333036  -5.663  27.264 -11.008
    1XTA    C1133037  -5.797  27.264 -10.974
    1XTA    C1233038  -5.890  27.291 -11.074
    1XTA    C1333039  -5.856  27.327 -11.205
    1XTA    C1433040  -5.719  27.330 -11.239
    1XTA    C1533041  -5.624  27.289 -11.143
    1XTA     H133042  -5.606  26.993 -10.826
    1XTA     H233043  -5.433  26.827 -10.813
    1XTA     H333044  -5.166  27.102 -11.042
    1XTA     H433045  -5.332  27.255 -11.031
    1XTA     H533046  -5.640  27.278 -10.643
    1XTA     H633047  -5.639  27.498 -10.531
    1XTA     H733048  -5.399  27.661 -10.847
    1XTA     H833049  -5.405  27.444 -10.969
    1XTA     H933050  -5.813  27.246 -10.868
    1XTA    H1033051  -5.990  27.292 -11.043
    1XTA    H1133052  -5.677  27.350 -11.335
    1XTA    H1233053  -5.521  27.290 -11.167
    1XTA    OA133054  -5.187  26.843 -10.958
    1XTA    CO133055  -5.231  26.762 -11.070
    1XTA    OA233056  -5.516  27.721 -10.631
    1XTA    CO233057  -5.524  27.736 -10.493
    1XTA    CL133058  -5.507  27.883 -10.450
    1XTA    CL233059  -5.541  27.901 -10.303
    1XTA    CL333060  -5.582  28.042 -10.261
    1XTA    CL433061  -5.728  28.083 -10.282
    1XTA    CO333062  -5.762  28.200 -10.194
    1XTA    OA333063  -5.906  28.198 -10.202
    1XTA    CO433064  -5.953  28.308 -10.280
    1XTA    CT133065  -6.100  28.281 -10.323
    1XTA    CL533066  -6.106  28.191 -10.449
    1XTA    CL633067  -6.052  28.051 -10.433
    1XTA    OA433068  -5.961  27.361 -11.290
    1XTA    CO533069  -5.932  27.383 -11.424
    1XTA    HL133070  -5.849  27.452 -11.438
    1XTA    HL233071  -5.230  26.817 -11.169
    1XTA    HL333072  -5.164  26.678 -11.082
    1XTA    HL433073  -5.331  26.730 -11.045
    1XTA    HL533074  -5.625  27.703 -10.464
    1XTA    HL633075  -5.447  27.683 -10.438
    1XTA    HL733076  -5.576  27.929 -10.519
    1XTA    HL833077  -5.402  27.917 -10.473
    1XTA    HL933078  -5.442  27.876 -10.258
    1XTA   HL1033079  -5.606  27.815 -10.273
    1XTA   HL1133080  -5.549  28.058 -10.155
    1XTA   HL1233081  -5.518  28.115 -10.312
    1XTA   HL1333082  -5.798  28.003 -10.260
    1XTA   HL1433083  -5.735  28.101 -10.390
    1XTA   HL1533084  -5.724  28.175 -10.093
    1XTA   HL1633085  -5.714  28.287 -10.234
    1XTA   HL1733086  -5.950  28.401 -10.216
    1XTA   HL1833087  -5.896  28.325 -10.366
    1XTA   HL1933088  -6.046  28.245 -10.526
    1XTA   HL2033089  -6.202  28.193 -10.489
    1XTA   HL2133090  -6.079  27.995 -10.521
    1XTA   HL2233091  -6.096  27.987 -10.356
    1XTA   HL2333092  -5.946  28.045 -10.428
    1XTA   HL2433093  -6.018  27.420 -11.481
    1XTA   HL2533094  -5.894  27.286 -11.459
    1XTA    CO833095  -6.158  28.408 -10.372
    1XTA    CO933096  -6.197  28.220 -10.215
    1XTA    OA633097  -6.298  28.202 -10.257
    1XTA   HL4233098  -6.172  28.470 -10.281
    1XTA   HL4333099  -6.287  28.394 -10.435
    1XTA   HL4833100  -6.198  28.294 -10.136
    1XTA   HL4933101  -6.156  28.119 -10.183
    1XTA     NT33102  -4.594  23.019  -9.109
    1XTA    CN133103  -4.480  23.011  -9.038
    1XTA     C133104  -4.370  22.929  -9.071
    1XTA     C233105  -4.253  22.924  -8.996
    1XTA     C333106  -4.242  23.002  -8.876
    1XTA     C433107  -4.357  23.074  -8.840
    1XTA     C533108  -4.468  23.088  -8.924
    1XTA    CN233109  -4.713  23.020  -9.047
    1XTA     C633110  -4.748  22.921  -8.955
    1XTA     C733111  -4.873  22.922  -8.886
    1XTA     C833112  -4.957  23.033  -8.910
    1XTA     C933113  -4.931  23.130  -9.009
    1XTA    C1033114  -4.801  23.125  -9.069
    1XTA    CN333115  -4.585  23.040  -9.243
    1XTA    C1133116  -4.531  23.166  -9.290
    1XTA    C1233117  -4.537  23.191  -9.425
    1XTA    C1333118  -4.599  23.103  -9.518
    1XTA    C1433119  -4.650  22.983  -9.468
    1XTA    C1533120  -4.642  22.950  -9.331
    1XTA     H133121  -4.383  22.861  -9.162
    1XTA     H233122  -4.178  22.858  -9.028
    1XTA     H333123  -4.360  23.134  -8.743
    1XTA     H433124  -4.545  23.149  -8.892
    1XTA     H533125  -4.687  22.832  -8.955
    1XTA     H633126  -4.910  22.834  -8.823
    1XTA     H733127  -5.006  23.208  -9.031
    1XTA     H833128  -4.767  23.199  -9.140
    1XTA     H933129  -4.482  23.229  -9.212
    1XTA    H1033130  -4.494  23.282  -9.452
    1XTA    H1133131  -4.704  22.923  -9.541
    1XTA    H1233132  -4.693  22.852  -9.297
    1XTA    OA133133  -4.140  22.996  -8.782
    1XTA    CO133134  -4.038  22.900  -8.799
    1XTA    OA233135  -5.075  23.039  -8.839
    1XTA    CO233136  -5.191  23.035  -8.912
    1XTA    CL133137  -5.289  23.145  -8.859
    1XTA    CL233138  -5.217  23.286  -8.871
    1XTA    CL333139  -5.309  23.406  -8.850
    1XTA    CL433140  -5.386  23.448  -8.977
    1XTA    CO333141  -5.490  23.559  -8.976
    1XTA    OA333142  -5.524  23.588  -9.108
    1XTA    CO433143  -5.588  23.712  -9.113
    1XTA    CT133144  -5.646  23.721  -9.256
    1XTA    CL533145  -5.753  23.831  -9.270
    1XTA    CL633146  -5.710  23.979  -9.231
    1XTA    OA433147  -4.602  23.129  -9.655
    1XTA    CO533148  -4.507  23.224  -9.697
    1XTA    HL133149  -4.546  23.319  -9.664
    1XTA    HL233150  -3.957  22.915  -8.874
    1XTA    HL333151  -3.981  22.918  -8.711
    1XTA    HL433152  -4.074  22.794  -8.794
    1XTA    HL533153  -5.174  23.049  -9.018
    1XTA    HL633154  -5.235  22.942  -8.912
    1XTA    HL733155  -5.327  23.131  -8.756
    1XTA    HL833156  -5.382  23.159  -8.918
    1XTA    HL933157  -5.171  23.294  -8.967
    1XTA   HL1033158  -5.140  23.288  -8.796
    1XTA   HL1133159  -5.368  23.379  -8.764
    1XTA   HL1233160  -5.251  23.481  -8.805
    1XTA   HL1333161  -5.448  23.360  -9.010
    1XTA   HL1433162  -5.324  23.460  -9.066
    1XTA   HL1533163  -5.574  23.537  -8.905
    1XTA   HL1633164  -5.443  23.655  -8.943
    1XTA   HL1733165  -5.673  23.720  -9.042
    1XTA   HL1833166  -5.513  23.791  -9.089
    1XTA   HL1933167  -5.835  23.793  -9.203
    1XTA   HL2033168  -5.805  23.841  -9.367
    1XTA   HL2133169  -5.627  24.010  -9.296
    1XTA   HL2233170  -5.688  23.995  -9.126
    1XTA   HL2333171  -5.798  24.044  -9.245
    1XTA   HL2433172  -4.508  23.213  -9.809
    1XTA   HL2533173  -4.405  23.217  -9.660
    1XTA    CO833174  -5.703  23.579  -9.294
    1XTA    CO933175  -5.539  23.739  -9.364
    1XTA    OA633176  -5.474  23.831  -9.345
    1XTA   HL4233177  -5.743  23.588  -9.397
    1XTA   HL4333178  -5.611  23.472  -9.288
    1XTA   HL4833179  -5.593  23.736  -9.463
    1XTA   HL4933180  -5.477  23.653  -9.358
    1XTA     NT33181  -4.499  27.555  -9.853
    1XTA    CN133182  -4.556  27.619  -9.958
    1XTA     C133183  -4.687  27.672  -9.941
    1XTA     C233184  -4.745  27.751 -10.040
    1XTA     C333185  -4.667  27.785 -10.156
    1XTA     C433186  -4.540  27.732 -10.179
    1XTA     C533187  -4.487  27.644 -10.080
    1XTA    CN233188  -4.398  27.618  -9.789
    1XTA     C633189  -4.268  27.606  -9.839
    1XTA     C733190  -4.164  27.664  -9.759
    1XTA     C833191  -4.187  27.724  -9.638
    1XTA     C933192  -4.320  27.738  -9.594
    1XTA    C1033193  -4.426  27.689  -9.674
    1XTA    CN333194  -4.539  27.434  -9.815
    1XTA    C1133195  -4.489  27.313  -9.880
    1XTA    C1233196  -4.531  27.185  -9.840
    1XTA    C1333197  -4.608  27.167  -9.725
    1XTA    C1433198  -4.651  27.283  -9.659
    1XTA    C1533199  -4.617  27.415  -9.700
    1XTA     H133200  -4.739  27.640  -9.850
    1XTA     H233201  -4.843  27.797 -10.024
    1XTA     H333202  -4.484  27.751 -10.265
    1XTA     H433203  -4.400  27.592 -10.120
    1XTA     H533204  -4.237  27.550  -9.930
    1XTA     H633205  -4.064  27.642  -9.790
    1XTA     H733206  -4.352  27.782  -9.507
    1XTA     H833207  -4.529  27.709  -9.646
    1XTA     H933208  -4.418  27.323  -9.962
    1XTA    H1033209  -4.486  27.102  -9.889
    1XTA    H1133210  -4.695  27.277  -9.563
    1XTA    H1233211  -4.659  27.498  -9.647
    1XTA    OA133212  -4.727  27.857 -10.260
    1XTA    CO133213  -4.645  27.938 -10.349
    1XTA    OA233214  -4.071  27.766  -9.574
    1XTA    CO233215  -4.089  27.817  -9.444
    1XTA    CL133216  -3.953  27.865  -9.400
    1XTA    CL233217  -3.951  27.916  -9.256
    1XTA    CL333218  -3.817  27.955  -9.214
    1XTA    CL433219  -3.813  28.019  -9.082
    1XTA    CO333220  -3.670  28.065  -9.055
    1XTA    OA333221  -3.658  28.155  -8.939
    1XTA    CO433222  -3.523  28.191  -8.904
    1XTA    CT133223  -3.528  28.256  -8.763
    1XTA    CL533224  -3.397  28.327  -8.728
    1XTA    CL633225  -3.282  28.228  -8.735
    1XTA    OA433226  -4.639  27.042  -9.680
    1XTA    CO533227  -4.732  27.027  -9.577
    1XTA    HL133228  -4.833  27.054  -9.601
    1XTA    HL233229  -4.701  28.002 -10.416
    1XTA    HL333230  -4.574  28.005 -10.304
    1XTA    HL433231  -4.589  27.873 -10.410
    1XTA    HL533232  -4.168  27.899  -9.448
    1XTA    HL633233  -4.121  27.745  -9.367
    1XTA    HL733234  -3.923  27.948  -9.465
    1XTA    HL833235  -3.875  27.785  -9.417
    1XTA    HL933236  -3.990  27.842  -9.187
    1XTA   HL1033237  -4.014  27.998  -9.250
    1XTA   HL1133238  -3.758  27.870  -9.194
    1XTA   HL1233239  -3.771  28.007  -9.297
    1XTA   HL1333240  -3.859  27.955  -9.000
    1XTA   HL1433241  -3.866  28.114  -9.085
    1XTA   HL1533242  -3.602  27.980  -9.028
    1XTA   HL1633243  -3.630  28.099  -9.153
    1XTA   HL1733244  -3.476  28.092  -8.902
    1XTA   HL1833245  -3.478  28.266  -8.968
    1XTA   HL1933246  -3.413  28.355  -8.623
    1XTA   HL2033247  -3.379  28.417  -8.781
    1XTA   HL2133248  -3.297  28.147  -8.666
    1XTA   HL2233249  -3.191  28.267  -8.687
    1XTA   HL2333250  -3.261  28.190  -8.834
    1XTA   HL2433251  -4.690  27.090  -9.492
    1XTA   HL2533252  -4.735  26.927  -9.543
    1XTA    CO833253  -3.570  28.146  -8.664
    1XTA    CO933254  -3.642  28.359  -8.758
    1XTA    OA633255  -3.577  28.185  -8.558
    1XTA   HL4233256  -3.492  28.071  -8.661
    1XTA   HL4333257  -3.652  28.098  -8.711
    1XTA   HL4833258  -3.644  28.438  -8.636
    1XTA   HL4933259  -3.744  28.320  -8.752
    1XTA     NT33260  -1.805  27.826  -9.932
    1XTA    CN133261  -1.842  27.955  -9.927
    1XTA     C133262  -1.890  28.019 -10.041
    1XTA     C233263  -1.947  28.146 -10.038
    1XTA     C333264  -1.946  28.224  -9.925
    1XTA     C433265  -1.893  28.164  -9.810
    1XTA     C533266  -1.848  28.031  -9.808
    1XTA    CN233267  -1.848  27.738  -9.840
    1XTA     C633268  -1.751  27.683  -9.751
    1XTA     C733269  -1.801  27.595  -9.651
    1XTA     C833270  -1.937  27.551  -9.658
    1XTA     C933271  -2.029  27.606  -9.744
    1XTA    C1033272  -1.986  27.704  -9.833
    1XTA    CN333273  -1.760  27.768 -10.048
    1XTA    C1133274  -1.853  27.712 -10.136
    1XTA    C1233275  -1.810  27.652 -10.255
    1XTA    C1333276  -1.677  27.654 -10.298
    1XTA    C1433277  -1.580  27.705 -10.203
    1XTA    C1533278  -1.623  27.762 -10.079
    1XTA     H133279  -1.905  27.975 -10.138
    1XTA     H233280  -1.991  28.189 -10.126
    1XTA     H333281  -1.891  28.203  -9.710
    1XTA     H433282  -1.812  27.994  -9.704
    1XTA     H533283  -1.648  27.715  -9.763
    1XTA     H633284  -1.730  27.546  -9.584
    1XTA     H733285  -2.135  27.582  -9.751
    1XTA     H833286  -2.059  27.749  -9.902
    1XTA     H933287  -1.957  27.719 -10.107
    1XTA    H1033288  -1.885  27.610 -10.313
    1XTA    H1133289  -1.475  27.694 -10.223
    1XTA    H1233290  -1.543  27.792 -10.015
    1XTA    OA133291  -2.004  28.353  -9.921
    1XTA    CO133292  -1.994  28.419  -9.796
    1XTA    OA233293  -1.966  27.455  -9.565
    1XTA    CO233294  -2.075  27.366  -9.584
    1XTA    CL133295  -2.068  27.238  -9.488
    1XTA    CL233296  -1.951  27.145  -9.520
    1XTA    CL333297  -1.944  27.037  -9.411
    1XTA    CL433298  -1.806  26.974  -9.405
    1XTA    CO333299  -1.733  26.941  -9.536
    1XTA    OA333300  -1.766  26.810  -9.577
    1XTA    CO433301  -1.895  26.791  -9.618
    1XTA    CT133302  -1.925  26.656  -9.683
    1XTA    CL533303  -1.920  26.538  -9.587
    1XTA    CL633304  -2.013  26.543  -9.465
    1XTA    OA433305  -1.641  27.635 -10.428
    1XTA    CO533306  -1.748  27.601 -10.513
    1XTA    HL133307  -1.781  27.496 -10.497
    1XTA    HL233308  -1.889  28.444  -9.775
    1XTA    HL333309  -2.049  28.508  -9.801
    1XTA    HL433310  -2.043  28.363  -9.717
    1XTA    HL533311  -2.165  27.421  -9.552
    1XTA    HL633312  -2.066  27.339  -9.688
    1XTA    HL733313  -2.158  27.177  -9.501
    1XTA    HL833314  -2.074  27.261  -9.384
    1XTA    HL933315  -1.853  27.190  -9.509
    1XTA   HL1033316  -1.953  27.098  -9.621
    1XTA   HL1133317  -1.977  27.069  -9.313
    1XTA   HL1233318  -2.015  26.963  -9.443
    1XTA   HL1333319  -1.802  26.885  -9.340
    1XTA   HL1433320  -1.747  27.046  -9.354
    1XTA   HL1533321  -1.768  27.012  -9.613
    1XTA   HL1633322  -1.626  26.949  -9.541
    1XTA   HL1733323  -1.963  26.810  -9.539
    1XTA   HL1833324  -1.914  26.867  -9.691
    1XTA   HL1933325  -1.824  26.537  -9.534
    1XTA   HL2033326  -1.932  26.445  -9.639
    1XTA   HL2133327  -2.023  26.448  -9.419
    1XTA   HL2233328  -2.116  26.594  -9.478
    1XTA   HL2333329  -1.957  26.596  -9.383
    1XTA   HL2433330  -1.706  27.604 -10.614
    1XTA   HL2533331  -1.830  27.678 -10.505
    1XTA    CO833332  -1.823  26.632  -9.791
    1XTA    CO933333  -2.066  26.659  -9.751
    1XTA    OA633334  -2.072  26.737  -9.822
    1XTA   HL4233335  -1.834  26.714  -9.862
    1XTA   HL4333336  -1.692  26.645  -9.751
    1XTA   HL4833337  -2.146  26.663  -9.682
    1XTA   HL4933338  -2.080  26.565  -9.799
    1XTA     NT33339  -1.884  30.789 -10.332
    1XTA    CN133340  -1.871  30.918 -10.288
    1XTA     C133341  -1.749  30.983 -10.278
    1XTA     C233342  -1.737  31.120 -10.234
    1XTA     C333343  -1.852  31.194 -10.203
    1XTA     C433344  -1.972  31.128 -10.223
    1XTA     C533345  -1.991  30.994 -10.263
    1XTA    CN233346  -1.837  30.683 -10.261
    1XTA     C633347  -1.706  30.629 -10.292
    1XTA     C733348  -1.655  30.516 -10.235
    1XTA     C833349  -1.735  30.442 -10.142
    1XTA     C933350  -1.863  30.486 -10.113
    1XTA    C1033351  -1.910  30.608 -10.172
    1XTA    CN333352  -1.962  30.760 -10.435
    1XTA    C1133353  -1.922  30.802 -10.568
    1XTA    C1233354  -1.993  30.753 -10.684
    1XTA    C1333355  -2.109  30.679 -10.672
    1XTA    C1433356  -2.148  30.645 -10.543
    1XTA    C1533357  -2.080  30.685 -10.426
    1XTA     H133358  -1.662  30.926 -10.287
    1XTA     H233359  -1.640  31.155 -10.239
    1XTA     H333360  -2.051  31.192 -10.200
    1XTA     H433361  -2.094  30.955 -10.266
    1XTA     H533362  -1.645  30.689 -10.356
    1XTA     H633363  -1.553  30.496 -10.256
    1XTA     H733364  -1.923  30.435 -10.043
    1XTA     H833365  -2.008  30.645 -10.145
    1XTA     H933366  -1.827  30.860 -10.577
    1XTA    H1033367  -1.951  30.773 -10.782
    1XTA    H1133368  -2.232  30.586 -10.515
    1XTA    H1233369  -2.125  30.658 -10.330
    1XTA    OA133370  -1.827  31.321 -10.148
    1XTA    CO133371  -1.929  31.369 -10.068
    1XTA    OA233372  -1.689  30.328 -10.085
    1XTA    CO233373  -1.573  30.265 -10.136
    1XTA    CL133374  -1.628  30.185 -10.259
    1XTA    CL233375  -1.528  30.072 -10.308
    1XTA    CL333376  -1.584  29.991 -10.430
    1XTA    CL433377  -1.476  29.890 -10.490
    1XTA    CO333378  -1.339  29.953 -10.505
    1XTA    OA333379  -1.253  29.873 -10.581
    1XTA    CO433380  -1.126  29.941 -10.592
    1XTA    CT133381  -1.039  29.871 -10.695
    1XTA    CL533382  -0.930  29.980 -10.736
    1XTA    CL633383  -0.841  30.027 -10.630
    1XTA    OA433384  -2.183  30.638 -10.783
    1XTA    CO533385  -2.299  30.563 -10.754
    1XTA    HL133386  -2.270  30.461 -10.741
    1XTA    HL233387  -1.906  31.461 -10.027
    1XTA    HL333388  -2.012  31.388 -10.132
    1XTA    HL433389  -1.969  31.307  -9.990
    1XTA    HL533390  -1.488  30.328 -10.161
    1XTA    HL633391  -1.544  30.198 -10.057
    1XTA    HL733392  -1.655  30.260 -10.333
    1XTA    HL833393  -1.724  30.139 -10.225
    1XTA    HL933394  -1.534  30.004 -10.226
    1XTA   HL1033395  -1.432  30.126 -10.325
    1XTA   HL1133396  -1.671  29.934 -10.399
    1XTA   HL1233397  -1.618  30.061 -10.509
    1XTA   HL1333398  -1.514  29.840 -10.581
    1XTA   HL1433399  -1.457  29.811 -10.412
    1XTA   HL1533400  -1.346  30.052 -10.556
    1XTA   HL1633401  -1.295  29.968 -10.401
    1XTA   HL1733402  -1.138  30.041 -10.639
    1XTA   HL1833403  -1.088  29.957 -10.495
    1XTA   HL1933404  -0.972  30.066 -10.782
    1XTA   HL2033405  -0.880  29.952 -10.826
    1XTA   HL2133406  -0.749  29.961 -10.617
    1XTA   HL2233407  -0.888  30.041 -10.536
    1XTA   HL2333408  -0.797  30.116 -10.680
    1XTA   HL2433409  -2.356  30.560 -10.849
    1XTA   HL2533410  -2.364  30.589 -10.672
    1XTA    CO833411  -1.119  29.830 -10.830
    1XTA    CO933412  -0.996  29.736 -10.641
    1XTA    OA633413  -1.187  29.947 -10.878
    1XTA   HL4233414  -1.180  29.743 -10.812
    1XTA   HL4333415  -1.044  29.787 -10.895
    1XTA   HL4833416  -1.076  29.673 -10.635
    1XTA   HL4933417  -0.951  29.737 -10.544
    1XTA     NT33418  -4.067  30.570  -5.176
    1XTA    CN133419  -4.187  30.598  -5.236
    1XTA     C133420  -4.206  30.728  -5.293
    1XTA     C233421  -4.336  30.758  -5.361
    1XTA     C333422  -4.439  30.664  -5.354
    1XTA     C433423  -4.415  30.533  -5.303
    1XTA     C533424  -4.290  30.502  -5.252
    1XTA    CN233425  -3.981  30.476  -5.230
    1XTA     C633426  -3.944  30.486  -5.362
    1XTA     C733427  -3.862  30.393  -5.424
    1XTA     C833428  -3.810  30.281  -5.348
    1XTA     C933429  -3.842  30.279  -5.209
    1XTA    C1033430  -3.923  30.373  -5.150
    1XTA    CN333431  -4.014  30.658  -5.088
    1XTA    C1133432  -3.933  30.761  -5.141
    1XTA    C1233433  -3.873  30.853  -5.054
    1XTA    C1333434  -3.885  30.843  -4.915
    1XTA    C1433435  -3.971  30.750  -4.866
    1XTA    C1533436  -4.034  30.656  -4.948
    1XTA     H133437  -4.138  30.804  -5.285
    1XTA     H233438  -4.350  30.858  -5.405
    1XTA     H333439  -4.492  30.457  -5.294
    1XTA     H433440  -4.262  30.400  -5.223
    1XTA     H533441  -3.986  30.569  -5.410
    1XTA     H633442  -3.836  30.399  -5.525
    1XTA     H733443  -3.814  30.200  -5.143
    1XTA     H833444  -3.952  30.375  -5.052
    1XTA     H933445  -3.914  30.782  -5.248
    1XTA    H1033446  -3.804  30.929  -5.096
    1XTA    H1133447  -4.000  30.743  -4.763
    1XTA    H1233448  -4.088  30.576  -4.904
    1XTA    OA133449  -4.565  30.693  -5.396
    1XTA    CO133450  -4.585  30.803  -5.488
    1XTA    OA233451  -3.732  30.181  -5.401
    1XTA    CO233452  -3.715  30.169  -5.546
    1XTA    CL133453  -3.584  30.080  -5.551
    1XTA    CL233454  -3.555  30.034  -5.699
    1XTA    CL333455  -3.410  29.996  -5.710
    1XTA    CL433456  -3.367  30.000  -5.853
    1XTA    CO333457  -3.219  30.006  -5.877
    1XTA    OA333458  -3.173  30.126  -5.823
    1XTA    CO433459  -3.039  30.160  -5.846
    1XTA    CT133460  -3.036  30.309  -5.892
    1XTA    CL533461  -2.888  30.349  -5.918
    1XTA    CL633462  -2.819  30.270  -6.031
    1XTA    OA433463  -3.838  30.930  -4.824
    1XTA    CO533464  -3.817  31.061  -4.871
    1XTA    HL133465  -3.744  31.069  -4.951
    1XTA    HL233466  -4.530  30.786  -5.580
    1XTA    HL333467  -4.690  30.817  -5.521
    1XTA    HL433468  -4.563  30.905  -5.446
    1XTA    HL533469  -3.806  30.116  -5.592
    1XTA    HL633470  -3.690  30.257  -5.600
    1XTA    HL733471  -3.590  29.990  -5.492
    1XTA    HL833472  -3.493  30.132  -5.519
    1XTA    HL933473  -3.576  30.120  -5.766
    1XTA   HL1033474  -3.612  29.945  -5.726
    1XTA   HL1133475  -3.347  30.059  -5.645
    1XTA   HL1233476  -3.390  29.898  -5.665
    1XTA   HL1333477  -3.409  30.087  -5.897
    1XTA   HL1433478  -3.414  29.921  -5.916
    1XTA   HL1533479  -3.166  29.916  -5.846
    1XTA   HL1633480  -3.201  30.001  -5.985
    1XTA   HL1733481  -2.982  30.155  -5.756
    1XTA   HL1833482  -2.995  30.100  -5.922
    1XTA   HL1933483  -2.834  30.343  -5.829
    1XTA   HL2033484  -2.892  30.452  -5.937
    1XTA   HL2133485  -2.748  30.326  -6.091
    1XTA   HL2233486  -2.891  30.222  -6.099
    1XTA   HL2333487  -2.751  30.198  -5.997
    1XTA   HL2433488  -3.791  31.133  -4.795
    1XTA   HL2533489  -3.912  31.089  -4.920
    1XTA    CO833490  -3.084  30.395  -5.770
    1XTA    CO933491  -3.137  30.333  -6.011
    1XTA    OA633492  -3.122  30.497  -5.805
    1XTA   HL4233493  -3.010  30.396  -5.686
    1XTA   HL4333494  -3.170  30.335  -5.730
    1XTA   HL4833495  -3.160  30.207  -6.075
    1XTA   HL4933496  -3.237  30.358  -5.970
    1XTA     NT33497  -6.716  29.307  -8.995
    1XTA    CN133498  -6.636  29.378  -9.082
    1XTA     C133499  -6.628  29.517  -9.055
    1XTA     C233500  -6.541  29.599  -9.126
    1XTA     C333501  -6.486  29.548  -9.249
    1XTA     C433502  -6.496  29.412  -9.280
    1XTA     C533503  -6.574  29.323  -9.197
    1XTA    CN233504  -6.842  29.268  -9.029
    1XTA     C633505  -6.901  29.156  -8.970
    1XTA     C733506  -7.032  29.116  -9.005
    1XTA     C833507  -7.102  29.185  -9.106
    1XTA     C933508  -7.051  29.299  -9.163
    1XTA    C1033509  -6.918  29.340  -9.123
    1XTA    CN333510  -6.662  29.270  -8.875
    1XTA    C1133511  -6.546  29.190  -8.881
    1XTA    C1233512  -6.485  29.154  -8.762
    1XTA    C1333513  -6.550  29.183  -8.639
    1XTA    C1433514  -6.656  29.278  -8.641
    1XTA    C1533515  -6.713  29.321  -8.757
    1XTA     H133516  -6.694  29.553  -8.980
    1XTA     H233517  -6.541  29.699  -9.107
    1XTA     H333518  -6.448  29.371  -9.366
    1XTA     H433519  -6.586  29.213  -9.208
    1XTA     H533520  -6.848  29.098  -8.890
    1XTA     H633521  -7.077  29.024  -8.969
    1XTA     H733522  -7.099  29.364  -9.235
    1XTA     H833523  -6.885  29.420  -9.182
    1XTA     H933524  -6.504  29.163  -8.984
    1XTA    H1033525  -6.393  29.086  -8.776
    1XTA    H1133526  -6.696  29.327  -8.556
    1XTA    H1233527  -6.804  29.379  -8.759
    1XTA    OA133528  -6.420  29.628  -9.337
    1XTA    CO133529  -6.475  29.753  -9.353
    1XTA    OA233530  -7.229  29.145  -9.136
    1XTA    CO233531  -7.316  29.197  -9.040
    1XTA    CL133532  -7.454  29.140  -9.073
    1XTA    CL233533  -7.559  29.153  -8.957
    1XTA    CL333534  -7.664  29.045  -8.977
    1XTA    CL433535  -7.770  29.033  -8.870
    1XTA    CO333536  -7.751  28.906  -8.785
    1XTA    OA333537  -7.777  28.790  -8.864
    1XTA    CO433538  -7.750  28.667  -8.802
    1XTA    CT133539  -7.789  28.540  -8.884
    1XTA    CL533540  -7.764  28.416  -8.801
    1XTA    CL633541  -7.863  28.301  -8.825
    1XTA    OA433542  -6.489  29.146  -8.526
    1XTA    CO533543  -6.565  29.149  -8.404
    1XTA    HL133544  -6.510  29.121  -8.314
    1XTA    HL233545  -6.475  29.812  -9.267
    1XTA    HL333546  -6.431  29.815  -9.434
    1XTA    HL433547  -6.584  29.741  -9.371
    1XTA    HL533548  -7.276  29.158  -8.945
    1XTA    HL633549  -7.313  29.309  -9.042
    1XTA    HL733550  -7.431  29.031  -9.106
    1XTA    HL833551  -7.493  29.184  -9.173
    1XTA    HL933552  -7.614  29.244  -8.960
    1XTA   HL1033553  -7.521  29.138  -8.862
    1XTA   HL1133554  -7.703  29.049  -9.076
    1XTA   HL1233555  -7.606  28.954  -8.973
    1XTA   HL1333556  -7.858  29.027  -8.932
    1XTA   HL1433557  -7.768  29.134  -8.811
    1XTA   HL1533558  -7.648  28.906  -8.741
    1XTA   HL1633559  -7.812  28.900  -8.703
    1XTA   HL1733560  -7.649  28.664  -8.769
    1XTA   HL1833561  -7.810  28.671  -8.706
    1XTA   HL1933562  -7.782  28.435  -8.696
    1XTA   HL2033563  -7.660  28.369  -8.805
    1XTA   HL2133564  -7.854  28.252  -8.922
    1XTA   HL2233565  -7.971  28.321  -8.798
    1XTA   HL2333566  -7.830  28.234  -8.747
    1XTA   HL2433567  -6.665  29.098  -8.401
    1XTA   HL2533568  -6.591  29.254  -8.383
    1XTA    CO833569  -7.701  28.537  -9.009
    1XTA    CO933570  -7.935  28.560  -8.924
    1XTA    OA633571  -8.011  28.574  -8.802
    1XTA   HL4233572  -7.717  28.616  -9.078
    1XTA   HL4333573  -7.595  28.527  -8.989
    1XTA   HL4833574  -7.975  28.481  -8.986
    1XTA   HL4933575  -7.960  28.650  -8.983
    1XTA     NT33576  -4.787  28.629  -9.060
    1XTA    CN133577  -4.729  28.741  -9.015
    1XTA     C133578  -4.624  28.729  -8.918
    1XTA     C233579  -4.568  28.848  -8.865
    1XTA     C333580  -4.615  28.973  -8.910
    1XTA     C433581  -4.724  28.982  -9.004
    1XTA     C533582  -4.779  28.864  -9.064
    1XTA    CN233583  -4.704  28.527  -9.100
    1XTA     C633584  -4.727  28.400  -9.054
    1XTA     C733585  -4.642  28.297  -9.091
    1XTA     C833586  -4.532  28.321  -9.170
    1XTA     C933587  -4.504  28.453  -9.214
    1XTA    C1033588  -4.596  28.553  -9.185
    1XTA    CN333589  -4.914  28.608  -9.024
    1XTA    C1133590  -5.015  28.590  -9.118
    1XTA    C1233591  -5.145  28.571  -9.074
    1XTA    C1333592  -5.178  28.569  -8.932
    1XTA    C1433593  -5.074  28.595  -8.845
    1XTA    C1533594  -4.949  28.612  -8.889
    1XTA     H133595  -4.577  28.640  -8.885
    1XTA     H233596  -4.479  28.830  -8.805
    1XTA     H333597  -4.769  29.081  -9.027
    1XTA     H433598  -4.856  28.874  -9.137
    1XTA     H533599  -4.820  28.381  -8.994
    1XTA     H633600  -4.664  28.193  -9.064
    1XTA     H733601  -4.413  28.473  -9.268
    1XTA     H833602  -4.573  28.659  -9.210
    1XTA     H933603  -4.995  28.596  -9.223
    1XTA    H1033604  -5.227  28.559  -9.147
    1XTA    H1133605  -5.089  28.585  -8.733
    1XTA    H1233606  -4.880  28.637  -8.814
    1XTA    OA133607  -4.562  29.090  -8.871
    1XTA    CO133608  -4.475  29.094  -8.760
    1XTA    OA233609  -4.457  28.214  -9.210
    1XTA    CO233610  -4.396  28.230  -9.337
    1XTA    CL133611  -4.362  28.089  -9.393
    1XTA    CL233612  -4.488  28.003  -9.422
    1XTA    CL333613  -4.528  28.015  -9.562
    1XTA    CL433614  -4.658  27.944  -9.600
    1XTA    CO333615  -4.701  27.959  -9.745
    1XTA    OA333616  -4.755  28.091  -9.764
    1XTA    CO433617  -4.679  28.173  -9.843
    1XTA    CT133618  -4.737  28.314  -9.825
    1XTA    CL533619  -4.727  28.356  -9.670
    1XTA    CL633620  -4.728  28.494  -9.622
    1XTA    OA433621  -5.308  28.544  -8.882
    1XTA    CO533622  -5.407  28.514  -8.975
    1XTA    HL133623  -5.363  28.439  -9.041
    1XTA    HL233624  -4.459  29.202  -8.733
    1XTA    HL333625  -4.516  29.047  -8.667
    1XTA    HL433626  -4.378  29.052  -8.794
    1XTA    HL533627  -4.465  28.284  -9.412
    1XTA    HL633628  -4.302  28.293  -9.321
    1XTA    HL733629  -4.299  28.057  -9.315
    1XTA    HL833630  -4.297  28.088  -9.480
    1XTA    HL933631  -4.561  28.052  -9.358
    1XTA   HL1033632  -4.469  27.900  -9.372
    1XTA   HL1133633  -4.535  28.118  -9.592
    1XTA   HL1233634  -4.443  27.977  -9.617
    1XTA   HL1333635  -4.727  27.988  -9.539
    1XTA   HL1433636  -4.653  27.835  -9.577
    1XTA   HL1533637  -4.623  27.931  -9.809
    1XTA   HL1633638  -4.781  27.886  -9.779
    1XTA   HL1733639  -4.568  28.157  -9.821
    1XTA   HL1833640  -4.693  28.141  -9.944
    1XTA   HL1933641  -4.632  28.316  -9.631
    1XTA   HL2033642  -4.793  28.287  -9.612
    1XTA   HL2133643  -4.827  28.535  -9.632
    1XTA   HL2233644  -4.656  28.556  -9.679
    1XTA   HL2333645  -4.696  28.504  -9.521
    1XTA   HL2433646  -5.435  28.599  -9.041
    1XTA   HL2533647  -5.501  28.478  -8.931
    1XTA    CO833648  -4.879  28.328  -9.883
    1XTA    CO933649  -4.651  28.405  -9.910
    1XTA    OA633650  -4.938  28.448  -9.844
    1XTA   HL4233651  -4.944  28.256  -9.834
    1XTA   HL4333652  -4.888  28.302  -9.982
    1XTA   HL4833653  -4.694  28.497  -9.920
    1XTA   HL4933654  -4.554  28.413  -9.851
    1XTA     NT33655  -1.529  27.419 -12.041
    1XTA    CN133656  -1.458  27.348 -11.953
    1XTA     C133657  -1.450  27.208 -11.961
    1XTA     C233658  -1.369  27.140 -11.868
    1XTA     C333659  -1.286  27.203 -11.773
    1XTA     C433660  -1.284  27.344 -11.778
    1XTA     C533661  -1.374  27.411 -11.864
    1XTA    CN233662  -1.554  27.553 -12.025
    1XTA     C633663  -1.614  27.596 -11.899
    1XTA     C733664  -1.621  27.729 -11.865
    1XTA     C833665  -1.565  27.828 -11.941
    1XTA     C933666  -1.502  27.789 -12.065
    1XTA    C1033667  -1.493  27.657 -12.107
    1XTA    CN333668  -1.583  27.372 -12.157
    1XTA    C1133669  -1.499  27.342 -12.267
    1XTA    C1233670  -1.548  27.295 -12.393
    1XTA    C1333671  -1.683  27.261 -12.391
    1XTA    C1433672  -1.765  27.285 -12.283
    1XTA    C1533673  -1.722  27.344 -12.162
    1XTA     H133674  -1.515  27.150 -12.034
    1XTA     H233675  -1.387  27.038 -11.871
    1XTA     H333676  -1.220  27.396 -11.708
    1XTA     H433677  -1.373  27.520 -11.857
    1XTA     H533678  -1.657  27.513 -11.848
    1XTA     H633679  -1.677  27.750 -11.773
    1XTA     H733680  -1.458  27.873 -12.112
    1XTA     H833681  -1.452  27.622 -12.198
    1XTA     H933682  -1.392  27.351 -12.269
    1XTA    H1033683  -1.492  27.287 -12.483
    1XTA    H1133684  -1.871  27.268 -12.290
    1XTA    H1233685  -1.774  27.362 -12.071
    1XTA    OA133686  -1.195  27.138 -11.690
    1XTA    CO133687  -1.198  26.997 -11.692
    1XTA    OA233688  -1.565  27.952 -11.886
    1XTA    CO233689  -1.524  28.060 -11.968
    1XTA    CL133690  -1.559  28.183 -11.892
    1XTA    CL233691  -1.560  28.304 -11.989
    1XTA    CL333692  -1.542  28.434 -11.904
    1XTA    CL433693  -1.634  28.449 -11.773
    1XTA    CO333694  -1.663  28.588 -11.732
    1XTA    OA333695  -1.749  28.655 -11.826
    1XTA    CO433696  -1.789  28.784 -11.785
    1XTA    CT133697  -1.838  28.870 -11.903
    1XTA    CL533698  -1.729  28.877 -12.013
    1XTA    CL633699  -1.584  28.890 -11.966
    1XTA    OA433700  -1.743  27.207 -12.492
    1XTA    CO533701  -1.664  27.150 -12.589
    1XTA    HL133702  -1.734  27.108 -12.668
    1XTA    HL233703  -1.180  26.955 -11.789
    1XTA    HL333704  -1.110  26.965 -11.634
    1XTA    HL433705  -1.288  26.955 -11.650
    1XTA    HL533706  -1.421  28.064 -11.990
    1XTA    HL633707  -1.576  28.065 -12.059
    1XTA    HL733708  -1.494  28.202 -11.809
    1XTA    HL833709  -1.666  28.167 -11.859
    1XTA    HL933710  -1.650  28.311 -12.051
    1XTA   HL1033711  -1.475  28.300 -12.060
    1XTA   HL1133712  -1.435  28.442 -11.879
    1XTA   HL1233713  -1.570  28.523 -11.963
    1XTA   HL1333714  -1.589  28.393 -11.688
    1XTA   HL1433715  -1.731  28.404 -11.791
    1XTA   HL1533716  -1.712  28.587 -11.638
    1XTA   HL1633717  -1.562  28.637 -11.726
    1XTA   HL1733718  -1.867  28.769 -11.708
    1XTA   HL1833719  -1.709  28.845 -11.734
    1XTA   HL1933720  -1.749  28.965 -12.077
    1XTA   HL2033721  -1.723  28.780 -12.073
    1XTA   HL2133722  -1.514  28.907 -12.040
    1XTA   HL2233723  -1.556  28.791 -11.930
    1XTA   HL2333724  -1.577  28.960 -11.879
    1XTA   HL2433725  -1.600  27.080 -12.546
    1XTA   HL2533726  -1.605  27.224 -12.639
    1XTA    CO833727  -1.873  29.016 -11.850
    1XTA    CO933728  -1.975  28.814 -11.943
    1XTA    OA633729  -2.039  28.881 -12.046
    1XTA   HL4233730  -1.778  29.065 -11.827
    1XTA   HL4333731  -1.897  29.075 -11.940
    1XTA   HL4833732  -2.042  28.816 -11.856
    1XTA   HL4933733  -1.975  28.706 -11.962
    1XTA     NT33734  -5.882  31.331 -11.822
    1XTA    CN133735  -5.763  31.285 -11.863
    1XTA     C133736  -5.725  31.160 -11.813
    1XTA     C233737  -5.595  31.113 -11.853
    1XTA     C333738  -5.517  31.179 -11.950
    1XTA     C433739  -5.556  31.301 -11.998
    1XTA     C533740  -5.681  31.357 -11.948
    1XTA    CN233741  -5.889  31.408 -11.711
    1XTA     C633742  -5.817  31.530 -11.710
    1XTA     C733743  -5.825  31.609 -11.595
    1XTA     C833744  -5.895  31.564 -11.481
    1XTA     C933745  -5.967  31.440 -11.485
    1XTA    C1033746  -5.958  31.363 -11.600
    1XTA    CN333747  -5.985  31.318 -11.904
    1XTA    C1133748  -5.990  31.408 -12.014
    1XTA    C1233749  -6.096  31.407 -12.105
    1XTA    C1333750  -6.184  31.298 -12.102
    1XTA    C1433751  -6.183  31.211 -11.994
    1XTA    C1533752  -6.090  31.231 -11.885
    1XTA     H133753  -5.793  31.102 -11.749
    1XTA     H233754  -5.560  31.017 -11.819
    1XTA     H333755  -5.492  31.353 -12.065
    1XTA     H433756  -5.714  31.450 -11.992
    1XTA     H533757  -5.760  31.552 -11.794
    1XTA     H633758  -5.761  31.694 -11.596
    1XTA     H733759  -6.028  31.402 -11.401
    1XTA     H833760  -6.015  31.272 -11.606
    1XTA     H933761  -5.909  31.482 -12.010
    1XTA    H1033762  -6.092  31.478 -12.187
    1XTA    H1133763  -6.254  31.140 -11.976
    1XTA    H1233764  -6.092  31.175 -11.793
    1XTA    OA133765  -5.395  31.124 -11.979
    1XTA    CO133766  -5.322  31.168 -12.096
    1XTA    OA233767  -5.906  31.634 -11.371
    1XTA    CO233768  -5.792  31.712 -11.326
    1XTA    CL133769  -5.756  31.670 -11.186
    1XTA    CL233770  -5.644  31.757 -11.112
    1XTA    CL333771  -5.632  31.707 -10.967
    1XTA    CL433772  -5.566  31.808 -10.869
    1XTA    CO333773  -5.653  31.924 -10.823
    1XTA    OA333774  -5.586  32.003 -10.736
    1XTA    CO433775  -5.585  32.133 -10.790
    1XTA    CT133776  -5.490  32.221 -10.714
    1XTA    CL533777  -5.350  32.141 -10.718
    1XTA    CL633778  -5.300  32.092 -10.858
    1XTA    OA433779  -6.276  31.279 -12.199
    1XTA    CO533780  -6.261  31.366 -12.313
    1XTA    HL133781  -6.271  31.472 -12.276
    1XTA    HL233782  -5.393  31.181 -12.179
    1XTA    HL333783  -5.264  31.259 -12.076
    1XTA    HL433784  -5.249  31.087 -12.122
    1XTA    HL533785  -5.709  31.702 -11.399
    1XTA    HL633786  -5.812  31.816 -11.338
    1XTA    HL733787  -5.734  31.563 -11.183
    1XTA    HL833788  -5.851  31.676 -11.123
    1XTA    HL933789  -5.681  31.857 -11.099
    1XTA   HL1033790  -5.549  31.762 -11.165
    1XTA   HL1133791  -5.727  31.679 -10.922
    1XTA   HL1233792  -5.576  31.615 -10.949
    1XTA   HL1333793  -5.480  31.855 -10.914
    1XTA   HL1433794  -5.532  31.749 -10.780
    1XTA   HL1533795  -5.696  31.974 -10.914
    1XTA   HL1633796  -5.748  31.892 -10.778
    1XTA   HL1733797  -5.548  32.119 -10.893
    1XTA   HL1833798  -5.684  32.169 -10.812
    1XTA   HL1933799  -5.354  32.047 -10.654
    1XTA   HL2033800  -5.267  32.196 -10.668
    1XTA   HL2133801  -5.199  32.061 -10.846
    1XTA   HL2233802  -5.296  32.173 -10.933
    1XTA   HL2333803  -5.366  32.017 -10.886
    1XTA   HL2433804  -6.335  31.340 -12.383
    1XTA   HL2533805  -6.165  31.366 -12.355
    1XTA    CO833806  -5.536  32.224 -10.565
    1XTA    CO933807  -5.475  32.364 -10.759
    1XTA    OA633808  -5.409  32.375 -10.851
    1XTA   HL4233809  -5.619  32.290 -10.545
    1XTA   HL4333810  -5.589  32.098 -10.528
    1XTA   HL4833811  -5.445  32.425 -10.672
    1XTA   HL4933812  -5.578  32.392 -10.776
    1XTA     NT33813  -2.444  26.287 -12.065
    1XTA    CN133814  -2.482  26.347 -12.176
    1XTA     C133815  -2.557  26.278 -12.277
    1XTA     C233816  -2.624  26.360 -12.372
    1XTA     C333817  -2.600  26.502 -12.381
    1XTA     C433818  -2.513  26.562 -12.291
    1XTA     C533819  -2.455  26.484 -12.189
    1XTA    CN233820  -2.494  26.327 -11.945
    1XTA     C633821  -2.424  26.416 -11.863
    1XTA     C733822  -2.463  26.453 -11.737
    1XTA     C833823  -2.596  26.411 -11.690
    1XTA     C933824  -2.672  26.333 -11.782
    1XTA    C1033825  -2.617  26.281 -11.900
    1XTA    CN333826  -2.352  26.186 -12.066
    1XTA    C1133827  -2.224  26.208 -12.118
    1XTA    C1233828  -2.121  26.108 -12.106
    1XTA    C1333829  -2.144  25.998 -12.019
    1XTA    C1433830  -2.272  25.980 -11.963
    1XTA    C1533831  -2.379  26.071 -11.988
    1XTA     H133832  -2.574  26.170 -12.272
    1XTA     H233833  -2.696  26.308 -12.438
    1XTA     H333834  -2.496  26.671 -12.287
    1XTA     H433835  -2.388  26.532 -12.117
    1XTA     H533836  -2.327  26.450 -11.903
    1XTA     H633837  -2.394  26.500 -11.673
    1XTA     H733838  -2.766  26.293 -11.749
    1XTA     H833839  -2.661  26.211 -11.967
    1XTA     H933840  -2.207  26.301 -12.174
    1XTA    H1033841  -2.028  26.128 -12.160
    1XTA    H1133842  -2.288  25.899 -11.903
    1XTA    H1233843  -2.461  26.057 -11.920
    1XTA    OA133844  -2.662  26.563 -12.491
    1XTA    CO133845  -2.657  26.705 -12.499
    1XTA    OA233846  -2.653  26.464 -11.575
    1XTA    CO233847  -2.569  26.467 -11.467
    1XTA    CL133848  -2.658  26.520 -11.348
    1XTA    CL233849  -2.592  26.494 -11.207
    1XTA    CL333850  -2.680  26.561 -11.106
    1XTA    CL433851  -2.625  26.534 -10.962
    1XTA    CO333852  -2.662  26.393 -10.907
    1XTA    OA333853  -2.777  26.388 -10.830
    1XTA    CO433854  -2.898  26.355 -10.901
    1XTA    CT133855  -2.991  26.291 -10.795
    1XTA    CL533856  -2.948  26.145 -10.748
    1XTA    CL633857  -2.830  26.147 -10.651
    1XTA    OA433858  -2.053  25.901 -11.998
    1XTA    CO533859  -1.930  25.912 -12.066
    1XTA    HL133860  -1.865  25.824 -12.063
    1XTA    HL233861  -2.553  26.736 -12.499
    1XTA    HL333862  -2.711  26.742 -12.586
    1XTA    HL433863  -2.712  26.749 -12.417
    1XTA    HL533864  -2.523  26.368 -11.448
    1XTA    HL633865  -2.488  26.539 -11.489
    1XTA    HL733866  -2.755  26.470 -11.349
    1XTA    HL833867  -2.685  26.622 -11.359
    1XTA    HL933868  -2.492  26.537 -11.202
    1XTA   HL1033869  -2.572  26.383 -11.189
    1XTA   HL1133870  -2.690  26.671 -11.120
    1XTA   HL1233871  -2.783  26.516 -11.122
    1XTA   HL1333872  -2.658  26.598 -10.878
    1XTA   HL1433873  -2.514  26.550 -10.947
    1XTA   HL1533874  -2.658  26.314 -10.984
    1XTA   HL1633875  -2.589  26.368 -10.827
    1XTA   HL1733876  -2.944  26.440 -10.950
    1XTA   HL1833877  -2.867  26.279 -10.978
    1XTA   HL1933878  -2.917  26.083 -10.831
    1XTA   HL2033879  -3.038  26.100 -10.711
    1XTA   HL2133880  -2.858  26.198 -10.564
    1XTA   HL2233881  -2.737  26.194 -10.686
    1XTA   HL2333882  -2.812  26.052 -10.605
    1XTA   HL2433883  -1.865  25.993 -12.019
    1XTA   HL2533884  -1.952  25.945 -12.168
    1XTA    CO833885  -3.126  26.265 -10.863
    1XTA    CO933886  -3.011  26.395 -10.671
    1XTA    OA633887  -3.060  26.339 -10.551
    1XTA   HL4233888  -3.192  26.230 -10.783
    1XTA   HL4333889  -3.113  26.180 -10.927
    1XTA   HL4833890  -3.080  26.481 -10.700
    1XTA   HL4933891  -2.915  26.445 -10.657
    1XTA     NT33892  -3.144  24.750 -10.145
    1XTA    CN133893  -3.028  24.743 -10.069
    1XTA     C133894  -2.961  24.863 -10.052
    1XTA     C233895  -2.841  24.868  -9.979
    1XTA     C333896  -2.786  24.746  -9.933
    1XTA     C433897  -2.847  24.623  -9.955
    1XTA     C533898  -2.973  24.620 -10.019
    1XTA    CN233899  -3.260  24.771 -10.069
    1XTA     C633900  -3.362  24.866 -10.105
    1XTA     C733901  -3.472  24.887 -10.015
    1XTA     C833902  -3.490  24.807  -9.898
    1XTA     C933903  -3.395  24.714  -9.869
    1XTA    C1033904  -3.285  24.703  -9.953
    1XTA    CN333905  -3.154  24.679 -10.257
    1XTA    C1133906  -3.089  24.717 -10.375
    1XTA    C1233907  -3.095  24.636 -10.495
    1XTA    C1333908  -3.172  24.519 -10.496
    1XTA    C1433909  -3.237  24.481 -10.376
    1XTA    C1533910  -3.233  24.560 -10.261
    1XTA     H133911  -3.000  24.964 -10.099
    1XTA     H233912  -2.794  24.953  -9.952
    1XTA     H333913  -2.809  24.534  -9.916
    1XTA     H433914  -3.015  24.526 -10.047
    1XTA     H533915  -3.348  24.928 -10.196
    1XTA     H633916  -3.544  24.964 -10.032
    1XTA     H733917  -3.412  24.644  -9.789
    1XTA     H833918  -3.216  24.627  -9.929
    1XTA     H933919  -3.032  24.811 -10.375
    1XTA    H1033920  -3.039  24.671 -10.586
    1XTA    H1133921  -3.288  24.388 -10.356
    1XTA    H1233922  -3.280  24.529 -10.170
    1XTA    OA133923  -2.670  24.756  -9.858
    1XTA    CO133924  -2.649  24.659  -9.758
    1XTA    OA233925  -3.602  24.832  -9.819
    1XTA    CO233926  -3.605  24.773  -9.690
    1XTA    CL133927  -3.669  24.630  -9.697
    1XTA    CL233928  -3.644  24.530  -9.581
    1XTA    CL333929  -3.701  24.591  -9.450
    1XTA    CL433930  -3.696  24.504  -9.325
    1XTA    CO333931  -3.770  24.568  -9.214
    1XTA    OA333932  -3.723  24.502  -9.097
    1XTA    CO433933  -3.801  24.392  -9.063
    1XTA    CT133934  -3.719  24.338  -8.941
    1XTA    CL533935  -3.766  24.201  -8.893
    1XTA    CL633936  -3.798  24.095  -9.001
    1XTA    OA433937  -3.175  24.441 -10.607
    1XTA    CO533938  -3.192  24.297 -10.588
    1XTA    HL133939  -3.291  24.283 -10.542
    1XTA    HL233940  -2.563  24.693  -9.695
    1XTA    HL333941  -2.746  24.648  -9.710
    1XTA    HL433942  -2.621  24.565  -9.812
    1XTA    HL533943  -3.506  24.785  -9.656
    1XTA    HL633944  -3.675  24.834  -9.630
    1XTA    HL733945  -3.636  24.573  -9.788
    1XTA    HL833946  -3.766  24.654  -9.723
    1XTA    HL933947  -3.534  24.503  -9.569
    1XTA   HL1033948  -3.708  24.440  -9.601
    1XTA   HL1133949  -3.656  24.687  -9.431
    1XTA   HL1233950  -3.806  24.619  -9.467
    1XTA   HL1333951  -3.591  24.502  -9.296
    1XTA   HL1433952  -3.728  24.403  -9.350
    1XTA   HL1533953  -3.743  24.668  -9.205
    1XTA   HL1633954  -3.877  24.561  -9.222
    1XTA   HL1733955  -3.902  24.421  -9.041
    1XTA   HL1833956  -3.788  24.329  -9.149
    1XTA   HL1933957  -3.856  24.214  -8.831
    1XTA   HL2033958  -3.688  24.150  -8.829
    1XTA   HL2133959  -3.810  24.004  -8.951
    1XTA   HL2233960  -3.727  24.080  -9.080
    1XTA   HL2333961  -3.890  24.101  -9.048
    1XTA   HL2433962  -3.121  24.253 -10.519
    1XTA   HL2533963  -3.199  24.250 -10.688
    1XTA    CO833964  -3.734  24.440  -8.824
    1XTA    CO933965  -3.574  24.319  -8.975
    1XTA    OA633966  -3.551  24.265  -9.069
    1XTA   HL4233967  -3.658  24.415  -8.748
    1XTA   HL4333968  -3.682  24.567  -8.865
    1XTA   HL4833969  -3.521  24.275  -8.895
    1XTA   HL4933970  -3.532  24.420  -8.966
    1XTA     NT33971  -7.044  27.745 -10.113
    1XTA    CN133972  -6.966  27.748 -10.220
    1XTA     C133973  -6.986  27.848 -10.314
    1XTA     C233974  -6.911  27.860 -10.431
    1XTA     C333975  -6.812  27.765 -10.456
    1XTA     C433976  -6.789  27.666 -10.364
    1XTA     C533977  -6.864  27.654 -10.246
    1XTA    CN233978  -7.160  27.676 -10.125
    1XTA     C633979  -7.171  27.536 -10.116
    1XTA     C733980  -7.286  27.466 -10.144
    1XTA     C833981  -7.402  27.541 -10.172
    1XTA     C933982  -7.391  27.680 -10.194
    1XTA    C1033983  -7.267  27.744 -10.174
    1XTA    CN333984  -6.997  27.783  -9.986
    1XTA    C1133985  -6.936  27.911  -9.961
    1XTA    C1233986  -6.879  27.945  -9.841
    1XTA    C1333987  -6.874  27.853  -9.738
    1XTA    C1433988  -6.938  27.726  -9.761
    1XTA    C1533989  -7.000  27.692  -9.878
    1XTA     H133990  -7.063  27.923 -10.298
    1XTA     H233991  -6.947  27.916 -10.514
    1XTA     H333992  -6.723  27.584 -10.386
    1XTA     H433993  -6.849  27.575 -10.187
    1XTA     H533994  -7.086  27.473 -10.091
    1XTA     H633995  -7.285  27.362 -10.135
    1XTA     H733996  -7.477  27.739 -10.220
    1XTA     H833997  -7.275  27.849 -10.195
    1XTA     H933998  -6.949  27.983 -10.042
    1XTA    H1033999  -6.837  28.044  -9.818
    1XTA    H1134000  -6.941  27.654  -9.678
    1XTA    H1234001  -7.054  27.604  -9.885
    1XTA    OA134002  -6.738  27.758 -10.572
    1XTA    CO134003  -6.740  27.879 -10.656
    1XTA    OA234004  -7.532  27.482 -10.190
    1XTA    CO234005  -7.540  27.337 -10.177
    1XTA    CL134006  -7.680  27.290 -10.207
    1XTA    CL234007  -7.699  27.151 -10.140
    1XTA    CL334008  -7.733  27.162  -9.992
    1XTA    CL434009  -7.705  27.020  -9.931
    1XTA    CO334010  -7.564  27.019  -9.876
    1XTA    OA334011  -7.548  26.891  -9.819
    1XTA    CO434012  -7.516  26.787  -9.905
    1XTA    CT134013  -7.508  26.654  -9.822
    1XTA    CL534014  -7.473  26.537  -9.922
    1XTA    CL634015  -7.327  26.536  -9.964
    1XTA    OA434016  -6.817  27.889  -9.618
    1XTA    CO534017  -6.853  27.811  -9.504
    1XTA    HL134018  -6.782  27.831  -9.415
    1XTA    HL234019  -6.712  27.971 -10.606
    1XTA    HL334020  -6.678  27.858 -10.743
    1XTA    HL434021  -6.843  27.876 -10.702
    1XTA    HL534022  -7.471  27.283 -10.240
    1XTA    HL634023  -7.525  27.317 -10.075
    1XTA    HL734024  -7.698  27.269 -10.317
    1XTA    HL834025  -7.758  27.364 -10.171
    1XTA    HL934026  -7.605  27.106 -10.150
    1XTA   HL1034027  -7.777  27.092 -10.190
    1XTA   HL1134028  -7.670  27.223  -9.946
    1XTA   HL1234029  -7.838  27.194  -9.969
    1XTA   HL1334030  -7.730  26.936 -10.003
    1XTA   HL1434031  -7.780  27.010  -9.849
    1XTA   HL1534032  -7.481  27.039  -9.946
    1XTA   HL1634033  -7.561  27.086  -9.790
    1XTA   HL1734034  -7.598  26.778  -9.978
    1XTA   HL1834035  -7.417  26.800  -9.951
    1XTA   HL1934036  -7.547  26.556 -10.003
    1XTA   HL2034037  -7.509  26.442  -9.885
    1XTA   HL2134038  -7.280  26.634  -9.990
    1XTA   HL2234039  -7.326  26.482 -10.063
    1XTA   HL2334040  -7.258  26.482  -9.896
    1XTA   HL2434041  -6.854  27.702  -9.516
    1XTA   HL2534042  -6.942  27.849  -9.470
    1XTA    CO834043  -7.636  26.634  -9.756
    1XTA    CO934044  -7.387  26.676  -9.719
    1XTA    OA634045  -7.726  26.629  -9.818
    1XTA   HL4234046  -7.644  26.714  -9.686
    1XTA   HL4334047  -7.642  26.548  -9.689
    1XTA   HL4834048  -7.265  26.695  -9.780
    1XTA   HL4934049  -7.410  26.765  -9.664
    1XTA     NT34050  -3.045  27.397  -4.195
    1XTA    CN134051  -3.109  27.272  -4.184
    1XTA     C134052  -3.250  27.263  -4.166
    1XTA     C234053  -3.316  27.138  -4.146
    1XTA     C334054  -3.238  27.023  -4.161
    1XTA     C434055  -3.103  27.033  -4.174
    1XTA     C534056  -3.033  27.156  -4.189
    1XTA    CN234057  -2.938  27.406  -4.284
    1XTA     C634058  -2.967  27.394  -4.425
    1XTA     C734059  -2.858  27.384  -4.517
    1XTA     C834060  -2.723  27.379  -4.470
    1XTA     C934061  -2.698  27.396  -4.330
    1XTA    C1034062  -2.802  27.403  -4.239
    1XTA    CN334063  -3.096  27.507  -4.137
    1XTA    C1134064  -3.121  27.504  -3.995
    1XTA    C1234065  -3.181  27.618  -3.933
    1XTA    C1334066  -3.228  27.724  -4.014
    1XTA    C1434067  -3.198  27.728  -4.152
    1XTA    C1534068  -3.137  27.618  -4.211
    1XTA     H134069  -3.306  27.349  -4.154
    1XTA     H234070  -3.422  27.147  -4.135
    1XTA     H334071  -3.038  26.940  -4.162
    1XTA     H434072  -2.926  27.167  -4.186
    1XTA     H534073  -3.071  27.392  -4.468
    1XTA     H634074  -2.881  27.389  -4.622
    1XTA     H734075  -2.605  27.408  -4.290
    1XTA     H834076  -2.769  27.405  -4.135
    1XTA     H934077  -3.105  27.415  -3.933
    1XTA    H1034078  -3.212  27.611  -3.834
    1XTA    H1134079  -3.233  27.818  -4.209
    1XTA    H1234080  -3.129  27.621  -4.315
    1XTA    OA134081  -3.302  26.903  -4.152
    1XTA    CO134082  -3.236  26.786  -4.189
    1XTA    OA234083  -2.619  27.370  -4.557
    1XTA    CO234084  -2.645  27.301  -4.680
    1XTA    CL134085  -2.505  27.259  -4.735
    1XTA    CL234086  -2.466  27.117  -4.697
    1XTA    CL334087  -2.376  27.100  -4.564
    1XTA    CL434088  -2.435  27.157  -4.427
    1XTA    CO334089  -2.331  27.145  -4.313
    1XTA    OA334090  -2.205  27.206  -4.348
    1XTA    CO434091  -2.183  27.333  -4.283
    1XTA    CT134092  -2.076  27.416  -4.356
    1XTA    CL534093  -1.927  27.357  -4.344
    1XTA    CL634094  -1.907  27.210  -4.386
    1XTA    OA434095  -3.301  27.827  -3.965
    1XTA    CO534096  -3.323  27.843  -3.828
    1XTA    HL134097  -3.351  27.945  -3.796
    1XTA    HL234098  -3.318  26.717  -4.186
    1XTA    HL334099  -3.203  26.793  -4.293
    1XTA    HL434100  -3.158  26.744  -4.128
    1XTA    HL534101  -2.708  27.217  -4.668
    1XTA    HL634102  -2.698  27.362  -4.755
    1XTA    HL734103  -2.429  27.335  -4.724
    1XTA    HL834104  -2.527  27.258  -4.845
    1XTA    HL934105  -2.412  27.075  -4.778
    1XTA   HL1034106  -2.557  27.059  -4.691
    1XTA   HL1134107  -2.355  26.991  -4.552
    1XTA   HL1234108  -2.291  27.160  -4.589
    1XTA   HL1334109  -2.531  27.096  -4.406
    1XTA   HL1434110  -2.459  27.262  -4.434
    1XTA   HL1534111  -2.366  27.194  -4.216
    1XTA   HL1634112  -2.319  27.041  -4.276
    1XTA   HL1734113  -2.284  27.382  -4.282
    1XTA   HL1834114  -2.150  27.323  -4.184
    1XTA   HL1934115  -1.894  27.380  -4.242
    1XTA   HL2034116  -1.854  27.417  -4.392
    1XTA   HL2134117  -1.938  27.176  -4.484
    1XTA   HL2234118  -1.967  27.146  -4.317
    1XTA   HL2334119  -1.806  27.170  -4.380
    1XTA   HL2434120  -3.239  27.823  -3.769
    1XTA   HL2534121  -3.412  27.791  -3.796
    1XTA    CO834122  -2.081  27.562  -4.312
    1XTA    CO934123  -2.123  27.420  -4.505
    1XTA    OA634124  -2.062  27.489  -4.568
    1XTA   HL4234125  -2.019  27.615  -4.378
    1XTA   HL4334126  -1.998  27.581  -4.200
    1XTA   HL4834127  -2.228  27.448  -4.509
    1XTA   HL4934128  -2.120  27.320  -4.546
    1XTA     NT34129  -5.971  25.442  -6.816
    1XTA    CN134130  -6.034  25.343  -6.875
    1XTA     C134131  -6.068  25.351  -7.009
    1XTA     C234132  -6.136  25.242  -7.071
    1XTA     C334133  -6.173  25.127  -6.996
    1XTA     C434134  -6.148  25.127  -6.856
    1XTA     C534135  -6.076  25.235  -6.798
    1XTA    CN234136  -6.009  25.503  -6.706
    1XTA     C634137  -6.114  25.594  -6.718
    1XTA     C734138  -6.169  25.653  -6.605
    1XTA     C834139  -6.103  25.639  -6.483
    1XTA     C934140  -5.994  25.550  -6.472
    1XTA    C1034141  -5.949  25.475  -6.587
    1XTA    CN334142  -5.839  25.459  -6.837
    1XTA    C1134143  -5.791  25.583  -6.883
    1XTA    C1234144  -5.655  25.606  -6.905
    1XTA    C1334145  -5.564  25.506  -6.867
    1XTA    C1434146  -5.611  25.382  -6.824
    1XTA    C1534147  -5.745  25.356  -6.810
    1XTA     H134148  -6.053  25.437  -7.076
    1XTA     H234149  -6.170  25.257  -7.177
    1XTA     H334150  -6.171  25.035  -6.800
    1XTA     H434151  -6.043  25.239  -6.691
    1XTA     H534152  -6.158  25.607  -6.815
    1XTA     H634153  -6.255  25.711  -6.614
    1XTA     H734154  -5.934  25.541  -6.377
    1XTA     H834155  -5.873  25.406  -6.576
    1XTA     H934156  -5.870  25.661  -6.900
    1XTA    H1034157  -5.614  25.701  -6.931
    1XTA    H1134158  -5.542  25.309  -6.804
    1XTA    H1234159  -5.778  25.263  -6.780
    1XTA    OA134160  -6.224  25.024  -7.065
    1XTA    CO134161  -6.177  24.894  -7.028
    1XTA    OA234162  -6.138  25.705  -6.370
    1XTA    CO234163  -6.261  25.777  -6.366
    1XTA    CL134164  -6.252  25.868  -6.239
    1XTA    CL234165  -6.341  25.990  -6.240
    1XTA    CL334166  -6.376  26.049  -6.093
    1XTA    CL434167  -6.453  25.953  -6.000
    1XTA    CO334168  -6.389  25.924  -5.868
    1XTA    OA334169  -6.249  25.923  -5.881
    1XTA    CO434170  -6.187  25.891  -5.755
    1XTA    CT134171  -6.032  25.895  -5.779
    1XTA    CL534172  -5.973  26.030  -5.827
    1XTA    CL634173  -6.002  26.150  -5.741
    1XTA    OA434174  -5.424  25.516  -6.867
    1XTA    CO534175  -5.364  25.644  -6.880
    1XTA    HL134176  -5.400  25.699  -6.966
    1XTA    HL234177  -6.066  24.879  -7.034
    1XTA    HL334178  -6.206  24.851  -6.932
    1XTA    HL434179  -6.216  24.831  -7.098
    1XTA    HL534180  -6.281  25.836  -6.455
    1XTA    HL634181  -6.346  25.710  -6.364
    1XTA    HL734182  -6.157  25.917  -6.235
    1XTA    HL834183  -6.254  25.808  -6.147
    1XTA    HL934184  -6.432  25.967  -6.297
    1XTA   HL1034185  -6.301  26.073  -6.295
    1XTA   HL1134186  -6.291  26.080  -6.039
    1XTA   HL1234187  -6.435  26.137  -6.118
    1XTA   HL1334188  -6.450  25.852  -6.052
    1XTA   HL1434189  -6.556  25.986  -5.973
    1XTA   HL1534190  -6.415  25.997  -5.789
    1XTA   HL1634191  -6.418  25.821  -5.834
    1XTA   HL1734192  -6.219  25.964  -5.687
    1XTA   HL1834193  -6.214  25.798  -5.708
    1XTA   HL1934194  -6.035  26.049  -5.918
    1XTA   HL2034195  -5.870  26.017  -5.851
    1XTA   HL2134196  -5.972  26.140  -5.638
    1XTA   HL2234197  -6.109  26.174  -5.732
    1XTA   HL2334198  -5.978  26.245  -5.782
    1XTA   HL2434199  -5.263  25.628  -6.894
    1XTA   HL2534200  -5.379  25.703  -6.789
    1XTA    CO834201  -5.989  25.799  -5.894
    1XTA    CO934202  -5.955  25.861  -5.646
    1XTA    OA634203  -6.001  25.933  -5.535
    1XTA   HL4234204  -6.009  25.845  -5.996
    1XTA   HL4334205  -6.051  25.711  -5.893
    1XTA   HL4834206  -5.839  25.869  -5.651
    1XTA   HL4934207  -5.984  25.757  -5.618
    1XTA     NT34208  -3.100  31.584  -9.739
    1XTA    CN134209  -3.181  31.659  -9.808
    1XTA     C134210  -3.274  31.739  -9.738
    1XTA     C234211  -3.359  31.824  -9.804
    1XTA     C334212  -3.372  31.816  -9.941
    1XTA     C434213  -3.294  31.727 -10.015
    1XTA     C534214  -3.195  31.658  -9.951
    1XTA    CN234215  -2.972  31.626  -9.720
    1XTA     C634216  -2.888  31.641  -9.836
    1XTA     C734217  -2.756  31.689  -9.821
    1XTA     C834218  -2.701  31.712  -9.688
    1XTA     C934219  -2.791  31.695  -9.574
    1XTA    C1034220  -2.925  31.658  -9.596
    1XTA    CN334221  -3.125  31.451  -9.717
    1XTA    C1134222  -3.208  31.411  -9.610
    1XTA    C1234223  -3.232  31.280  -9.593
    1XTA    C1334224  -3.172  31.182  -9.673
    1XTA    C1434225  -3.099  31.223  -9.784
    1XTA    C1534226  -3.081  31.362  -9.810
    1XTA     H134227  -3.262  31.735  -9.629
    1XTA     H234228  -3.428  31.876  -9.749
    1XTA     H334229  -3.301  31.722 -10.119
    1XTA     H434230  -3.135  31.597 -10.012
    1XTA     H534231  -2.917  31.619  -9.941
    1XTA     H634232  -2.699  31.711  -9.902
    1XTA     H734233  -2.752  31.735  -9.479
    1XTA     H834234  -2.997  31.652  -9.509
    1XTA     H934235  -3.246  31.486  -9.537
    1XTA    H1034236  -3.306  31.246  -9.516
    1XTA    H1134237  -3.059  31.143  -9.848
    1XTA    H1234238  -3.021  31.383  -9.890
    1XTA    OA134239  -3.471  31.893  -9.999
    1XTA    CO134240  -3.524  31.855 -10.126
    1XTA    OA234241  -2.575  31.767  -9.677
    1XTA    CO234242  -2.460  31.708  -9.743
    1XTA    CL134243  -2.345  31.808  -9.734
    1XTA    CL234244  -2.353  31.889  -9.609
    1XTA    CL334245  -2.230  31.942  -9.548
    1XTA    CL434246  -2.189  32.079  -9.605
    1XTA    CO334247  -2.285  32.194  -9.573
    1XTA    OA334248  -2.207  32.297  -9.520
    1XTA    CO434249  -2.210  32.276  -9.380
    1XTA    CT134250  -2.107  32.370  -9.301
    1XTA    CL534251  -2.093  32.311  -9.157
    1XTA    CL634252  -1.999  32.374  -9.057
    1XTA    OA434253  -3.203  31.048  -9.648
    1XTA    CO534254  -3.100  30.961  -9.604
    1XTA    HL134255  -3.021  30.948  -9.682
    1XTA    HL234256  -3.606  31.920 -10.150
    1XTA    HL334257  -3.445  31.866 -10.206
    1XTA    HL434258  -3.558  31.747 -10.122
    1XTA    HL534259  -2.417  31.615  -9.687
    1XTA    HL634260  -2.478  31.681  -9.848
    1XTA    HL734261  -2.365  31.873  -9.811
    1XTA    HL834262  -2.248  31.758  -9.753
    1XTA    HL934263  -2.402  31.828  -9.530
    1XTA   HL1034264  -2.414  31.973  -9.632
    1XTA   HL1134265  -2.252  31.940  -9.446
    1XTA   HL1234266  -2.146  31.872  -9.559
    1XTA   HL1334267  -2.175  32.081  -9.716
    1XTA   HL1434268  -2.102  32.109  -9.547
    1XTA   HL1534269  -2.338  32.227  -9.656
    1XTA   HL1634270  -2.362  32.158  -9.505
    1XTA   HL1734271  -2.310  32.286  -9.335
    1XTA   HL1834272  -2.182  32.181  -9.341
    1XTA   HL1934273  -2.062  32.209  -9.180
    1XTA   HL2034274  -2.195  32.296  -9.117
    1XTA   HL2134275  -2.034  32.479  -9.047
    1XTA   HL2234276  -1.898  32.389  -9.103
    1XTA   HL2334277  -1.984  32.326  -8.961
    1XTA   HL2434278  -3.128  30.853  -9.585
    1XTA   HL2534279  -3.045  31.005  -9.515
    1XTA    CO834280  -2.163  32.516  -9.300
    1XTA    CO934281  -1.973  32.363  -9.369
    1XTA    OA634282  -1.911  32.441  -9.334
    1XTA   HL4234283  -2.092  32.582  -9.263
    1XTA   HL4334284  -2.192  32.553  -9.431
    1XTA   HL4834285  -1.988  32.379  -9.478
    1XTA   HL4934286  -1.935  32.259  -9.347
    1XTA     NT34287  -5.258  29.209  -5.938
    1XTA    CN134288  -5.160  29.167  -5.847
    1XTA     C134289  -5.195  29.131  -5.717
    1XTA     C234290  -5.098  29.115  -5.622
    1XTA     C334291  -4.959  29.136  -5.647
    1XTA     C434292  -4.923  29.158  -5.781
    1XTA     C534293  -5.024  29.167  -5.881
    1XTA    CN234294  -5.301  29.342  -5.943
    1XTA     C634295  -5.412  29.368  -5.871
    1XTA     C734296  -5.460  29.502  -5.861
    1XTA     C834297  -5.386  29.604  -5.925
    1XTA     C934298  -5.270  29.571  -5.993
    1XTA    C1034299  -5.223  29.440  -6.002
    1XTA    CN334300  -5.298  29.121  -6.028
    1XTA    C1134301  -5.387  29.019  -5.991
    1XTA    C1234302  -5.425  28.915  -6.077
    1XTA    C1334303  -5.371  28.916  -6.208
    1XTA    C1434304  -5.276  29.014  -6.248
    1XTA    C1534305  -5.241  29.113  -6.155
    1XTA     H134306  -5.300  29.114  -5.691
    1XTA     H234307  -5.127  29.090  -5.518
    1XTA     H334308  -4.822  29.163  -5.819
    1XTA     H434309  -5.002  29.191  -5.982
    1XTA     H534310  -5.459  29.283  -5.829
    1XTA     H634311  -5.557  29.520  -5.811
    1XTA     H734312  -5.210  29.641  -6.053
    1XTA     H834313  -5.132  29.407  -6.058
    1XTA     H934314  -5.434  29.007  -5.895
    1XTA    H1034315  -5.506  28.851  -6.055
    1XTA    H1134316  -5.220  29.014  -6.342
    1XTA    H1234317  -5.166  29.194  -6.174
    1XTA    OA134318  -4.849  29.133  -5.565
    1XTA    CO134319  -4.889  29.087  -5.441
    1XTA    OA234320  -5.430  29.735  -5.938
    1XTA    CO234321  -5.568  29.758  -5.913
    1XTA    CL134322  -5.601  29.897  -5.973
    1XTA    CL234323  -5.585  30.022  -5.882
    1XTA    CL334324  -5.612  30.151  -5.961
    1XTA    CL434325  -5.659  30.255  -5.864
    1XTA    CO334326  -5.554  30.307  -5.772
    1XTA    OA334327  -5.515  30.215  -5.670
    1XTA    CO434328  -5.425  30.263  -5.571
    1XTA    CT134329  -5.370  30.143  -5.495
    1XTA    CL534330  -5.474  30.070  -5.415
    1XTA    CL634331  -5.582  29.993  -5.497
    1XTA    OA434332  -5.399  28.811  -6.287
    1XTA    CO534333  -5.366  28.821  -6.425
    1XTA    HL134334  -5.261  28.840  -6.455
    1XTA    HL234335  -4.946  29.162  -5.385
    1XTA    HL334336  -4.945  28.997  -5.452
    1XTA    HL434337  -4.795  29.083  -5.381
    1XTA    HL534338  -5.626  29.675  -5.966
    1XTA    HL634339  -5.592  29.740  -5.806
    1XTA    HL734340  -5.704  29.910  -6.010
    1XTA    HL834341  -5.545  29.897  -6.059
    1XTA    HL934342  -5.485  30.015  -5.841
    1XTA   HL1034343  -5.659  30.011  -5.802
    1XTA   HL1134344  -5.531  30.197  -6.018
    1XTA   HL1234345  -5.687  30.133  -6.042
    1XTA   HL1334346  -5.740  30.208  -5.804
    1XTA   HL1434347  -5.702  30.339  -5.906
    1XTA   HL1534348  -5.469  30.342  -5.826
    1XTA   HL1634349  -5.574  30.398  -5.713
    1XTA   HL1734350  -5.342  30.311  -5.624
    1XTA   HL1834351  -5.475  30.335  -5.507
    1XTA   HL1934352  -5.512  30.147  -5.352
    1XTA   HL2034353  -5.427  29.998  -5.351
    1XTA   HL2134354  -5.634  30.072  -5.559
    1XTA   HL2234355  -5.662  29.952  -5.432
    1XTA   HL2334356  -5.537  29.922  -5.565
    1XTA   HL2434357  -5.435  28.899  -6.470
    1XTA   HL2534358  -5.390  28.724  -6.466
    1XTA    CO834359  -5.267  30.199  -5.398
    1XTA    CO934360  -5.288  30.052  -5.588
    1XTA    OA634361  -5.205  30.099  -5.317
    1XTA   HL4234362  -5.315  30.280  -5.345
    1XTA   HL4334363  -5.189  30.247  -5.458
    1XTA   HL4834364  -5.350  30.011  -5.669
    1XTA   HL4934365  -5.261  29.958  -5.533
    1XTA     NT34366  -7.871  30.335  -8.722
    1XTA    CN134367  -7.802  30.350  -8.609
    1XTA     C134368  -7.828  30.251  -8.509
    1XTA     C234369  -7.747  30.253  -8.394
    1XTA     C334370  -7.647  30.346  -8.376
    1XTA     C434371  -7.624  30.447  -8.473
    1XTA     C534372  -7.704  30.447  -8.586
    1XTA    CN234373  -7.816  30.244  -8.807
    1XTA     C634374  -7.720  30.276  -8.902
    1XTA     C734375  -7.645  30.183  -8.979
    1XTA     C834376  -7.671  30.044  -8.968
    1XTA     C934377  -7.767  30.012  -8.864
    1XTA    C1034378  -7.843  30.104  -8.794
    1XTA    CN334379  -7.977  30.413  -8.759
    1XTA    C1134380  -8.107  30.395  -8.706
    1XTA    C1234381  -8.210  30.478  -8.750
    1XTA    C1334382  -8.185  30.580  -8.849
    1XTA    C1434383  -8.056  30.591  -8.898
    1XTA    C1534384  -7.955  30.502  -8.863
    1XTA     H134385  -7.897  30.173  -8.525
    1XTA     H234386  -7.776  30.184  -8.318
    1XTA     H334387  -7.534  30.512  -8.470
    1XTA     H434388  -7.676  30.518  -8.660
    1XTA     H534389  -7.696  30.377  -8.898
    1XTA     H634390  -7.589  30.226  -9.052
    1XTA     H734391  -7.793  29.903  -8.853
    1XTA     H834392  -7.897  30.072  -8.707
    1XTA     H934393  -8.116  30.324  -8.629
    1XTA    H1034394  -8.302  30.479  -8.695
    1XTA    H1134395  -8.029  30.668  -8.971
    1XTA    H1234396  -7.860  30.526  -8.909
    1XTA    OA134397  -7.560  30.343  -8.269
    1XTA    CO134398  -7.578  30.236  -8.180
    1XTA    OA234399  -7.615  29.947  -9.052
    1XTA    CO234400  -7.545  29.994  -9.164
    1XTA    CL134401  -7.396  30.007  -9.136
    1XTA    CL234402  -7.324  30.100  -9.232
    1XTA    CL334403  -7.171  30.098  -9.208
    1XTA    CL434404  -7.100  30.225  -9.253
    1XTA    CO334405  -7.100  30.241  -9.406
    1XTA    OA334406  -7.041  30.366  -9.440
    1XTA    CO434407  -7.008  30.394  -9.574
    1XTA    CT134408  -6.933  30.526  -9.559
    1XTA    CL534409  -6.899  30.598  -9.690
    1XTA    CL634410  -6.887  30.504  -9.808
    1XTA    OA434411  -8.291  30.664  -8.884
    1XTA    CO534412  -8.286  30.717  -9.017
    1XTA    HL134413  -8.278  30.642  -9.098
    1XTA    HL234414  -7.560  30.138  -8.221
    1XTA    HL334415  -7.498  30.254  -8.109
    1XTA    HL434416  -7.675  30.241  -8.138
    1XTA    HL534417  -7.559  29.922  -9.245
    1XTA    HL634418  -7.591  30.083  -9.210
    1XTA    HL734419  -7.346  29.907  -9.124
    1XTA    HL834420  -7.392  30.058  -9.035
    1XTA    HL934421  -7.367  30.195  -9.219
    1XTA   HL1034422  -7.340  30.073  -9.335
    1XTA   HL1134423  -7.146  30.076  -9.101
    1XTA   HL1234424  -7.120  30.022  -9.266
    1XTA   HL1334425  -7.001  30.225  -9.215
    1XTA   HL1434426  -7.135  30.309  -9.191
    1XTA   HL1534427  -7.053  30.153  -9.447
    1XTA   HL1634428  -7.211  30.233  -9.424
    1XTA   HL1734429  -6.944  30.320  -9.609
    1XTA   HL1834430  -7.093  30.410  -9.643
    1XTA   HL1934431  -6.800  30.644  -9.676
    1XTA   HL2034432  -6.977  30.676  -9.715
    1XTA   HL2134433  -6.874  30.560  -9.901
    1XTA   HL2234434  -6.977  30.445  -9.819
    1XTA   HL2334435  -6.802  30.450  -9.800
    1XTA   HL2434436  -8.199  30.786  -9.023
    1XTA   HL2534437  -8.379  30.777  -9.031
    1XTA    CO834438  -6.800  30.495  -9.481
    1XTA    CO934439  -7.017  30.620  -9.470
    1XTA    OA634440  -6.761  30.586  -9.434
    1XTA   HL4234441  -6.723  30.450  -9.552
    1XTA   HL4334442  -6.827  30.421  -9.414
    1XTA   HL4834443  -7.155  30.604  -9.485
    1XTA   HL4934444  -7.004  30.588  -9.366
    1XTA     NT34445  -4.820  32.289 -11.390
    1XTA    CN134446  -4.839  32.368 -11.493
    1XTA     C134447  -4.756  32.347 -11.607
    1XTA     C234448  -4.770  32.440 -11.715
    1XTA     C334449  -4.866  32.543 -11.717
    1XTA     C434450  -4.957  32.552 -11.608
    1XTA     C534451  -4.944  32.465 -11.499
    1XTA    CN234452  -4.799  32.342 -11.264
    1XTA     C634453  -4.701  32.440 -11.232
    1XTA     C734454  -4.678  32.481 -11.094
    1XTA     C834455  -4.753  32.423 -10.991
    1XTA     C934456  -4.848  32.328 -11.025
    1XTA    C1034457  -4.868  32.279 -11.155
    1XTA    CN334458  -4.867  32.164 -11.400
    1XTA    C1134459  -4.991  32.121 -11.448
    1XTA    C1234460  -5.032  31.985 -11.444
    1XTA    C1334461  -4.949  31.891 -11.391
    1XTA    C1434462  -4.820  31.928 -11.353
    1XTA    C1534463  -4.777  32.059 -11.365
    1XTA     H134464  -4.677  32.274 -11.606
    1XTA     H234465  -4.708  32.433 -11.804
    1XTA     H334466  -5.046  32.606 -11.619
    1XTA     H434467  -5.001  32.476 -11.407
    1XTA     H534468  -4.636  32.476 -11.311
    1XTA     H634469  -4.599  32.552 -11.072
    1XTA     H734470  -4.909  32.288 -10.946
    1XTA     H834471  -4.947  32.205 -11.176
    1XTA     H934472  -5.060  32.197 -11.495
    1XTA    H1034473  -5.128  31.963 -11.477
    1XTA    H1134474  -4.757  31.853 -11.319
    1XTA    H1234475  -4.682  32.093 -11.331
    1XTA    OA134476  -4.868  32.624 -11.831
    1XTA    CO134477  -4.964  32.729 -11.842
    1XTA    OA234478  -4.744  32.462 -10.860
    1XTA    CO234479  -4.751  32.609 -10.843
    1XTA    CL134480  -4.776  32.653 -10.694
    1XTA    CL234481  -4.777  32.810 -10.691
    1XTA    CL334482  -4.915  32.868 -10.743
    1XTA    CL434483  -5.028  32.859 -10.641
    1XTA    CO334484  -5.164  32.870 -10.714
    1XTA    OA334485  -5.221  32.746 -10.753
    1XTA    CO434486  -5.199  32.699 -10.887
    1XTA    CT134487  -5.237  32.549 -10.916
    1XTA    CL534488  -5.138  32.458 -10.846
    1XTA    CL634489  -5.143  32.456 -10.694
    1XTA    OA434490  -4.991  31.766 -11.369
    1XTA    CO534491  -5.120  31.716 -11.418
    1XTA    HL134492  -5.123  31.611 -11.397
    1XTA    HL234493  -5.064  32.703 -11.795
    1XTA    HL334494  -4.927  32.813 -11.781
    1XTA    HL434495  -4.973  32.749 -11.947
    1XTA    HL534496  -4.657  32.656 -10.886
    1XTA    HL634497  -4.825  32.651 -10.915
    1XTA    HL734498  -4.686  32.623 -10.633
    1XTA    HL834499  -4.854  32.595 -10.650
    1XTA    HL934500  -4.702  32.862 -10.754
    1XTA   HL1034501  -4.755  32.835 -10.587
    1XTA   HL1134502  -4.896  32.972 -10.782
    1XTA   HL1234503  -4.947  32.819 -10.830
    1XTA   HL1334504  -5.021  32.937 -10.566
    1XTA   HL1434505  -5.025  32.770 -10.582
    1XTA   HL1534506  -5.234  32.913 -10.648
    1XTA   HL1634507  -5.148  32.928 -10.813
    1XTA   HL1734508  -5.252  32.773 -10.945
    1XTA   HL1834509  -5.097  32.715 -10.921
    1XTA   HL1934510  -5.038  32.497 -10.865
    1XTA   HL2034511  -5.130  32.362 -10.883
    1XTA   HL2134512  -5.232  32.415 -10.658
    1XTA   HL2234513  -5.142  32.562 -10.652
    1XTA   HL2334514  -5.073  32.391 -10.648
    1XTA   HL2434515  -5.128  31.731 -11.523
    1XTA   HL2534516  -5.198  31.768 -11.366
    1XTA    CO834517  -5.225  32.530 -11.069
    1XTA    CO934518  -5.386  32.511 -10.884
    1XTA    OA634519  -5.257  32.401 -11.123
    1XTA   HL4234520  -5.120  32.554 -11.088
    1XTA   HL4334521  -5.288  32.602 -11.118
    1XTA   HL4834522  -5.416  32.580 -10.797
    1XTA   HL4934523  -5.458  32.535 -10.961
    1XTA     NT34524  -1.273  28.720  -8.426
    1XTA    CN134525  -1.391  28.660  -8.461
    1XTA     C134526  -1.516  28.685  -8.404
    1XTA     C234527  -1.631  28.639  -8.468
    1XTA     C334528  -1.630  28.567  -8.592
    1XTA     C434529  -1.504  28.545  -8.649
    1XTA     C534530  -1.383  28.584  -8.578
    1XTA    CN234531  -1.245  28.827  -8.505
    1XTA     C634532  -1.323  28.939  -8.493
    1XTA     C734533  -1.318  29.048  -8.584
    1XTA     C834534  -1.227  29.039  -8.695
    1XTA     C934535  -1.145  28.921  -8.713
    1XTA    C1034536  -1.152  28.822  -8.610
    1XTA    CN334537  -1.234  28.714  -8.295
    1XTA    C1134538  -1.169  28.599  -8.252
    1XTA    C1234539  -1.135  28.576  -8.114
    1XTA    C1334540  -1.168  28.675  -8.021
    1XTA    C1434541  -1.246  28.785  -8.060
    1XTA    C1534542  -1.277  28.808  -8.190
    1XTA     H134543  -1.529  28.736  -8.309
    1XTA     H234544  -1.729  28.668  -8.420
    1XTA     H334545  -1.502  28.498  -8.747
    1XTA     H434546  -1.286  28.568  -8.618
    1XTA     H534547  -1.404  28.937  -8.422
    1XTA     H634548  -1.383  29.131  -8.560
    1XTA     H734549  -1.072  28.920  -8.796
    1XTA     H834550  -1.080  28.742  -8.610
    1XTA     H934551  -1.130  28.523  -8.322
    1XTA    H1034552  -1.082  28.482  -8.087
    1XTA    H1134553  -1.293  28.857  -7.994
    1XTA    H1234554  -1.346  28.886  -8.223
    1XTA    OA134555  -1.746  28.531  -8.655
    1XTA    CO134556  -1.739  28.523  -8.794
    1XTA    OA234557  -1.229  29.132  -8.794
    1XTA    CO234558  -1.291  29.255  -8.770
    1XTA    CL134559  -1.257  29.362  -8.873
    1XTA    CL234560  -1.330  29.348  -9.009
    1XTA    CL334561  -1.260  29.411  -9.123
    1XTA    CL434562  -1.323  29.351  -9.254
    1XTA    CO334563  -1.253  29.392  -9.380
    1XTA    OA334564  -1.320  29.366  -9.497
    1XTA    CO434565  -1.437  29.433  -9.524
    1XTA    CT134566  -1.514  29.378  -9.650
    1XTA    CL534567  -1.561  29.227  -9.629
    1XTA    CL634568  -1.627  29.155  -9.746
    1XTA    OA434569  -1.130  28.656  -7.887
    1XTA    CO534570  -1.123  28.777  -7.805
    1XTA    HL134571  -1.056  28.866  -7.840
    1XTA    HL234572  -1.681  28.445  -8.846
    1XTA    HL334573  -1.837  28.483  -8.823
    1XTA    HL434574  -1.709  28.618  -8.834
    1XTA    HL534575  -1.395  29.244  -8.766
    1XTA    HL634576  -1.258  29.298  -8.670
    1XTA    HL734577  -1.156  29.378  -8.894
    1XTA    HL834578  -1.280  29.459  -8.834
    1XTA    HL934579  -1.440  29.389  -9.007
    1XTA   HL1034580  -1.326  29.242  -9.020
    1XTA   HL1134581  -1.268  29.517  -9.115
    1XTA   HL1234582  -1.153  29.388  -9.114
    1XTA   HL1334583  -1.417  29.395  -9.260
    1XTA   HL1434584  -1.338  29.248  -9.251
    1XTA   HL1534585  -1.246  29.501  -9.377
    1XTA   HL1634586  -1.159  29.345  -9.395
    1XTA   HL1734587  -1.501  29.431  -9.439
    1XTA   HL1834588  -1.417  29.531  -9.553
    1XTA   HL1934589  -1.626  29.217  -9.543
    1XTA   HL2034590  -1.475  29.172  -9.603
    1XTA   HL2134591  -1.718  29.110  -9.716
    1XTA   HL2234592  -1.569  29.070  -9.782
    1XTA   HL2334593  -1.649  29.220  -9.832
    1XTA   HL2434594  -1.090  28.759  -7.706
    1XTA   HL2534595  -1.222  28.819  -7.792
    1XTA    CO834596  -1.419  29.384  -9.774
    1XTA    CO934597  -1.638  29.457  -9.672
    1XTA    OA634598  -1.421  29.488  -9.815
    1XTA   HL4234599  -1.435  29.313  -9.853
    1XTA   HL4334600  -1.321  29.350  -9.740
    1XTA   HL4834601  -1.602  29.588  -9.725
    1XTA   HL4934602  -1.701  29.406  -9.738
    1XTA     NT34603  -5.744  29.932  -6.603
    1XTA    CN134604  -5.881  29.933  -6.622
    1XTA     C134605  -5.953  30.052  -6.659
    1XTA     C234606  -6.093  30.045  -6.666
    1XTA     C334607  -6.168  29.926  -6.653
    1XTA     C434608  -6.099  29.811  -6.613
    1XTA     C534609  -5.955  29.811  -6.603
    1XTA    CN234610  -5.664  30.011  -6.679
    1XTA     C634611  -5.597  30.122  -6.624
    1XTA     C734612  -5.529  30.207  -6.706
    1XTA     C834613  -5.528  30.193  -6.847
    1XTA     C934614  -5.600  30.085  -6.901
    1XTA    C1034615  -5.668  29.992  -6.818
    1XTA    CN334616  -5.685  29.829  -6.537
    1XTA    C1134617  -5.646  29.829  -6.405
    1XTA    C1234618  -5.569  29.727  -6.352
    1XTA    C1334619  -5.527  29.620  -6.438
    1XTA    C1434620  -5.572  29.614  -6.569
    1XTA    C1534621  -5.650  29.719  -6.617
    1XTA     H134622  -5.901  30.144  -6.681
    1XTA     H234623  -6.150  30.136  -6.688
    1XTA     H334624  -6.145  29.714  -6.610
    1XTA     H434625  -5.901  29.724  -6.569
    1XTA     H534626  -5.601  30.152  -6.528
    1XTA     H634627  -5.483  30.293  -6.657
    1XTA     H734628  -5.608  30.061  -7.006
    1XTA     H834629  -5.721  29.908  -6.856
    1XTA     H934630  -5.661  29.906  -6.339
    1XTA    H1034631  -5.533  29.729  -6.249
    1XTA    H1134632  -5.541  29.540  -6.638
    1XTA    H1234633  -5.689  29.716  -6.718
    1XTA    OA134634  -6.307  29.913  -6.667
    1XTA    CO134635  -6.372  30.023  -6.732
    1XTA    OA234636  -5.462  30.283  -6.924
    1XTA    CO234637  -5.519  30.297  -7.052
    1XTA    CL134638  -5.516  30.442  -7.101
    1XTA    CL234639  -5.375  30.501  -7.108
    1XTA    CL334640  -5.374  30.634  -7.176
    1XTA    CL434641  -5.258  30.665  -7.272
    1XTA    CO334642  -5.271  30.594  -7.413
    1XTA    OA334643  -5.230  30.462  -7.396
    1XTA    CO434644  -5.248  30.380  -7.507
    1XTA    CT134645  -5.193  30.238  -7.480
    1XTA    CL534646  -5.249  30.154  -7.366
    1XTA    CL634647  -5.400  30.135  -7.372
    1XTA    OA434648  -5.445  29.517  -6.401
    1XTA    CO534649  -5.405  29.516  -6.264
    1XTA    HL134650  -5.497  29.521  -6.195
    1XTA    HL234651  -6.477  29.999  -6.726
    1XTA    HL334652  -6.366  30.119  -6.681
    1XTA    HL434653  -6.360  30.034  -6.840
    1XTA    HL534654  -5.462  30.251  -7.134
    1XTA    HL634655  -5.624  30.273  -7.048
    1XTA    HL734656  -5.583  30.502  -7.034
    1XTA    HL834657  -5.551  30.439  -7.202
    1XTA    HL934658  -5.304  30.436  -7.163
    1XTA   HL1034659  -5.351  30.502  -7.003
    1XTA   HL1134660  -5.464  30.642  -7.239
    1XTA   HL1234661  -5.389  30.708  -7.097
    1XTA   HL1334662  -5.159  30.636  -7.236
    1XTA   HL1434663  -5.258  30.770  -7.281
    1XTA   HL1534664  -5.375  30.582  -7.437
    1XTA   HL1634665  -5.210  30.655  -7.486
    1XTA   HL1734666  -5.354  30.365  -7.525
    1XTA   HL1834667  -5.222  30.420  -7.605
    1XTA   HL1934668  -5.227  30.201  -7.274
    1XTA   HL2034669  -5.205  30.054  -7.355
    1XTA   HL2134670  -5.431  30.054  -7.311
    1XTA   HL2234671  -5.437  30.116  -7.472
    1XTA   HL2334672  -5.462  30.224  -7.337
    1XTA   HL2434673  -5.344  29.602  -6.242
    1XTA   HL2534674  -5.335  29.437  -6.244
    1XTA    CO834675  -5.043  30.262  -7.450
    1XTA    CO934676  -5.206  30.157  -7.612
    1XTA    OA634677  -5.336  30.123  -7.659
    1XTA   HL4234678  -4.981  30.181  -7.428
    1XTA   HL4334679  -5.034  30.333  -7.362
    1XTA   HL4834680  -5.146  30.066  -7.600
    1XTA   HL4934681  -5.155  30.207  -7.690
    1XTA     NT34682  -0.348  30.302  -9.385
    1XTA    CN134683  -0.231  30.368  -9.367
    1XTA     C134684  -0.133  30.378  -9.474
    1XTA     C234685  -0.008  30.437  -9.449
    1XTA     C334686   0.027  30.479  -9.320
    1XTA     C434687  -0.067  30.458  -9.210
    1XTA     C534688  -0.195  30.413  -9.238
    1XTA    CN234689  -0.465  30.368  -9.408
    1XTA     C634690  -0.516  30.378  -9.540
    1XTA     C734691  -0.634  30.452  -9.557
    1XTA     C834692  -0.699  30.506  -9.441
    1XTA     C934693  -0.656  30.489  -9.311
    1XTA    C1034694  -0.533  30.424  -9.292
    1XTA    CN334695  -0.358  30.167  -9.377
    1XTA    C1134696  -0.412  30.110  -9.262
    1XTA    C1234697  -0.423  29.972  -9.246
    1XTA    C1334698  -0.391  29.885  -9.353
    1XTA    C1434699  -0.348  29.946  -9.476
    1XTA    C1534700  -0.334  30.088  -9.490
    1XTA     H134701  -0.159  30.346  -9.575
    1XTA     H234702   0.068  30.449  -9.520
    1XTA     H334703  -0.048  30.469  -9.104
    1XTA     H434704  -0.268  30.406  -9.154
    1XTA     H534705  -0.468  30.352  -9.639
    1XTA     H634706  -0.675  30.458  -9.648
    1XTA     H734707  -0.723  30.511  -9.231
    1XTA     H834708  -0.497  30.393  -9.199
    1XTA     H934709  -0.429  30.175  -9.183
    1XTA    H1034710  -0.448  29.929  -9.150
    1XTA    H1134711  -0.328  29.884  -9.563
    1XTA    H1234712  -0.319  30.139  -9.584
    1XTA    OA134713   0.146  30.538  -9.317
    1XTA    CO134714   0.173  30.610  -9.196
    1XTA    OA234715  -0.820  30.570  -9.451
    1XTA    CO234716  -0.902  30.558  -9.567
    1XTA    CL134717  -0.968  30.416  -9.557
    1XTA    CL234718  -1.083  30.422  -9.658
    1XTA    CL334719  -1.171  30.306  -9.664
    1XTA    CL434720  -1.275  30.328  -9.771
    1XTA    CO334721  -1.364  30.210  -9.813
    1XTA    OA334722  -1.440  30.148  -9.711
    1XTA    CO434723  -1.577  30.130  -9.754
    1XTA    CT134724  -1.679  30.241  -9.707
    1XTA    CL534725  -1.699  30.247  -9.555
    1XTA    CL634726  -1.576  30.262  -9.471
    1XTA    OA434727  -0.411  29.748  -9.348
    1XTA    CO534728  -0.514  29.710  -9.258
    1XTA    HL134729  -0.550  29.608  -9.273
    1XTA    HL234730   0.203  30.527  -9.123
    1XTA    HL334731   0.268  30.664  -9.211
    1XTA    HL434732   0.101  30.691  -9.184
    1XTA    HL534733  -0.985  30.639  -9.561
    1XTA    HL634734  -0.846  30.564  -9.659
    1XTA    HL734735  -1.006  30.384  -9.457
    1XTA    HL834736  -0.887  30.346  -9.604
    1XTA    HL934737  -1.051  30.451  -9.757
    1XTA   HL1034738  -1.147  30.509  -9.637
    1XTA   HL1134739  -1.119  30.217  -9.683
    1XTA   HL1234740  -1.224  30.304  -9.573
    1XTA   HL1334741  -1.215  30.371  -9.854
    1XTA   HL1434742  -1.336  30.416  -9.753
    1XTA   HL1534743  -1.428  30.242  -9.895
    1XTA   HL1634744  -1.301  30.136  -9.864
    1XTA   HL1734745  -1.588  30.120  -9.868
    1XTA   HL1834746  -1.622  30.040  -9.719
    1XTA   HL1934747  -1.758  30.163  -9.511
    1XTA   HL2034748  -1.758  30.334  -9.542
    1XTA   HL2134749  -1.527  30.170  -9.464
    1XTA   HL2234750  -1.598  30.302  -9.371
    1XTA   HL2334751  -1.504  30.332  -9.512
    1XTA   HL2434752  -0.600  29.771  -9.272
    1XTA   HL2534753  -0.481  29.716  -9.153
    1XTA    CO834754  -1.813  30.223  -9.771
    1XTA    CO934755  -1.632  30.370  -9.760
    1XTA    OA634756  -1.867  30.133  -9.741
    1XTA   HL4234757  -1.787  30.215  -9.876
    1XTA   HL4334758  -1.871  30.312  -9.744
    1XTA   HL4834759  -1.615  30.367  -9.898
    1XTA   HL4934760  -1.533  30.385  -9.719
    1XTA     NT34761  -2.125  24.706  -7.787
    1XTA    CN134762  -2.253  24.718  -7.748
    1XTA     C134763  -2.299  24.636  -7.639
    1XTA     C234764  -2.433  24.649  -7.602
    1XTA     C334765  -2.521  24.731  -7.672
    1XTA     C434766  -2.477  24.819  -7.773
    1XTA     C534767  -2.342  24.808  -7.808
    1XTA    CN234768  -2.028  24.767  -7.710
    1XTA     C634769  -2.043  24.898  -7.668
    1XTA     C734770  -1.940  24.967  -7.600
    1XTA     C834771  -1.827  24.896  -7.551
    1XTA     C934772  -1.816  24.758  -7.583
    1XTA    C1034773  -1.914  24.694  -7.669
    1XTA    CN334774  -2.105  24.675  -7.915
    1XTA    C1134775  -2.089  24.782  -8.004
    1XTA    C1234776  -2.044  24.744  -8.134
    1XTA    C1334777  -2.016  24.609  -8.168
    1XTA    C1434778  -2.036  24.507  -8.077
    1XTA    C1534779  -2.084  24.540  -7.951
    1XTA     H134780  -2.231  24.565  -7.594
    1XTA     H234781  -2.473  24.595  -7.517
    1XTA     H334782  -2.548  24.883  -7.820
    1XTA     H434783  -2.314  24.878  -7.885
    1XTA     H534784  -2.138  24.950  -7.688
    1XTA     H634785  -1.955  25.074  -7.577
    1XTA     H734786  -1.735  24.702  -7.543
    1XTA     H834787  -1.897  24.592  -7.702
    1XTA     H934788  -2.094  24.882  -7.975
    1XTA    H1034789  -2.032  24.818  -8.210
    1XTA    H1134790  -2.012  24.410  -8.102
    1XTA    H1234791  -2.092  24.471  -7.870
    1XTA    OA134792  -2.648  24.750  -7.631
    1XTA    CO134793  -2.702  24.646  -7.549
    1XTA    OA234794  -1.730  24.950  -7.472
    1XTA    CO234795  -1.772  25.047  -7.379
    1XTA    CL134796  -1.657  25.068  -7.284
    1XTA    CL234797  -1.621  24.939  -7.204
    1XTA    CL334798  -1.715  24.889  -7.102
    1XTA    CL434799  -1.707  24.744  -7.078
    1XTA    CO334800  -1.734  24.656  -7.201
    1XTA    OA334801  -1.720  24.523  -7.162
    1XTA    CO434802  -1.722  24.434  -7.280
    1XTA    CT134803  -1.703  24.283  -7.245
    1XTA    CL534804  -1.784  24.201  -7.345
    1XTA    CL634805  -1.754  24.221  -7.493
    1XTA    OA434806  -1.988  24.582  -8.299
    1XTA    CO534807  -1.903  24.474  -8.328
    1XTA    HL134808  -1.814  24.487  -8.278
    1XTA    HL234809  -2.805  24.677  -7.517
    1XTA    HL334810  -2.710  24.551  -7.600
    1XTA    HL434811  -2.649  24.644  -7.455
    1XTA    HL534812  -1.801  25.142  -7.423
    1XTA    HL634813  -1.862  25.006  -7.330
    1XTA    HL734814  -1.680  25.149  -7.224
    1XTA    HL834815  -1.567  25.090  -7.341
    1XTA    HL934816  -1.537  24.964  -7.142
    1XTA   HL1034817  -1.590  24.862  -7.272
    1XTA   HL1134818  -1.708  24.953  -7.018
    1XTA   HL1234819  -1.808  24.927  -7.144
    1XTA   HL1334820  -1.774  24.716  -6.996
    1XTA   HL1434821  -1.607  24.723  -7.045
    1XTA   HL1534822  -1.832  24.678  -7.247
    1XTA   HL1634823  -1.650  24.669  -7.270
    1XTA   HL1734824  -1.821  24.454  -7.331
    1XTA   HL1834825  -1.629  24.446  -7.337
    1XTA   HL1934826  -1.891  24.229  -7.334
    1XTA   HL2034827  -1.776  24.094  -7.322
    1XTA   HL2134828  -1.772  24.324  -7.523
    1XTA   HL2234829  -1.819  24.156  -7.557
    1XTA   HL2334830  -1.647  24.201  -7.509
    1XTA   HL2434831  -1.875  24.471  -8.434
    1XTA   HL2534832  -1.938  24.372  -8.314
    1XTA    CO834833  -1.762  24.273  -7.110
    1XTA    CO934834  -1.559  24.237  -7.239
    1XTA    OA634835  -1.782  24.137  -7.072
    1XTA   HL4234836  -1.867  24.312  -7.102
    1XTA   HL4334837  -1.694  24.311  -7.041
    1XTA   HL4834838  -1.538  24.137  -7.195
    1XTA   HL4934839  -1.521  24.223  -7.337
    1XTA     NT34840  -0.642  30.644  -6.340
    1XTA    CN134841  -0.607  30.680  -6.214
    1XTA     C134842  -0.702  30.691  -6.120
    1XTA     C234843  -0.669  30.717  -5.985
    1XTA     C334844  -0.528  30.732  -5.957
    1XTA     C434845  -0.428  30.716  -6.055
    1XTA     C534846  -0.469  30.694  -6.187
    1XTA    CN234847  -0.641  30.516  -6.391
    1XTA     C634848  -0.753  30.432  -6.360
    1XTA     C734849  -0.752  30.299  -6.408
    1XTA     C834850  -0.642  30.249  -6.491
    1XTA     C934851  -0.535  30.332  -6.524
    1XTA    C1034852  -0.538  30.468  -6.476
    1XTA    CN334853  -0.663  30.742  -6.429
    1XTA    C1134854  -0.788  30.802  -6.433
    1XTA    C1234855  -0.815  30.910  -6.515
    1XTA    C1334856  -0.716  30.959  -6.600
    1XTA    C1434857  -0.588  30.904  -6.597
    1XTA    C1534858  -0.559  30.802  -6.511
    1XTA     H134859  -0.807  30.677  -6.142
    1XTA     H234860  -0.750  30.733  -5.910
    1XTA     H334861  -0.327  30.726  -6.028
    1XTA     H434862  -0.388  30.689  -6.264
    1XTA     H534863  -0.828  30.469  -6.288
    1XTA     H634864  -0.838  30.237  -6.380
    1XTA     H734865  -0.456  30.295  -6.583
    1XTA     H834866  -0.453  30.537  -6.490
    1XTA     H934867  -0.866  30.762  -6.367
    1XTA    H1034868  -0.921  30.948  -6.523
    1XTA    H1134869  -0.507  30.949  -6.653
    1XTA    H1234870  -0.458  30.760  -6.493
    1XTA    OA134871  -0.482  30.767  -5.829
    1XTA    CO134872  -0.584  30.810  -5.736
    1XTA    OA234873  -0.641  30.121  -6.536
    1XTA    CO234874  -0.737  30.030  -6.485
    1XTA    CL134875  -0.718  29.900  -6.566
    1XTA    CL234876  -0.844  29.815  -6.556
    1XTA    CL334877  -0.835  29.674  -6.614
    1XTA    CL434878  -0.723  29.589  -6.549
    1XTA    CO334879  -0.751  29.551  -6.402
    1XTA    OA334880  -0.712  29.657  -6.322
    1XTA    CO434881  -0.771  29.642  -6.190
    1XTA    CT134882  -0.749  29.761  -6.092
    1XTA    CL534883  -0.881  29.852  -6.103
    1XTA    CL634884  -0.938  29.908  -5.972
    1XTA    OA434885  -0.743  31.060  -6.682
    1XTA    CO534886  -0.846  31.031  -6.781
    1XTA    HL134887  -0.943  31.024  -6.718
    1XTA    HL234888  -0.632  30.732  -5.678
    1XTA    HL334889  -0.533  30.871  -5.665
    1XTA    HL434890  -0.665  30.877  -5.770
    1XTA    HL534891  -0.735  30.017  -6.375
    1XTA    HL634892  -0.836  30.071  -6.512
    1XTA    HL734893  -0.633  29.843  -6.535
    1XTA    HL834894  -0.689  29.910  -6.671
    1XTA    HL934895  -0.924  29.874  -6.609
    1XTA   HL1034896  -0.875  29.804  -6.453
    1XTA   HL1134897  -0.934  29.623  -6.604
    1XTA   HL1234898  -0.820  29.691  -6.723
    1XTA   HL1334899  -0.626  29.631  -6.567
    1XTA   HL1434900  -0.721  29.495  -6.602
    1XTA   HL1534901  -0.859  29.518  -6.387
    1XTA   HL1634902  -0.702  29.462  -6.380
    1XTA   HL1734903  -0.875  29.638  -6.214
    1XTA   HL1834904  -0.744  29.545  -6.150
    1XTA   HL1934905  -0.965  29.808  -6.159
    1XTA   HL2034906  -0.861  29.938  -6.163
    1XTA   HL2134907  -1.034  29.955  -5.994
    1XTA   HL2234908  -0.860  29.976  -5.927
    1XTA   HL2334909  -0.963  29.829  -5.907
    1XTA   HL2434910  -0.833  30.933  -6.833
    1XTA   HL2534911  -0.879  31.107  -6.855
    1XTA    CO834912  -0.615  29.839  -6.131
    1XTA    CO934913  -0.722  29.708  -5.951
    1XTA    OA634914  -0.803  29.631  -5.928
    1XTA   HL4234915  -0.540  29.760  -6.147
    1XTA   HL4334916  -0.630  29.897  -6.258
    1XTA   HL4834917  -0.715  29.787  -5.878
    1XTA   HL4934918  -0.623  29.668  -5.949
    1XTA     NT34919  -2.047  26.084  -9.257
    1XTA    CN134920  -1.976  26.165  -9.176
    1XTA     C134921  -1.860  26.122  -9.105
    1XTA     C234922  -1.793  26.207  -9.012
    1XTA     C334923  -1.837  26.341  -9.004
    1XTA     C434924  -1.951  26.384  -9.069
    1XTA     C534925  -2.016  26.301  -9.161
    1XTA    CN234926  -2.175  26.051  -9.243
    1XTA     C634927  -2.276  26.145  -9.279
    1XTA     C734928  -2.414  26.114  -9.262
    1XTA     C834929  -2.445  25.985  -9.210
    1XTA     C934930  -2.341  25.896  -9.170
    1XTA    C1034931  -2.207  25.922  -9.195
    1XTA    CN334932  -1.993  26.065  -9.375
    1XTA    C1134933  -1.966  25.933  -9.415
    1XTA    C1234934  -1.922  25.905  -9.548
    1XTA    C1334935  -1.884  26.009  -9.630
    1XTA    C1434936  -1.898  26.138  -9.584
    1XTA    C1534937  -1.959  26.168  -9.462
    1XTA     H134938  -1.842  26.015  -9.128
    1XTA     H234939  -1.708  26.170  -8.957
    1XTA     H334940  -1.986  26.481  -9.061
    1XTA     H434941  -2.105  26.338  -9.208
    1XTA     H534942  -2.247  26.246  -9.315
    1XTA     H634943  -2.483  26.190  -9.295
    1XTA     H734944  -2.368  25.802  -9.143
    1XTA     H834945  -2.130  25.851  -9.183
    1XTA     H934946  -1.984  25.857  -9.341
    1XTA    H1034947  -1.903  25.801  -9.568
    1XTA    H1134948  -1.874  26.223  -9.644
    1XTA    H1234949  -1.982  26.266  -9.443
    1XTA    OA134950  -1.763  26.437  -8.933
    1XTA    CO134951  -1.733  26.413  -8.796
    1XTA    OA234952  -2.577  25.977  -9.192
    1XTA    CO234953  -2.625  25.896  -9.087
    1XTA    CL134954  -2.766  25.861  -9.128
    1XTA    CL234955  -2.833  25.758  -9.034
    1XTA    CL334956  -2.972  25.720  -9.085
    1XTA    CL434957  -3.080  25.823  -9.067
    1XTA    CO334958  -3.219  25.768  -9.122
    1XTA    OA334959  -3.293  25.716  -9.014
    1XTA    CO434960  -3.312  25.579  -9.019
    1XTA    CT134961  -3.394  25.522  -8.902
    1XTA    CL534962  -3.450  25.385  -8.935
    1XTA    CL634963  -3.512  25.300  -8.825
    1XTA    OA434964  -1.834  25.992  -9.759
    1XTA    CO534965  -1.793  25.869  -9.795
    1XTA    HL134966  -1.715  25.836  -9.725
    1XTA    HL234967  -1.679  26.495  -8.751
    1XTA    HL334968  -1.826  26.382  -8.739
    1XTA    HL434969  -1.679  26.318  -8.784
    1XTA    HL534970  -2.571  25.796  -9.085
    1XTA    HL634971  -2.627  25.944  -8.993
    1XTA    HL734972  -2.772  25.820  -9.229
    1XTA    HL834973  -2.831  25.952  -9.131
    1XTA    HL934974  -2.841  25.805  -8.936
    1XTA   HL1034975  -2.771  25.669  -9.028
    1XTA   HL1134976  -2.980  25.695  -9.191
    1XTA   HL1234977  -2.994  25.628  -9.039
    1XTA   HL1334978  -3.051  25.914  -9.108
    1XTA   HL1434979  -3.089  25.856  -8.962
    1XTA   HL1534980  -3.275  25.852  -9.167
    1XTA   HL1634981  -3.210  25.687  -9.196
    1XTA   HL1734982  -3.351  25.552  -9.116
    1XTA   HL1834983  -3.210  25.539  -9.014
    1XTA   HL1934984  -3.388  25.325  -9.001
    1XTA   HL2034985  -3.541  25.404  -8.994
    1XTA   HL2134986  -3.430  25.263  -8.769
    1XTA   HL2234987  -3.566  25.207  -8.856
    1XTA   HL2334988  -3.587  25.360  -8.766
    1XTA   HL2434989  -1.758  25.872  -9.900
    1XTA   HL2534990  -1.870  25.797  -9.784
    1XTA    CO834991  -3.512  25.620  -8.876
    1XTA    CO934992  -3.311  25.499  -8.773
    1XTA    OA634993  -3.205  25.407  -8.785
    1XTA   HL4234994  -3.483  25.717  -8.844
    1XTA   HL4334995  -3.577  25.583  -8.794
    1XTA   HL4834996  -3.375  25.478  -8.683
    1XTA   HL4934997  -3.264  25.589  -8.750
    1XTA     NT34998  -1.943  28.783 -10.097
    1XTA    CN134999  -2.064  28.739 -10.047
    1XTA     C135000  -2.148  28.660 -10.120
    1XTA     C235001  -2.279  28.627 -10.074
    1XTA     C335002  -2.329  28.678  -9.950
    1XTA     C435003  -2.240  28.756  -9.872
    1XTA     C535004  -2.107  28.786  -9.917
    1XTA    CN235005  -1.839  28.736 -10.032
    1XTA     C635006  -1.786  28.810  -9.923
    1XTA     C735007  -1.667  28.767  -9.857
    1XTA     C835008  -1.614  28.645  -9.886
    1XTA     C935009  -1.676  28.567  -9.995
    1XTA    C1035010  -1.786  28.617 -10.061
    1XTA    CN335011  -1.927  28.886 -10.179
    1XTA    C1135012  -1.981  29.012 -10.150
    1XTA    C1235013  -1.992  29.114 -10.247
    1XTA    C1335014  -1.935  29.090 -10.377
    1XTA    C1435015  -1.866  28.970 -10.398
    1XTA    C1535016  -1.857  28.866 -10.305
    1XTA     H135017  -2.105  28.622 -10.211
    1XTA     H235018  -2.340  28.562 -10.136
    1XTA     H335019  -2.267  28.793  -9.767
    1XTA     H435020  -2.036  28.842  -9.855
    1XTA     H535021  -1.828  28.902  -9.905
    1XTA     H635022  -1.623  28.822  -9.775
    1XTA     H735023  -1.641  28.469 -10.024
    1XTA     H835024  -1.842  28.551 -10.130
    1XTA     H935025  -2.039  29.035 -10.061
    1XTA    H1035026  -2.038  29.208 -10.217
    1XTA    H1135027  -1.814  28.965 -10.488
    1XTA    H1235028  -1.817  28.765 -10.335
    1XTA    OA135029  -2.455  28.641  -9.908
    1XTA    CO135030  -2.494  28.687  -9.780
    1XTA    OA235031  -1.499  28.604  -9.818
    1XTA    CO235032  -1.424  28.508  -9.884
    1XTA    CL135033  -1.273  28.529  -9.858
    1XTA    CL235034  -1.212  28.654  -9.932
    1XTA    CL335035  -1.058  28.663  -9.903
    1XTA    CL435036  -1.017  28.807  -9.905
    1XTA    CO335037  -0.986  28.860 -10.046
    1XTA    OA335038  -0.950  28.991 -10.030
    1XTA    CO435039  -1.023  29.086 -10.102
    1XTA    CT135040  -0.965  29.225 -10.110
    1XTA    CL535041  -1.046  29.321 -10.193
    1XTA    CL635042  -1.196  29.342 -10.162
    1XTA    OA435043  -1.946  29.189 -10.468
    1XTA    CO535044  -1.931  29.156 -10.602
    1XTA    HL135045  -1.823  29.131 -10.607
    1XTA    HL235046  -2.476  28.795  -9.783
    1XTA    HL335047  -2.590  28.659  -9.741
    1XTA    HL435048  -2.430  28.636  -9.710
    1XTA    HL535049  -1.465  28.416  -9.857
    1XTA    HL635050  -1.440  28.518  -9.989
    1XTA    HL735051  -1.224  28.439  -9.891
    1XTA    HL835052  -1.251  28.526  -9.752
    1XTA    HL935053  -1.267  28.744  -9.909
    1XTA   HL1035054  -1.224  28.637 -10.041
    1XTA   HL1135055  -1.028  28.619  -9.812
    1XTA   HL1235056  -1.011  28.614  -9.991
    1XTA   HL1335057  -0.925  28.809  -9.846
    1XTA   HL1435058  -1.103  28.866  -9.872
    1XTA   HL1535059  -0.911  28.808 -10.103
    1XTA   HL1635060  -1.085  28.853 -10.088
    1XTA   HL1735061  -1.031  29.050 -10.205
    1XTA   HL1835062  -1.116  29.089 -10.051
    1XTA   HL1935063  -1.042  29.300 -10.303
    1XTA   HL2035064  -1.002  29.420 -10.175
    1XTA   HL2135065  -1.206  29.358 -10.056
    1XTA   HL2235066  -1.246  29.242 -10.170
    1XTA   HL2335067  -1.243  29.423 -10.218
    1XTA   HL2435068  -1.951  29.247 -10.660
    1XTA   HL2535069  -1.971  29.060 -10.621
    1XTA    CO835070  -0.818  29.216 -10.171
    1XTA    CO935071  -0.954  29.273  -9.965
    1XTA    OA635072  -0.783  29.311 -10.185
    1XTA   HL4235073  -0.818  29.158 -10.271
    1XTA   HL4335074  -0.768  29.149 -10.101
    1XTA   HL4835075  -1.066  29.250  -9.883
    1XTA   HL4935076  -0.873  29.220  -9.909
    1XTA     NT35077  -4.313  28.759  -9.623
    1XTA    CN135078  -4.328  28.857  -9.529
    1XTA     C135079  -4.378  28.826  -9.399
    1XTA     C235080  -4.392  28.924  -9.305
    1XTA     C335081  -4.360  29.056  -9.342
    1XTA     C435082  -4.294  29.086  -9.463
    1XTA     C535083  -4.280  28.986  -9.559
    1XTA    CN235084  -4.220  28.660  -9.601
    1XTA     C635085  -4.085  28.692  -9.591
    1XTA     C735086  -3.997  28.584  -9.582
    1XTA     C835087  -4.035  28.458  -9.549
    1XTA     C935088  -4.171  28.430  -9.542
    1XTA    C1035089  -4.264  28.532  -9.571
    1XTA    CN335090  -4.384  28.770  -9.733
    1XTA    C1135091  -4.332  28.745  -9.862
    1XTA    C1235092  -4.415  28.749  -9.975
    1XTA    C1335093  -4.556  28.760  -9.964
    1XTA    C1435094  -4.607  28.780  -9.834
    1XTA    C1535095  -4.521  28.778  -9.722
    1XTA     H135096  -4.395  28.726  -9.360
    1XTA     H235097  -4.433  28.898  -9.207
    1XTA     H335098  -4.267  29.185  -9.487
    1XTA     H435099  -4.242  29.018  -9.661
    1XTA     H535100  -4.049  28.792  -9.615
    1XTA     H635101  -3.889  28.614  -9.595
    1XTA     H735102  -4.202  28.329  -9.517
    1XTA     H835103  -4.367  28.507  -9.567
    1XTA     H935104  -4.226  28.721  -9.869
    1XTA    H1035105  -4.367  28.735 -10.067
    1XTA    H1135106  -4.707  28.775  -9.816
    1XTA    H1235107  -4.567  28.782  -9.621
    1XTA    OA135108  -4.385  29.170  -9.265
    1XTA    CO135109  -4.469  29.157  -9.158
    1XTA    OA235110  -3.947  28.361  -9.500
    1XTA    CO235111  -3.817  28.374  -9.538
    1XTA    CL135112  -3.733  28.244  -9.546
    1XTA    CL235113  -3.587  28.264  -9.589
    1XTA    CL335114  -3.505  28.298  -9.468
    1XTA    CL435115  -3.482  28.451  -9.460
    1XTA    CO335116  -3.456  28.497  -9.321
    1XTA    OA335117  -3.570  28.550  -9.253
    1XTA    CO435118  -3.590  28.485  -9.129
    1XTA    CT135119  -3.690  28.574  -9.048
    1XTA    CL535120  -3.819  28.613  -9.120
    1XTA    CL635121  -3.908  28.493  -9.168
    1XTA    OA435122  -4.630  28.769 -10.077
    1XTA    CO535123  -4.773  28.766 -10.055
    1XTA    HL135124  -4.812  28.855 -10.010
    1XTA    HL235125  -4.577  29.135  -9.188
    1XTA    HL335126  -4.426  29.079  -9.089
    1XTA    HL435127  -4.470  29.251  -9.106
    1XTA    HL535128  -3.807  28.432  -9.631
    1XTA    HL635129  -3.776  28.439  -9.461
    1XTA    HL735130  -3.785  28.184  -9.625
    1XTA    HL835131  -3.738  28.169  -9.463
    1XTA    HL935132  -3.576  28.336  -9.675
    1XTA   HL1035133  -3.555  28.167  -9.623
    1XTA   HL1135134  -3.565  28.260  -9.383
    1XTA   HL1235135  -3.416  28.246  -9.476
    1XTA   HL1335136  -3.567  28.501  -9.506
    1XTA   HL1435137  -3.383  28.477  -9.508
    1XTA   HL1535138  -3.403  28.421  -9.258
    1XTA   HL1635139  -3.372  28.564  -9.310
    1XTA   HL1735140  -3.639  28.391  -9.163
    1XTA   HL1835141  -3.501  28.477  -9.075
    1XTA   HL1935142  -3.792  28.676  -9.207
    1XTA   HL2035143  -3.879  28.682  -9.065
    1XTA   HL2135144  -3.979  28.520  -9.250
    1XTA   HL2235145  -3.966  28.446  -9.092
    1XTA   HL2335146  -3.848  28.411  -9.211
    1XTA   HL2435147  -4.809  28.687  -9.992
    1XTA   HL2535148  -4.809  28.770 -10.151
    1XTA    CO835149  -3.613  28.690  -8.999
    1XTA    CO935150  -3.723  28.483  -8.928
    1XTA    OA635151  -3.632  28.454  -8.868
    1XTA   HL4235152  -3.672  28.733  -8.919
    1XTA   HL4335153  -3.490  28.651  -8.934
    1XTA   HL4835154  -3.756  28.389  -8.972
    1XTA   HL4935155  -3.805  28.528  -8.864
    1XTA     NT35156  -5.883  28.826  -5.942
    1XTA    CN135157  -6.009  28.795  -5.895
    1XTA     C135158  -6.120  28.799  -5.977
    1XTA     C235159  -6.251  28.766  -5.929
    1XTA     C335160  -6.271  28.732  -5.793
    1XTA     C435161  -6.159  28.737  -5.711
    1XTA     C535162  -6.032  28.760  -5.760
    1XTA    CN235163  -5.810  28.908  -5.875
    1XTA     C635164  -5.848  29.041  -5.846
    1XTA     C735165  -5.769  29.123  -5.755
    1XTA     C835166  -5.650  29.073  -5.694
    1XTA     C935167  -5.618  28.940  -5.725
    1XTA    C1035168  -5.691  28.863  -5.811
    1XTA    CN335169  -5.823  28.768  -6.047
    1XTA    C1135170  -5.760  28.842  -6.147
    1XTA    C1235171  -5.697  28.778  -6.253
    1XTA    C1335172  -5.697  28.639  -6.258
    1XTA    C1435173  -5.754  28.561  -6.156
    1XTA    C1535174  -5.816  28.631  -6.046
    1XTA     H135175  -6.106  28.805  -6.084
    1XTA     H235176  -6.323  28.766  -6.007
    1XTA     H335177  -6.172  28.725  -5.610
    1XTA     H435178  -5.945  28.756  -5.695
    1XTA     H535179  -5.939  29.077  -5.895
    1XTA     H635180  -5.813  29.222  -5.739
    1XTA     H735181  -5.536  28.893  -5.674
    1XTA     H835182  -5.671  28.753  -5.826
    1XTA     H935183  -5.762  28.954  -6.149
    1XTA    H1035184  -5.647  28.826  -6.327
    1XTA    H1135185  -5.742  28.452  -6.169
    1XTA    H1235186  -5.863  28.573  -5.965
    1XTA    OA135187  -6.400  28.707  -5.753
    1XTA    CO135188  -6.437  28.768  -5.627
    1XTA    OA235189  -5.562  29.142  -5.618
    1XTA    CO235190  -5.607  29.267  -5.577
    1XTA    CL135191  -5.486  29.344  -5.526
    1XTA    CL235192  -5.507  29.490  -5.468
    1XTA    CL335193  -5.373  29.547  -5.428
    1XTA    CL435194  -5.364  29.700  -5.426
    1XTA    CO335195  -5.263  29.757  -5.320
    1XTA    OA335196  -5.288  29.741  -5.181
    1XTA    CO435197  -5.186  29.783  -5.087
    1XTA    CT135198  -5.136  29.683  -4.986
    1XTA    CL535199  -5.078  29.559  -5.064
    1XTA    CL635200  -5.042  29.441  -4.974
    1XTA    OA435201  -5.618  28.592  -6.365
    1XTA    CO535202  -5.619  28.449  -6.388
    1XTA    HL135203  -5.544  28.439  -6.464
    1XTA    HL235204  -6.533  28.737  -5.597
    1XTA    HL335205  -6.370  28.754  -5.543
    1XTA    HL435206  -6.458  28.869  -5.644
    1XTA    HL535207  -5.650  29.325  -5.659
    1XTA    HL635208  -5.682  29.254  -5.504
    1XTA    HL735209  -5.409  29.363  -5.607
    1XTA    HL835210  -5.437  29.288  -5.445
    1XTA    HL935211  -5.579  29.477  -5.388
    1XTA   HL1035212  -5.539  29.562  -5.543
    1XTA   HL1135213  -5.335  29.511  -5.331
    1XTA   HL1235214  -5.282  29.521  -5.490
    1XTA   HL1335215  -5.463  29.745  -5.402
    1XTA   HL1435216  -5.347  29.734  -5.528
    1XTA   HL1535217  -5.168  29.708  -5.338
    1XTA   HL1635218  -5.245  29.863  -5.341
    1XTA   HL1735219  -5.108  29.830  -5.152
    1XTA   HL1835220  -5.244  29.854  -5.028
    1XTA   HL1935221  -4.995  29.598  -5.122
    1XTA   HL2035222  -5.148  29.518  -5.134
    1XTA   HL2135223  -5.136  29.386  -4.970
    1XTA   HL2235224  -5.000  29.462  -4.880
    1XTA   HL2335225  -4.960  29.383  -5.020
    1XTA   HL2435226  -5.720  28.427  -6.409
    1XTA   HL2535227  -5.596  28.397  -6.293
    1XTA    CO835228  -5.244  29.641  -4.890
    1XTA    CO935229  -5.025  29.741  -4.896
    1XTA    OA635230  -5.320  29.745  -4.828
    1XTA   HL4235231  -5.192  29.570  -4.816
    1XTA   HL4335232  -5.315  29.583  -4.947
    1XTA   HL4835233  -4.934  29.722  -4.947
    1XTA   HL4935234  -5.018  29.683  -4.803
    1XTA     NT35235  -5.694  24.598  -8.190
    1XTA    CN135236  -5.629  24.710  -8.153
    1XTA     C135237  -5.653  24.763  -8.023
    1XTA     C235238  -5.578  24.868  -7.969
    1XTA     C335239  -5.468  24.919  -8.044
    1XTA     C435240  -5.450  24.873  -8.175
    1XTA     C535241  -5.527  24.760  -8.228
    1XTA    CN235242  -5.701  24.488  -8.111
    1XTA     C635243  -5.588  24.452  -8.038
    1XTA     C735244  -5.594  24.358  -7.937
    1XTA     C835245  -5.714  24.286  -7.920
    1XTA     C935246  -5.829  24.315  -8.000
    1XTA    C1035247  -5.825  24.416  -8.093
    1XTA    CN335248  -5.782  24.598  -8.300
    1XTA    C1135249  -5.746  24.534  -8.418
    1XTA    C1235250  -5.851  24.517  -8.512
    1XTA    C1335251  -5.980  24.579  -8.504
    1XTA    C1435252  -6.002  24.662  -8.398
    1XTA    C1535253  -5.907  24.664  -8.298
    1XTA     H135254  -5.731  24.724  -7.968
    1XTA     H235255  -5.580  24.884  -7.865
    1XTA     H335256  -5.386  24.916  -8.250
    1XTA     H435257  -5.496  24.722  -8.324
    1XTA     H535258  -5.507  24.513  -8.054
    1XTA     H635259  -5.513  24.341  -7.877
    1XTA     H735260  -5.926  24.258  -7.985
    1XTA     H835261  -5.916  24.429  -8.153
    1XTA     H935262  -5.644  24.494  -8.438
    1XTA    H1035263  -5.838  24.461  -8.599
    1XTA    H1135264  -6.098  24.709  -8.380
    1XTA    H1235265  -5.927  24.708  -8.206
    1XTA    OA135266  -5.385  25.013  -8.007
    1XTA    CO135267  -5.434  25.095  -7.905
    1XTA    OA235268  -5.722  24.201  -7.819
    1XTA    CO235269  -5.846  24.184  -7.758
    1XTA    CL135270  -5.831  24.086  -7.649
    1XTA    CL235271  -5.955  24.039  -7.574
    1XTA    CL335272  -6.020  23.916  -7.636
    1XTA    CL435273  -6.157  23.884  -7.565
    1XTA    CO335274  -6.197  23.741  -7.617
    1XTA    OA335275  -6.299  23.685  -7.527
    1XTA    CO435276  -6.434  23.713  -7.558
    1XTA    CT135277  -6.534  23.632  -7.476
    1XTA    CL535278  -6.530  23.666  -7.318
    1XTA    CL635279  -6.570  23.808  -7.273
    1XTA    OA435280  -6.080  24.557  -8.599
    1XTA    CO535281  -6.200  24.642  -8.587
    1XTA    HL135282  -6.246  24.617  -8.489
    1XTA    HL235283  -5.540  25.125  -7.910
    1XTA    HL335284  -5.403  25.056  -7.811
    1XTA    HL435285  -5.392  25.193  -7.917
    1XTA    HL535286  -5.890  24.275  -7.722
    1XTA    HL635287  -5.915  24.140  -7.829
    1XTA    HL735288  -5.751  24.126  -7.582
    1XTA    HL835289  -5.784  24.000  -7.697
    1XTA    HL935290  -6.033  24.122  -7.570
    1XTA   HL1035291  -5.928  24.015  -7.468
    1XTA   HL1135292  -6.036  23.929  -7.736
    1XTA   HL1235293  -5.939  23.843  -7.621
    1XTA   HL1335294  -6.229  23.961  -7.576
    1XTA   HL1435295  -6.134  23.885  -7.459
    1XTA   HL1535296  -6.235  23.751  -7.718
    1XTA   HL1635297  -6.107  23.675  -7.618
    1XTA   HL1735298  -6.453  23.818  -7.548
    1XTA   HL1835299  -6.449  23.670  -7.664
    1XTA   HL1935300  -6.428  23.656  -7.284
    1XTA   HL2035301  -6.593  23.591  -7.271
    1XTA   HL2135302  -6.582  23.799  -7.160
    1XTA   HL2235303  -6.662  23.854  -7.309
    1XTA   HL2335304  -6.497  23.881  -7.297
    1XTA   HL2435305  -6.271  24.624  -8.659
    1XTA   HL2535306  -6.181  24.747  -8.616
    1XTA    CO835307  -6.497  23.483  -7.482
    1XTA    CO935308  -6.682  23.637  -7.533
    1XTA    OA635309  -6.773  23.563  -7.452
    1XTA   HL4235310  -6.412  23.460  -7.419
    1XTA   HL4335311  -6.574  23.418  -7.448
    1XTA   HL4835312  -6.689  23.604  -7.637
    1XTA   HL4935313  -6.711  23.742  -7.530
    1XTA     NT35314  -7.150  32.183  -7.201
    1XTA    CN135315  -7.269  32.240  -7.227
    1XTA     C135316  -7.382  32.223  -7.145
    1XTA     C235317  -7.498  32.297  -7.173
    1XTA     C335318  -7.509  32.388  -7.278
    1XTA     C435319  -7.394  32.409  -7.355
    1XTA     C535320  -7.277  32.338  -7.328
    1XTA    CN235321  -7.126  32.062  -7.259
    1XTA     C635322  -7.222  31.956  -7.256
    1XTA     C735323  -7.184  31.831  -7.314
    1XTA     C835324  -7.052  31.810  -7.359
    1XTA     C935325  -6.953  31.914  -7.348
    1XTA    C1035326  -6.994  32.038  -7.302
    1XTA    CN335327  -7.087  32.234  -7.088
    1XTA    C1135328  -7.074  32.170  -6.970
    1XTA    C1235329  -7.008  32.224  -6.858
    1XTA    C1335330  -6.965  32.360  -6.860
    1XTA    C1435331  -6.987  32.429  -6.980
    1XTA    C1535332  -7.046  32.367  -7.094
    1XTA     H135333  -7.377  32.159  -7.057
    1XTA     H235334  -7.580  32.271  -7.121
    1XTA     H335335  -7.403  32.486  -7.431
    1XTA     H435336  -7.193  32.356  -7.379
    1XTA     H535337  -7.317  31.978  -7.218
    1XTA     H635338  -7.258  31.754  -7.323
    1XTA     H735339  -6.863  31.895  -7.400
    1XTA     H835340  -6.919  32.121  -7.308
    1XTA     H935341  -7.106  32.066  -6.970
    1XTA    H1035342  -6.994  32.160  -6.773
    1XTA    H1135343  -6.953  32.536  -6.980
    1XTA    H1235344  -7.063  32.435  -7.176
    1XTA    OA135345  -7.631  32.455  -7.297
    1XTA    CO135346  -7.684  32.454  -7.428
    1XTA    OA235347  -7.012  31.691  -7.418
    1XTA    CO235348  -7.118  31.596  -7.443
    1XTA    CL135349  -7.206  31.640  -7.561
    1XTA    CL235350  -7.320  31.540  -7.591
    1XTA    CL335351  -7.273  31.405  -7.660
    1XTA    CL435352  -7.394  31.330  -7.728
    1XTA    CO335353  -7.350  31.187  -7.766
    1XTA    OA335354  -7.369  31.105  -7.651
    1XTA    CO435355  -7.332  30.969  -7.672
    1XTA    CT135356  -7.378  30.886  -7.549
    1XTA    CL535357  -7.338  30.737  -7.557
    1XTA    CL635358  -7.198  30.705  -7.608
    1XTA    OA435359  -6.880  32.419  -6.765
    1XTA    CO535360  -6.800  32.325  -6.694
    1XTA    HL135361  -6.722  32.380  -6.642
    1XTA    HL235362  -7.634  32.517  -7.502
    1XTA    HL335363  -7.694  32.348  -7.454
    1XTA    HL435364  -7.790  32.483  -7.409
    1XTA    HL535365  -7.070  31.498  -7.463
    1XTA    HL635366  -7.184  31.581  -7.357
    1XTA    HL735367  -7.142  31.661  -7.652
    1XTA    HL835368  -7.258  31.738  -7.544
    1XTA    HL935369  -7.384  31.584  -7.668
    1XTA   HL1035370  -7.389  31.515  -7.509
    1XTA   HL1135371  -7.194  31.414  -7.732
    1XTA   HL1235372  -7.237  31.345  -7.582
    1XTA   HL1335373  -7.425  31.390  -7.812
    1XTA   HL1435374  -7.482  31.312  -7.663
    1XTA   HL1535375  -7.417  31.151  -7.846
    1XTA   HL1635376  -7.253  31.179  -7.802
    1XTA   HL1735377  -7.380  30.943  -7.770
    1XTA   HL1835378  -7.227  30.957  -7.689
    1XTA   HL1935379  -7.402  30.689  -7.629
    1XTA   HL2035380  -7.360  30.681  -7.467
    1XTA   HL2135381  -7.183  30.601  -7.606
    1XTA   HL2235382  -7.108  30.743  -7.551
    1XTA   HL2335383  -7.187  30.733  -7.709
    1XTA   HL2435384  -6.749  32.254  -6.757
    1XTA   HL2535385  -6.864  32.261  -6.642
    1XTA    CO835386  -7.528  30.905  -7.522
    1XTA    CO935387  -7.310  30.958  -7.431
    1XTA    OA635388  -7.591  30.832  -7.418
    1XTA   HL4235389  -7.581  30.870  -7.610
    1XTA   HL4335390  -7.557  31.009  -7.509
    1XTA   HL4835391  -7.340  31.058  -7.427
    1XTA   HL4935392  -7.350  30.907  -7.347
    1XTA     NT35393  -6.959  28.775  -7.136
    1XTA    CN135394  -7.011  28.738  -7.254
    1XTA     C135395  -7.012  28.601  -7.299
    1XTA     C235396  -7.071  28.568  -7.425
    1XTA     C335397  -7.127  28.668  -7.511
    1XTA     C435398  -7.135  28.799  -7.458
    1XTA     C535399  -7.071  28.834  -7.338
    1XTA    CN235400  -6.976  28.704  -7.022
    1XTA     C635401  -6.920  28.576  -6.994
    1XTA     C735402  -6.936  28.519  -6.862
    1XTA     C835403  -7.017  28.589  -6.768
    1XTA     C935404  -7.068  28.718  -6.800
    1XTA    C1035405  -7.050  28.770  -6.924
    1XTA    CN335406  -6.841  28.846  -7.146
    1XTA    C1135407  -6.850  28.982  -7.125
    1XTA    C1235408  -6.730  29.053  -7.123
    1XTA    C1335409  -6.607  28.991  -7.132
    1XTA    C1435410  -6.606  28.851  -7.157
    1XTA    C1535411  -6.723  28.778  -7.167
    1XTA     H135412  -6.993  28.522  -7.227
    1XTA     H235413  -7.075  28.467  -7.467
    1XTA     H335414  -7.179  28.879  -7.512
    1XTA     H435415  -7.069  28.937  -7.316
    1XTA     H535416  -6.862  28.520  -7.062
    1XTA     H635417  -6.888  28.420  -6.848
    1XTA     H735418  -7.126  28.784  -6.732
    1XTA     H835419  -7.082  28.870  -6.938
    1XTA     H935420  -6.944  29.031  -7.112
    1XTA    H1035421  -6.742  29.153  -7.097
    1XTA    H1135422  -6.512  28.805  -7.175
    1XTA    H1235423  -6.717  28.673  -7.188
    1XTA    OA135424  -7.186  28.628  -7.631
    1XTA    CO135425  -7.277  28.726  -7.686
    1XTA    OA235426  -7.027  28.544  -6.643
    1XTA    CO235427  -7.007  28.402  -6.620
    1XTA    CL135428  -7.034  28.384  -6.470
    1XTA    CL235429  -7.172  28.423  -6.421
    1XTA    CL335430  -7.199  28.383  -6.274
    1XTA    CL435431  -7.128  28.476  -6.171
    1XTA    CO335432  -7.156  28.455  -6.024
    1XTA    OA335433  -7.076  28.545  -5.946
    1XTA    CO435434  -7.102  28.536  -5.805
    1XTA    CT135435  -7.183  28.664  -5.767
    1XTA    CL535436  -7.223  28.660  -5.625
    1XTA    CL635437  -7.346  28.567  -5.595
    1XTA    OA435438  -6.495  29.065  -7.104
    1XTA    CO535439  -6.380  29.000  -7.109
    1XTA    HL135440  -6.374  28.920  -7.038
    1XTA    HL235441  -7.340  28.680  -7.762
    1XTA    HL335442  -7.345  28.755  -7.610
    1XTA    HL435443  -7.237  28.817  -7.717
    1XTA    HL535444  -7.091  28.352  -6.672
    1XTA    HL635445  -6.909  28.360  -6.648
    1XTA    HL735446  -6.954  28.430  -6.416
    1XTA    HL835447  -7.044  28.276  -6.459
    1XTA    HL935448  -7.246  28.368  -6.487
    1XTA   HL1035449  -7.185  28.531  -6.436
    1XTA   HL1135450  -7.303  28.384  -6.250
    1XTA   HL1235451  -7.167  28.278  -6.263
    1XTA   HL1335452  -7.143  28.588  -6.198
    1XTA   HL1435453  -7.024  28.454  -6.182
    1XTA   HL1535454  -7.259  28.472  -6.004
    1XTA   HL1635455  -7.139  28.349  -5.999
    1XTA   HL1735456  -7.143  28.441  -5.780
    1XTA   HL1835457  -7.004  28.552  -5.752
    1XTA   HL1935458  -7.256  28.758  -5.592
    1XTA   HL2035459  -7.135  28.627  -5.576
    1XTA   HL2135460  -7.345  28.487  -5.675
    1XTA   HL2235461  -7.439  28.624  -5.598
    1XTA   HL2335462  -7.341  28.515  -5.496
    1XTA   HL2435463  -6.306  29.073  -7.080
    1XTA   HL2535464  -6.365  28.962  -7.212
    1XTA    CO835465  -7.302  28.687  -5.861
    1XTA    CO935466  -7.100  28.791  -5.787
    1XTA    OA635467  -6.999  28.782  -5.741
    1XTA   HL4235468  -7.268  28.676  -5.964
    1XTA   HL4335469  -7.396  28.584  -5.860
    1XTA   HL4835470  -7.143  28.885  -5.745
    1XTA   HL4935471  -7.099  28.809  -5.897
    1XTA     NT35472  -2.877  24.789 -10.908
    1XTA    CN135473  -2.833  24.809 -10.787
    1XTA     C135474  -2.884  24.918 -10.709
    1XTA     C235475  -2.834  24.939 -10.576
    1XTA     C335476  -2.752  24.843 -10.516
    1XTA     C435477  -2.707  24.734 -10.598
    1XTA     C535478  -2.740  24.724 -10.736
    1XTA    CN235479  -2.799  24.800 -11.018
    1XTA     C635480  -2.714  24.701 -11.060
    1XTA     C735481  -2.638  24.718 -11.178
    1XTA     C835482  -2.644  24.839 -11.249
    1XTA     C935483  -2.716  24.943 -11.189
    1XTA    C1035484  -2.802  24.922 -11.081
    1XTA    CN335485  -2.980  24.706 -10.925
    1XTA    C1135486  -3.108  24.764 -10.941
    1XTA    C1235487  -3.221  24.685 -10.965
    1XTA    C1335488  -3.205  24.547 -10.982
    1XTA    C1435489  -3.078  24.484 -10.961
    1XTA    C1535490  -2.973  24.565 -10.925
    1XTA     H135491  -2.958  24.990 -10.747
    1XTA     H235492  -2.883  25.011 -10.509
    1XTA     H335493  -2.643  24.648 -10.568
    1XTA     H435494  -2.708  24.641 -10.798
    1XTA     H535495  -2.716  24.613 -11.003
    1XTA     H635496  -2.582  24.634 -11.224
    1XTA     H735497  -2.694  25.039 -11.226
    1XTA     H835498  -2.858  24.998 -11.042
    1XTA     H935499  -3.122  24.865 -10.924
    1XTA    H1035500  -3.319  24.732 -10.960
    1XTA    H1135501  -3.067  24.382 -10.974
    1XTA    H1235502  -2.877  24.514 -10.905
    1XTA    OA135503  -2.724  24.851 -10.382
    1XTA    CO135504  -2.634  24.756 -10.330
    1XTA    OA235505  -2.573  24.843 -11.360
    1XTA    CO235506  -2.618  24.953 -11.438
    1XTA    CL135507  -2.532  24.928 -11.562
    1XTA    CL235508  -2.385  24.968 -11.543
    1XTA    CL335509  -2.287  24.928 -11.656
    1XTA    CL435510  -2.145  24.980 -11.629
    1XTA    CO335511  -2.082  24.928 -11.502
    1XTA    OA335512  -2.058  24.786 -11.512
    1XTA    CO435513  -2.007  24.734 -11.387
    1XTA    CT135514  -1.988  24.579 -11.384
    1XTA    CL535515  -2.127  24.521 -11.425
    1XTA    CL635516  -2.141  24.368 -11.432
    1XTA    OA435517  -3.312  24.473 -11.013
    1XTA    CO535518  -3.294  24.326 -11.029
    1XTA    HL135519  -3.215  24.293 -11.102
    1XTA    HL235520  -2.630  24.766 -10.220
    1XTA    HL335521  -2.675  24.661 -10.341
    1XTA    HL435522  -2.531  24.757 -10.364
    1XTA    HL535523  -2.723  24.928 -11.466
    1XTA    HL635524  -2.602  25.060 -11.403
    1XTA    HL735525  -2.563  24.999 -11.638
    1XTA    HL835526  -2.532  24.821 -11.591
    1XTA    HL935527  -2.350  24.928 -11.448
    1XTA   HL1035528  -2.375  25.080 -11.533
    1XTA   HL1135529  -2.283  24.821 -11.685
    1XTA   HL1235530  -2.327  24.970 -11.746
    1XTA   HL1335531  -2.140  25.083 -11.632
    1XTA   HL1435532  -2.089  24.950 -11.716
    1XTA   HL1535533  -1.986  24.974 -11.482
    1XTA   HL1635534  -2.135  24.947 -11.403
    1XTA   HL1735535  -1.909  24.784 -11.382
    1XTA   HL1835536  -2.070  24.772 -11.304
    1XTA   HL1935537  -2.161  24.564 -11.522
    1XTA   HL2035538  -2.200  24.559 -11.361
    1XTA   HL2135539  -2.088  24.315 -11.353
    1XTA   HL2235540  -2.103  24.334 -11.529
    1XTA   HL2335541  -2.248  24.339 -11.443
    1XTA   HL2435542  -3.386  24.268 -11.053
    1XTA   HL2535543  -3.269  24.299 -10.928
    1XTA    CO835544  -1.936  24.522 -11.251
    1XTA    CO935545  -1.896  24.539 -11.494
    1XTA    OA635546  -2.007  24.566 -11.169
    1XTA   HL4235547  -1.834  24.565 -11.229
    1XTA   HL4335548  -1.928  24.414 -11.248
    1XTA   HL4835549  -1.775  24.609 -11.472
    1XTA   HL4935550  -1.932  24.581 -11.588
    1XTA     NT35551  -4.649  29.777  -8.210
    1XTA    CN135552  -4.754  29.694  -8.213
    1XTA     C135553  -4.837  29.656  -8.107
    1XTA     C235554  -4.960  29.592  -8.131
    1XTA     C335555  -4.995  29.549  -8.261
    1XTA     C435556  -4.905  29.581  -8.362
    1XTA     C535557  -4.788  29.653  -8.343
    1XTA    CN235558  -4.523  29.729  -8.220
    1XTA     C635559  -4.470  29.633  -8.134
    1XTA     C735560  -4.330  29.602  -8.139
    1XTA     C835561  -4.246  29.665  -8.235
    1XTA     C935562  -4.300  29.758  -8.322
    1XTA    C1035563  -4.434  29.789  -8.316
    1XTA    CN335564  -4.655  29.896  -8.150
    1XTA    C1135565  -4.652  30.001  -8.237
    1XTA    C1235566  -4.635  30.130  -8.186
    1XTA    C1335567  -4.622  30.161  -8.045
    1XTA    C1435568  -4.632  30.047  -7.957
    1XTA    C1535569  -4.629  29.922  -8.012
    1XTA     H135570  -4.830  29.695  -8.006
    1XTA     H235571  -5.027  29.577  -8.050
    1XTA     H335572  -4.942  29.558  -8.464
    1XTA     H435573  -4.721  29.672  -8.432
    1XTA     H535574  -4.538  29.584  -8.071
    1XTA     H635575  -4.294  29.520  -8.076
    1XTA     H735576  -4.242  29.806  -8.401
    1XTA     H835577  -4.474  29.860  -8.383
    1XTA     H935578  -4.661  29.974  -8.341
    1XTA    H1035579  -4.650  30.213  -8.260
    1XTA    H1135580  -4.638  30.069  -7.857
    1XTA    H1235581  -4.610  29.845  -7.940
    1XTA    OA135582  -5.109  29.481  -8.285
    1XTA    CO135583  -5.204  29.452  -8.184
    1XTA    OA235584  -4.120  29.621  -8.241
    1XTA    CO235585  -4.019  29.723  -8.267
    1XTA    CL135586  -3.871  29.671  -8.252
    1XTA    CL235587  -3.827  29.598  -8.124
    1XTA    CL335588  -3.894  29.465  -8.108
    1XTA    CL435589  -3.850  29.385  -7.984
    1XTA    CO335590  -3.899  29.448  -7.858
    1XTA    OA335591  -3.839  29.392  -7.742
    1XTA    CO435592  -3.864  29.251  -7.733
    1XTA    CT135593  -3.810  29.200  -7.600
    1XTA    CL535594  -3.914  29.230  -7.490
    1XTA    CL635595  -3.953  29.371  -7.465
    1XTA    OA435596  -4.599  30.287  -7.987
    1XTA    CO535597  -4.559  30.387  -8.076
    1XTA    HL135598  -4.517  30.469  -8.018
    1XTA    HL235599  -5.168  29.412  -8.096
    1XTA    HL335600  -5.258  29.538  -8.157
    1XTA    HL435601  -5.285  29.386  -8.220
    1XTA    HL535602  -4.044  29.751  -8.378
    1XTA    HL635603  -4.036  29.804  -8.195
    1XTA    HL735604  -3.810  29.761  -8.274
    1XTA    HL835605  -3.828  29.619  -8.334
    1XTA    HL935606  -3.857  29.647  -8.039
    1XTA   HL1035607  -3.717  29.605  -8.107
    1XTA   HL1135608  -4.006  29.485  -8.102
    1XTA   HL1235609  -3.873  29.404  -8.197
    1XTA   HL1335610  -3.740  29.393  -7.987
    1XTA   HL1435611  -3.885  29.286  -7.996
    1XTA   HL1535612  -3.866  29.549  -7.862
    1XTA   HL1635613  -4.002  29.444  -7.852
    1XTA   HL1735614  -3.966  29.223  -7.733
    1XTA   HL1835615  -3.828  29.194  -7.814
    1XTA   HL1935616  -3.875  29.192  -7.392
    1XTA   HL2035617  -4.005  29.179  -7.522
    1XTA   HL2135618  -4.006  29.380  -7.379
    1XTA   HL2235619  -4.010  29.424  -7.544
    1XTA   HL2335620  -3.866  29.431  -7.463
    1XTA   HL2435621  -4.634  30.423  -8.148
    1XTA   HL2535622  -4.464  30.361  -8.122
    1XTA    CO835623  -3.666  29.270  -7.573
    1XTA    CO935624  -3.787  29.045  -7.611
    1XTA    OA635625  -3.589  29.224  -7.637
    1XTA   HL4235626  -3.630  29.260  -7.468
    1XTA   HL4335627  -3.670  29.377  -7.583
    1XTA   HL4835628  -3.909  28.998  -7.668
    1XTA   HL4935629  -3.723  29.029  -7.701
    1XTA     NT35630  -4.042  26.996 -10.330
    1XTA    CN135631  -4.049  26.974 -10.460
    1XTA     C135632  -4.163  26.901 -10.507
    1XTA     C235633  -4.178  26.868 -10.641
    1XTA     C335634  -4.085  26.918 -10.738
    1XTA     C435635  -3.966  26.971 -10.686
    1XTA     C535636  -3.942  27.000 -10.550
    1XTA    CN235637  -4.008  27.118 -10.280
    1XTA     C635638  -4.092  27.225 -10.293
    1XTA     C735639  -4.055  27.358 -10.265
    1XTA     C835640  -3.933  27.381 -10.204
    1XTA     C935641  -3.838  27.277 -10.189
    1XTA    C1035642  -3.883  27.148 -10.224
    1XTA    CN335643  -4.043  26.893 -10.249
    1XTA    C1135644  -3.943  26.794 -10.274
    1XTA    C1235645  -3.932  26.692 -10.176
    1XTA    C1335646  -4.003  26.699 -10.056
    1XTA    C1435647  -4.107  26.792 -10.038
    1XTA    C1535648  -4.128  26.890 -10.136
    1XTA     H135649  -4.239  26.878 -10.429
    1XTA     H235650  -4.271  26.814 -10.661
    1XTA     H335651  -3.883  27.004 -10.751
    1XTA     H435652  -3.854  27.045 -10.515
    1XTA     H535653  -4.188  27.201 -10.340
    1XTA     H635654  -4.116  27.441 -10.285
    1XTA     H735655  -3.737  27.300 -10.153
    1XTA     H835656  -3.800  27.075 -10.220
    1XTA     H935657  -3.887  26.792 -10.368
    1XTA    H1035658  -3.875  26.607 -10.196
    1XTA    H1135659  -4.164  26.792  -9.946
    1XTA    H1235660  -4.208  26.964 -10.131
    1XTA    OA135661  -4.098  26.909 -10.876
    1XTA    CO135662  -4.202  26.838 -10.947
    1XTA    OA235663  -3.899  27.515 -10.189
    1XTA    CO235664  -3.766  27.545 -10.177
    1XTA    CL135665  -3.749  27.695 -10.149
    1XTA    CL235666  -3.779  27.734  -9.999
    1XTA    CL335667  -3.884  27.836  -9.980
    1XTA    CL435668  -3.876  27.899  -9.838
    1XTA    CO335669  -3.980  28.008  -9.813
    1XTA    OA335670  -3.973  28.104  -9.915
    1XTA    CO435671  -3.857  28.183  -9.917
    1XTA    CT135672  -3.864  28.301 -10.010
    1XTA    CL535673  -3.952  28.417  -9.965
    1XTA    CL635674  -4.096  28.374  -9.920
    1XTA    OA435675  -3.980  26.604  -9.954
    1XTA    CO535676  -3.841  26.555  -9.937
    1XTA    HL135677  -3.814  26.499 -10.024
    1XTA    HL235678  -4.170  26.835 -11.054
    1XTA    HL335679  -4.217  26.738 -10.916
    1XTA    HL435680  -4.287  26.902 -10.946
    1XTA    HL535681  -3.733  27.495 -10.084
    1XTA    HL635682  -3.715  27.512 -10.262
    1XTA    HL735683  -3.811  27.749 -10.219
    1XTA    HL835684  -3.645  27.718 -10.176
    1XTA    HL935685  -3.688  27.778  -9.961
    1XTA   HL1035686  -3.805  27.644  -9.939
    1XTA   HL1135687  -3.872  27.929 -10.046
    1XTA   HL1235688  -3.973  27.788 -10.005
    1XTA   HL1335689  -3.777  27.938  -9.815
    1XTA   HL1435690  -3.891  27.829  -9.756
    1XTA   HL1535691  -4.077  27.961  -9.811
    1XTA   HL1635692  -3.967  28.057  -9.718
    1XTA   HL1735693  -3.842  28.221  -9.819
    1XTA   HL1835694  -3.770  28.124  -9.934
    1XTA   HL1935695  -3.950  28.496 -10.041
    1XTA   HL2035696  -3.900  28.471  -9.882
    1XTA   HL2135697  -4.163  28.458  -9.925
    1XTA   HL2235698  -4.100  28.333  -9.819
    1XTA   HL2335699  -4.152  28.305  -9.979
    1XTA   HL2435700  -3.845  26.500  -9.846
    1XTA   HL2535701  -3.771  26.635  -9.916
    1XTA    CO835702  -3.917  28.254 -10.142
    1XTA    CO935703  -3.716  28.333 -10.041
    1XTA    OA635704  -3.915  28.355 -10.242
    1XTA   HL4235705  -4.014  28.205 -10.134
    1XTA   HL4335706  -3.855  28.167 -10.174
    1XTA   HL4835707  -3.673  28.250 -10.093
    1XTA   HL4935708  -3.706  28.403 -10.119
    1XTA     NT35709  -5.726  27.742  -9.372
    1XTA    CN135710  -5.729  27.855  -9.443
    1XTA     C135711  -5.732  27.851  -9.585
    1XTA     C235712  -5.728  27.966  -9.664
    1XTA     C335713  -5.732  28.093  -9.597
    1XTA     C435714  -5.749  28.097  -9.455
    1XTA     C535715  -5.745  27.979  -9.379
    1XTA    CN235716  -5.842  27.678  -9.332
    1XTA     C635717  -5.937  27.628  -9.423
    1XTA     C735718  -6.049  27.556  -9.368
    1XTA     C835719  -6.070  27.549  -9.231
    1XTA     C935720  -5.968  27.599  -9.146
    1XTA    C1035721  -5.857  27.670  -9.190
    1XTA    CN335722  -5.599  27.688  -9.354
    1XTA    C1135723  -5.500  27.762  -9.291
    1XTA    C1235724  -5.371  27.705  -9.279
    1XTA    C1335725  -5.348  27.568  -9.306
    1XTA    C1435726  -5.453  27.497  -9.362
    1XTA    C1535727  -5.573  27.556  -9.404
    1XTA     H135728  -5.730  27.750  -9.626
    1XTA     H235729  -5.727  27.966  -9.774
    1XTA     H335730  -5.750  28.195  -9.405
    1XTA     H435731  -5.749  27.982  -9.269
    1XTA     H535732  -5.942  27.645  -9.529
    1XTA     H635733  -6.116  27.494  -9.426
    1XTA     H735734  -5.974  27.589  -9.040
    1XTA     H835735  -5.778  27.693  -9.126
    1XTA     H935736  -5.507  27.866  -9.293
    1XTA    H1035737  -5.287  27.773  -9.260
    1XTA    H1135738  -5.421  27.398  -9.394
    1XTA    H1235739  -5.653  27.507  -9.466
    1XTA    OA135740  -5.715  28.216  -9.650
    1XTA    CO135741  -5.721  28.225  -9.789
    1XTA    OA235742  -6.185  27.474  -9.199
    1XTA    CO235743  -6.181  27.424  -9.065
    1XTA    CL135744  -6.293  27.322  -9.047
    1XTA    CL235745  -6.266  27.220  -8.931
    1XTA    CL335746  -6.138  27.138  -8.957
    1XTA    CL435747  -6.123  27.023  -8.856
    1XTA    CO335748  -6.220  26.909  -8.885
    1XTA    OA335749  -6.319  26.916  -8.787
    1XTA    CO435750  -6.426  26.832  -8.820
    1XTA    CT135751  -6.522  26.800  -8.705
    1XTA    CL535752  -6.443  26.696  -8.623
    1XTA    CL635753  -6.499  26.650  -8.485
    1XTA    OA435754  -5.217  27.513  -9.300
    1XTA    CO535755  -5.124  27.579  -9.209
    1XTA    HL135756  -5.112  27.673  -9.259
    1XTA    HL235757  -5.676  28.316  -9.827
    1XTA    HL335758  -5.656  28.158  -9.842
    1XTA    HL435759  -5.818  28.214  -9.833
    1XTA    HL535760  -6.084  27.375  -9.051
    1XTA    HL635761  -6.186  27.519  -9.000
    1XTA    HL735762  -6.286  27.273  -9.150
    1XTA    HL835763  -6.395  27.364  -9.047
    1XTA    HL935764  -6.351  27.150  -8.932
    1XTA   HL1035765  -6.271  27.268  -8.832
    1XTA   HL1135766  -6.146  27.099  -9.066
    1XTA   HL1235767  -6.054  27.205  -8.957
    1XTA   HL1335768  -6.127  27.058  -8.752
    1XTA   HL1435769  -6.019  26.986  -8.863
    1XTA   HL1535770  -6.270  26.923  -8.979
    1XTA   HL1635771  -6.169  26.814  -8.878
    1XTA   HL1735772  -6.478  26.875  -8.911
    1XTA   HL1835773  -6.378  26.744  -8.853
    1XTA   HL1935774  -6.331  26.718  -8.610
    1XTA   HL2035775  -6.450  26.600  -8.682
    1XTA   HL2135776  -6.610  26.639  -8.489
    1XTA   HL2235777  -6.486  26.723  -8.407
    1XTA   HL2335778  -6.452  26.555  -8.453
    1XTA   HL2435779  -5.026  27.533  -9.216
    1XTA   HL2535780  -5.146  27.594  -9.101
    1XTA    CO835781  -6.645  26.731  -8.758
    1XTA    CO935782  -6.549  26.921  -8.609
    1XTA    OA635783  -6.707  26.808  -8.810
    1XTA   HL4235784  -6.704  26.686  -8.678
    1XTA   HL4335785  -6.622  26.654  -8.826
    1XTA   HL4835786  -6.435  26.990  -8.574
    1XTA   HL4935787  -6.610  26.995  -8.665
    1XTA     NT35788  -6.614  25.635 -10.322
    1XTA    CN135789  -6.548  25.648 -10.202
    1XTA     C135790  -6.533  25.534 -10.119
    1XTA     C235791  -6.478  25.554  -9.993
    1XTA     C335792  -6.416  25.675  -9.958
    1XTA     C435793  -6.417  25.786 -10.046
    1XTA     C535794  -6.483  25.769 -10.160
    1XTA    CN235795  -6.749  25.632 -10.331
    1XTA     C635796  -6.811  25.756 -10.358
    1XTA     C735797  -6.955  25.758 -10.357
    1XTA     C835798  -7.033  25.641 -10.332
    1XTA     C935799  -6.968  25.521 -10.309
    1XTA    C1035800  -6.824  25.517 -10.304
    1XTA    CN335801  -6.545  25.643 -10.439
    1XTA    C1135802  -6.518  25.522 -10.504
    1XTA    C1235803  -6.424  25.532 -10.611
    1XTA    C1335804  -6.374  25.651 -10.667
    1XTA    C1435805  -6.405  25.770 -10.595
    1XTA    C1535806  -6.485  25.767 -10.481
    1XTA     H135807  -6.580  25.433 -10.143
    1XTA     H235808  -6.468  25.470  -9.922
    1XTA     H335809  -6.358  25.872 -10.032
    1XTA     H435810  -6.478  25.851 -10.234
    1XTA     H535811  -6.760  25.846 -10.386
    1XTA     H635812  -7.011  25.853 -10.381
    1XTA     H735813  -7.018  25.426 -10.284
    1XTA     H835814  -6.763  25.428 -10.273
    1XTA     H935815  -6.567  25.428 -10.483
    1XTA    H1035816  -6.394  25.443 -10.656
    1XTA    H1135817  -6.390  25.863 -10.640
    1XTA    H1235818  -6.506  25.867 -10.434
    1XTA    OA135819  -6.359  25.675  -9.836
    1XTA    CO135820  -6.390  25.791  -9.761
    1XTA    OA235821  -7.171  25.638 -10.346
    1XTA    CO235822  -7.246  25.713 -10.251
    1XTA    CL135823  -7.253  25.649 -10.109
    1XTA    CL235824  -7.332  25.721 -10.007
    1XTA    CL335825  -7.343  25.626  -9.886
    1XTA    CL435826  -7.457  25.667  -9.787
    1XTA    CO335827  -7.453  25.802  -9.717
    1XTA    OA335828  -7.334  25.811  -9.648
    1XTA    CO435829  -7.311  25.924  -9.568
    1XTA    CT135830  -7.193  26.014  -9.597
    1XTA    CL535831  -7.053  25.940  -9.560
    1XTA    CL635832  -7.055  25.782  -9.543
    1XTA    OA435833  -6.298  25.649 -10.783
    1XTA    CO535834  -6.313  25.536 -10.859
    1XTA    HL135835  -6.273  25.454 -10.803
    1XTA    HL235836  -6.329  25.755  -9.685
    1XTA    HL335837  -6.356  25.889  -9.792
    1XTA    HL435838  -6.497  25.799  -9.725
    1XTA    HL535839  -7.201  25.806 -10.249
    1XTA    HL635840  -7.346  25.729 -10.292
    1XTA    HL735841  -7.150  25.642 -10.077
    1XTA    HL835842  -7.291  25.547 -10.115
    1XTA    HL935843  -7.437  25.741 -10.040
    1XTA   HL1035844  -7.282  25.811  -9.991
    1XTA   HL1135845  -7.360  25.527  -9.915
    1XTA   HL1235846  -7.254  25.650  -9.833
    1XTA   HL1335847  -7.453  25.588  -9.713
    1XTA   HL1435848  -7.557  25.675  -9.832
    1XTA   HL1535849  -7.460  25.877  -9.791
    1XTA   HL1635850  -7.542  25.800  -9.648
    1XTA   HL1735851  -7.399  25.977  -9.584
    1XTA   HL1835852  -7.309  25.913  -9.455
    1XTA   HL1935853  -7.017  25.975  -9.465
    1XTA   HL2035854  -6.974  25.966  -9.628
    1XTA   HL2135855  -6.961  25.733  -9.511
    1XTA   HL2235856  -7.076  25.735  -9.638
    1XTA   HL2335857  -7.136  25.745  -9.478
    1XTA   HL2435858  -6.275  25.551 -10.959
    1XTA   HL2535859  -6.416  25.527 -10.875
    1XTA    CO835860  -7.197  26.130  -9.492
    1XTA    CO935861  -7.187  26.069  -9.745
    1XTA    OA635862  -7.295  26.184  -9.477
    1XTA   HL4235863  -7.110  26.194  -9.509
    1XTA   HL4335864  -7.179  26.084  -9.391
    1XTA   HL4835865  -7.317  26.115  -9.792
    1XTA   HL4935866  -7.167  25.981  -9.808
    1XTA     NT35867  -8.069  25.654 -10.662
    1XTA    CN135868  -8.121  25.776 -10.631
    1XTA     C135869  -8.209  25.841 -10.719
    1XTA     C235870  -8.253  25.969 -10.685
    1XTA     C335871  -8.212  26.029 -10.565
    1XTA     C435872  -8.122  25.958 -10.480
    1XTA     C535873  -8.078  25.832 -10.506
    1XTA    CN235874  -8.115  25.545 -10.593
    1XTA     C635875  -8.041  25.496 -10.489
    1XTA     C735876  -8.089  25.384 -10.416
    1XTA     C835877  -8.222  25.337 -10.438
    1XTA     C935878  -8.300  25.395 -10.542
    1XTA    C1035879  -8.241  25.493 -10.620
    1XTA    CN335880  -8.003  25.637 -10.781
    1XTA    C1135881  -7.904  25.732 -10.821
    1XTA    C1235882  -7.831  25.720 -10.935
    1XTA    C1335883  -7.852  25.607 -11.014
    1XTA    C1435884  -7.950  25.511 -10.984
    1XTA    C1535885  -8.022  25.523 -10.861
    1XTA     H135886  -8.235  25.797 -10.819
    1XTA     H235887  -8.325  26.022 -10.750
    1XTA     H335888  -8.098  26.017 -10.393
    1XTA     H435889  -8.012  25.785 -10.441
    1XTA     H535890  -7.949  25.543 -10.467
    1XTA     H635891  -8.012  25.340 -10.350
    1XTA     H735892  -8.401  25.360 -10.547
    1XTA     H835893  -8.304  25.535 -10.702
    1XTA     H935894  -7.896  25.820 -10.753
    1XTA    H1035895  -7.761  25.795 -10.962
    1XTA    H1135896  -7.960  25.425 -11.052
    1XTA    H1235897  -8.082  25.439 -10.831
    1XTA    OA135898  -8.251  26.154 -10.521
    1XTA    CO135899  -8.309  26.230 -10.622
    1XTA    OA235900  -8.270  25.229 -10.371
    1XTA    CO235901  -8.173  25.136 -10.330
    1XTA    CL135902  -8.244  25.006 -10.291
    1XTA    CL235903  -8.326  25.030 -10.168
    1XTA    CL335904  -8.389  24.902 -10.106
    1XTA    CL435905  -8.465  24.936  -9.978
    1XTA    CO335906  -8.369  24.986  -9.864
    1XTA    OA335907  -8.305  24.867  -9.816
    1XTA    CO435908  -8.236  24.888  -9.696
    1XTA    CT135909  -8.183  24.752  -9.644
    1XTA    CL535910  -8.048  24.732  -9.716
    1XTA    CL635911  -7.949  24.629  -9.658
    1XTA    OA435912  -7.764  25.600 -11.123
    1XTA    CO535913  -7.761  25.483 -11.207
    1XTA    HL135914  -7.865  25.471 -11.244
    1XTA    HL235915  -8.315  26.329 -10.592
    1XTA    HL335916  -8.235  26.222 -10.703
    1XTA    HL435917  -8.409  26.182 -10.640
    1XTA    HL535918  -8.114  25.106 -10.419
    1XTA    HL635919  -8.109  25.177 -10.252
    1XTA    HL735920  -8.176  24.922 -10.278
    1XTA    HL835921  -8.314  24.972 -10.368
    1XTA    HL935922  -8.391  25.105 -10.190
    1XTA   HL1035923  -8.272  25.084 -10.090
    1XTA   HL1135924  -8.449  24.832 -10.169
    1XTA   HL1235925  -8.298  24.850 -10.088
    1XTA   HL1335926  -8.501  24.842  -9.938
    1XTA   HL1435927  -8.544  25.000  -9.986
    1XTA   HL1535928  -8.298  25.063  -9.901
    1XTA   HL1635929  -8.424  25.029  -9.784
    1XTA   HL1735930  -8.150  24.956  -9.716
    1XTA   HL1835931  -8.305  24.933  -9.619
    1XTA   HL1935932  -7.995  24.822  -9.718
    1XTA   HL2035933  -8.074  24.713  -9.816
    1XTA   HL2135934  -7.889  24.686  -9.582
    1XTA   HL2235935  -7.877  24.587  -9.718
    1XTA   HL2335936  -8.004  24.536  -9.625
    1XTA   HL2435937  -7.742  25.385 -11.168
    1XTA   HL2535938  -7.701  25.512 -11.297
    1XTA    CO835939  -8.274  24.632  -9.673
    1XTA    CO935940  -8.157  24.757  -9.487
    1XTA    OA635941  -8.359  24.623  -9.603
    1XTA   HL4235942  -8.218  24.537  -9.663
    1XTA   HL4335943  -8.299  24.637  -9.779
    1XTA   HL4835944  -8.104  24.637  -9.447
    1XTA   HL4935945  -8.075  24.827  -9.458
    1XTA     NT35946  -8.835  26.485  -8.455
    1XTA    CN135947  -8.760  26.432  -8.357
    1XTA     C135948  -8.819  26.346  -8.264
    1XTA     C235949  -8.745  26.277  -8.169
    1XTA     C335950  -8.604  26.297  -8.159
    1XTA     C435951  -8.545  26.377  -8.257
    1XTA     C535952  -8.622  26.436  -8.359
    1XTA    CN235953  -8.841  26.428  -8.578
    1XTA     C635954  -8.830  26.285  -8.597
    1XTA     C735955  -8.837  26.232  -8.724
    1XTA     C835956  -8.847  26.308  -8.842
    1XTA     C935957  -8.853  26.452  -8.823
    1XTA    C1035958  -8.849  26.503  -8.691
    1XTA    CN335959  -8.918  26.589  -8.421
    1XTA    C1135960  -9.038  26.567  -8.348
    1XTA    C1235961  -9.124  26.673  -8.311
    1XTA    C1335962  -9.103  26.805  -8.349
    1XTA    C1435963  -8.980  26.829  -8.414
    1XTA    C1535964  -8.885  26.724  -8.445
    1XTA     H135965  -8.921  26.321  -8.268
    1XTA     H235966  -8.795  26.224  -8.096
    1XTA     H335967  -8.435  26.394  -8.268
    1XTA     H435968  -8.570  26.493  -8.429
    1XTA     H535969  -8.821  26.222  -8.517
    1XTA     H635970  -8.828  26.120  -8.717
    1XTA     H735971  -8.856  26.528  -8.898
    1XTA     H835972  -8.849  26.610  -8.688
    1XTA     H935973  -9.067  26.467  -8.316
    1XTA    H1035974  -9.203  26.638  -8.258
    1XTA    H1135975  -8.957  26.932  -8.435
    1XTA    H1235976  -8.794  26.741  -8.501
    1XTA    OA135977  -8.515  26.239  -8.069
    1XTA    CO135978  -8.567  26.226  -7.943
    1XTA    OA235979  -8.849  26.254  -8.972
    1XTA    CO235980  -8.793  26.130  -8.974
    1XTA    CL135981  -8.794  26.095  -9.121
    1XTA    CL235982  -8.758  25.953  -9.146
    1XTA    CL335983  -8.799  25.891  -9.279
    1XTA    CL435984  -8.767  25.741  -9.290
    1XTA    CO335985  -8.835  25.674  -9.412
    1XTA    OA335986  -8.780  25.733  -9.523
    1XTA    CO435987  -8.851  25.701  -9.642
    1XTA    CT135988  -8.801  25.802  -9.752
    1XTA    CL535989  -8.903  25.803  -9.869
    1XTA    CL635990  -8.931  25.663  -9.924
    1XTA    OA435991  -9.193  26.903  -8.313
    1XTA    CO535992  -9.188  27.032  -8.377
    1XTA    HL135993  -9.192  27.006  -8.484
    1XTA    HL235994  -8.597  26.317  -7.889
    1XTA    HL335995  -8.651  26.154  -7.940
    1XTA    HL435996  -8.491  26.183  -7.874
    1XTA    HL535997  -8.687  26.123  -8.934
    1XTA    HL635998  -8.859  26.072  -8.908
    1XTA    HL735999  -8.713  26.144  -9.177
    1XTA    HL836000  -8.894  26.113  -9.159
    1XTA    HL936001  -8.803  25.894  -9.064
    1XTA   HL1036002  -8.649  25.954  -9.128
    1XTA   HL1136003  -8.902  25.904  -9.303
    1XTA   HL1236004  -8.743  25.936  -9.361
    1XTA   HL1336005  -8.801  25.691  -9.200
    1XTA   HL1436006  -8.656  25.724  -9.288
    1XTA   HL1536007  -8.836  25.568  -9.422
    1XTA   HL1636008  -8.940  25.702  -9.413
    1XTA   HL1736009  -8.831  25.598  -9.669
    1XTA   HL1836010  -8.956  25.721  -9.619
    1XTA   HL1936011  -8.851  25.856  -9.946
    1XTA   HL2036012  -8.995  25.862  -9.852
    1XTA   HL2136013  -9.000  25.628  -9.853
    1XTA   HL2236014  -8.858  25.588  -9.933
    1XTA   HL2336015  -8.993  25.672 -10.018
    1XTA   HL2436016  -9.099  27.089  -8.357
    1XTA   HL2536017  -9.279  27.081  -8.344
    1XTA    CO836018  -8.669  25.747  -9.793
    1XTA    CO936019  -8.805  25.944  -9.687
    1XTA    OA636020  -8.800  26.031  -9.762
    1XTA   HL4236021  -8.680  25.641  -9.809
    1XTA   HL4336022  -8.577  25.752  -9.691
    1XTA   HL4836023  -8.711  25.954  -9.634
    1XTA   HL4936024  -8.882  25.953  -9.613
    1XTA     NT36025  -7.145  25.509 -11.247
    1XTA    CN136026  -7.266  25.530 -11.304
    1XTA     C136027  -7.351  25.637 -11.261
    1XTA     C236028  -7.465  25.667 -11.337
    1XTA     C336029  -7.501  25.592 -11.449
    1XTA     C436030  -7.427  25.477 -11.482
    1XTA     C536031  -7.314  25.445 -11.407
    1XTA    CN236032  -7.050  25.602 -11.270
    1XTA     C636033  -6.990  25.605 -11.397
    1XTA     C736034  -6.884  25.701 -11.421
    1XTA     C836035  -6.839  25.789 -11.316
    1XTA     C936036  -6.904  25.782 -11.188
    1XTA    C1036037  -7.006  25.683 -11.167
    1XTA    CN336038  -7.124  25.398 -11.171
    1XTA    C1136039  -7.078  25.285 -11.240
    1XTA    C1236040  -7.050  25.170 -11.171
    1XTA    C1336041  -7.067  25.158 -11.031
    1XTA    C1436042  -7.102  25.277 -10.962
    1XTA    C1536043  -7.131  25.391 -11.029
    1XTA     H136044  -7.329  25.698 -11.173
    1XTA     H236045  -7.539  25.746 -11.319
    1XTA     H336046  -7.472  25.414 -11.562
    1XTA     H436047  -7.250  25.364 -11.443
    1XTA     H536048  -7.027  25.535 -11.471
    1XTA     H636049  -6.839  25.697 -11.517
    1XTA     H736050  -6.874  25.858 -11.118
    1XTA     H836051  -7.051  25.671 -11.075
    1XTA     H936052  -7.043  25.296 -11.340
    1XTA    H1036053  -7.012  25.093 -11.223
    1XTA    H1136054  -7.089  25.284 -10.857
    1XTA    H1236055  -7.147  25.484 -10.980
    1XTA    OA136056  -7.614  25.631 -11.509
    1XTA    CO136057  -7.661  25.564 -11.621
    1XTA    OA236058  -6.732  25.872 -11.332
    1XTA    CO236059  -6.689  25.907 -11.464
    1XTA    CL136060  -6.601  26.030 -11.450
    1XTA    CL236061  -6.558  26.101 -11.584
    1XTA    CL336062  -6.520  25.999 -11.694
    1XTA    CL436063  -6.487  26.080 -11.827
    1XTA    CO336064  -6.450  25.984 -11.940
    1XTA    OA336065  -6.333  25.911 -11.903
    1XTA    CO436066  -6.299  25.821 -12.000
    1XTA    CT136067  -6.179  25.726 -11.962
    1XTA    CL536068  -6.052  25.815 -11.927
    1XTA    CL636069  -5.918  25.743 -11.913
    1XTA    OA436070  -7.037  25.044 -10.967
    1XTA    CO536071  -6.988  24.929 -11.038
    1XTA    HL136072  -6.888  24.947 -11.085
    1XTA    HL236073  -7.748  25.617 -11.661
    1XTA    HL336074  -7.588  25.551 -11.702
    1XTA    HL436075  -7.695  25.465 -11.582
    1XTA    HL536076  -6.629  25.834 -11.511
    1XTA    HL636077  -6.774  25.940 -11.527
    1XTA    HL736078  -6.524  26.020 -11.373
    1XTA    HL836079  -6.655  26.109 -11.402
    1XTA    HL936080  -6.467  26.154 -11.560
    1XTA   HL1036081  -6.635  26.174 -11.625
    1XTA   HL1136082  -6.439  25.932 -11.672
    1XTA   HL1236083  -6.609  25.940 -11.715
    1XTA   HL1336084  -6.394  26.144 -11.808
    1XTA   HL1436085  -6.571  26.141 -11.857
    1XTA   HL1536086  -6.523  25.913 -11.953
    1XTA   HL1636087  -6.436  26.031 -12.031
    1XTA   HL1736088  -6.393  25.772 -12.022
    1XTA   HL1836089  -6.263  25.875 -12.087
    1XTA   HL1936090  -6.072  25.867 -11.829
    1XTA   HL2036091  -6.041  25.889 -11.998
    1XTA   HL2136092  -5.892  25.690 -12.002
    1XTA   HL2236093  -5.919  25.667 -11.832
    1XTA   HL2336094  -5.840  25.820 -11.900
    1XTA   HL2436095  -7.061  24.890 -11.107
    1XTA   HL2536096  -6.980  24.864 -10.955
    1XTA    CO836097  -6.144  25.622 -12.075
    1XTA    CO936098  -6.212  25.637 -11.847
    1XTA    OA636099  -6.139  25.679 -12.168
    1XTA   HL4236100  -6.225  25.548 -12.082
    1XTA   HL4336101  -6.047  25.574 -12.061
    1XTA   HL4836102  -6.346  25.634 -11.809
    1XTA   HL4936103  -6.190  25.535 -11.875
    1XTA     NT36104  -4.118  23.992  -8.223
    1XTA    CN136105  -4.188  23.888  -8.279
    1XTA     C136106  -4.240  23.906  -8.411
    1XTA     C236107  -4.309  23.804  -8.480
    1XTA     C336108  -4.311  23.674  -8.422
    1XTA     C436109  -4.277  23.663  -8.287
    1XTA     C536110  -4.216  23.769  -8.215
    1XTA    CN236111  -4.188  24.109  -8.197
    1XTA     C636112  -4.145  24.223  -8.264
    1XTA     C736113  -4.208  24.341  -8.229
    1XTA     C836114  -4.293  24.356  -8.118
    1XTA     C936115  -4.333  24.239  -8.050
    1XTA    C1036116  -4.284  24.115  -8.089
    1XTA    CN336117  -3.985  23.971  -8.192
    1XTA    C1136118  -3.892  23.926  -8.290
    1XTA    C1236119  -3.761  23.897  -8.258
    1XTA    C1336120  -3.718  23.899  -8.128
    1XTA    C1436121  -3.808  23.949  -8.031
    1XTA    C1536122  -3.938  23.995  -8.067
    1XTA     H136123  -4.219  23.996  -8.475
    1XTA     H236124  -4.325  23.820  -8.583
    1XTA     H336125  -4.294  23.564  -8.243
    1XTA     H436126  -4.185  23.751  -8.114
    1XTA     H536127  -4.062  24.207  -8.330
    1XTA     H636128  -4.188  24.425  -8.291
    1XTA     H736129  -4.400  24.255  -7.971
    1XTA     H836130  -4.309  24.023  -8.037
    1XTA     H936131  -3.928  23.932  -8.393
    1XTA    H1036132  -3.699  23.849  -8.332
    1XTA    H1136133  -3.777  23.955  -7.927
    1XTA    H1236134  -4.008  24.030  -7.991
    1XTA    OA136135  -4.356  23.565  -8.496
    1XTA    CO136136  -4.429  23.466  -8.423
    1XTA    OA236137  -4.343  24.481  -8.087
    1XTA    CO236138  -4.382  24.504  -7.953
    1XTA    CL136139  -4.416  24.651  -7.930
    1XTA    CL236140  -4.543  24.704  -7.991
    1XTA    CL336141  -4.548  24.857  -7.964
    1XTA    CL436142  -4.648  24.924  -8.062
    1XTA    CO336143  -4.642  25.077  -8.040
    1XTA    OA336144  -4.710  25.151  -8.145
    1XTA    CO436145  -4.847  25.160  -8.106
    1XTA    CT136146  -4.942  25.211  -8.220
    1XTA    CL536147  -4.906  25.353  -8.278
    1XTA    CL636148  -4.888  25.464  -8.179
    1XTA    OA436149  -3.593  23.856  -8.089
    1XTA    CO536150  -3.536  23.754  -8.156
    1XTA    HL136151  -3.489  23.795  -8.244
    1XTA    HL236152  -4.363  23.430  -8.352
    1XTA    HL336153  -4.518  23.522  -8.385
    1XTA    HL436154  -4.447  23.383  -8.491
    1XTA    HL536155  -4.470  24.451  -7.931
    1XTA    HL636156  -4.295  24.472  -7.888
    1XTA    HL736157  -4.333  24.720  -7.948
    1XTA    HL836158  -4.433  24.664  -7.824
    1XTA    HL936159  -4.636  24.664  -7.946
    1XTA   HL1036160  -4.556  24.686  -8.093
    1XTA   HL1136161  -4.572  24.874  -7.863
    1XTA   HL1236162  -4.452  24.898  -7.973
    1XTA   HL1336163  -4.747  24.895  -8.050
    1XTA   HL1436164  -4.627  24.907  -8.167
    1XTA   HL1536165  -4.676  25.100  -7.937
    1XTA   HL1636166  -4.544  25.113  -8.027
    1XTA   HL1736167  -4.880  25.061  -8.066
    1XTA   HL1836168  -4.857  25.229  -8.023
    1XTA   HL1936169  -4.979  25.386  -8.353
    1XTA   HL2036170  -4.811  25.345  -8.326
    1XTA   HL2136171  -4.884  25.556  -8.234
    1XTA   HL2236172  -4.801  25.434  -8.111
    1XTA   HL2336173  -4.979  25.474  -8.111
    1XTA   HL2436174  -3.603  23.678  -8.179
    1XTA   HL2536175  -3.460  23.709  -8.099
    1XTA    CO836176  -5.090  25.202  -8.172
    1XTA    CO936177  -4.923  25.102  -8.329
    1XTA    OA636178  -5.166  25.254  -8.237
    1XTA   HL4236179  -5.100  25.249  -8.070
    1XTA   HL4336180  -5.123  25.096  -8.156
    1XTA   HL4836181  -4.790  25.113  -8.377
    1XTA   HL4936182  -4.989  25.124  -8.415
    1XTA     NT36183   0.022  25.914 -12.010
    1XTA    CN136184   0.056  25.809 -11.935
    1XTA     C136185   0.086  25.829 -11.801
    1XTA     C236186   0.132  25.720 -11.720
    1XTA     C336187   0.144  25.592 -11.774
    1XTA     C436188   0.105  25.574 -11.909
    1XTA     C536189   0.063  25.680 -11.987
    1XTA    CN236190  -0.106  25.954 -12.018
    1XTA     C636191  -0.215  25.869 -12.039
    1XTA     C736192  -0.348  25.919 -12.058
    1XTA     C836193  -0.368  26.059 -12.049
    1XTA     C936194  -0.264  26.149 -12.021
    1XTA    C1036195  -0.131  26.096 -12.017
    1XTA    CN336196   0.110  25.964 -12.106
    1XTA    C1136197   0.203  26.061 -12.067
    1XTA    C1236198   0.289  26.110 -12.167
    1XTA    C1336199   0.294  26.053 -12.293
    1XTA    C1436200   0.198  25.956 -12.334
    1XTA    C1536201   0.106  25.913 -12.237
    1XTA     H136202   0.082  25.934 -11.769
    1XTA     H236203   0.161  25.741 -11.619
    1XTA     H336204   0.101  25.470 -11.942
    1XTA     H436205   0.031  25.653 -12.089
    1XTA     H536206  -0.200  25.758 -12.051
    1XTA     H636207  -0.429  25.851 -12.072
    1XTA     H736208  -0.284  26.257 -12.016
    1XTA     H836209  -0.051  26.168 -12.002
    1XTA     H936210   0.193  26.107 -11.974
    1XTA    H1036211   0.358  26.185 -12.138
    1XTA    H1136212   0.199  25.916 -12.430
    1XTA    H1236213   0.034  25.838 -12.268
    1XTA    OA136214   0.204  25.498 -11.696
    1XTA    CO136215   0.208  25.360 -11.738
    1XTA    OA236216  -0.500  26.099 -12.057
    1XTA    CO236217  -0.539  26.182 -11.947
    1XTA    CL136218  -0.686  26.222 -11.955
    1XTA    CL236219  -0.784  26.099 -11.931
    1XTA    CL336220  -0.934  26.117 -11.984
    1XTA    CL436221  -0.945  26.111 -12.139
    1XTA    CO336222  -1.085  26.107 -12.184
    1XTA    OA336223  -1.097  26.085 -12.317
    1XTA    CO436224  -1.070  25.952 -12.357
    1XTA    CT136225  -1.050  25.955 -12.506
    1XTA    CL536226  -0.934  26.050 -12.540
    1XTA    CL636227  -0.879  26.048 -12.684
    1XTA    OA436228   0.388  26.082 -12.385
    1XTA    CO536229   0.408  26.223 -12.406
    1XTA    HL136230   0.320  26.276 -12.442
    1XTA    HL236231   0.110  25.308 -11.738
    1XTA    HL336232   0.235  25.356 -11.847
    1XTA    HL436233   0.289  25.301 -11.695
    1XTA    HL536234  -0.525  26.123 -11.858
    1XTA    HL636235  -0.477  26.272 -11.938
    1XTA    HL736236  -0.716  26.267 -12.048
    1XTA    HL836237  -0.700  26.295 -11.877
    1XTA    HL936238  -0.784  26.060 -11.828
    1XTA   HL1036239  -0.733  26.021 -11.985
    1XTA   HL1136240  -1.004  26.043 -11.941
    1XTA   HL1236241  -0.958  26.219 -11.942
    1XTA   HL1336242  -0.919  26.004 -12.168
    1XTA   HL1436243  -0.884  26.183 -12.199
    1XTA   HL1536244  -1.135  26.020 -12.137
    1XTA   HL1636245  -1.142  26.201 -12.165
    1XTA   HL1736246  -0.981  25.894 -12.322
    1XTA   HL1836247  -1.171  25.891 -12.343
    1XTA   HL1936248  -0.857  26.009 -12.480
    1XTA   HL2036249  -0.961  26.150 -12.507
    1XTA   HL2136250  -0.969  26.055 -12.752
    1XTA   HL2236251  -0.815  25.957 -12.698
    1XTA   HL2336252  -0.809  26.128 -12.707
    1XTA   HL2436253   0.494  26.228 -12.470
    1XTA   HL2536254   0.429  26.275 -12.319
    1XTA    CO836255  -1.181  25.987 -12.583
    1XTA    CO936256  -1.015  25.816 -12.561
    1XTA    OA636257  -1.127  25.727 -12.539
    1XTA   HL4236258  -1.147  25.986 -12.693
    1XTA   HL4336259  -1.257  25.913 -12.576
    1XTA   HL4836260  -0.919  25.774 -12.536
    1XTA   HL4936261  -1.002  25.814 -12.664
    1XTA     NT36262  -3.103  27.096 -10.200
    1XTA    CN136263  -2.985  27.110 -10.138
    1XTA     C136264  -2.910  26.994 -10.116
    1XTA     C236265  -2.781  27.004 -10.061
    1XTA     C336266  -2.733  27.128 -10.011
    1XTA     C436267  -2.812  27.246 -10.029
    1XTA     C536268  -2.933  27.230 -10.098
    1XTA    CN236269  -3.105  27.048 -10.325
    1XTA     C636270  -3.151  26.919 -10.364
    1XTA     C736271  -3.155  26.870 -10.496
    1XTA     C836272  -3.100  26.949 -10.596
    1XTA     C936273  -3.055  27.077 -10.563
    1XTA    C1036274  -3.052  27.127 -10.428
    1XTA    CN336275  -3.216  27.080 -10.138
    1XTA    C1136276  -3.307  27.189 -10.129
    1XTA    C1236277  -3.425  27.170 -10.059
    1XTA    C1336278  -3.456  27.058  -9.987
    1XTA    C1436279  -3.358  26.957  -9.980
    1XTA    C1536280  -3.243  26.966 -10.065
    1XTA     H136281  -2.938  26.893 -10.149
    1XTA     H236282  -2.725  26.911 -10.050
    1XTA     H336283  -2.780  27.348 -10.002
    1XTA     H436284  -2.996  27.315 -10.110
    1XTA     H536285  -3.177  26.847 -10.282
    1XTA     H636286  -3.195  26.776 -10.519
    1XTA     H736287  -3.023  27.148 -10.639
    1XTA     H836288  -3.029  27.229 -10.400
    1XTA     H936289  -3.290  27.277 -10.184
    1XTA    H1036290  -3.494  27.250 -10.065
    1XTA    H1136291  -3.372  26.869  -9.922
    1XTA    H1236292  -3.179  26.878 -10.060
    1XTA    OA136293  -2.605  27.128  -9.959
    1XTA    CO136294  -2.584  27.215  -9.849
    1XTA    OA236295  -3.106  26.915 -10.726
    1XTA    CO236296  -2.980  26.871 -10.778
    1XTA    CL136297  -2.923  26.756 -10.701
    1XTA    CL236298  -2.767  26.775 -10.681
    1XTA    CL336299  -2.741  26.855 -10.554
    1XTA    CL436300  -2.775  26.783 -10.421
    1XTA    CO336301  -2.688  26.661 -10.383
    1XTA    OA336302  -2.714  26.618 -10.252
    1XTA    CO436303  -2.665  26.494 -10.213
    1XTA    CT136304  -2.705  26.462 -10.072
    1XTA    CL536305  -2.643  26.567  -9.971
    1XTA    CL636306  -2.663  26.536  -9.817
    1XTA    OA436307  -3.566  27.038  -9.919
    1XTA    CO536308  -3.674  27.134  -9.923
    1XTA    HL136309  -3.648  27.236  -9.905
    1XTA    HL236310  -2.656  27.196  -9.758
    1XTA    HL336311  -2.479  27.210  -9.814
    1XTA    HL436312  -2.612  27.316  -9.878
    1XTA    HL536313  -2.987  26.839 -10.881
    1XTA    HL636314  -2.909  26.952 -10.777
    1XTA    HL736315  -2.939  26.677 -10.769
    1XTA    HL836316  -2.968  26.727 -10.611
    1XTA    HL936317  -2.719  26.820 -10.765
    1XTA   HL1036318  -2.715  26.687 -10.657
    1XTA   HL1136319  -2.637  26.886 -10.560
    1XTA   HL1236320  -2.803  26.941 -10.551
    1XTA   HL1336321  -2.881  26.764 -10.428
    1XTA   HL1436322  -2.767  26.856 -10.336
    1XTA   HL1536323  -2.695  26.581 -10.457
    1XTA   HL1636324  -2.587  26.690 -10.403
    1XTA   HL1736325  -2.706  26.421 -10.278
    1XTA   HL1836326  -2.556  26.491 -10.225
    1XTA   HL1936327  -2.686  26.661  -9.977
    1XTA   HL2036328  -2.535  26.583  -9.980
    1XTA   HL2136329  -2.637  26.627  -9.763
    1XTA   HL2236330  -2.590  26.455  -9.790
    1XTA   HL2336331  -2.763  26.497  -9.791
    1XTA   HL2436332  -3.745  27.101  -9.842
    1XTA   HL2536333  -3.729  27.118 -10.017
    1XTA    CO836334  -2.651  26.314 -10.049
    1XTA    CO936335  -2.862  26.463 -10.063
    1XTA    OA636336  -2.714  26.259  -9.934
    1XTA   HL4236337  -2.546  26.315 -10.039
    1XTA   HL4336338  -2.674  26.255 -10.135
    1XTA   HL4836339  -2.882  26.575 -10.063
    1XTA   HL4936340  -2.892  26.425  -9.967
    1XTA     NT36341  -3.450  24.949  -9.176
    1XTA    CN136342  -3.500  24.926  -9.056
    1XTA     C136343  -3.419  24.954  -8.941
    1XTA     C236344  -3.475  24.928  -8.814
    1XTA     C336345  -3.611  24.900  -8.796
    1XTA     C436346  -3.684  24.883  -8.906
    1XTA     C536347  -3.637  24.897  -9.041
    1XTA    CN236348  -3.518  25.038  -9.257
    1XTA     C636349  -3.493  25.174  -9.241
    1XTA     C736350  -3.572  25.269  -9.310
    1XTA     C836351  -3.662  25.225  -9.406
    1XTA     C936352  -3.669  25.091  -9.443
    1XTA    C1036353  -3.593  24.995  -9.368
    1XTA    CN336354  -3.356  24.863  -9.229
    1XTA    C1136355  -3.390  24.726  -9.246
    1XTA    C1236356  -3.301  24.639  -9.322
    1XTA    C1336357  -3.180  24.687  -9.376
    1XTA    C1436358  -3.146  24.816  -9.351
    1XTA    C1536359  -3.231  24.902  -9.280
    1XTA     H136360  -3.315  24.990  -8.944
    1XTA     H236361  -3.399  24.939  -8.737
    1XTA     H336362  -3.787  24.864  -8.892
    1XTA     H436363  -3.703  24.890  -9.131
    1XTA     H536364  -3.415  25.207  -9.179
    1XTA     H636365  -3.553  25.376  -9.300
    1XTA     H736366  -3.733  25.058  -9.520
    1XTA     H836367  -3.591  24.894  -9.397
    1XTA     H936368  -3.485  24.688  -9.222
    1XTA    H1036369  -3.331  24.538  -9.347
    1XTA    H1136370  -3.060  24.861  -9.400
    1XTA    H1236371  -3.199  25.009  -9.268
    1XTA    OA136372  -3.668  24.895  -8.676
    1XTA    CO136373  -3.584  24.849  -8.574
    1XTA    OA236374  -3.738  25.316  -9.463
    1XTA    CO236375  -3.872  25.275  -9.483
    1XTA    CL136376  -3.965  25.384  -9.538
    1XTA    CL236377  -3.920  25.418  -9.683
    1XTA    CL336378  -3.959  25.315  -9.795
    1XTA    CL436379  -3.929  25.359  -9.933
    1XTA    CO336380  -3.942  25.241 -10.033
    1XTA    OA336381  -3.917  25.277 -10.162
    1XTA    CO436382  -3.780  25.278 -10.207
    1XTA    CT136383  -3.758  25.311 -10.356
    1XTA    CL536384  -3.840  25.439 -10.396
    1XTA    CL636385  -3.854  25.552 -10.290
    1XTA    OA436386  -3.107  24.599  -9.449
    1XTA    CO536387  -3.009  24.655  -9.541
    1XTA    HL136388  -3.051  24.683  -9.634
    1XTA    HL236389  -3.490  24.895  -8.553
    1XTA    HL336390  -3.638  24.840  -8.483
    1XTA    HL436391  -3.556  24.747  -8.599
    1XTA    HL536392  -3.862  25.210  -9.570
    1XTA    HL636393  -3.932  25.216  -9.405
    1XTA    HL736394  -3.974  25.472  -9.474
    1XTA    HL836395  -4.062  25.336  -9.552
    1XTA    HL936396  -3.810  25.421  -9.689
    1XTA   HL1036397  -3.963  25.513  -9.708
    1XTA   HL1136398  -3.897  25.236  -9.786
    1XTA   HL1236399  -4.062  25.278  -9.784
    1XTA   HL1336400  -3.835  25.399  -9.929
    1XTA   HL1436401  -3.999  25.433  -9.974
    1XTA   HL1536402  -3.878  25.158 -10.005
    1XTA   HL1636403  -4.040  25.201 -10.033
    1XTA   HL1736404  -3.726  25.350 -10.147
    1XTA   HL1836405  -3.726  25.178 -10.188
    1XTA   HL1936406  -3.937  25.420 -10.447
    1XTA   HL2036407  -3.780  25.478 -10.479
    1XTA   HL2136408  -3.917  25.519 -10.209
    1XTA   HL2236409  -3.900  25.642 -10.332
    1XTA   HL2336410  -3.761  25.570 -10.241
    1XTA   HL2436411  -2.948  24.573  -9.571
    1XTA   HL2536412  -2.940  24.722  -9.485
    1XTA    CO836413  -3.804  25.200 -10.452
    1XTA    CO936414  -3.605  25.341 -10.388
    1XTA    OA636415  -3.743  25.114 -10.454
    1XTA   HL4236416  -3.820  25.239 -10.556
    1XTA   HL4336417  -3.909  25.170 -10.422
    1XTA   HL4836418  -3.510  25.237 -10.353
    1XTA   HL4936419  -3.589  25.337 -10.497
    1XTA     NT36420  -4.670  27.127  -7.287
    1XTA    CN136421  -4.673  27.238  -7.218
    1XTA     C136422  -4.790  27.295  -7.155
    1XTA     C236423  -4.774  27.396  -7.057
    1XTA     C336424  -4.648  27.457  -7.033
    1XTA     C436425  -4.536  27.398  -7.090
    1XTA     C536426  -4.547  27.297  -7.188
    1XTA    CN236427  -4.703  27.124  -7.419
    1XTA     C636428  -4.602  27.113  -7.510
    1XTA     C736429  -4.628  27.131  -7.646
    1XTA     C836430  -4.758  27.156  -7.696
    1XTA     C936431  -4.869  27.173  -7.602
    1XTA    C1036432  -4.840  27.151  -7.468
    1XTA    CN336433  -4.673  27.009  -7.224
    1XTA    C1136434  -4.794  26.973  -7.159
    1XTA    C1236435  -4.796  26.849  -7.091
    1XTA    C1336436  -4.683  26.765  -7.086
    1XTA    C1436437  -4.564  26.808  -7.149
    1XTA    C1536438  -4.558  26.930  -7.220
    1XTA     H136439  -4.889  27.245  -7.156
    1XTA     H236440  -4.863  27.431  -7.005
    1XTA     H336441  -4.448  27.450  -7.073
    1XTA     H436442  -4.453  27.277  -7.239
    1XTA     H536443  -4.500  27.096  -7.479
    1XTA     H636444  -4.552  27.130  -7.731
    1XTA     H736445  -4.971  27.194  -7.625
    1XTA     H836446  -4.917  27.149  -7.395
    1XTA     H936447  -4.887  27.032  -7.168
    1XTA    H1036448  -4.892  26.822  -7.032
    1XTA    H1136449  -4.475  26.751  -7.140
    1XTA    H1236450  -4.463  26.965  -7.267
    1XTA    OA136451  -4.616  27.558  -6.940
    1XTA    CO136452  -4.716  27.595  -6.837
    1XTA    OA236453  -4.766  27.170  -7.832
    1XTA    CO236454  -4.887  27.207  -7.895
    1XTA    CL136455  -4.977  27.082  -7.922
    1XTA    CL236456  -5.121  27.118  -7.969
    1XTA    CL336457  -5.204  26.992  -7.985
    1XTA    CL436458  -5.134  26.887  -8.074
    1XTA    CO336459  -5.225  26.768  -8.102
    1XTA    OA336460  -5.149  26.681  -8.175
    1XTA    CO436461  -5.237  26.580  -8.215
    1XTA    CT136462  -5.171  26.468  -8.295
    1XTA    CL536463  -5.106  26.530  -8.425
    1XTA    CL636464  -5.198  26.619  -8.504
    1XTA    OA436465  -4.682  26.637  -7.033
    1XTA    CO536466  -4.798  26.585  -6.987
    1XTA    HL136467  -4.866  26.596  -7.068
    1XTA    HL236468  -4.801  27.616  -6.892
    1XTA    HL336469  -4.747  27.509  -6.779
    1XTA    HL436470  -4.703  27.685  -6.776
    1XTA    HL536471  -4.943  27.282  -7.837
    1XTA    HL636472  -4.869  27.252  -7.997
    1XTA    HL736473  -4.967  27.015  -7.839
    1XTA    HL836474  -4.927  27.027  -7.997
    1XTA    HL936475  -5.118  27.167  -8.062
    1XTA   HL1036476  -5.168  27.194  -7.920
    1XTA   HL1136477  -5.233  26.935  -7.894
    1XTA   HL1236478  -5.301  27.023  -8.030
    1XTA   HL1336479  -5.039  26.850  -8.031
    1XTA   HL1436480  -5.107  26.947  -8.162
    1XTA   HL1536481  -5.242  26.711  -8.011
    1XTA   HL1636482  -5.320  26.795  -8.148
    1XTA   HL1736483  -5.273  26.531  -8.126
    1XTA   HL1836484  -5.312  26.623  -8.283
    1XTA   HL1936485  -5.058  26.454  -8.481
    1XTA   HL2036486  -5.031  26.599  -8.387
    1XTA   HL2136487  -5.215  26.718  -8.465
    1XTA   HL2236488  -5.292  26.573  -8.526
    1XTA   HL2336489  -5.142  26.647  -8.587
    1XTA   HL2436490  -4.837  26.642  -6.900
    1XTA   HL2536491  -4.793  26.479  -6.959
    1XTA    CO836492  -5.259  26.355  -8.331
    1XTA    CO936493  -5.053  26.406  -8.211
    1XTA    OA636494  -5.359  26.370  -8.432
    1XTA   HL4236495  -5.308  26.324  -8.247
    1XTA   HL4336496  -5.200  26.270  -8.357
    1XTA   HL4836497  -4.974  26.484  -8.207
    1XTA   HL4936498  -5.013  26.323  -8.265
    1XTA     NT36499   1.047  26.270  -6.782
    1XTA    CN136500   1.144  26.192  -6.846
    1XTA     C136501   1.132  26.057  -6.846
    1XTA     C236502   1.224  25.974  -6.908
    1XTA     C336503   1.323  26.031  -6.993
    1XTA     C436504   1.331  26.173  -7.000
    1XTA     C536505   1.243  26.252  -6.925
    1XTA    CN236506   0.922  26.246  -6.814
    1XTA     C636507   0.834  26.176  -6.730
    1XTA     C736508   0.699  26.148  -6.774
    1XTA     C836509   0.651  26.189  -6.898
    1XTA     C936510   0.744  26.248  -6.985
    1XTA    C1036511   0.876  26.289  -6.942
    1XTA    CN336512   1.082  26.365  -6.695
    1XTA    C1136513   1.135  26.332  -6.570
    1XTA    C1236514   1.202  26.434  -6.495
    1XTA    C1336515   1.187  26.568  -6.525
    1XTA    C1436516   1.107  26.596  -6.639
    1XTA    C1536517   1.056  26.495  -6.722
    1XTA     H136518   1.060  26.002  -6.783
    1XTA     H236519   1.209  25.865  -6.904
    1XTA     H336520   1.403  26.231  -7.061
    1XTA     H436521   1.248  26.353  -6.940
    1XTA     H536522   0.869  26.132  -6.641
    1XTA     H636523   0.632  26.100  -6.704
    1XTA     H736524   0.710  26.289  -7.085
    1XTA     H836525   0.936  26.348  -7.009
    1XTA     H936526   1.153  26.227  -6.543
    1XTA    H1036527   1.257  26.415  -6.412
    1XTA    H1136528   1.085  26.699  -6.650
    1XTA    H1236529   1.006  26.530  -6.811
    1XTA    OA136530   1.412  25.942  -7.049
    1XTA    CO136531   1.545  25.985  -7.065
    1XTA    OA236532   0.525  26.164  -6.939
    1XTA    CO236533   0.451  26.057  -6.875
    1XTA    CL136534   0.302  26.062  -6.918
    1XTA    CL236535   0.229  25.925  -6.884
    1XTA    CL336536   0.084  25.916  -6.940
    1XTA    CL436537   0.003  25.802  -6.888
    1XTA    CO336538   0.057  25.659  -6.908
    1XTA    OA336539  -0.038  25.572  -6.855
    1XTA    CO436540   0.003  25.444  -6.897
    1XTA    CT136541  -0.095  25.330  -6.845
    1XTA    CL536542  -0.013  25.200  -6.822
    1XTA    CL636543   0.045  25.139  -6.958
    1XTA    OA436544   1.228  26.667  -6.442
    1XTA    CO536545   1.331  26.634  -6.349
    1XTA    HL136546   1.393  26.714  -6.310
    1XTA    HL236547   1.611  25.908  -7.097
    1XTA    HL336548   1.543  26.064  -7.146
    1XTA    HL436549   1.577  26.036  -6.978
    1XTA    HL536550   0.493  25.956  -6.889
    1XTA    HL636551   0.452  26.091  -6.774
    1XTA    HL736552   0.300  26.078  -7.026
    1XTA    HL836553   0.250  26.142  -6.870
    1XTA    HL936554   0.230  25.916  -6.774
    1XTA   HL1036555   0.294  25.851  -6.921
    1XTA   HL1136556   0.037  26.021  -6.916
    1XTA   HL1236557   0.091  25.920  -7.049
    1XTA   HL1336558  -0.094  25.805  -6.934
    1XTA   HL1436559   0.000  25.813  -6.783
    1XTA   HL1536560   0.065  25.646  -7.016
    1XTA   HL1636561   0.154  25.649  -6.860
    1XTA   HL1736562   0.013  25.433  -7.001
    1XTA   HL1836563   0.101  25.427  -6.857
    1XTA   HL1936564  -0.087  25.123  -6.791
    1XTA   HL2036565   0.067  25.205  -6.744
    1XTA   HL2136566   0.107  25.048  -6.945
    1XTA   HL2236567   0.114  25.209  -7.006
    1XTA   HL2336568  -0.027  25.119  -7.039
    1XTA   HL2436569   1.405  26.570  -6.401
    1XTA   HL2536570   1.290  26.582  -6.265
    1XTA    CO836571  -0.215  25.307  -6.944
    1XTA    CO936572  -0.148  25.379  -6.711
    1XTA    OA636573  -0.276  25.399  -6.975
    1XTA   HL4236574  -0.282  25.235  -6.893
    1XTA   HL4336575  -0.175  25.264  -7.040
    1XTA   HL4836576  -0.237  25.489  -6.725
    1XTA   HL4936577  -0.071  25.419  -6.648
    1XTA     NT36578  -3.486  28.544 -10.860
    1XTA    CN136579  -3.594  28.582 -10.782
    1XTA     C136580  -3.591  28.550 -10.645
    1XTA     C236581  -3.692  28.583 -10.549
    1XTA     C336582  -3.800  28.652 -10.603
    1XTA     C436583  -3.807  28.688 -10.741
    1XTA     C536584  -3.706  28.654 -10.828
    1XTA    CN236585  -3.370  28.611 -10.863
    1XTA     C636586  -3.358  28.734 -10.936
    1XTA     C736587  -3.236  28.808 -10.931
    1XTA     C836588  -3.123  28.743 -10.867
    1XTA     C936589  -3.138  28.622 -10.796
    1XTA    C1036590  -3.262  28.559 -10.793
    1XTA    CN336591  -3.502  28.436 -10.938
    1XTA    C1136592  -3.484  28.310 -10.881
    1XTA    C1236593  -3.507  28.189 -10.953
    1XTA    C1336594  -3.553  28.194 -11.086
    1XTA    C1436595  -3.575  28.322 -11.144
    1XTA    C1536596  -3.541  28.442 -11.073
    1XTA     H136597  -3.495  28.509 -10.606
    1XTA     H236598  -3.680  28.552 -10.445
    1XTA     H336599  -3.887  28.747 -10.785
    1XTA     H436600  -3.712  28.676 -10.934
    1XTA     H536601  -3.439  28.771 -10.996
    1XTA     H636602  -3.237  28.905 -10.982
    1XTA     H736603  -3.053  28.579 -10.744
    1XTA     H836604  -3.268  28.464 -10.751
    1XTA     H936605  -3.456  28.307 -10.778
    1XTA    H1036606  -3.503  28.098 -10.909
    1XTA    H1136607  -3.605  28.323 -11.249
    1XTA    H1236608  -3.561  28.544 -11.113
    1XTA    OA136609  -3.898  28.685 -10.517
    1XTA    CO136610  -3.972  28.810 -10.542
    1XTA    OA236611  -2.998  28.797 -10.885
    1XTA    CO236612  -2.983  28.907 -10.795
    1XTA    CL136613  -2.842  28.919 -10.757
    1XTA    CL236614  -2.826  29.003 -10.639
    1XTA    CL336615  -2.678  29.046 -10.618
    1XTA    CL436616  -2.598  28.936 -10.548
    1XTA    CO336617  -2.450  28.941 -10.578
    1XTA    OA336618  -2.433  28.936 -10.716
    1XTA    CO436619  -2.292  28.945 -10.746
    1XTA    CT136620  -2.271  28.928 -10.902
    1XTA    CL536621  -2.345  29.030 -10.980
    1XTA    CL636622  -2.331  29.014 -11.127
    1XTA    OA436623  -3.588  28.083 -11.149
    1XTA    CO536624  -3.669  28.087 -11.267
    1XTA    HL136625  -3.594  28.118 -11.341
    1XTA    HL236626  -3.891  28.883 -10.566
    1XTA    HL336627  -4.040  28.808 -10.621
    1XTA    HL436628  -4.014  28.830 -10.449
    1XTA    HL536629  -3.018  29.001 -10.838
    1XTA    HL636630  -3.051  28.896 -10.710
    1XTA    HL736631  -2.793  28.954 -10.852
    1XTA    HL836632  -2.803  28.820 -10.747
    1XTA    HL936633  -2.893  28.982 -10.557
    1XTA   HL1036634  -2.878  29.090 -10.674
    1XTA   HL1136635  -2.638  29.069 -10.718
    1XTA   HL1236636  -2.665  29.136 -10.562
    1XTA   HL1336637  -2.637  28.833 -10.563
    1XTA   HL1436638  -2.608  28.949 -10.439
    1XTA   HL1536639  -2.403  29.021 -10.532
    1XTA   HL1636640  -2.401  28.848 -10.534
    1XTA   HL1736641  -2.257  29.038 -10.703
    1XTA   HL1836642  -2.245  28.859 -10.687
    1XTA   HL1936643  -2.304  29.130 -10.945
    1XTA   HL2036644  -2.448  29.034 -10.955
    1XTA   HL2136645  -2.332  28.911 -11.166
    1XTA   HL2236646  -2.223  29.055 -11.147
    1XTA   HL2336647  -2.401  29.080 -11.170
    1XTA   HL2436648  -3.761  28.146 -11.251
    1XTA   HL2536649  -3.703  27.989 -11.290
    1XTA    CO836650  -2.300  28.782 -10.933
    1XTA    CO936651  -2.113  28.955 -10.930
    1XTA    OA636652  -2.071  28.908 -11.055
    1XTA   HL4236653  -2.242  28.755 -11.016
    1XTA   HL4336654  -2.267  28.707 -10.858
    1XTA   HL4836655  -2.044  28.908 -10.857
    1XTA   HL4936656  -2.098  29.065 -10.920
    1XTA     NT36657   0.199  23.000 -11.325
    1XTA    CN136658   0.199  22.966 -11.191
    1XTA     C136659   0.200  23.064 -11.087
    1XTA     C236660   0.205  23.016 -10.959
    1XTA     C336661   0.228  22.877 -10.925
    1XTA     C436662   0.217  22.784 -11.032
    1XTA     C536663   0.198  22.827 -11.163
    1XTA    CN236664   0.106  23.079 -11.373
    1XTA     C636665   0.121  23.222 -11.375
    1XTA     C736666   0.009  23.299 -11.405
    1XTA     C836667  -0.115  23.236 -11.432
    1XTA     C936668  -0.127  23.095 -11.428
    1XTA    C1036669  -0.017  23.011 -11.398
    1XTA    CN336670   0.316  22.978 -11.393
    1XTA    C1136671   0.316  22.882 -11.499
    1XTA    C1236672   0.435  22.853 -11.570
    1XTA    C1336673   0.552  22.924 -11.545
    1XTA    C1436674   0.547  23.014 -11.440
    1XTA    C1536675   0.432  23.048 -11.371
    1XTA     H136676   0.198  23.166 -11.105
    1XTA     H236677   0.204  23.092 -10.881
    1XTA     H336678   0.214  22.678 -11.013
    1XTA     H436679   0.185  22.757 -11.241
    1XTA     H536680   0.218  23.268 -11.358
    1XTA     H636681   0.025  23.405 -11.421
    1XTA     H736682  -0.226  23.056 -11.437
    1XTA     H836683  -0.017  22.905 -11.395
    1XTA     H936684   0.216  22.838 -11.533
    1XTA    H1036685   0.435  22.782 -11.659
    1XTA    H1136686   0.643  23.062 -11.439
    1XTA    H1236687   0.436  23.128 -11.304
    1XTA    OA136688   0.236  22.837 -10.793
    1XTA    CO136689   0.239  22.936 -10.692
    1XTA    OA236690  -0.219  23.321 -11.462
    1XTA    CO236691  -0.314  23.331 -11.357
    1XTA    CL136692  -0.400  23.444 -11.386
    1XTA    CL236693  -0.534  23.449 -11.318
    1XTA    CL336694  -0.613  23.577 -11.347
    1XTA    CL436695  -0.745  23.600 -11.276
    1XTA    CO336696  -0.797  23.748 -11.268
    1XTA    OA336697  -0.938  23.750 -11.248
    1XTA    CO436698  -0.993  23.707 -11.124
    1XTA    CT136699  -1.148  23.741 -11.124
    1XTA    CL536700  -1.166  23.895 -11.098
    1XTA    CL636701  -1.305  23.950 -11.126
    1XTA    OA436702   0.669  22.912 -11.614
    1XTA    CO536703   0.666  22.845 -11.746
    1XTA    HL136704   0.633  22.740 -11.734
    1XTA    HL236705   0.233  22.871 -10.602
    1XTA    HL336706   0.328  22.995 -10.674
    1XTA    HL436707   0.148  22.991 -10.695
    1XTA    HL536708  -0.372  23.238 -11.360
    1XTA    HL636709  -0.261  23.343 -11.262
    1XTA    HL736710  -0.414  23.435 -11.493
    1XTA    HL836711  -0.340  23.535 -11.382
    1XTA    HL936712  -0.521  23.447 -11.212
    1XTA   HL1036713  -0.587  23.356 -11.339
    1XTA   HL1136714  -0.563  23.665 -11.327
    1XTA   HL1236715  -0.613  23.578 -11.457
    1XTA   HL1336716  -0.728  23.558 -11.181
    1XTA   HL1436717  -0.825  23.552 -11.329
    1XTA   HL1536718  -0.737  23.806 -11.194
    1XTA   HL1636719  -0.772  23.790 -11.366
    1XTA   HL1736720  -0.974  23.601 -11.105
    1XTA   HL1836721  -0.939  23.771 -11.048
    1XTA   HL1936722  -1.090  23.957 -11.142
    1XTA   HL2036723  -1.150  23.909 -10.991
    1XTA   HL2136724  -1.313  24.056 -11.113
    1XTA   HL2236725  -1.382  23.904 -11.060
    1XTA   HL2336726  -1.334  23.932 -11.228
    1XTA   HL2436727   0.768  22.852 -11.777
    1XTA   HL2536728   0.599  22.901 -11.810
    1XTA    CO836729  -1.219  23.660 -11.013
    1XTA    CO936730  -1.201  23.695 -11.255
    1XTA    OA636731  -1.342  23.668 -11.234
    1XTA   HL4236732  -1.318  23.702 -11.001
    1XTA   HL4336733  -1.224  23.557 -11.036
    1XTA   HL4836734  -1.161  23.598 -11.297
    1XTA   HL4936735  -1.187  23.771 -11.335
    1XTA     NT36736  -5.727  23.499  -6.815
    1XTA    CN136737  -5.751  23.605  -6.735
    1XTA     C136738  -5.782  23.729  -6.787
    1XTA     C236739  -5.805  23.840  -6.705
    1XTA     C336740  -5.810  23.815  -6.567
    1XTA     C436741  -5.797  23.689  -6.513
    1XTA     C536742  -5.761  23.584  -6.597
    1XTA    CN236743  -5.609  23.498  -6.887
    1XTA     C636744  -5.601  23.541  -7.023
    1XTA     C736745  -5.469  23.539  -7.080
    1XTA     C836746  -5.350  23.510  -7.008
    1XTA     C936747  -5.368  23.457  -6.880
    1XTA    C1036748  -5.496  23.455  -6.822
    1XTA    CN336749  -5.809  23.395  -6.804
    1XTA    C1136750  -5.953  23.409  -6.827
    1XTA    C1236751  -6.035  23.298  -6.824
    1XTA    C1336752  -5.989  23.170  -6.781
    1XTA    C1436753  -5.858  23.158  -6.750
    1XTA    C1536754  -5.766  23.267  -6.764
    1XTA     H136755  -5.788  23.735  -6.895
    1XTA     H236756  -5.834  23.939  -6.746
    1XTA     H336757  -5.805  23.672  -6.407
    1XTA     H436758  -5.768  23.484  -6.567
    1XTA     H536759  -5.690  23.567  -7.086
    1XTA     H636760  -5.464  23.566  -7.183
    1XTA     H736761  -5.277  23.431  -6.829
    1XTA     H836762  -5.499  23.424  -6.717
    1XTA     H936763  -5.987  23.506  -6.858
    1XTA    H1036764  -6.142  23.316  -6.839
    1XTA    H1136765  -5.827  23.074  -6.691
    1XTA    H1236766  -5.668  23.261  -6.729
    1XTA    OA136767  -5.818  23.916  -6.472
    1XTA    CO136768  -5.873  24.035  -6.521
    1XTA    OA236769  -5.226  23.519  -7.073
    1XTA    CO236770  -5.124  23.438  -7.017
    1XTA    CL136771  -5.000  23.459  -7.104
    1XTA    CL236772  -4.957  23.605  -7.100
    1XTA    CL336773  -4.845  23.620  -7.208
    1XTA    CL436774  -4.814  23.765  -7.236
    1XTA    CO336775  -4.743  23.832  -7.117
    1XTA    OA336776  -4.836  23.878  -7.018
    1XTA    CO436777  -4.794  23.919  -6.889
    1XTA    CT136778  -4.905  23.981  -6.799
    1XTA    CL536779  -4.964  24.108  -6.858
    1XTA    CL636780  -4.857  24.217  -6.863
    1XTA    OA436781  -6.067  23.060  -6.770
    1XTA    CO536782  -6.206  23.088  -6.779
    1XTA    HL136783  -6.242  23.169  -6.717
    1XTA    HL236784  -5.967  24.014  -6.563
    1XTA    HL336785  -5.876  24.110  -6.442
    1XTA    HL436786  -5.820  24.089  -6.604
    1XTA    HL536787  -5.106  23.473  -6.919
    1XTA    HL636788  -5.157  23.332  -7.007
    1XTA    HL736789  -5.018  23.420  -7.206
    1XTA    HL836790  -4.914  23.398  -7.081
    1XTA    HL936791  -4.926  23.636  -6.999
    1XTA   HL1036792  -5.041  23.669  -7.119
    1XTA   HL1136793  -4.751  23.563  -7.174
    1XTA   HL1236794  -4.874  23.566  -7.301
    1XTA   HL1336795  -4.900  23.819  -7.268
    1XTA   HL1436796  -4.743  23.751  -7.321
    1XTA   HL1536797  -4.670  23.757  -7.078
    1XTA   HL1636798  -4.677  23.916  -7.159
    1XTA   HL1736799  -4.749  23.832  -6.834
    1XTA   HL1836800  -4.722  23.994  -6.895
    1XTA   HL1936801  -5.057  24.137  -6.815
    1XTA   HL2036802  -5.002  24.084  -6.959
    1XTA   HL2136803  -4.894  24.320  -6.876
    1XTA   HL2236804  -4.782  24.199  -6.940
    1XTA   HL2336805  -4.804  24.227  -6.768
    1XTA   HL2436806  -6.264  22.997  -6.761
    1XTA   HL2536807  -6.241  23.115  -6.874
    1XTA    CO836808  -4.862  23.988  -6.646
    1XTA    CO936809  -5.026  23.883  -6.798
    1XTA    OA636810  -5.137  23.920  -6.718
    1XTA   HL4236811  -4.930  24.065  -6.601
    1XTA   HL4336812  -4.764  24.036  -6.636
    1XTA   HL4836813  -4.983  23.784  -6.761
    1XTA   HL4936814  -5.060  23.873  -6.905
    1XTA     NT36815  -3.070  29.064 -11.771
    1XTA    CN136816  -2.980  29.010 -11.686
    1XTA     C136817  -3.019  28.965 -11.558
    1XTA     C236818  -2.933  28.898 -11.471
    1XTA     C336819  -2.799  28.875 -11.516
    1XTA     C436820  -2.760  28.905 -11.647
    1XTA     C536821  -2.849  28.974 -11.731
    1XTA    CN236822  -3.138  28.988 -11.860
    1XTA     C636823  -3.271  28.988 -11.866
    1XTA     C736824  -3.344  28.925 -11.967
    1XTA     C836825  -3.273  28.840 -12.058
    1XTA     C936826  -3.131  28.837 -12.052
    1XTA    C1036827  -3.063  28.917 -11.957
    1XTA    CN336828  -3.081  29.194 -11.770
    1XTA    C1136829  -2.991  29.277 -11.843
    1XTA    C1236830  -3.016  29.416 -11.848
    1XTA    C1336831  -3.134  29.468 -11.792
    1XTA    C1436832  -3.220  29.389 -11.716
    1XTA    C1536833  -3.192  29.254 -11.705
    1XTA     H136834  -3.121  28.984 -11.528
    1XTA     H236835  -2.964  28.866 -11.376
    1XTA     H336836  -2.667  28.865 -11.684
    1XTA     H436837  -2.804  28.994 -11.828
    1XTA     H536838  -3.329  29.050 -11.798
    1XTA     H636839  -3.448  28.918 -11.964
    1XTA     H736840  -3.076  28.771 -12.117
    1XTA     H836841  -2.955  28.902 -11.960
    1XTA     H936842  -2.898  29.232 -11.886
    1XTA    H1036843  -2.954  29.479 -11.913
    1XTA    H1136844  -3.314  29.427 -11.667
    1XTA    H1236845  -3.255  29.187 -11.645
    1XTA    OA136846  -2.713  28.815 -11.428
    1XTA    CO136847  -2.575  28.785 -11.471
    1XTA    OA236848  -3.327  28.753 -12.147
    1XTA    CO236849  -3.443  28.680 -12.100
    1XTA    CL136850  -3.402  28.541 -12.042
    1XTA    CL236851  -3.321  28.453 -12.140
    1XTA    CL336852  -3.379  28.422 -12.275
    1XTA    CL436853  -3.508  28.336 -12.266
    1XTA    CO336854  -3.596  28.349 -12.390
    1XTA    OA336855  -3.715  28.273 -12.373
    1XTA    CO436856  -3.799  28.272 -12.487
    1XTA    CT136857  -3.848  28.140 -12.523
    1XTA    CL536858  -3.920  28.144 -12.659
    1XTA    CL636859  -3.826  28.190 -12.779
    1XTA    OA436860  -3.160  29.598 -11.824
    1XTA    CO536861  -3.263  29.666 -11.745
    1XTA    HL136862  -3.231  29.690 -11.645
    1XTA    HL236863  -2.527  28.707 -11.405
    1XTA    HL336864  -2.572  28.722 -11.557
    1XTA    HL436865  -2.509  28.871 -11.500
    1XTA    HL536866  -3.518  28.727 -12.036
    1XTA    HL636867  -3.513  28.664 -12.185
    1XTA    HL736868  -3.484  28.489 -11.998
    1XTA    HL836869  -3.334  28.563 -11.962
    1XTA    HL936870  -3.296  28.366 -12.089
    1XTA   HL1036871  -3.227  28.502 -12.167
    1XTA   HL1136872  -3.402  28.520 -12.326
    1XTA   HL1236873  -3.307  28.378 -12.342
    1XTA   HL1336874  -3.550  28.371 -12.176
    1XTA   HL1436875  -3.484  28.234 -12.245
    1XTA   HL1536876  -3.619  28.456 -12.387
    1XTA   HL1636877  -3.547  28.320 -12.486
    1XTA   HL1736878  -3.876  28.349 -12.480
    1XTA   HL1836879  -3.733  28.308 -12.557
    1XTA   HL1936880  -4.004  28.215 -12.651
    1XTA   HL2036881  -3.949  28.044 -12.681
    1XTA   HL2136882  -3.731  28.135 -12.789
    1XTA   HL2236883  -3.804  28.298 -12.777
    1XTA   HL2336884  -3.884  28.189 -12.874
    1XTA   HL2436885  -3.362  29.623 -11.759
    1XTA   HL2536886  -3.283  29.763 -11.813
    1XTA    CO836887  -3.943  28.082 -12.425
    1XTA    CO936888  -3.729  28.043 -12.543
    1XTA    OA636889  -3.703  28.010 -12.448
    1XTA   HL4236890  -3.895  28.082 -12.321
    1XTA   HL4336891  -3.953  27.949 -12.449
    1XTA   HL4836892  -3.649  28.095 -12.596
    1XTA   HL4936893  -3.756  27.950 -12.588
    1XTA     NT36894  -7.002  28.174  -8.412
    1XTA    CN136895  -6.976  28.253  -8.517
    1XTA     C136896  -6.844  28.251  -8.559
    1XTA     C236897  -6.798  28.346  -8.657
    1XTA     C336898  -6.893  28.432  -8.721
    1XTA     C436899  -7.027  28.433  -8.672
    1XTA     C536900  -7.066  28.351  -8.566
    1XTA    CN236901  -7.019  28.045  -8.437
    1XTA     C636902  -6.917  27.951  -8.417
    1XTA     C736903  -6.935  27.815  -8.454
    1XTA     C836904  -7.057  27.773  -8.502
    1XTA     C936905  -7.167  27.864  -8.515
    1XTA    C1036906  -7.143  28.000  -8.488
    1XTA    CN336907  -7.015  28.225  -8.280
    1XTA    C1136908  -6.904  28.293  -8.228
    1XTA    C1236909  -6.921  28.366  -8.106
    1XTA    C1336910  -7.044  28.370  -8.050
    1XTA    C1436911  -7.153  28.297  -8.106
    1XTA    C1536912  -7.137  28.223  -8.219
    1XTA     H136913  -6.771  28.184  -8.527
    1XTA     H236914  -6.688  28.335  -8.679
    1XTA     H336915  -7.103  28.493  -8.717
    1XTA     H436916  -7.164  28.371  -8.523
    1XTA     H536917  -6.823  27.988  -8.385
    1XTA     H636918  -6.855  27.736  -8.469
    1XTA     H736919  -7.259  27.827  -8.544
    1XTA     H836920  -7.223  28.075  -8.494
    1XTA     H936921  -6.807  28.283  -8.272
    1XTA    H1036922  -6.843  28.430  -8.062
    1XTA    H1136923  -7.250  28.302  -8.051
    1XTA    H1236924  -7.222  28.179  -8.261
    1XTA    OA136925  -6.849  28.527  -8.807
    1XTA    CO136926  -6.939  28.560  -8.907
    1XTA    OA236927  -7.068  27.646  -8.542
    1XTA    CO236928  -7.163  27.611  -8.646
    1XTA    CL136929  -7.139  27.492  -8.729
    1XTA    CL236930  -7.018  27.518  -8.827
    1XTA    CL336931  -6.984  27.399  -8.917
    1XTA    CL436932  -6.950  27.272  -8.830
    1XTA    CO336933  -6.871  27.172  -8.920
    1XTA    OA336934  -6.857  27.049  -8.850
    1XTA    CO436935  -6.980  26.968  -8.861
    1XTA    CT136936  -6.958  26.823  -8.807
    1XTA    CL536937  -7.081  26.739  -8.850
    1XTA    CL636938  -7.117  26.728  -8.994
    1XTA    OA436939  -7.071  28.432  -7.927
    1XTA    CO536940  -6.965  28.481  -7.850
    1XTA    HL136941  -7.001  28.513  -7.752
    1XTA    HL236942  -6.902  28.649  -8.953
    1XTA    HL336943  -6.946  28.482  -8.976
    1XTA    HL436944  -7.037  28.588  -8.875
    1XTA    HL536945  -7.259  27.596  -8.602
    1XTA    HL636946  -7.171  27.695  -8.719
    1XTA    HL736947  -7.227  27.472  -8.794
    1XTA    HL836948  -7.130  27.407  -8.671
    1XTA    HL936949  -6.932  27.558  -8.773
    1XTA   HL1036950  -7.046  27.604  -8.893
    1XTA   HL1136951  -7.072  27.380  -8.974
    1XTA   HL1236952  -6.907  27.433  -8.985
    1XTA   HL1336953  -7.039  27.228  -8.784
    1XTA   HL1436954  -6.885  27.309  -8.755
    1XTA   HL1536955  -6.924  27.161  -9.012
    1XTA   HL1636956  -6.770  27.216  -8.939
    1XTA   HL1736957  -7.062  27.023  -8.813
    1XTA   HL1836958  -7.006  26.964  -8.973
    1XTA   HL1936959  -7.165  26.782  -8.795
    1XTA   HL2036960  -7.088  26.635  -8.810
    1XTA   HL2136961  -7.211  26.668  -9.007
    1XTA   HL2236962  -7.034  26.683  -9.053
    1XTA   HL2336963  -7.141  26.828  -9.035
    1XTA   HL2436964  -6.909  28.574  -7.887
    1XTA   HL2536965  -6.885  28.406  -7.829
    1XTA    CO836966  -6.943  26.813  -8.657
    1XTA    CO936967  -6.828  26.769  -8.873
    1XTA    OA636968  -6.937  26.681  -8.606
    1XTA   HL4236969  -7.021  26.871  -8.606
    1XTA   HL4336970  -6.861  26.878  -8.625
    1XTA   HL4836971  -6.847  26.663  -8.875
    1XTA   HL4936972  -6.813  26.820  -8.966
    1XTA     NT36973  -2.812  27.291  -8.536
    1XTA    CN136974  -2.798  27.372  -8.646
    1XTA     C136975  -2.670  27.404  -8.678
    1XTA     C236976  -2.646  27.483  -8.793
    1XTA     C336977  -2.750  27.527  -8.879
    1XTA     C436978  -2.881  27.472  -8.852
    1XTA     C536979  -2.906  27.398  -8.732
    1XTA    CN236980  -2.776  27.161  -8.542
    1XTA     C636981  -2.863  27.068  -8.600
    1XTA     C736982  -2.837  26.928  -8.607
    1XTA     C836983  -2.718  26.879  -8.549
    1XTA     C936984  -2.630  26.968  -8.477
    1XTA    C1036985  -2.658  27.110  -8.484
    1XTA    CN336986  -2.890  27.339  -8.434
    1XTA    C1136987  -2.850  27.458  -8.370
    1XTA    C1236988  -2.924  27.504  -8.261
    1XTA    C1336989  -3.047  27.439  -8.225
    1XTA    C1436990  -3.089  27.323  -8.295
    1XTA    C1536991  -3.009  27.280  -8.401
    1XTA     H136992  -2.591  27.373  -8.623
    1XTA     H236993  -2.547  27.514  -8.816
    1XTA     H336994  -2.957  27.510  -8.913
    1XTA     H436995  -3.002  27.379  -8.701
    1XTA     H536996  -2.953  27.095  -8.653
    1XTA     H636997  -2.914  26.866  -8.650
    1XTA     H736998  -2.543  26.928  -8.432
    1XTA     H836999  -2.592  27.178  -8.428
    1XTA     H937000  -2.756  27.508  -8.401
    1XTA    H1037001  -2.876  27.586  -8.208
    1XTA    H1137002  -3.180  27.273  -8.266
    1XTA    H1237003  -3.033  27.200  -8.464
    1XTA    OA137004  -2.721  27.587  -8.996
    1XTA    CO137005  -2.826  27.647  -9.070
    1XTA    OA237006  -2.699  26.746  -8.527
    1XTA    CO237007  -2.799  26.661  -8.563
    1XTA    CL137008  -2.737  26.526  -8.522
    1XTA    CL237009  -2.851  26.432  -8.487
    1XTA    CL337010  -2.796  26.305  -8.421
    1XTA    CL437011  -2.879  26.274  -8.294
    1XTA    CO337012  -3.029  26.236  -8.312
    1XTA    OA337013  -3.073  26.226  -8.179
    1XTA    CO437014  -3.196  26.157  -8.171
    1XTA    CT137015  -3.157  26.031  -8.092
    1XTA    CL537016  -3.075  26.068  -7.962
    1XTA    CL637017  -3.151  26.127  -7.838
    1XTA    OA437018  -3.128  27.488  -8.125
    1XTA    CO537019  -3.070  27.597  -8.055
    1XTA    HL137020  -2.968  27.579  -8.025
    1XTA    HL237021  -2.901  27.576  -9.107
    1XTA    HL337022  -2.869  27.737  -9.020
    1XTA    HL437023  -2.785  27.674  -9.165
    1XTA    HL537024  -2.892  26.687  -8.511
    1XTA    HL637025  -2.818  26.672  -8.669
    1XTA    HL737026  -2.681  26.539  -8.431
    1XTA    HL837027  -2.670  26.508  -8.604
    1XTA    HL937028  -2.898  26.390  -8.581
    1XTA   HL1037029  -2.936  26.481  -8.434
    1XTA   HL1137030  -2.791  26.216  -8.481
    1XTA   HL1237031  -2.694  26.321  -8.370
    1XTA   HL1337032  -2.874  26.358  -8.227
    1XTA   HL1437033  -2.834  26.188  -8.240
    1XTA   HL1537034  -3.090  26.317  -8.355
    1XTA   HL1637035  -3.039  26.147  -8.367
    1XTA   HL1737036  -3.263  26.226  -8.117
    1XTA   HL1837037  -3.247  26.138  -8.268
    1XTA   HL1937038  -2.980  26.124  -7.995
    1XTA   HL2037039  -3.022  25.978  -7.939
    1XTA   HL2137040  -3.082  26.151  -7.762
    1XTA   HL2237041  -3.214  26.048  -7.798
    1XTA   HL2337042  -3.200  26.223  -7.866
    1XTA   HL2437043  -3.134  27.623  -7.972
    1XTA   HL2537044  -3.087  27.684  -8.112
    1XTA    CO837045  -3.079  25.927  -8.179
    1XTA    CO937046  -3.293  25.965  -8.056
    1XTA    OA637047  -3.266  25.838  -7.991
    1XTA   HL4237048  -2.972  25.927  -8.157
    1XTA   HL4337049  -3.095  25.838  -8.131
    1XTA   HL4837050  -3.353  25.959  -8.142
    1XTA   HL4937051  -3.353  26.028  -7.989
    1XTA     NT37052  -3.995  26.607 -11.281
    1XTA    CN137053  -3.968  26.735 -11.253
    1XTA     C137054  -3.991  26.835 -11.349
    1XTA     C237055  -3.964  26.969 -11.329
    1XTA     C337056  -3.910  27.016 -11.207
    1XTA     C437057  -3.881  26.919 -11.111
    1XTA     C537058  -3.909  26.781 -11.132
    1XTA    CN237059  -3.924  26.550 -11.378
    1XTA     C637060  -3.978  26.497 -11.494
    1XTA     C737061  -3.893  26.449 -11.594
    1XTA     C837062  -3.753  26.452 -11.577
    1XTA     C937063  -3.700  26.493 -11.455
    1XTA    C1037064  -3.787  26.553 -11.361
    1XTA    CN337065  -4.108  26.546 -11.245
    1XTA    C1137066  -4.228  26.612 -11.272
    1XTA    C1237067  -4.353  26.552 -11.246
    1XTA    C1337068  -4.360  26.420 -11.204
    1XTA    C1437069  -4.236  26.357 -11.173
    1XTA    C1537070  -4.113  26.421 -11.195
    1XTA     H137071  -4.029  26.807 -11.448
    1XTA     H237072  -3.990  27.034 -11.410
    1XTA     H337073  -3.845  26.950 -11.014
    1XTA     H437074  -3.883  26.708 -11.053
    1XTA     H537075  -4.088  26.505 -11.505
    1XTA     H637076  -3.945  26.400 -11.682
    1XTA     H737077  -3.594  26.481 -11.435
    1XTA     H837078  -3.749  26.604 -11.277
    1XTA     H937079  -4.234  26.718 -11.303
    1XTA    H1037080  -4.445  26.607 -11.265
    1XTA    H1137081  -4.226  26.259 -11.132
    1XTA    H1237082  -4.018  26.370 -11.176
    1XTA    OA137083  -3.906  27.157 -11.173
    1XTA    CO137084  -3.847  27.198 -11.047
    1XTA    OA237085  -3.668  26.399 -11.676
    1XTA    CO237086  -3.716  26.368 -11.809
    1XTA    CL137087  -3.758  26.217 -11.809
    1XTA    CL237088  -3.644  26.118 -11.817
    1XTA    CL337089  -3.548  26.131 -11.701
    1XTA    CL437090  -3.447  26.018 -11.705
    1XTA    CO337091  -3.374  26.002 -11.574
    1XTA    OA337092  -3.278  26.103 -11.549
    1XTA    CO437093  -3.331  26.209 -11.474
    1XTA    CT137094  -3.230  26.319 -11.433
    1XTA    CL537095  -3.136  26.249 -11.332
    1XTA    CL637096  -3.015  26.326 -11.280
    1XTA    OA437097  -4.486  26.357 -11.184
    1XTA    CO537098  -4.483  26.248 -11.092
    1XTA    HL137099  -4.584  26.203 -11.099
    1XTA    HL237100  -3.867  27.304 -11.024
    1XTA    HL337101  -3.893  27.144 -10.964
    1XTA    HL437102  -3.746  27.180 -11.039
    1XTA    HL537103  -3.796  26.433 -11.826
    1XTA    HL637104  -3.648  26.389 -11.886
    1XTA    HL737105  -3.818  26.207 -11.897
    1XTA    HL837106  -3.813  26.197 -11.720
    1XTA    HL937107  -3.603  26.117 -11.917
    1XTA   HL1037108  -3.697  26.025 -11.826
    1XTA   HL1137109  -3.496  26.228 -11.709
    1XTA   HL1237110  -3.589  26.130 -11.602
    1XTA   HL1337111  -3.377  26.025 -11.791
    1XTA   HL1437112  -3.498  25.928 -11.714
    1XTA   HL1537113  -3.443  25.978 -11.491
    1XTA   HL1637114  -3.318  25.910 -11.587
    1XTA   HL1737115  -3.412  26.255 -11.518
    1XTA   HL1837116  -3.383  26.169 -11.384
    1XTA   HL1937117  -3.088  26.163 -11.366
    1XTA   HL2037118  -3.195  26.216 -11.249
    1XTA   HL2137119  -3.042  26.418 -11.228
    1XTA   HL2237120  -2.950  26.349 -11.369
    1XTA   HL2337121  -2.957  26.262 -11.216
    1XTA   HL2437122  -4.449  26.286 -10.998
    1XTA   HL2537123  -4.406  26.174 -11.128
    1XTA    CO837124  -3.306  26.443 -11.375
    1XTA    CO937125  -3.158  26.382 -11.554
    1XTA    OA637126  -3.371  26.399 -11.256
    1XTA   HL4237127  -3.376  26.472 -11.453
    1XTA   HL4337128  -3.240  26.524 -11.349
    1XTA   HL4837129  -3.090  26.303 -11.579
    1XTA   HL4937130  -3.108  26.461 -11.505
    1XTA     NT37131  -2.811  27.561 -10.616
    1XTA    CN137132  -2.812  27.492 -10.731
    1XTA     C137133  -2.906  27.389 -10.749
    1XTA     C237134  -2.923  27.329 -10.880
    1XTA     C337135  -2.831  27.349 -10.984
    1XTA     C437136  -2.724  27.446 -10.957
    1XTA     C537137  -2.715  27.516 -10.834
    1XTA    CN237138  -2.716  27.529 -10.527
    1XTA     C637139  -2.700  27.401 -10.470
    1XTA     C737140  -2.601  27.371 -10.378
    1XTA     C837141  -2.513  27.472 -10.329
    1XTA     C937142  -2.524  27.606 -10.382
    1XTA    C1037143  -2.620  27.632 -10.481
    1XTA    CN337144  -2.897  27.659 -10.587
    1XTA    C1137145  -2.979  27.642 -10.472
    1XTA    C1237146  -3.067  27.741 -10.437
    1XTA    C1337147  -3.086  27.852 -10.522
    1XTA    C1437148  -3.012  27.872 -10.641
    1XTA    C1537149  -2.918  27.770 -10.676
    1XTA     H137150  -2.977  27.372 -10.664
    1XTA     H237151  -2.996  27.251 -10.900
    1XTA     H337152  -2.640  27.462 -11.024
    1XTA     H437153  -2.637  27.595 -10.822
    1XTA     H537154  -2.757  27.318 -10.493
    1XTA     H637155  -2.592  27.269 -10.342
    1XTA     H737156  -2.463  27.683 -10.337
    1XTA     H837157  -2.631  27.740 -10.517
    1XTA     H937158  -2.976  27.551 -10.407
    1XTA    H1037159  -3.130  27.713 -10.354
    1XTA    H1137160  -3.017  27.958 -10.704
    1XTA    H1237161  -2.871  27.776 -10.772
    1XTA    OA137162  -2.846  27.286 -11.104
    1XTA    CO137163  -2.755  27.321 -11.204
    1XTA    OA237164  -2.421  27.450 -10.228
    1XTA    CO237165  -2.431  27.347 -10.136
    1XTA    CL137166  -2.316  27.374 -10.034
    1XTA    CL237167  -2.182  27.366 -10.111
    1XTA    CL337168  -2.069  27.301 -10.020
    1XTA    CL437169  -1.942  27.237 -10.094
    1XTA    CO337170  -1.959  27.102 -10.171
    1XTA    OA337171  -2.079  27.044 -10.122
    1XTA    CO437172  -2.058  26.941 -10.026
    1XTA    CT137173  -2.195  26.873 -10.003
    1XTA    CL537174  -2.289  26.979  -9.936
    1XTA    CL637175  -2.264  27.000  -9.786
    1XTA    OA437176  -3.159  27.961 -10.482
    1XTA    CO537177  -3.198  27.960 -10.346
    1XTA    HL137178  -3.289  27.905 -10.345
    1XTA    HL237179  -2.746  27.429 -11.228
    1XTA    HL337180  -2.659  27.287 -11.167
    1XTA    HL437181  -2.768  27.265 -11.297
    1XTA    HL537182  -2.533  27.357 -10.083
    1XTA    HL637183  -2.429  27.251 -10.193
    1XTA    HL737184  -2.337  27.309  -9.948
    1XTA    HL837185  -2.325  27.466  -9.985
    1XTA    HL937186  -2.151  27.466 -10.147
    1XTA   HL1037187  -2.203  27.302 -10.195
    1XTA   HL1137188  -2.037  27.380  -9.950
    1XTA   HL1237189  -2.118  27.218  -9.966
    1XTA   HL1337190  -1.850  27.245 -10.039
    1XTA   HL1437191  -1.941  27.305 -10.176
    1XTA   HL1537192  -1.968  27.111 -10.280
    1XTA   HL1637193  -1.871  27.030 -10.155
    1XTA   HL1737194  -1.986  26.868 -10.074
    1XTA   HL1837195  -2.012  26.973  -9.932
    1XTA   HL1937196  -2.391  26.946  -9.943
    1XTA   HL2037197  -2.288  27.077  -9.991
    1XTA   HL2137198  -2.266  26.906  -9.733
    1XTA   HL2237199  -2.338  27.059  -9.729
    1XTA   HL2337200  -2.169  27.042  -9.756
    1XTA   HL2437201  -3.200  28.061 -10.296
    1XTA   HL2537202  -3.118  27.920 -10.281
    1XTA    CO837203  -2.182  26.741  -9.918
    1XTA    CO937204  -2.273  26.827 -10.132
    1XTA    OA637205  -2.311  26.912 -10.205
    1XTA   HL4237206  -2.180  26.659  -9.995
    1XTA   HL4337207  -2.300  26.724  -9.835
    1XTA   HL4837208  -2.363  26.778 -10.105
    1XTA   HL4937209  -2.208  26.766 -10.194
    1XTA     NT37210  -3.011  25.287  -9.367
    1XTA    CN137211  -3.022  25.224  -9.247
    1XTA     C137212  -2.912  25.141  -9.212
    1XTA     C237213  -2.920  25.074  -9.088
    1XTA     C337214  -3.033  25.082  -9.007
    1XTA     C437215  -3.132  25.179  -9.036
    1XTA     C537216  -3.131  25.247  -9.157
    1XTA    CN237217  -2.903  25.361  -9.395
    1XTA     C637218  -2.843  25.349  -9.527
    1XTA     C737219  -2.728  25.424  -9.556
    1XTA     C837220  -2.671  25.506  -9.457
    1XTA     C937221  -2.731  25.527  -9.336
    1XTA    C1037222  -2.846  25.456  -9.304
    1XTA    CN337223  -3.115  25.267  -9.449
    1XTA    C1137224  -3.211  25.372  -9.456
    1XTA    C1237225  -3.317  25.365  -9.544
    1XTA    C1337226  -3.346  25.241  -9.611
    1XTA    C1437227  -3.253  25.136  -9.596
    1XTA    C1537228  -3.132  25.153  -9.526
    1XTA     H137229  -2.830  25.141  -9.282
    1XTA     H237230  -2.841  25.006  -9.060
    1XTA     H337231  -3.211  25.190  -8.961
    1XTA     H437232  -3.211  25.320  -9.176
    1XTA     H537233  -2.885  25.276  -9.593
    1XTA     H637234  -2.679  25.418  -9.654
    1XTA     H737235  -2.689  25.590  -9.262
    1XTA     H837236  -2.889  25.461  -9.198
    1XTA     H937237  -3.194  25.451  -9.388
    1XTA    H1037238  -3.372  25.457  -9.560
    1XTA    H1137239  -3.276  25.051  -9.657
    1XTA    H1237240  -3.065  25.072  -9.506
    1XTA    OA137241  -3.049  25.007  -8.897
    1XTA    CO137242  -3.013  24.865  -8.916
    1XTA    OA237243  -2.555  25.570  -9.489
    1XTA    CO237244  -2.504  25.654  -9.387
    1XTA    CL137245  -2.351  25.660  -9.418
    1XTA    CL237246  -2.277  25.527  -9.368
    1XTA    CL337247  -2.136  25.519  -9.427
    1XTA    CL437248  -2.052  25.425  -9.344
    1XTA    CO337249  -1.960  25.341  -9.436
    1XTA    OA337250  -1.879  25.254  -9.358
    1XTA    CO437251  -1.753  25.231  -9.414
    1XTA    CT137252  -1.689  25.104  -9.351
    1XTA    CL537253  -1.684  25.122  -9.193
    1XTA    CL637254  -1.618  25.248  -9.146
    1XTA    OA437255  -3.453  25.217  -9.696
    1XTA    CO537256  -3.520  25.330  -9.744
    1XTA    HL137257  -3.550  25.385  -9.656
    1XTA    HL237258  -3.052  24.818  -8.829
    1XTA    HL337259  -3.059  24.826  -9.011
    1XTA    HL437260  -2.909  24.853  -8.909
    1XTA    HL537261  -2.544  25.750  -9.398
    1XTA    HL637262  -2.521  25.644  -9.283
    1XTA    HL737263  -2.302  25.744  -9.379
    1XTA    HL837264  -2.346  25.675  -9.528
    1XTA    HL937265  -2.333  25.438  -9.400
    1XTA   HL1037266  -2.281  25.527  -9.262
    1XTA   HL1137267  -2.151  25.487  -9.535
    1XTA   HL1237268  -2.087  25.614  -9.429
    1XTA   HL1337269  -2.112  25.360  -9.282
    1XTA   HL1437270  -1.987  25.478  -9.276
    1XTA   HL1537271  -2.016  25.274  -9.495
    1XTA   HL1637272  -1.919  25.407  -9.508
    1XTA   HL1737273  -1.767  25.205  -9.524
    1XTA   HL1837274  -1.692  25.325  -9.393
    1XTA   HL1937275  -1.631  25.040  -9.152
    1XTA   HL2037276  -1.790  25.128  -9.153
    1XTA   HL2137277  -1.507  25.247  -9.157
    1XTA   HL2237278  -1.644  25.277  -9.044
    1XTA   HL2337279  -1.661  25.332  -9.199
    1XTA   HL2437280  -3.604  25.305  -9.810
    1XTA   HL2537281  -3.460  25.396  -9.804
    1XTA    CO837282  -1.551  25.064  -9.409
    1XTA    CO937283  -1.782  24.986  -9.382
    1XTA    OA637284  -1.483  25.151  -9.405
    1XTA   HL4237285  -1.571  25.037  -9.510
    1XTA   HL4337286  -1.509  24.982  -9.355
    1XTA   HL4837287  -1.798  24.963  -9.521
    1XTA   HL4937288  -1.741  24.898  -9.338
    1XTA     NT37289  -0.952  23.958  -8.917
    1XTA    CN137290  -0.839  23.942  -8.847
    1XTA     C137291  -0.710  23.961  -8.905
    1XTA     C237292  -0.596  23.946  -8.827
    1XTA     C337293  -0.599  23.901  -8.689
    1XTA     C437294  -0.733  23.882  -8.640
    1XTA     C537295  -0.848  23.905  -8.713
    1XTA    CN237296  -0.979  23.846  -8.993
    1XTA     C637297  -0.963  23.843  -9.133
    1XTA     C737298  -0.973  23.718  -9.205
    1XTA     C837299  -1.008  23.599  -9.144
    1XTA     C937300  -1.023  23.607  -9.007
    1XTA    C1037301  -1.009  23.721  -8.929
    1XTA    CN337302  -1.041  24.047  -8.882
    1XTA    C1137303  -1.023  24.184  -8.905
    1XTA    C1237304  -1.121  24.282  -8.870
    1XTA    C1337305  -1.233  24.235  -8.801
    1XTA    C1437306  -1.250  24.095  -8.772
    1XTA    C1537307  -1.159  24.006  -8.820
    1XTA     H137308  -0.695  23.994  -9.014
    1XTA     H237309  -0.500  23.968  -8.879
    1XTA     H337310  -0.746  23.850  -8.539
    1XTA     H437311  -0.940  23.893  -8.664
    1XTA     H537312  -0.935  23.929  -9.193
    1XTA     H637313  -0.941  23.710  -9.309
    1XTA     H737314  -1.033  23.510  -8.965
    1XTA     H837315  -1.024  23.718  -8.826
    1XTA     H937316  -0.927  24.220  -8.947
    1XTA    H1037317  -1.101  24.391  -8.871
    1XTA    H1137318  -1.333  24.073  -8.711
    1XTA    H1237319  -1.178  23.901  -8.794
    1XTA    OA137320  -0.490  23.892  -8.610
    1XTA    CO137321  -0.401  23.997  -8.629
    1XTA    OA237322  -1.008  23.478  -9.208
    1XTA    CO237323  -1.074  23.476  -9.329
    1XTA    CL137324  -1.106  23.323  -9.361
    1XTA    CL237325  -1.222  23.271  -9.279
    1XTA    CL337326  -1.284  23.142  -9.336
    1XTA    CL437327  -1.382  23.165  -9.455
    1XTA    CO337328  -1.489  23.281  -9.439
    1XTA    OA337329  -1.537  23.284  -9.564
    1XTA    CO437330  -1.674  23.265  -9.581
    1XTA    CT137331  -1.725  23.253  -9.724
    1XTA    CL537332  -1.674  23.384  -9.803
    1XTA    CL637333  -1.711  23.389  -9.948
    1XTA    OA437334  -1.330  24.327  -8.769
    1XTA    CO537335  -1.461  24.279  -8.775
    1XTA    HL137336  -1.523  24.358  -8.752
    1XTA    HL237337  -0.461  24.091  -8.628
    1XTA    HL337338  -0.328  23.994  -8.543
    1XTA    HL437339  -0.335  23.987  -8.715
    1XTA    HL537340  -1.170  23.522  -9.326
    1XTA    HL637341  -0.997  23.512  -9.399
    1XTA    HL737342  -1.009  23.273  -9.358
    1XTA    HL837343  -1.145  23.316  -9.463
    1XTA    HL937344  -1.305  23.338  -9.265
    1XTA   HL1037345  -1.186  23.256  -9.176
    1XTA   HL1137346  -1.211  23.067  -9.370
    1XTA   HL1237347  -1.335  23.094  -9.255
    1XTA   HL1337348  -1.428  23.070  -9.497
    1XTA   HL1437349  -1.326  23.208  -9.540
    1XTA   HL1537350  -1.562  23.257  -9.368
    1XTA   HL1637351  -1.452  23.378  -9.410
    1XTA   HL1737352  -1.707  23.171  -9.536
    1XTA   HL1837353  -1.715  23.340  -9.520
    1XTA   HL1937354  -1.565  23.377  -9.798
    1XTA   HL2037355  -1.704  23.478  -9.752
    1XTA   HL2137356  -1.817  23.371  -9.967
    1XTA   HL2237357  -1.656  23.317 -10.003
    1XTA   HL2337358  -1.713  23.489 -10.001
    1XTA   HL2437359  -1.479  24.205  -8.699
    1XTA   HL2537360  -1.486  24.250  -8.880
    1XTA    CO837361  -1.878  23.243  -9.720
    1XTA    CO937362  -1.663  23.129  -9.785
    1XTA    OA637363  -1.700  23.044  -9.740
    1XTA   HL4237364  -1.906  23.185  -9.637
    1XTA   HL4337365  -1.928  23.197  -9.844
    1XTA   HL4837366  -1.552  23.132  -9.780
    1XTA   HL4937367  -1.690  23.127  -9.885
    1XTA     NT37368  -0.986  24.993 -11.293
    1XTA    CN137369  -1.053  24.990 -11.411
    1XTA     C137370  -1.037  24.873 -11.489
    1XTA     C237371  -1.118  24.858 -11.606
    1XTA     C337372  -1.191  24.959 -11.656
    1XTA     C437373  -1.188  25.086 -11.590
    1XTA     C537374  -1.128  25.096 -11.463
    1XTA    CN237375  -0.865  25.059 -11.297
    1XTA     C637376  -0.754  25.006 -11.368
    1XTA     C737377  -0.639  25.077 -11.385
    1XTA     C837378  -0.628  25.209 -11.347
    1XTA     C937379  -0.742  25.275 -11.295
    1XTA    C1037380  -0.856  25.197 -11.268
    1XTA    CN337381  -1.044  24.927 -11.192
    1XTA    C1137382  -1.162  24.988 -11.143
    1XTA    C1237383  -1.236  24.922 -11.046
    1XTA    C1337384  -1.188  24.800 -10.983
    1XTA    C1437385  -1.060  24.749 -11.022
    1XTA    C1537386  -0.989  24.819 -11.125
    1XTA     H137387  -0.976  24.784 -11.468
    1XTA     H237388  -1.103  24.766 -11.660
    1XTA     H337389  -1.249  25.158 -11.644
    1XTA     H437390  -1.127  25.189 -11.404
    1XTA     H537391  -0.756  24.911 -11.411
    1XTA     H637392  -0.557  25.028 -11.433
    1XTA     H737393  -0.740  25.377 -11.268
    1XTA     H837394  -0.948  25.244 -11.229
    1XTA     H937395  -1.202  25.083 -11.189
    1XTA    H1037396  -1.333  24.963 -11.028
    1XTA    H1137397  -1.019  24.657 -10.993
    1XTA    H1237398  -0.902  24.777 -11.168
    1XTA    OA137399  -1.274  24.947 -11.759
    1XTA    CO137400  -1.242  24.846 -11.852
    1XTA    OA237401  -0.511  25.275 -11.369
    1XTA    CO237402  -0.457  25.264 -11.492
    1XTA    CL137403  -0.331  25.188 -11.463
    1XTA    CL237404  -0.263  25.146 -11.594
    1XTA    CL337405  -0.332  25.030 -11.664
    1XTA    CL437406  -0.317  24.899 -11.586
    1XTA    CO337407  -0.169  24.859 -11.582
    1XTA    OA337408  -0.138  24.771 -11.478
    1XTA    CO437409  -0.168  24.818 -11.346
    1XTA    CT137410  -0.062  24.772 -11.245
    1XTA    CL537411   0.070  24.855 -11.264
    1XTA    CL637412   0.066  25.003 -11.307
    1XTA    OA437413  -1.263  24.741 -10.881
    1XTA    CO537414  -1.251  24.599 -10.862
    1XTA    HL137415  -1.281  24.545 -10.942
    1XTA    HL237416  -1.232  24.743 -11.818
    1XTA    HL337417  -1.315  24.844 -11.924
    1XTA    HL437418  -1.141  24.873 -11.885
    1XTA    HL537419  -0.514  25.216 -11.557
    1XTA    HL637420  -0.428  25.367 -11.537
    1XTA    HL737421  -0.351  25.100 -11.404
    1XTA    HL837422  -0.257  25.245 -11.407
    1XTA    HL937423  -0.155  25.138 -11.588
    1XTA   HL1037424  -0.261  25.234 -11.660
    1XTA   HL1137425  -0.434  25.056 -11.680
    1XTA   HL1237426  -0.289  25.021 -11.761
    1XTA   HL1337427  -0.378  24.826 -11.628
    1XTA   HL1437428  -0.355  24.921 -11.487
    1XTA   HL1537429  -0.135  24.808 -11.678
    1XTA   HL1637430  -0.101  24.940 -11.570
    1XTA   HL1737431  -0.187  24.926 -11.332
    1XTA   HL1837432  -0.260  24.766 -11.322
    1XTA   HL1937433   0.129  24.808 -11.339
    1XTA   HL2037434   0.132  24.841 -11.172
    1XTA   HL2137435   0.009  25.037 -11.395
    1XTA   HL2237436   0.161  25.047 -11.313
    1XTA   HL2337437   0.016  25.060 -11.231
    1XTA   HL2437438  -1.312  24.571 -10.778
    1XTA   HL2537439  -1.149  24.568 -10.849
    1XTA    CO837440  -0.047  24.621 -11.260
    1XTA    CO937441  -0.123  24.795 -11.105
    1XTA    OA637442   0.037  24.578 -11.197
    1XTA   HL4237443  -0.021  24.610 -11.362
    1XTA   HL4337444  -0.130  24.558 -11.252
    1XTA   HL4837445  -0.234  24.709 -11.095
    1XTA   HL4937446  -0.050  24.755 -11.026
    1XTA     NT37447  -7.527  29.530 -12.452
    1XTA    CN137448  -7.505  29.485 -12.576
    1XTA     C137449  -7.401  29.400 -12.601
    1XTA     C237450  -7.389  29.349 -12.734
    1XTA     C337451  -7.471  29.399 -12.842
    1XTA     C437452  -7.569  29.498 -12.817
    1XTA     C537453  -7.588  29.534 -12.679
    1XTA    CN237454  -7.513  29.660 -12.415
    1XTA     C637455  -7.627  29.728 -12.371
    1XTA     C737456  -7.628  29.867 -12.353
    1XTA     C837457  -7.506  29.942 -12.365
    1XTA     C937458  -7.391  29.871 -12.415
    1XTA    C1037459  -7.392  29.733 -12.433
    1XTA    CN337460  -7.558  29.433 -12.362
    1XTA    C1137461  -7.687  29.419 -12.330
    1XTA    C1237462  -7.715  29.329 -12.226
    1XTA    C1337463  -7.617  29.253 -12.157
    1XTA    C1437464  -7.489  29.268 -12.195
    1XTA    C1537465  -7.455  29.361 -12.295
    1XTA     H137466  -7.334  29.375 -12.524
    1XTA     H237467  -7.319  29.271 -12.759
    1XTA     H337468  -7.622  29.540 -12.898
    1XTA     H437469  -7.665  29.611 -12.652
    1XTA     H537470  -7.715  29.670 -12.349
    1XTA     H637471  -7.725  29.917 -12.339
    1XTA     H737472  -7.300  29.918 -12.450
    1XTA     H837473  -7.304  29.680 -12.467
    1XTA     H937474  -7.773  29.479 -12.367
    1XTA    H1037475  -7.822  29.308 -12.210
    1XTA    H1137476  -7.410  29.199 -12.162
    1XTA    H1237477  -7.353  29.394 -12.316
    1XTA    OA137478  -7.458  29.349 -12.970
    1XTA    CO137479  -7.490  29.434 -13.085
    1XTA    OA237480  -7.510  30.075 -12.327
    1XTA    CO237481  -7.404  30.156 -12.374
    1XTA    CL137482  -7.441  30.306 -12.375
    1XTA    CL237483  -7.339  30.387 -12.451
    1XTA    CL337484  -7.397  30.455 -12.577
    1XTA    CL437485  -7.485  30.578 -12.547
    1XTA    CO337486  -7.547  30.629 -12.678
    1XTA    OA337487  -7.647  30.551 -12.731
    1XTA    CO437488  -7.678  30.577 -12.861
    1XTA    CT137489  -7.807  30.495 -12.895
    1XTA    CL537490  -7.873  30.540 -13.025
    1XTA    CL637491  -7.986  30.455 -13.078
    1XTA    OA437492  -7.647  29.152 -12.074
    1XTA    CO537493  -7.743  29.182 -11.974
    1XTA    HL137494  -7.772  29.091 -11.936
    1XTA    HL237495  -7.594  29.476 -13.089
    1XTA    HL337496  -7.427  29.527 -13.101
    1XTA    HL437497  -7.482  29.370 -13.175
    1XTA    HL537498  -7.316  30.126 -12.316
    1XTA    HL637499  -7.385  30.130 -12.481
    1XTA    HL737500  -7.454  30.351 -12.272
    1XTA    HL837501  -7.531  30.319 -12.419
    1XTA    HL937502  -7.266  30.320 -12.490
    1XTA   HL1037503  -7.295  30.469 -12.389
    1XTA   HL1137504  -7.321  30.508 -12.633
    1XTA   HL1237505  -7.446  30.395 -12.651
    1XTA   HL1337506  -7.431  30.648 -12.489
    1XTA   HL1437507  -7.570  30.552 -12.484
    1XTA   HL1537508  -7.588  30.725 -12.682
    1XTA   HL1637509  -7.458  30.634 -12.745
    1XTA   HL1737510  -7.688  30.684 -12.883
    1XTA   HL1837511  -7.596  30.536 -12.925
    1XTA   HL1937512  -7.788  30.544 -13.100
    1XTA   HL2037513  -7.907  30.638 -13.013
    1XTA   HL2137514  -8.081  30.468 -13.016
    1XTA   HL2237515  -7.967  30.345 -13.078
    1XTA   HL2337516  -8.001  30.480 -13.184
    1XTA   HL2437517  -7.830  29.240 -12.002
    1XTA   HL2537518  -7.700  29.232 -11.886
    1XTA    CO837519  -7.901  30.524 -12.777
    1XTA    CO937520  -7.780  30.336 -12.893
    1XTA    OA637521  -7.705  30.309 -13.001
    1XTA   HL4237522  -7.960  30.607 -12.804
    1XTA   HL4337523  -7.852  30.532 -12.678
    1XTA   HL4837524  -7.867  30.279 -12.893
    1XTA   HL4937525  -7.717  30.305 -12.813
    1XTA     NT37526  -2.088  24.877 -12.952
    1XTA    CN137527  -2.005  24.805 -13.030
    1XTA     C137528  -1.892  24.752 -12.974
    1XTA     C237529  -1.802  24.676 -13.046
    1XTA     C337530  -1.831  24.638 -13.182
    1XTA     C437531  -1.952  24.679 -13.239
    1XTA     C537532  -2.038  24.764 -13.161
    1XTA    CN237533  -2.055  25.006 -12.923
    1XTA     C637534  -2.057  25.042 -12.786
    1XTA     C737535  -2.044  25.169 -12.730
    1XTA     C837536  -2.027  25.270 -12.823
    1XTA     C937537  -2.027  25.240 -12.963
    1XTA    C1037538  -2.025  25.109 -13.014
    1XTA    CN337539  -2.216  24.846 -12.935
    1XTA    C1137540  -2.321  24.923 -12.996
    1XTA    C1237541  -2.454  24.874 -12.970
    1XTA    C1337542  -2.474  24.753 -12.909
    1XTA    C1437543  -2.366  24.673 -12.865
    1XTA    C1537544  -2.237  24.720 -12.877
    1XTA     H137545  -1.874  24.758 -12.864
    1XTA     H237546  -1.719  24.642 -12.983
    1XTA     H337547  -1.981  24.648 -13.334
    1XTA     H437548  -2.136  24.784 -13.204
    1XTA     H537549  -2.077  24.959 -12.717
    1XTA     H637550  -2.038  25.184 -12.625
    1XTA     H737551  -2.003  25.320 -13.032
    1XTA     H837552  -2.014  25.091 -13.121
    1XTA     H937553  -2.305  25.017 -13.040
    1XTA    H1037554  -2.545  24.937 -12.999
    1XTA    H1137555  -2.385  24.585 -12.808
    1XTA    H1237556  -2.153  24.652 -12.844
    1XTA    OA137557  -1.766  24.536 -13.244
    1XTA    CO137558  -1.639  24.493 -13.192
    1XTA    OA237559  -2.028  25.402 -12.786
    1XTA    CO237560  -2.005  25.427 -12.650
    1XTA    CL137561  -1.970  25.573 -12.647
    1XTA    CL237562  -1.932  25.622 -12.505
    1XTA    CL337563  -1.826  25.735 -12.520
    1XTA    CL437564  -1.771  25.767 -12.385
    1XTA    CO337565  -1.700  25.645 -12.325
    1XTA    OA337566  -1.610  25.694 -12.225
    1XTA    CO437567  -1.567  25.610 -12.125
    1XTA    CT137568  -1.446  25.669 -12.047
    1XTA    CL537569  -1.506  25.784 -11.959
    1XTA    CL637570  -1.401  25.869 -11.900
    1XTA    OA437571  -2.597  24.698 -12.894
    1XTA    CO537572  -2.711  24.781 -12.915
    1XTA    HL137573  -2.796  24.711 -12.924
    1XTA    HL237574  -1.652  24.466 -13.084
    1XTA    HL337575  -1.617  24.406 -13.241
    1XTA    HL437576  -1.546  24.564 -13.203
    1XTA    HL537577  -2.091  25.398 -12.597
    1XTA    HL637578  -1.931  25.359 -12.600
    1XTA    HL737579  -2.055  25.630 -12.686
    1XTA    HL837580  -1.890  25.587 -12.713
    1XTA    HL937581  -1.885  25.540 -12.443
    1XTA   HL1037582  -2.005  25.675 -12.457
    1XTA   HL1137583  -1.749  25.707 -12.593
    1XTA   HL1237584  -1.865  25.831 -12.547
    1XTA   HL1337585  -1.847  25.797 -12.312
    1XTA   HL1437586  -1.704  25.854 -12.395
    1XTA   HL1537587  -1.780  25.579 -12.281
    1XTA   HL1637588  -1.646  25.594 -12.401
    1XTA   HL1737589  -1.659  25.581 -12.069
    1XTA   HL1837590  -1.523  25.522 -12.184
    1XTA   HL1937591  -1.564  25.745 -11.878
    1XTA   HL2037592  -1.568  25.843 -12.022
    1XTA   HL2137593  -1.320  25.811 -11.868
    1XTA   HL2237594  -1.436  25.917 -11.813
    1XTA   HL2337595  -1.369  25.945 -11.974
    1XTA   HL2437596  -2.712  24.833 -13.014
    1XTA   HL2537597  -2.721  24.858 -12.844
    1XTA    CO837598  -1.336  25.733 -12.144
    1XTA    CO937599  -1.380  25.553 -11.966
    1XTA    OA637600  -1.273  25.596 -11.883
    1XTA   HL4237601  -1.376  25.817 -12.202
    1XTA   HL4337602  -1.252  25.778 -12.083
    1XTA   HL4837603  -1.328  25.487 -12.033
    1XTA   HL4937604  -1.451  25.508 -11.900
    1XTA     NT37605  -8.867  26.042  -6.288
    1XTA    CN137606  -8.915  26.030  -6.414
    1XTA     C137607  -8.928  26.150  -6.489
    1XTA     C237608  -8.964  26.147  -6.629
    1XTA     C337609  -8.987  26.026  -6.691
    1XTA     C437610  -8.960  25.906  -6.616
    1XTA     C537611  -8.930  25.912  -6.483
    1XTA    CN237612  -8.737  26.083  -6.274
    1XTA     C637613  -8.709  26.208  -6.217
    1XTA     C737614  -8.577  26.252  -6.205
    1XTA     C837615  -8.465  26.164  -6.242
    1XTA     C937616  -8.497  26.036  -6.294
    1XTA    C1037617  -8.633  26.001  -6.319
    1XTA    CN337618  -8.934  25.996  -6.183
    1XTA    C1137619  -8.965  26.079  -6.076
    1XTA    C1237620  -9.033  26.033  -5.964
    1XTA    C1337621  -9.081  25.900  -5.967
    1XTA    C1437622  -9.021  25.807  -6.055
    1XTA    C1537623  -8.947  25.855  -6.163
    1XTA     H137624  -8.909  26.243  -6.432
    1XTA     H237625  -8.990  26.232  -6.686
    1XTA     H337626  -8.970  25.800  -6.647
    1XTA     H437627  -8.905  25.822  -6.431
    1XTA     H537628  -8.777  26.277  -6.169
    1XTA     H637629  -8.561  26.350  -6.160
    1XTA     H737630  -8.422  25.978  -6.335
    1XTA     H837631  -8.664  25.918  -6.376
    1XTA     H937632  -8.958  26.183  -6.079
    1XTA    H1037633  -9.059  26.093  -5.884
    1XTA    H1137634  -9.035  25.700  -6.044
    1XTA    H1237635  -8.906  25.785  -6.229
    1XTA    OA137636  -9.031  26.028  -6.821
    1XTA    CO137637  -9.028  25.896  -6.879
    1XTA    OA237638  -8.332  26.191  -6.234
    1XTA    CO237639  -8.287  26.318  -6.187
    1XTA    CL137640  -8.143  26.336  -6.217
    1XTA    CL237641  -8.111  26.349  -6.368
    1XTA    CL337642  -7.960  26.334  -6.408
    1XTA    CL437643  -7.886  26.203  -6.366
    1XTA    CO337644  -7.917  26.067  -6.438
    1XTA    OA337645  -7.821  25.979  -6.394
    1XTA    CO437646  -7.868  25.843  -6.402
    1XTA    CT137647  -7.767  25.753  -6.338
    1XTA    CL537648  -7.663  25.700  -6.443
    1XTA    CL637649  -7.598  25.821  -6.513
    1XTA    OA437650  -9.158  25.859  -5.867
    1XTA    CO537651  -9.211  25.731  -5.858
    1XTA    HL137652  -9.129  25.656  -5.850
    1XTA    HL237653  -8.928  25.855  -6.860
    1XTA    HL337654  -9.107  25.844  -6.823
    1XTA    HL437655  -9.041  25.890  -6.983
    1XTA    HL537656  -8.351  26.401  -6.227
    1XTA    HL637657  -8.301  26.320  -6.079
    1XTA    HL737658  -8.092  26.249  -6.182
    1XTA    HL837659  -8.104  26.422  -6.159
    1XTA    HL937660  -8.146  26.446  -6.409
    1XTA   HL1037661  -8.163  26.270  -6.432
    1XTA   HL1137662  -7.959  26.357  -6.512
    1XTA   HL1237663  -7.904  26.422  -6.377
    1XTA   HL1337664  -7.905  26.189  -6.261
    1XTA   HL1437665  -7.780  26.227  -6.376
    1XTA   HL1537666  -8.012  26.038  -6.415
    1XTA   HL1637667  -7.917  26.069  -6.546
    1XTA   HL1737668  -7.953  25.844  -6.334
    1XTA   HL1837669  -7.900  25.812  -6.500
    1XTA   HL1937670  -7.698  25.629  -6.514
    1XTA   HL2037671  -7.580  25.647  -6.394
    1XTA   HL2137672  -7.671  25.886  -6.563
    1XTA   HL2237673  -7.534  25.786  -6.593
    1XTA   HL2337674  -7.541  25.882  -6.441
    1XTA   HL2437675  -9.262  25.717  -5.951
    1XTA   HL2537676  -9.285  25.739  -5.776
    1XTA    CO837677  -7.846  25.635  -6.287
    1XTA    CO937678  -7.694  25.817  -6.216
    1XTA    OA637679  -7.924  25.576  -6.394
    1XTA   HL4237680  -7.910  25.662  -6.205
    1XTA   HL4337681  -7.780  25.549  -6.251
    1XTA   HL4837682  -7.601  25.755  -6.195
    1XTA   HL4937683  -7.640  25.912  -6.233
    1XTA     NT37684  -2.872  30.515 -12.671
    1XTA    CN137685  -2.803  30.442 -12.591
    1XTA     C137686  -2.764  30.491 -12.467
    1XTA     C237687  -2.684  30.415 -12.382
    1XTA     C337688  -2.649  30.275 -12.416
    1XTA     C437689  -2.691  30.233 -12.539
    1XTA     C537690  -2.764  30.314 -12.627
    1XTA    CN237691  -2.993  30.471 -12.714
    1XTA     C637692  -3.001  30.388 -12.829
    1XTA     C737693  -3.130  30.341 -12.865
    1XTA     C837694  -3.243  30.371 -12.780
    1XTA     C937695  -3.231  30.455 -12.663
    1XTA    C1037696  -3.104  30.501 -12.632
    1XTA    CN337697  -2.815  30.627 -12.724
    1XTA    C1137698  -2.888  30.748 -12.717
    1XTA    C1237699  -2.827  30.864 -12.762
    1XTA    C1337700  -2.706  30.862 -12.836
    1XTA    C1437701  -2.640  30.738 -12.850
    1XTA    C1537702  -2.698  30.622 -12.801
    1XTA     H137703  -2.790  30.596 -12.438
    1XTA     H237704  -2.637  30.447 -12.293
    1XTA     H337705  -2.656  30.130 -12.574
    1XTA     H437706  -2.781  30.284 -12.728
    1XTA     H537707  -2.913  30.370 -12.884
    1XTA     H637708  -3.143  30.295 -12.961
    1XTA     H737709  -3.312  30.488 -12.596
    1XTA     H837710  -3.091  30.577 -12.558
    1XTA     H937711  -2.982  30.756 -12.666
    1XTA    H1037712  -2.873  30.960 -12.749
    1XTA    H1137713  -2.538  30.729 -12.885
    1XTA    H1237714  -2.642  30.529 -12.808
    1XTA    OA137715  -2.596  30.202 -12.320
    1XTA    CO137716  -2.510  30.090 -12.366
    1XTA    OA237717  -3.365  30.310 -12.813
    1XTA    CO237718  -3.421  30.250 -12.696
    1XTA    CL137719  -3.342  30.126 -12.667
    1XTA    CL237720  -3.364  30.063 -12.529
    1XTA    CL337721  -3.297  30.144 -12.408
    1XTA    CL437722  -3.151  30.165 -12.434
    1XTA    CO337723  -3.078  30.230 -12.315
    1XTA    OA337724  -3.103  30.150 -12.203
    1XTA    CO437725  -3.036  30.201 -12.093
    1XTA    CT137726  -3.017  30.097 -11.980
    1XTA    CL537727  -3.155  30.090 -11.905
    1XTA    CL637728  -3.153  30.050 -11.751
    1XTA    OA437729  -2.644  30.981 -12.860
    1XTA    CO537730  -2.522  30.964 -12.934
    1XTA    HL137731  -2.449  30.910 -12.868
    1XTA    HL237732  -2.421  30.100 -12.296
    1XTA    HL337733  -2.564  29.996 -12.337
    1XTA    HL437734  -2.489  30.092 -12.475
    1XTA    HL537735  -3.433  30.306 -12.602
    1XTA    HL637736  -3.518  30.217 -12.727
    1XTA    HL737737  -3.245  30.131 -12.691
    1XTA    HL837738  -3.391  30.049 -12.727
    1XTA    HL937739  -3.312  29.969 -12.519
    1XTA   HL1037740  -3.467  30.035 -12.518
    1XTA   HL1137741  -3.343  30.239 -12.408
    1XTA   HL1237742  -3.313  30.087 -12.314
    1XTA   HL1337743  -3.127  30.217 -12.527
    1XTA   HL1437744  -3.115  30.065 -12.452
    1XTA   HL1537745  -2.973  30.225 -12.342
    1XTA   HL1637746  -3.118  30.329 -12.300
    1XTA   HL1737747  -2.947  30.251 -12.120
    1XTA   HL1837748  -3.090  30.292 -12.060
    1XTA   HL1937749  -3.228  30.025 -11.952
    1XTA   HL2037750  -3.206  30.189 -11.905
    1XTA   HL2137751  -3.109  29.947 -11.721
    1XTA   HL2237752  -3.256  30.049 -11.720
    1XTA   HL2337753  -3.092  30.131 -11.701
    1XTA   HL2437754  -2.478  31.054 -12.979
    1XTA   HL2537755  -2.544  30.905 -13.024
    1XTA    CO837756  -2.900  30.141 -11.896
    1XTA    CO937757  -2.971  29.964 -12.050
    1XTA    OA637758  -2.771  30.156 -11.957
    1XTA   HL4237759  -2.889  30.065 -11.816
    1XTA   HL4337760  -2.922  30.231 -11.839
    1XTA   HL4837761  -2.908  29.983 -12.134
    1XTA   HL4937762  -3.059  29.902 -12.084
    1XTA     NT37763  -1.841  26.036  -5.416
    1XTA    CN137764  -1.718  26.053  -5.462
    1XTA     C137765  -1.606  25.989  -5.403
    1XTA     C237766  -1.474  26.012  -5.443
    1XTA     C337767  -1.452  26.095  -5.557
    1XTA     C437768  -1.562  26.147  -5.629
    1XTA     C537769  -1.692  26.126  -5.582
    1XTA    CN237770  -1.923  25.942  -5.482
    1XTA     C637771  -2.007  25.985  -5.581
    1XTA     C737772  -2.087  25.890  -5.653
    1XTA     C837773  -2.079  25.750  -5.624
    1XTA     C937774  -1.995  25.707  -5.523
    1XTA    C1037775  -1.907  25.804  -5.469
    1XTA    CN337776  -1.891  26.126  -5.329
    1XTA    C1137777  -1.958  26.243  -5.372
    1XTA    C1237778  -2.027  26.327  -5.280
    1XTA    C1337779  -2.029  26.294  -5.138
    1XTA    C1437780  -1.959  26.178  -5.095
    1XTA    C1537781  -1.897  26.095  -5.191
    1XTA     H137782  -1.636  25.925  -5.325
    1XTA     H237783  -1.392  25.974  -5.375
    1XTA     H337784  -1.541  26.222  -5.706
    1XTA     H437785  -1.767  26.162  -5.651
    1XTA     H537786  -2.011  26.088  -5.600
    1XTA     H637787  -2.157  25.933  -5.735
    1XTA     H737788  -1.991  25.602  -5.500
    1XTA     H837789  -1.837  25.767  -5.398
    1XTA     H937790  -1.953  26.264  -5.482
    1XTA    H1037791  -2.082  26.402  -5.328
    1XTA    H1137792  -1.953  26.159  -4.993
    1XTA    H1237793  -1.865  26.002  -5.157
    1XTA    OA137794  -1.330  26.132  -5.598
    1XTA    CO137795  -1.218  26.064  -5.549
    1XTA    OA237796  -2.155  25.664  -5.696
    1XTA    CO237797  -2.192  25.692  -5.828
    1XTA    CL137798  -2.267  25.579  -5.882
    1XTA    CL237799  -2.340  25.616  -6.017
    1XTA    CL337800  -2.262  25.696  -6.122
    1XTA    CL437801  -2.355  25.767  -6.221
    1XTA    CO337802  -2.287  25.881  -6.296
    1XTA    OA337803  -2.159  25.848  -6.339
    1XTA    CO437804  -2.095  25.951  -6.416
    1XTA    CT137805  -1.944  25.918  -6.422
    1XTA    CL537806  -1.880  25.885  -6.278
    1XTA    CL637807  -1.894  26.005  -6.179
    1XTA    OA437808  -2.088  26.372  -5.041
    1XTA    CO537809  -2.160  26.492  -5.075
    1XTA    HL137810  -2.231  26.457  -5.145
    1XTA    HL237811  -1.196  26.082  -5.446
    1XTA    HL337812  -1.225  25.957  -5.565
    1XTA    HL437813  -1.128  26.098  -5.610
    1XTA    HL537814  -2.258  25.772  -5.829
    1XTA    HL637815  -2.103  25.711  -5.885
    1XTA    HL737816  -2.338  25.530  -5.812
    1XTA    HL837817  -2.195  25.505  -5.900
    1XTA    HL937818  -2.412  25.684  -5.988
    1XTA   HL1037819  -2.386  25.532  -6.063
    1XTA   HL1137820  -2.194  25.764  -6.058
    1XTA   HL1237821  -2.194  25.639  -6.185
    1XTA   HL1337822  -2.449  25.812  -6.183
    1XTA   HL1437823  -2.386  25.683  -6.281
    1XTA   HL1537824  -2.338  25.912  -6.387
    1XTA   HL1637825  -2.283  25.972  -6.235
    1XTA   HL1737826  -2.137  25.960  -6.518
    1XTA   HL1837827  -2.100  26.049  -6.358
    1XTA   HL1937828  -1.776  25.851  -6.276
    1XTA   HL2037829  -1.929  25.800  -6.238
    1XTA   HL2137830  -1.984  26.061  -6.194
    1XTA   HL2237831  -1.812  26.075  -6.190
    1XTA   HL2337832  -1.891  25.978  -6.077
    1XTA   HL2437833  -2.093  26.570  -5.112
    1XTA   HL2537834  -2.215  26.527  -4.987
    1XTA    CO837835  -1.865  26.029  -6.486
    1XTA    CO937836  -1.916  25.792  -6.511
    1XTA    OA637837  -1.904  26.057  -6.617
    1XTA   HL4237838  -1.765  25.997  -6.488
    1XTA   HL4337839  -1.862  26.124  -6.437
    1XTA   HL4837840  -1.981  25.806  -6.601
    1XTA   HL4937841  -1.811  25.785  -6.542
    1XTA     NT37842  -1.824  27.615  -6.121
    1XTA    CN137843  -1.942  27.668  -6.085
    1XTA     C137844  -1.952  27.805  -6.073
    1XTA     C237845  -2.070  27.860  -6.021
    1XTA     C337846  -2.173  27.771  -5.982
    1XTA     C437847  -2.161  27.630  -6.000
    1XTA     C537848  -2.046  27.579  -6.055
    1XTA    CN237849  -1.784  27.637  -6.245
    1XTA     C637850  -1.666  27.715  -6.269
    1XTA     C737851  -1.624  27.725  -6.404
    1XTA     C837852  -1.699  27.660  -6.506
    1XTA     C937853  -1.815  27.588  -6.479
    1XTA    C1037854  -1.859  27.575  -6.344
    1XTA    CN337855  -1.732  27.580  -6.029
    1XTA    C1137856  -1.665  27.681  -5.958
    1XTA    C1237857  -1.555  27.653  -5.879
    1XTA    C1337858  -1.498  27.530  -5.877
    1XTA    C1437859  -1.562  27.426  -5.949
    1XTA    C1537860  -1.677  27.447  -6.033
    1XTA     H137861  -1.879  27.877  -6.103
    1XTA     H237862  -2.089  27.968  -6.011
    1XTA     H337863  -2.236  27.557  -5.966
    1XTA     H437864  -2.041  27.472  -6.061
    1XTA     H537865  -1.608  27.762  -6.193
    1XTA     H637866  -1.531  27.777  -6.425
    1XTA     H737867  -1.864  27.535  -6.552
    1XTA     H837868  -1.940  27.518  -6.327
    1XTA     H937869  -1.714  27.780  -5.945
    1XTA    H1037870  -1.512  27.728  -5.823
    1XTA    H1137871  -1.516  27.329  -5.959
    1XTA    H1237872  -1.712  27.370  -6.101
    1XTA    OA137873  -2.290  27.830  -5.932
    1XTA    CO137874  -2.358  27.774  -5.823
    1XTA    OA237875  -1.664  27.665  -6.641
    1XTA    CO237876  -1.575  27.768  -6.673
    1XTA    CL137877  -1.565  27.805  -6.826
    1XTA    CL237878  -1.679  27.895  -6.878
    1XTA    CL337879  -1.807  27.822  -6.913
    1XTA    CL437880  -1.932  27.903  -6.893
    1XTA    CO337881  -1.955  28.012  -7.002
    1XTA    OA337882  -2.081  28.068  -6.989
    1XTA    CO437883  -2.114  28.163  -7.086
    1XTA    CT137884  -2.264  28.209  -7.067
    1XTA    CL537885  -2.305  28.310  -7.185
    1XTA    CL637886  -2.263  28.274  -7.329
    1XTA    OA437887  -1.383  27.500  -5.809
    1XTA    CO537888  -1.295  27.607  -5.798
    1XTA    HL137889  -1.295  27.674  -5.887
    1XTA    HL237890  -2.448  27.831  -5.804
    1XTA    HL337891  -2.388  27.680  -5.867
    1XTA    HL437892  -2.294  27.762  -5.738
    1XTA    HL537893  -1.609  27.855  -6.613
    1XTA    HL637894  -1.484  27.717  -6.630
    1XTA    HL737895  -1.548  27.711  -6.882
    1XTA    HL837896  -1.467  27.859  -6.841
    1XTA    HL937897  -1.640  27.940  -6.971
    1XTA   HL1037898  -1.688  27.981  -6.816
    1XTA   HL1137899  -1.797  27.776  -7.008
    1XTA   HL1237900  -1.812  27.730  -6.851
    1XTA   HL1337901  -1.939  27.947  -6.797
    1XTA   HL1437902  -2.012  27.825  -6.886
    1XTA   HL1537903  -1.876  28.087  -6.994
    1XTA   HL1637904  -1.944  27.969  -7.100
    1XTA   HL1737905  -2.042  28.240  -7.077
    1XTA   HL1837906  -2.094  28.121  -7.188
    1XTA   HL1937907  -2.273  28.417  -7.159
    1XTA   HL2037908  -2.411  28.321  -7.192
    1XTA   HL2137909  -2.342  28.301  -7.406
    1XTA   HL2237910  -2.255  28.164  -7.333
    1XTA   HL2337911  -2.171  28.315  -7.357
    1XTA   HL2437912  -1.193  27.580  -5.773
    1XTA   HL2537913  -1.323  27.674  -5.717
    1XTA    CO837914  -2.277  28.269  -6.933
    1XTA    CO937915  -2.358  28.090  -7.079
    1XTA    OA637916  -2.403  28.309  -6.908
    1XTA   HL4237917  -2.218  28.363  -6.921
    1XTA   HL4337918  -2.241  28.202  -6.860
    1XTA   HL4837919  -2.335  28.035  -7.172
    1XTA   HL4937920  -2.326  28.013  -7.014
    1XTA     NT37921  -5.360  26.931  -5.224
    1XTA    CN137922  -5.473  26.884  -5.164
    1XTA     C137923  -5.544  26.779  -5.232
    1XTA     C237924  -5.653  26.720  -5.170
    1XTA     C337925  -5.697  26.773  -5.044
    1XTA     C437926  -5.634  26.882  -4.988
    1XTA     C537927  -5.527  26.942  -5.046
    1XTA    CN237928  -5.357  26.984  -5.345
    1XTA     C637929  -5.312  26.899  -5.455
    1XTA     C737930  -5.310  26.948  -5.586
    1XTA     C837931  -5.349  27.080  -5.614
    1XTA     C937932  -5.391  27.166  -5.507
    1XTA    C1037933  -5.399  27.115  -5.374
    1XTA    CN337934  -5.243  26.913  -5.163
    1XTA    C1137935  -5.185  26.781  -5.169
    1XTA    C1237936  -5.053  26.770  -5.111
    1XTA    C1337937  -4.978  26.881  -5.061
    1XTA    C1437938  -5.041  27.008  -5.068
    1XTA    C1537939  -5.170  27.019  -5.111
    1XTA     H137940  -5.503  26.745  -5.327
    1XTA     H237941  -5.704  26.639  -5.218
    1XTA     H337942  -5.676  26.915  -4.895
    1XTA     H437943  -5.485  27.024  -4.988
    1XTA     H537944  -5.286  26.796  -5.452
    1XTA     H637945  -5.284  26.881  -5.668
    1XTA     H737946  -5.431  27.266  -5.528
    1XTA     H837947  -5.437  27.184  -5.297
    1XTA     H937948  -5.246  26.693  -5.199
    1XTA    H1037949  -5.002  26.673  -5.108
    1XTA    H1137950  -4.989  27.093  -5.023
    1XTA    H1237951  -5.213  27.118  -5.104
    1XTA    OA137952  -5.805  26.729  -4.976
    1XTA    CO137953  -5.835  26.594  -5.001
    1XTA    OA237954  -5.334  27.126  -5.744
    1XTA    CO237955  -5.410  27.241  -5.790
    1XTA    CL137956  -5.560  27.194  -5.799
    1XTA    CL237957  -5.660  27.311  -5.796
    1XTA    CL337958  -5.675  27.358  -5.648
    1XTA    CL437959  -5.776  27.478  -5.643
    1XTA    CO337960  -5.919  27.442  -5.674
    1XTA    OA337961  -5.937  27.457  -5.814
    1XTA    CO437962  -6.063  27.409  -5.855
    1XTA    CT137963  -6.113  27.442  -5.995
    1XTA    CL537964  -6.043  27.344  -6.089
    1XTA    CL637965  -5.896  27.370  -6.118
    1XTA    OA437966  -4.852  26.858  -5.014
    1XTA    CO537967  -4.777  26.966  -4.956
    1XTA    HL137968  -4.677  26.927  -4.938
    1XTA    HL237969  -5.885  26.586  -5.091
    1XTA    HL337970  -5.746  26.540  -5.012
    1XTA    HL437971  -5.895  26.565  -4.916
    1XTA    HL537972  -5.386  27.319  -5.717
    1XTA    HL637973  -5.370  27.258  -5.887
    1XTA    HL737974  -5.578  27.131  -5.710
    1XTA    HL837975  -5.578  27.136  -5.894
    1XTA    HL937976  -5.760  27.279  -5.835
    1XTA   HL1037977  -5.608  27.379  -5.858
    1XTA   HL1137978  -5.708  27.280  -5.572
    1XTA   HL1237979  -5.580  27.386  -5.611
    1XTA   HL1337980  -5.755  27.558  -5.707
    1XTA   HL1437981  -5.773  27.520  -5.540
    1XTA   HL1537982  -5.934  27.331  -5.652
    1XTA   HL1637983  -5.983  27.507  -5.611
    1XTA   HL1737984  -6.070  27.303  -5.831
    1XTA   HL1837985  -6.125  27.457  -5.782
    1XTA   HL1937986  -6.097  27.333  -6.179
    1XTA   HL2037987  -6.048  27.245  -6.049
    1XTA   HL2137988  -5.839  27.387  -6.024
    1XTA   HL2237989  -5.880  27.469  -6.167
    1XTA   HL2337990  -5.856  27.288  -6.177
    1XTA   HL2437991  -4.813  27.014  -4.862
    1XTA   HL2537992  -4.757  27.050  -5.028
    1XTA    CO837993  -6.079  27.584  -6.035
    1XTA    CO937994  -6.268  27.428  -6.023
    1XTA    OA637995  -6.144  27.661  -5.978
    1XTA   HL4237996  -6.096  27.595  -6.140
    1XTA   HL4337997  -5.971  27.593  -6.020
    1XTA   HL4837998  -6.332  27.533  -5.962
    1XTA   HL4937999  -6.271  27.447  -6.128
    1XTA     NT38000  -2.534  24.692  -8.356
    1XTA    CN138001  -2.623  24.669  -8.459
    1XTA     C138002  -2.727  24.577  -8.448
    1XTA     C238003  -2.823  24.552  -8.553
    1XTA     C338004  -2.813  24.636  -8.667
    1XTA     C438005  -2.709  24.728  -8.683
    1XTA     C538006  -2.613  24.736  -8.579
    1XTA    CN238007  -2.520  24.819  -8.306
    1XTA     C638008  -2.633  24.891  -8.269
    1XTA     C738009  -2.617  25.013  -8.200
    1XTA     C838010  -2.485  25.066  -8.166
    1XTA     C938011  -2.376  24.996  -8.215
    1XTA    C1038012  -2.395  24.874  -8.282
    1XTA    CN338013  -2.449  24.593  -8.316
    1XTA    C1138014  -2.478  24.505  -8.205
    1XTA    C1238015  -2.396  24.395  -8.170
    1XTA    C1338016  -2.287  24.373  -8.255
    1XTA    C1438017  -2.252  24.454  -8.357
    1XTA    C1538018  -2.337  24.558  -8.392
    1XTA     H138019  -2.732  24.522  -8.356
    1XTA     H238020  -2.902  24.476  -8.547
    1XTA     H338021  -2.710  24.796  -8.768
    1XTA     H438022  -2.525  24.798  -8.588
    1XTA     H538023  -2.730  24.850  -8.291
    1XTA     H638024  -2.699  25.066  -8.164
    1XTA     H738025  -2.277  25.022  -8.196
    1XTA     H838026  -2.300  24.825  -8.316
    1XTA     H938027  -2.564  24.522  -8.144
    1XTA    H1038028  -2.435  24.324  -8.095
    1XTA    H1138029  -2.162  24.445  -8.415
    1XTA    H1238030  -2.308  24.628  -8.471
    1XTA    OA138031  -2.898  24.613  -8.774
    1XTA    CO138032  -2.997  24.511  -8.751
    1XTA    OA238033  -2.482  25.192  -8.108
    1XTA    CO238034  -2.352  25.238  -8.066
    1XTA    CL138035  -2.351  25.366  -7.981
    1XTA    CL238036  -2.429  25.477  -8.049
    1XTA    CL338037  -2.348  25.554  -8.150
    1XTA    CL438038  -2.420  25.681  -8.191
    1XTA    CO338039  -2.341  25.782  -8.282
    1XTA    OA338040  -2.345  25.719  -8.408
    1XTA    CO438041  -2.288  25.804  -8.505
    1XTA    CT138042  -2.276  25.747  -8.643
    1XTA    CL538043  -2.411  25.701  -8.697
    1XTA    CL638044  -2.519  25.792  -8.739
    1XTA    OA438045  -2.217  24.253  -8.232
    1XTA    CO538046  -2.211  24.193  -8.099
    1XTA    HL138047  -2.145  24.109  -8.105
    1XTA    HL238048  -3.057  24.494  -8.840
    1XTA    HL338049  -2.955  24.419  -8.729
    1XTA    HL438050  -3.065  24.541  -8.670
    1XTA    HL538051  -2.303  25.166  -7.989
    1XTA    HL638052  -2.296  25.250  -8.152
    1XTA    HL738053  -2.251  25.402  -7.964
    1XTA    HL838054  -2.410  25.340  -7.889
    1XTA    HL938055  -2.468  25.545  -7.968
    1XTA   HL1038056  -2.516  25.429  -8.095
    1XTA   HL1138057  -2.257  25.576  -8.098
    1XTA   HL1238058  -2.322  25.497  -8.238
    1XTA   HL1338059  -2.440  25.737  -8.101
    1XTA   HL1438060  -2.510  25.653  -8.242
    1XTA   HL1538061  -2.394  25.874  -8.286
    1XTA   HL1638062  -2.238  25.816  -8.239
    1XTA   HL1738063  -2.350  25.892  -8.506
    1XTA   HL1838064  -2.187  25.832  -8.475
    1XTA   HL1938065  -2.444  25.623  -8.627
    1XTA   HL2038066  -2.390  25.655  -8.795
    1XTA   HL2138067  -2.563  25.864  -8.661
    1XTA   HL2238068  -2.591  25.733  -8.781
    1XTA   HL2338069  -2.483  25.859  -8.819
    1XTA   HL2438070  -2.300  24.143  -8.061
    1XTA   HL2538071  -2.159  24.261  -8.027
    1XTA    CO838072  -2.187  25.621  -8.633
    1XTA    CO938073  -2.220  25.845  -8.748
    1XTA    OA638074  -2.185  25.585  -8.739
    1XTA   HL4238075  -2.242  25.547  -8.569
    1XTA   HL4338076  -2.083  25.639  -8.589
    1XTA   HL4838077  -2.078  25.866  -8.726
    1XTA   HL4938078  -2.241  25.803  -8.846
    1XTA     NT38079  -3.978  27.462 -10.668
    1XTA    CN138080  -3.856  27.409 -10.646
    1XTA     C138081  -3.742  27.450 -10.722
    1XTA     C238082  -3.613  27.401 -10.694
    1XTA     C338083  -3.596  27.302 -10.596
    1XTA     C438084  -3.713  27.256 -10.530
    1XTA     C538085  -3.834  27.316 -10.544
    1XTA    CN238086  -4.032  27.413 -10.782
    1XTA     C638087  -4.080  27.281 -10.782
    1XTA     C738088  -4.153  27.235 -10.897
    1XTA     C838089  -4.164  27.311 -11.016
    1XTA     C938090  -4.121  27.445 -11.011
    1XTA    C1038091  -4.061  27.494 -10.894
    1XTA    CN338092  -4.040  27.546 -10.588
    1XTA    C1138093  -3.965  27.633 -10.504
    1XTA    C1238094  -4.029  27.723 -10.423
    1XTA    C1338095  -4.172  27.721 -10.410
    1XTA    C1438096  -4.244  27.632 -10.495
    1XTA    C1538097  -4.180  27.551 -10.584
    1XTA     H138098  -3.748  27.514 -10.809
    1XTA     H238099  -3.528  27.423 -10.757
    1XTA     H338100  -3.697  27.177 -10.460
    1XTA     H438101  -3.918  27.276 -10.483
    1XTA     H538102  -4.083  27.222 -10.690
    1XTA     H638103  -4.194  27.137 -10.891
    1XTA     H738104  -4.136  27.509 -11.100
    1XTA     H838105  -4.035  27.599 -10.885
    1XTA     H938106  -3.861  27.618 -10.506
    1XTA    H1038107  -3.972  27.805 -10.371
    1XTA    H1138108  -4.350  27.622 -10.486
    1XTA    H1238109  -4.243  27.492 -10.646
    1XTA    OA138110  -3.471  27.257 -10.562
    1XTA    CO138111  -3.449  27.201 -10.432
    1XTA    OA238112  -4.237  27.275 -11.132
    1XTA    CO238113  -4.298  27.147 -11.139
    1XTA    CL138114  -4.298  27.093 -11.281
    1XTA    CL238115  -4.382  26.962 -11.302
    1XTA    CL338116  -4.533  26.999 -11.296
    1XTA    CL438117  -4.602  26.965 -11.165
    1XTA    CO338118  -4.747  27.009 -11.144
    1XTA    OA338119  -4.772  27.036 -11.006
    1XTA    CO438120  -4.780  26.914 -10.938
    1XTA    CT138121  -4.790  26.938 -10.790
    1XTA    CL538122  -4.667  27.015 -10.744
    1XTA    CL638123  -4.529  26.949 -10.774
    1XTA    OA438124  -4.244  27.802 -10.333
    1XTA    CO538125  -4.182  27.844 -10.217
    1XTA    HL138126  -4.148  27.772 -10.147
    1XTA    HL238127  -3.345  27.165 -10.435
    1XTA    HL338128  -3.442  27.280 -10.356
    1XTA    HL438129  -3.514  27.121 -10.402
    1XTA    HL538130  -4.227  27.071 -11.089
    1XTA    HL638131  -4.397  27.161 -11.082
    1XTA    HL738132  -4.191  27.089 -11.312
    1XTA    HL838133  -4.347  27.163 -11.348
    1XTA    HL938134  -4.351  26.881 -11.235
    1XTA   HL1038135  -4.356  26.936 -11.403
    1XTA   HL1138136  -4.545  27.104 -11.325
    1XTA   HL1238137  -4.581  26.947 -11.375
    1XTA   HL1338138  -4.552  27.028 -11.088
    1XTA   HL1438139  -4.587  26.861 -11.140
    1XTA   HL1538140  -4.762  27.115 -11.174
    1XTA   HL1638141  -4.825  26.952 -11.195
    1XTA   HL1738142  -4.875  26.859 -10.961
    1XTA   HL1838143  -4.701  26.844 -10.964
    1XTA   HL1938144  -4.670  27.029 -10.635
    1XTA   HL2038145  -4.674  27.109 -10.796
    1XTA   HL2138146  -4.505  26.857 -10.720
    1XTA   HL2238147  -4.455  27.023 -10.742
    1XTA   HL2338148  -4.510  26.935 -10.886
    1XTA   HL2438149  -4.257  27.903 -10.159
    1XTA   HL2538150  -4.090  27.911 -10.237
    1XTA    CO838151  -4.804  26.808 -10.710
    1XTA    CO938152  -4.929  27.005 -10.767
    1XTA    OA638153  -4.976  27.002 -10.630
    1XTA   HL4238154  -4.812  26.824 -10.602
    1XTA   HL4338155  -4.902  26.758 -10.718
    1XTA   HL4838156  -5.006  26.982 -10.833
    1XTA   HL4938157  -4.914  27.111 -10.791
    1XTA     NT38158  -0.264  23.977 -11.391
    1XTA    CN138159  -0.265  23.981 -11.261
    1XTA     C138160  -0.321  23.872 -11.193
    1XTA     C238161  -0.342  23.876 -11.055
    1XTA     C338162  -0.292  23.988 -10.979
    1XTA     C438163  -0.231  24.097 -11.048
    1XTA     C538164  -0.217  24.091 -11.184
    1XTA    CN238165  -0.325  24.071 -11.457
    1XTA     C638166  -0.266  24.139 -11.568
    1XTA     C738167  -0.339  24.239 -11.639
    1XTA     C838168  -0.475  24.274 -11.599
    1XTA     C938169  -0.526  24.211 -11.481
    1XTA    C1038170  -0.455  24.111 -11.414
    1XTA    CN338171  -0.185  23.880 -11.455
    1XTA    C1138172  -0.236  23.758 -11.484
    1XTA    C1238173  -0.162  23.662 -11.554
    1XTA    C1338174  -0.032  23.692 -11.596
    1XTA    C1438175   0.024  23.817 -11.560
    1XTA    C1538176  -0.057  23.912 -11.502
    1XTA     H138177  -0.356  23.791 -11.253
    1XTA     H238178  -0.388  23.790 -11.016
    1XTA     H338179  -0.195  24.179 -10.983
    1XTA     H438180  -0.169  24.178 -11.232
    1XTA     H538181  -0.163  24.108 -11.604
    1XTA     H638182  -0.290  24.288 -11.724
    1XTA     H738183  -0.631  24.230 -11.456
    1XTA     H838184  -0.492  24.061 -11.330
    1XTA     H938185  -0.334  23.741 -11.442
    1XTA    H1038186  -0.200  23.566 -11.572
    1XTA    H1138187   0.119  23.849 -11.594
    1XTA    H1238188  -0.021  24.011 -11.478
    1XTA    OA138189  -0.317  24.002 -10.848
    1XTA    CO138190  -0.308  23.879 -10.778
    1XTA    OA238191  -0.540  24.366 -11.678
    1XTA    CO238192  -0.685  24.375 -11.666
    1XTA    CL138193  -0.765  24.267 -11.741
    1XTA    CL238194  -0.770  24.131 -11.674
    1XTA    CL338195  -0.836  24.032 -11.771
    1XTA    CL438196  -0.978  24.075 -11.823
    1XTA    CO338197  -1.026  23.982 -11.937
    1XTA    OA338198  -1.141  24.042 -11.993
    1XTA    CO438199  -1.152  24.005 -12.126
    1XTA    CT138200  -1.142  24.126 -12.217
    1XTA    CL538201  -1.204  24.095 -12.358
    1XTA    CL638202  -1.142  23.983 -12.441
    1XTA    OA438203   0.056  23.603 -11.655
    1XTA    CO538204   0.003  23.480 -11.705
    1XTA    HL138205  -0.078  23.497 -11.778
    1XTA    HL238206  -0.378  23.805 -10.804
    1XTA    HL338207  -0.206  23.846 -10.775
    1XTA    HL438208  -0.329  23.913 -10.671
    1XTA    HL538209  -0.723  24.378 -11.563
    1XTA    HL638210  -0.711  24.468 -11.716
    1XTA    HL738211  -0.760  24.264 -11.850
    1XTA    HL838212  -0.864  24.305 -11.747
    1XTA    HL938213  -0.811  24.140 -11.574
    1XTA   HL1038214  -0.671  24.086 -11.661
    1XTA   HL1138215  -0.773  24.030 -11.859
    1XTA   HL1238216  -0.837  23.932 -11.730
    1XTA   HL1338217  -0.977  24.172 -11.857
    1XTA   HL1438218  -1.040  24.067 -11.736
    1XTA   HL1538219  -0.949  23.978 -12.012
    1XTA   HL1638220  -1.051  23.879 -11.910
    1XTA   HL1738221  -1.083  23.925 -12.159
    1XTA   HL1838222  -1.240  23.951 -12.137
    1XTA   HL1938223  -1.207  24.181 -12.428
    1XTA   HL2038224  -1.303  24.060 -12.331
    1XTA   HL2138225  -1.118  23.889 -12.386
    1XTA   HL2238226  -1.048  24.016 -12.477
    1XTA   HL2338227  -1.198  23.956 -12.529
    1XTA   HL2438228  -0.059  23.424 -11.626
    1XTA   HL2538229   0.082  23.418 -11.744
    1XTA    CO838230  -0.992  24.169 -12.225
    1XTA    CO938231  -1.220  24.248 -12.165
    1XTA    OA638232  -1.355  24.217 -12.131
    1XTA   HL4238233  -0.966  24.259 -12.275
    1XTA   HL4338234  -0.975  24.208 -12.122
    1XTA   HL4838235  -1.224  24.329 -12.232
    1XTA   HL4938236  -1.167  24.278 -12.077
    1XTA     NT38237  -0.736  25.801  -5.622
    1XTA    CN138238  -0.872  25.797  -5.614
    1XTA     C138239  -0.948  25.844  -5.720
    1XTA     C238240  -1.081  25.811  -5.737
    1XTA     C338241  -1.145  25.726  -5.639
    1XTA     C438242  -1.074  25.702  -5.520
    1XTA     C538243  -0.935  25.726  -5.507
    1XTA    CN238244  -0.656  25.890  -5.555
    1XTA     C638245  -0.532  25.847  -5.489
    1XTA     C738246  -0.436  25.939  -5.443
    1XTA     C838247  -0.459  26.075  -5.470
    1XTA     C938248  -0.582  26.114  -5.528
    1XTA    C1038249  -0.682  26.024  -5.560
    1XTA    CN338250  -0.684  25.689  -5.674
    1XTA    C1138251  -0.643  25.577  -5.595
    1XTA    C1238252  -0.621  25.457  -5.659
    1XTA    C1338253  -0.620  25.438  -5.799
    1XTA    C1438254  -0.645  25.549  -5.879
    1XTA    C1538255  -0.684  25.673  -5.816
    1XTA     H138256  -0.899  25.894  -5.803
    1XTA     H238257  -1.130  25.826  -5.831
    1XTA     H338258  -1.129  25.647  -5.439
    1XTA     H438259  -0.876  25.695  -5.428
    1XTA     H538260  -0.502  25.748  -5.498
    1XTA     H638261  -0.344  25.904  -5.403
    1XTA     H738262  -0.601  26.220  -5.541
    1XTA     H838263  -0.777  26.050  -5.603
    1XTA     H938264  -0.653  25.583  -5.482
    1XTA    H1038265  -0.604  25.370  -5.594
    1XTA    H1138266  -0.640  25.541  -5.982
    1XTA    H1238267  -0.705  25.751  -5.888
    1XTA    OA138268  -1.276  25.683  -5.648
    1XTA    CO138269  -1.358  25.749  -5.744
    1XTA    OA238270  -0.378  26.177  -5.439
    1XTA    CO238271  -0.276  26.164  -5.339
    1XTA    CL138272  -0.142  26.157  -5.406
    1XTA    CL238273  -0.021  26.156  -5.319
    1XTA    CL338274   0.113  26.141  -5.401
    1XTA    CL438275   0.220  26.069  -5.318
    1XTA    CO338276   0.195  25.917  -5.313
    1XTA    OA338277   0.219  25.868  -5.445
    1XTA    CO438278   0.205  25.729  -5.471
    1XTA    CT138279   0.070  25.689  -5.536
    1XTA    CL538280  -0.022  25.609  -5.443
    1XTA    CL638281  -0.083  25.670  -5.315
    1XTA    OA438282  -0.586  25.314  -5.857
    1XTA    CO538283  -0.531  25.216  -5.773
    1XTA    HL138284  -0.540  25.116  -5.810
    1XTA    HL238285  -1.366  25.858  -5.720
    1XTA    HL338286  -1.323  25.735  -5.843
    1XTA    HL438287  -1.454  25.704  -5.740
    1XTA    HL538288  -0.292  26.250  -5.278
    1XTA    HL638289  -0.300  26.078  -5.270
    1XTA    HL738290  -0.141  26.235  -5.481
    1XTA    HL838291  -0.133  26.062  -5.463
    1XTA    HL938292  -0.038  26.080  -5.240
    1XTA   HL1038293  -0.015  26.245  -5.261
    1XTA   HL1138294   0.110  26.073  -5.490
    1XTA   HL1238295   0.146  26.246  -5.426
    1XTA   HL1338296   0.219  26.119  -5.219
    1XTA   HL1438297   0.316  26.084  -5.351
    1XTA   HL1538298   0.246  25.866  -5.232
    1XTA   HL1638299   0.091  25.897  -5.290
    1XTA   HL1738300   0.286  25.694  -5.530
    1XTA   HL1838301   0.215  25.664  -5.377
    1XTA   HL1938302   0.016  25.504  -5.424
    1XTA   HL2038303  -0.106  25.595  -5.503
    1XTA   HL2138304  -0.017  25.693  -5.234
    1XTA   HL2238305  -0.156  25.605  -5.271
    1XTA   HL2338306  -0.136  25.763  -5.330
    1XTA   HL2438307  -0.566  25.208  -5.673
    1XTA   HL2538308  -0.419  25.226  -5.756
    1XTA    CO838309   0.112  25.600  -5.663
    1XTA    CO938310  -0.003  25.814  -5.590
    1XTA    OA638311  -0.100  25.780  -5.694
    1XTA   HL4238312   0.154  25.508  -5.630
    1XTA   HL4338313   0.018  25.573  -5.718
    1XTA   HL4838314   0.059  25.898  -5.611
    1XTA   HL4938315  -0.063  25.859  -5.503
    1XTA     NT38316  -2.688  25.875 -13.183
    1XTA    CN138317  -2.815  25.867 -13.232
    1XTA     C138318  -2.898  25.976 -13.206
    1XTA     C238319  -3.034  25.971 -13.252
    1XTA     C338320  -3.088  25.861 -13.319
    1XTA     C438321  -3.000  25.752 -13.350
    1XTA     C538322  -2.866  25.758 -13.298
    1XTA    CN238323  -2.600  25.963 -13.242
    1XTA     C638324  -2.530  25.924 -13.358
    1XTA     C738325  -2.434  26.009 -13.408
    1XTA     C838326  -2.419  26.141 -13.359
    1XTA     C938327  -2.500  26.179 -13.247
    1XTA    C1038328  -2.592  26.089 -13.193
    1XTA    CN338329  -2.642  25.809 -13.073
    1XTA    C1138330  -2.721  25.805 -12.960
    1XTA    C1238331  -2.679  25.738 -12.847
    1XTA    C1338332  -2.551  25.679 -12.848
    1XTA    C1438333  -2.466  25.682 -12.963
    1XTA    C1538334  -2.519  25.742 -13.078
    1XTA     H138335  -2.861  26.069 -13.149
    1XTA     H238336  -3.109  26.052 -13.238
    1XTA     H338337  -3.046  25.674 -13.402
    1XTA     H438338  -2.796  25.667 -13.310
    1XTA     H538339  -2.547  25.824 -13.403
    1XTA     H638340  -2.361  25.985 -13.480
    1XTA     H738341  -2.495  26.278 -13.197
    1XTA     H838342  -2.658  26.123 -13.112
    1XTA     H938343  -2.816  25.857 -12.963
    1XTA    H1038344  -2.729  25.730 -12.752
    1XTA    H1138345  -2.372  25.636 -12.959
    1XTA    H1238346  -2.451  25.738 -13.164
    1XTA    OA138347  -3.213  25.871 -13.372
    1XTA    CO138348  -3.248  25.783 -13.474
    1XTA    OA238349  -2.326  26.230 -13.385
    1XTA    CO238350  -2.214  26.178 -13.458
    1XTA    CL138351  -2.115  26.295 -13.475
    1XTA    CL238352  -2.030  26.314 -13.349
    1XTA    CL338353  -1.920  26.417 -13.375
    1XTA    CL438354  -1.818  26.429 -13.257
    1XTA    CO338355  -1.877  26.493 -13.128
    1XTA    OA338356  -1.781  26.486 -13.027
    1XTA    CO438357  -1.823  26.570 -12.919
    1XTA    CT138358  -1.707  26.572 -12.815
    1XTA    CL538359  -1.586  26.650 -12.869
    1XTA    CL638360  -1.601  26.795 -12.916
    1XTA    OA438361  -2.504  25.626 -12.729
    1XTA    CO538362  -2.369  25.635 -12.707
    1XTA    HL138363  -2.352  25.622 -12.602
    1XTA    HL238364  -3.274  25.684 -13.443
    1XTA    HL338365  -3.348  25.818 -13.495
    1XTA    HL438366  -3.194  25.800 -13.571
    1XTA    HL538367  -2.161  26.107 -13.399
    1XTA    HL638368  -2.234  26.138 -13.555
    1XTA    HL738369  -2.187  26.375 -13.493
    1XTA    HL838370  -2.053  26.273 -13.563
    1XTA    HL938371  -1.973  26.229 -13.317
    1XTA   HL1038372  -2.099  26.345 -13.267
    1XTA   HL1138373  -1.865  26.402 -13.461
    1XTA   HL1238374  -1.968  26.511 -13.392
    1XTA   HL1338375  -1.740  26.490 -13.302
    1XTA   HL1438376  -1.767  26.337 -13.230
    1XTA   HL1538377  -1.909  26.594 -13.158
    1XTA   HL1638378  -1.971  26.450 -13.104
    1XTA   HL1738379  -1.844  26.673 -12.957
    1XTA   HL1838380  -1.910  26.531 -12.869
    1XTA   HL1938381  -1.560  26.592 -12.959
    1XTA   HL2038382  -1.508  26.648 -12.792
    1XTA   HL2138383  -1.647  26.860 -12.837
    1XTA   HL2238384  -1.659  26.800 -13.000
    1XTA   HL2338385  -1.501  26.835 -12.943
    1XTA   HL2438386  -2.317  25.557 -12.759
    1XTA   HL2538387  -2.336  25.736 -12.736
    1XTA    CO838388  -1.657  26.431 -12.776
    1XTA    CO938389  -1.753  26.651 -12.690
    1XTA    OA638390  -1.555  26.428 -12.677
    1XTA   HL4238391  -1.624  26.375 -12.866
    1XTA   HL4338392  -1.742  26.368 -12.744
    1XTA   HL4838393  -1.842  26.611 -12.648
    1XTA   HL4938394  -1.805  26.746 -12.713
    1XTA     NT38395  -1.909  30.587  -7.792
    1XTA    CN138396  -1.919  30.513  -7.900
    1XTA     C138397  -1.928  30.577  -8.026
    1XTA     C238398  -1.948  30.507  -8.147
    1XTA     C338399  -1.943  30.366  -8.140
    1XTA     C438400  -1.953  30.296  -8.015
    1XTA     C538401  -1.935  30.373  -7.894
    1XTA    CN238402  -2.007  30.593  -7.700
    1XTA     C638403  -1.986  30.583  -7.561
    1XTA     C738404  -2.092  30.589  -7.468
    1XTA     C838405  -2.225  30.617  -7.512
    1XTA     C938406  -2.244  30.623  -7.652
    1XTA    C1038407  -2.140  30.610  -7.743
    1XTA    CN338408  -1.793  30.651  -7.766
    1XTA    C1138409  -1.673  30.574  -7.735
    1XTA    C1238410  -1.559  30.644  -7.687
    1XTA    C1338411  -1.558  30.781  -7.672
    1XTA    C1438412  -1.677  30.854  -7.702
    1XTA    C1538413  -1.793  30.792  -7.749
    1XTA     H138414  -1.914  30.686  -8.037
    1XTA     H238415  -1.942  30.557  -8.238
    1XTA     H338416  -1.955  30.194  -8.017
    1XTA     H438417  -1.951  30.324  -7.801
    1XTA     H538418  -1.878  30.583  -7.527
    1XTA     H638419  -2.069  30.559  -7.368
    1XTA     H738420  -2.340  30.650  -7.691
    1XTA     H838421  -2.156  30.622  -7.851
    1XTA     H938422  -1.680  30.468  -7.753
    1XTA    H1038423  -1.468  30.592  -7.662
    1XTA    H1138424  -1.685  30.958  -7.689
    1XTA    H1238425  -1.886  30.842  -7.757
    1XTA    OA138426  -1.949  30.300  -8.262
    1XTA    CO138427  -2.042  30.196  -8.267
    1XTA    OA238428  -2.333  30.639  -7.433
    1XTA    CO238429  -2.320  30.673  -7.294
    1XTA    CL138430  -2.456  30.728  -7.244
    1XTA    CL238431  -2.554  30.622  -7.208
    1XTA    CL338432  -2.647  30.670  -7.093
    1XTA    CL438433  -2.765  30.580  -7.058
    1XTA    CO338434  -2.866  30.557  -7.170
    1XTA    OA338435  -2.883  30.689  -7.229
    1XTA    CO438436  -2.947  30.699  -7.356
    1XTA    CT138437  -2.938  30.845  -7.410
    1XTA    CL538438  -2.971  30.945  -7.300
    1XTA    CL638439  -2.858  30.972  -7.199
    1XTA    OA438440  -1.440  30.839  -7.638
    1XTA    CO538441  -1.423  30.972  -7.673
    1XTA    HL138442  -1.320  30.997  -7.657
    1XTA    HL238443  -2.047  30.145  -8.361
    1XTA    HL338444  -2.035  30.128  -8.187
    1XTA    HL438445  -2.141  30.238  -8.252
    1XTA    HL538446  -2.272  30.603  -7.230
    1XTA    HL638447  -2.254  30.759  -7.295
    1XTA    HL738448  -2.498  30.804  -7.306
    1XTA    HL838449  -2.436  30.775  -7.149
    1XTA    HL938450  -2.492  30.535  -7.175
    1XTA   HL1038451  -2.609  30.583  -7.294
    1XTA   HL1138452  -2.597  30.680  -7.000
    1XTA   HL1238453  -2.692  30.771  -7.124
    1XTA   HL1338454  -2.826  30.629  -6.978
    1XTA   HL1438455  -2.718  30.490  -7.021
    1XTA   HL1538456  -2.827  30.489  -7.251
    1XTA   HL1638457  -2.956  30.514  -7.131
    1XTA   HL1738458  -2.897  30.632  -7.433
    1XTA   HL1838459  -3.042  30.647  -7.351
    1XTA   HL1938460  -3.060  30.912  -7.243
    1XTA   HL2038461  -2.999  31.033  -7.355
    1XTA   HL2138462  -2.883  31.065  -7.147
    1XTA   HL2238463  -2.764  30.989  -7.249
    1XTA   HL2338464  -2.830  30.900  -7.114
    1XTA   HL2438465  -1.475  31.052  -7.619
    1XTA   HL2538466  -1.435  30.990  -7.781
    1XTA    CO838467  -3.064  30.851  -7.511
    1XTA    CO938468  -2.805  30.865  -7.487
    1XTA    OA638469  -3.081  30.948  -7.570
    1XTA   HL4238470  -3.152  30.805  -7.466
    1XTA   HL4338471  -3.056  30.772  -7.584
    1XTA   HL4838472  -2.693  30.887  -7.397
    1XTA   HL4938473  -2.784  30.782  -7.551
    1XTA     NT38474  -2.449  29.803 -10.222
    1XTA    CN138475  -2.457  29.799 -10.358
    1XTA     C138476  -2.342  29.799 -10.434
    1XTA     C238477  -2.347  29.793 -10.576
    1XTA     C338478  -2.473  29.772 -10.635
    1XTA     C438479  -2.592  29.777 -10.556
    1XTA     C538480  -2.582  29.799 -10.419
    1XTA    CN238481  -2.437  29.917 -10.157
    1XTA     C638482  -2.535  29.958 -10.066
    1XTA     C738483  -2.508  30.073  -9.987
    1XTA     C838484  -2.385  30.148 -10.001
    1XTA     C938485  -2.296  30.109 -10.096
    1XTA    C1038486  -2.318  29.997 -10.171
    1XTA    CN338487  -2.391  29.695 -10.160
    1XTA    C1138488  -2.255  29.701 -10.121
    1XTA    C1238489  -2.194  29.596 -10.057
    1XTA    C1338490  -2.269  29.489 -10.002
    1XTA    C1438491  -2.409  29.483 -10.031
    1XTA    C1538492  -2.468  29.589 -10.109
    1XTA     H138493  -2.250  29.817 -10.378
    1XTA     H238494  -2.257  29.789 -10.630
    1XTA     H338495  -2.693  29.770 -10.600
    1XTA     H438496  -2.671  29.800 -10.360
    1XTA     H538497  -2.629  29.909 -10.054
    1XTA     H638498  -2.580  30.113  -9.915
    1XTA     H738499  -2.205  30.171 -10.114
    1XTA     H838500  -2.237  29.969 -10.238
    1XTA     H938501  -2.189  29.783 -10.152
    1XTA    H1038502  -2.090  29.606 -10.039
    1XTA    H1138503  -2.478  29.408  -9.997
    1XTA    H1238504  -2.567  29.574 -10.143
    1XTA    OA138505  -2.482  29.755 -10.776
    1XTA    CO138506  -2.606  29.726 -10.844
    1XTA    OA238507  -2.351  30.255  -9.925
    1XTA    CO238508  -2.382  30.375  -9.995
    1XTA    CL138509  -2.255  30.453 -10.015
    1XTA    CL238510  -2.281  30.600 -10.052
    1XTA    CL338511  -2.341  30.683  -9.938
    1XTA    CL438512  -2.372  30.826  -9.972
    1XTA    CO338513  -2.439  30.905  -9.853
    1XTA    OA338514  -2.345  30.914  -9.749
    1XTA    CO438515  -2.242  31.008  -9.773
    1XTA    CT138516  -2.111  30.978  -9.685
    1XTA    CL538517  -2.020  31.104  -9.723
    1XTA    CL638518  -1.939  31.093  -9.849
    1XTA    OA438519  -2.207  29.397  -9.921
    1XTA    CO538520  -2.066  29.387  -9.926
    1XTA    HL138521  -2.045  29.308  -9.849
    1XTA    HL238522  -2.658  29.820 -10.863
    1XTA    HL338523  -2.590  29.696 -10.941
    1XTA    HL438524  -2.680  29.664 -10.786
    1XTA    HL538525  -2.443  30.362 -10.085
    1XTA    HL638526  -2.446  30.424  -9.922
    1XTA    HL738527  -2.188  30.408 -10.088
    1XTA    HL838528  -2.195  30.439  -9.921
    1XTA    HL938529  -2.345  30.626 -10.137
    1XTA   HL1038530  -2.188  30.649 -10.071
    1XTA   HL1138531  -2.436  30.639  -9.918
    1XTA   HL1238532  -2.281  30.677  -9.846
    1XTA   HL1338533  -2.443  30.825 -10.056
    1XTA   HL1438534  -2.287  30.882 -10.006
    1XTA   HL1538535  -2.480  31.006  -9.879
    1XTA   HL1638536  -2.525  30.835  -9.815
    1XTA   HL1738537  -2.213  31.018  -9.880
    1XTA   HL1838538  -2.292  31.097  -9.740
    1XTA   HL1938539  -1.943  31.127  -9.652
    1XTA   HL2038540  -2.075  31.195  -9.720
    1XTA   HL2138541  -2.002  31.083  -9.933
    1XTA   HL2238542  -1.867  31.013  -9.835
    1XTA   HL2338543  -1.871  31.174  -9.857
    1XTA   HL2438544  -2.010  29.481  -9.904
    1XTA   HL2538545  -2.017  29.357 -10.021
    1XTA    CO838546  -2.061  30.839  -9.729
    1XTA    CO938547  -2.160  30.967  -9.536
    1XTA    OA638548  -1.930  30.825  -9.682
    1XTA   HL4238549  -2.065  30.836  -9.839
    1XTA   HL4338550  -2.113  30.749  -9.696
    1XTA   HL4838551  -2.250  31.025  -9.516
    1XTA   HL4938552  -2.195  30.868  -9.511
    1XTA     NT38553  -7.613  29.638  -9.818
    1XTA    CN138554  -7.677  29.576  -9.714
    1XTA     C138555  -7.595  29.508  -9.622
    1XTA     C238556  -7.658  29.455  -9.507
    1XTA     C338557  -7.796  29.452  -9.488
    1XTA     C438558  -7.872  29.516  -9.586
    1XTA     C538559  -7.816  29.580  -9.698
    1XTA    CN238560  -7.650  29.758  -9.853
    1XTA     C638561  -7.733  29.779  -9.965
    1XTA     C738562  -7.786  29.909  -9.996
    1XTA     C838563  -7.748  30.015  -9.907
    1XTA     C938564  -7.663  29.995  -9.804
    1XTA    C1038565  -7.611  29.867  -9.774
    1XTA    CN338566  -7.526  29.567  -9.889
    1XTA    C1138567  -7.560  29.446  -9.937
    1XTA    C1238568  -7.466  29.372 -10.015
    1XTA    C1338569  -7.337  29.419 -10.044
    1XTA    C1438570  -7.309  29.550 -10.002
    1XTA    C1538571  -7.406  29.629  -9.931
    1XTA     H138572  -7.487  29.512  -9.633
    1XTA     H238573  -7.590  29.397  -9.444
    1XTA     H338574  -7.979  29.534  -9.564
    1XTA     H438575  -7.878  29.626  -9.772
    1XTA     H538576  -7.750  29.694 -10.029
    1XTA     H638577  -7.841  29.927 -10.083
    1XTA     H738578  -7.643  30.083  -9.742
    1XTA     H838579  -7.546  29.855  -9.687
    1XTA     H938580  -7.656  29.405  -9.907
    1XTA    H1038581  -7.498  29.273 -10.055
    1XTA    H1138582  -7.215  29.595 -10.021
    1XTA    H1238583  -7.380  29.725  -9.895
    1XTA    OA138584  -7.866  29.392  -9.381
    1XTA    CO138585  -7.791  29.353  -9.270
    1XTA    OA238586  -7.790  30.146  -9.941
    1XTA    CO238587  -7.918  30.166  -9.993
    1XTA    CL138588  -8.034  30.095  -9.908
    1XTA    CL238589  -8.056  30.152  -9.765
    1XTA    CL338590  -8.174  30.078  -9.697
    1XTA    CL438591  -8.126  29.962  -9.607
    1XTA    CO338592  -8.243  29.858  -9.594
    1XTA    OA338593  -8.273  29.795  -9.719
    1XTA    CO438594  -8.290  29.655  -9.711
    1XTA    CT138595  -8.296  29.591  -9.853
    1XTA    CL538596  -8.151  29.577  -9.904
    1XTA    CL638597  -8.058  29.702  -9.938
    1XTA    OA438598  -7.249  29.344 -10.114
    1XTA    CO538599  -7.115  29.375 -10.077
    1XTA    HL138600  -7.105  29.365  -9.968
    1XTA    HL238601  -7.742  29.448  -9.233
    1XTA    HL338602  -7.852  29.311  -9.186
    1XTA    HL438603  -7.716  29.273  -9.281
    1XTA    HL538604  -7.940  30.278  -9.991
    1XTA    HL638605  -7.912  30.138 -10.096
    1XTA    HL738606  -8.023  29.986  -9.898
    1XTA    HL838607  -8.122  30.101  -9.967
    1XTA    HL938608  -8.071  30.253  -9.774
    1XTA   HL1038609  -7.957  30.133  -9.712
    1XTA   HL1138610  -8.229  30.146  -9.635
    1XTA   HL1238611  -8.252  30.049  -9.772
    1XTA   HL1338612  -8.108  30.006  -9.504
    1XTA   HL1438613  -8.038  29.915  -9.652
    1XTA   HL1538614  -8.210  29.781  -9.525
    1XTA   HL1638615  -8.334  29.899  -9.556
    1XTA   HL1738616  -8.219  29.606  -9.647
    1XTA   HL1838617  -8.382  29.646  -9.658
    1XTA   HL1938618  -8.167  29.511  -9.992
    1XTA   HL2038619  -8.094  29.528  -9.832
    1XTA   HL2138620  -7.960  29.693  -9.981
    1XTA   HL2238621  -8.045  29.766  -9.852
    1XTA   HL2338622  -8.115  29.760 -10.005
    1XTA   HL2438623  -7.085  29.478 -10.117
    1XTA   HL2538624  -7.050  29.300 -10.124
    1XTA    CO838625  -8.380  29.681  -9.947
    1XTA    CO938626  -8.362  29.455  -9.844
    1XTA    OA638627  -8.371  29.411  -9.945
    1XTA   HL4238628  -8.342  29.780  -9.934
    1XTA   HL4338629  -8.353  29.642 -10.080
    1XTA   HL4838630  -8.455  29.462  -9.785
    1XTA   HL4938631  -8.284  29.396  -9.784
    1XTA     NT38632  -6.907  24.103  -8.826
    1XTA    CN138633  -6.800  24.050  -8.757
    1XTA     C138634  -6.678  24.118  -8.739
    1XTA     C238635  -6.568  24.053  -8.681
    1XTA     C338636  -6.577  23.924  -8.631
    1XTA     C438637  -6.697  23.858  -8.645
    1XTA     C538638  -6.808  23.918  -8.709
    1XTA    CN238639  -6.988  24.196  -8.764
    1XTA     C638640  -7.004  24.327  -8.823
    1XTA     C738641  -7.083  24.423  -8.757
    1XTA     C838642  -7.154  24.381  -8.639
    1XTA     C938643  -7.143  24.253  -8.588
    1XTA    C1038644  -7.062  24.154  -8.654
    1XTA    CN338645  -6.932  24.079  -8.954
    1XTA    C1138646  -7.045  24.003  -8.989
    1XTA    C1238647  -7.078  23.987  -9.127
    1XTA    C1338648  -6.998  24.054  -9.226
    1XTA    C1438649  -6.891  24.138  -9.190
    1XTA    C1538650  -6.859  24.147  -9.053
    1XTA     H138651  -6.669  24.224  -8.772
    1XTA     H238652  -6.476  24.103  -8.666
    1XTA     H338653  -6.714  23.763  -8.601
    1XTA     H438654  -6.890  23.859  -8.734
    1XTA     H538655  -6.940  24.356  -8.907
    1XTA     H638656  -7.091  24.528  -8.789
    1XTA     H738657  -7.189  24.219  -8.496
    1XTA     H838658  -7.071  24.050  -8.627
    1XTA     H938659  -7.113  23.962  -8.916
    1XTA    H1038660  -7.166  23.926  -9.143
    1XTA    H1138661  -6.850  24.204  -9.271
    1XTA    H1238662  -6.766  24.205  -9.040
    1XTA    OA138663  -6.473  23.884  -8.553
    1XTA    CO138664  -6.506  23.779  -8.460
    1XTA    OA238665  -7.234  24.469  -8.567
    1XTA    CO238666  -7.306  24.575  -8.637
    1XTA    CL138667  -7.390  24.659  -8.541
    1XTA    CL238668  -7.471  24.578  -8.436
    1XTA    CL338669  -7.563  24.475  -8.492
    1XTA    CL438670  -7.604  24.352  -8.403
    1XTA    CO338671  -7.487  24.253  -8.393
    1XTA    OA338672  -7.537  24.128  -8.340
    1XTA    CO438673  -7.602  24.127  -8.213
    1XTA    CT138674  -7.624  23.975  -8.163
    1XTA    CL538675  -7.672  23.899  -8.286
    1XTA    CL638676  -7.678  23.748  -8.277
    1XTA    OA438677  -7.034  24.057  -9.359
    1XTA    CO538678  -7.175  24.030  -9.383
    1XTA    HL138679  -7.208  24.045  -9.489
    1XTA    HL238680  -6.602  23.794  -8.406
    1XTA    HL338681  -6.504  23.676  -8.504
    1XTA    HL438682  -6.438  23.786  -8.374
    1XTA    HL538683  -7.238  24.646  -8.682
    1XTA    HL638684  -7.352  24.522  -8.713
    1XTA    HL738685  -7.448  24.721  -8.612
    1XTA    HL838686  -7.342  24.746  -8.492
    1XTA    HL938687  -7.528  24.647  -8.376
    1XTA   HL1038688  -7.404  24.540  -8.363
    1XTA   HL1138689  -7.653  24.527  -8.519
    1XTA   HL1238690  -7.531  24.436  -8.586
    1XTA   HL1338691  -7.696  24.316  -8.436
    1XTA   HL1438692  -7.628  24.389  -8.302
    1XTA   HL1538693  -7.447  24.234  -8.493
    1XTA   HL1638694  -7.417  24.305  -8.328
    1XTA   HL1738695  -7.536  24.174  -8.139
    1XTA   HL1838696  -7.700  24.181  -8.213
    1XTA   HL1938697  -7.596  23.920  -8.367
    1XTA   HL2038698  -7.771  23.949  -8.318
    1XTA   HL2138699  -7.778  23.713  -8.237
    1XTA   HL2238700  -7.607  23.710  -8.207
    1XTA   HL2338701  -7.667  23.712  -8.381
    1XTA   HL2438702  -7.239  24.093  -9.327
    1XTA   HL2538703  -7.189  23.926  -9.362
    1XTA    CO838704  -7.730  23.969  -8.052
    1XTA    CO938705  -7.492  23.927  -8.099
    1XTA    OA638706  -7.402  23.914  -8.165
    1XTA   HL4238707  -7.735  23.866  -8.016
    1XTA   HL4338708  -7.705  24.047  -7.937
    1XTA   HL4838709  -7.505  23.830  -8.063
    1XTA   HL4938710  -7.464  24.006  -8.029
    1XTA     NT38711  -6.399  31.769  -9.159
    1XTA    CN138712  -6.277  31.816  -9.211
    1XTA     C138713  -6.171  31.724  -9.248
    1XTA     C238714  -6.049  31.776  -9.296
    1XTA     C338715  -6.032  31.914  -9.322
    1XTA     C438716  -6.138  32.002  -9.278
    1XTA     C538717  -6.263  31.953  -9.229
    1XTA    CN238718  -6.483  31.687  -9.226
    1XTA     C638719  -6.509  31.556  -9.182
    1XTA     C738720  -6.586  31.469  -9.263
    1XTA     C838721  -6.638  31.513  -9.384
    1XTA     C938722  -6.616  31.645  -9.421
    1XTA    C1038723  -6.544  31.737  -9.343
    1XTA    CN338724  -6.424  31.797  -9.027
    1XTA    C1138725  -6.509  31.898  -8.988
    1XTA    C1238726  -6.526  31.932  -8.854
    1XTA    C1338727  -6.454  31.871  -8.753
    1XTA    C1438728  -6.367  31.765  -8.794
    1XTA    C1538729  -6.358  31.724  -8.931
    1XTA     H138730  -6.200  31.618  -9.232
    1XTA     H238731  -5.966  31.712  -9.319
    1XTA     H338732  -6.129  32.112  -9.290
    1XTA     H438733  -6.338  32.026  -9.192
    1XTA     H538734  -6.452  31.523  -9.099
    1XTA     H638735  -6.607  31.361  -9.238
    1XTA     H738736  -6.650  31.679  -9.513
    1XTA     H838737  -6.526  31.841  -9.367
    1XTA     H938738  -6.570  31.949  -9.057
    1XTA    H1038739  -6.589  32.015  -8.827
    1XTA    H1138740  -6.319  31.710  -8.716
    1XTA    H1238741  -6.296  31.643  -8.968
    1XTA    OA138742  -5.907  31.958  -9.352
    1XTA    CO138743  -5.844  32.008  -9.244
    1XTA    OA238744  -6.722  31.418  -9.447
    1XTA    CO238745  -6.741  31.447  -9.581
    1XTA    CL138746  -6.769  31.315  -9.653
    1XTA    CL238747  -6.691  31.314  -9.789
    1XTA    CL338748  -6.721  31.185  -9.862
    1XTA    CL438749  -6.872  31.167  -9.905
    1XTA    CO338750  -6.924  31.288  -9.984
    1XTA    OA338751  -7.032  31.236 -10.061
    1XTA    CO438752  -7.120  31.339 -10.094
    1XTA    CT138753  -7.237  31.277 -10.162
    1XTA    CL538754  -7.327  31.381 -10.236
    1XTA    CL638755  -7.247  31.455 -10.347
    1XTA    OA438756  -6.475  31.917  -8.627
    1XTA    CO538757  -6.401  31.839  -8.531
    1XTA    HL138758  -6.419  31.869  -8.426
    1XTA    HL238759  -5.900  32.092  -9.202
    1XTA    HL338760  -5.839  31.932  -9.166
    1XTA    HL438761  -5.746  32.036  -9.267
    1XTA    HL538762  -6.826  31.514  -9.602
    1XTA    HL638763  -6.646  31.486  -9.619
    1XTA    HL738764  -6.871  31.312  -9.681
    1XTA    HL838765  -6.770  31.226  -9.577
    1XTA    HL938766  -6.581  31.314  -9.768
    1XTA   HL1038767  -6.712  31.399  -9.859
    1XTA   HL1138768  -6.664  31.184  -9.952
    1XTA   HL1238769  -6.685  31.096  -9.811
    1XTA   HL1338770  -6.925  31.152  -9.813
    1XTA   HL1438771  -6.883  31.077  -9.958
    1XTA   HL1538772  -6.945  31.374  -9.922
    1XTA   HL1638773  -6.841  31.324 -10.055
    1XTA   HL1738774  -7.162  31.387 -10.005
    1XTA   HL1838775  -7.065  31.397 -10.159
    1XTA   HL1938776  -7.360  31.458 -10.169
    1XTA   HL2038777  -7.414  31.335 -10.274
    1XTA   HL2138778  -7.158  31.504 -10.312
    1XTA   HL2238779  -7.305  31.535 -10.381
    1XTA   HL2338780  -7.217  31.395 -10.432
    1XTA   HL2438781  -6.299  31.848  -8.557
    1XTA   HL2538782  -6.438  31.741  -8.534
    1XTA    CO838783  -7.326  31.210 -10.063
    1XTA    CO938784  -7.192  31.171 -10.264
    1XTA    OA638785  -7.272  31.127 -10.007
    1XTA   HL4238786  -7.423  31.172 -10.107
    1XTA   HL4338787  -7.355  31.279  -9.992
    1XTA   HL4838788  -7.143  31.060 -10.203
    1XTA   HL4938789  -7.109  31.213 -10.328
    1XTA     NT38790  -6.010  24.032  -8.308
    1XTA    CN138791  -6.024  24.040  -8.437
    1XTA     C138792  -5.973  24.153  -8.505
    1XTA     C238793  -6.006  24.178  -8.639
    1XTA     C338794  -6.082  24.084  -8.713
    1XTA     C438795  -6.142  23.972  -8.648
    1XTA     C538796  -6.115  23.958  -8.506
    1XTA    CN238797  -6.111  24.050  -8.228
    1XTA     C638798  -6.142  24.177  -8.190
    1XTA     C738799  -6.260  24.199  -8.117
    1XTA     C838800  -6.341  24.092  -8.070
    1XTA     C938801  -6.318  23.961  -8.112
    1XTA    C1038802  -6.201  23.947  -8.191
    1XTA    CN338803  -5.905  23.971  -8.254
    1XTA    C1138804  -5.893  23.829  -8.259
    1XTA    C1238805  -5.789  23.766  -8.183
    1XTA    C1338806  -5.697  23.844  -8.107
    1XTA    C1438807  -5.701  23.984  -8.117
    1XTA    C1538808  -5.805  24.040  -8.195
    1XTA     H138809  -5.907  24.226  -8.453
    1XTA     H238810  -5.972  24.264  -8.697
    1XTA     H338811  -6.202  23.899  -8.690
    1XTA     H438812  -6.165  23.875  -8.460
    1XTA     H538813  -6.073  24.259  -8.213
    1XTA     H638814  -6.295  24.290  -8.096
    1XTA     H738815  -6.380  23.876  -8.098
    1XTA     H838816  -6.178  23.847  -8.220
    1XTA     H938817  -5.958  23.761  -8.316
    1XTA    H1038818  -5.769  23.665  -8.203
    1XTA    H1138819  -5.632  24.056  -8.077
    1XTA    H1238820  -5.818  24.154  -8.206
    1XTA    OA138821  -6.119  24.099  -8.843
    1XTA    CO138822  -6.032  24.159  -8.936
    1XTA    OA238823  -6.447  24.118  -7.989
    1XTA    CO238824  -6.561  24.051  -8.033
    1XTA    CL138825  -6.600  24.109  -8.174
    1XTA    CL238826  -6.733  24.061  -8.231
    1XTA    CL338827  -6.761  24.136  -8.365
    1XTA    CL438828  -6.838  24.269  -8.348
    1XTA    CO338829  -6.822  24.368  -8.465
    1XTA    OA338830  -6.918  24.470  -8.449
    1XTA    CO438831  -6.890  24.579  -8.361
    1XTA    CT138832  -7.002  24.686  -8.344
    1XTA    CL538833  -6.955  24.795  -8.243
    1XTA    CL638834  -7.055  24.905  -8.214
    1XTA    OA438835  -5.614  23.769  -8.029
    1XTA    CO538836  -5.505  23.835  -7.978
    1XTA    HL138837  -5.437  23.758  -7.930
    1XTA    HL238838  -5.926  24.143  -8.912
    1XTA    HL338839  -6.046  24.118  -9.030
    1XTA    HL438840  -6.046  24.268  -8.935
    1XTA    HL538841  -6.548  23.943  -8.046
    1XTA    HL638842  -6.643  24.086  -7.966
    1XTA    HL738843  -6.528  24.089  -8.260
    1XTA    HL838844  -6.602  24.217  -8.170
    1XTA    HL938845  -6.818  24.086  -8.169
    1XTA   HL1038846  -6.725  23.952  -8.247
    1XTA   HL1138847  -6.671  24.151  -8.425
    1XTA   HL1238848  -6.808  24.062  -8.432
    1XTA   HL1338849  -6.816  24.310  -8.244
    1XTA   HL1438850  -6.948  24.257  -8.331
    1XTA   HL1538851  -6.717  24.400  -8.473
    1XTA   HL1638852  -6.838  24.308  -8.552
    1XTA   HL1738853  -6.873  24.552  -8.257
    1XTA   HL1838854  -6.802  24.628  -8.393
    1XTA   HL1938855  -6.851  24.821  -8.271
    1XTA   HL2038856  -6.933  24.759  -8.141
    1XTA   HL2138857  -7.025  24.997  -8.165
    1XTA   HL2238858  -7.141  24.856  -8.161
    1XTA   HL2338859  -7.090  24.953  -8.301
    1XTA   HL2438860  -5.530  23.910  -7.906
    1XTA   HL2538861  -5.436  23.881  -8.056
    1XTA    CO838862  -7.124  24.607  -8.287
    1XTA    CO938863  -7.041  24.742  -8.486
    1XTA    OA638864  -6.937  24.831  -8.527
    1XTA   HL4238865  -7.146  24.527  -8.359
    1XTA   HL4338866  -7.209  24.673  -8.295
    1XTA   HL4838867  -7.134  24.798  -8.493
    1XTA   HL4938868  -7.051  24.663  -8.559
    1XTA     NT38869  -7.100  26.951 -11.610
    1XTA    CN138870  -6.995  26.948 -11.527
    1XTA     C138871  -6.965  26.836 -11.446
    1XTA     C238872  -6.856  26.834 -11.363
    1XTA     C338873  -6.777  26.954 -11.348
    1XTA     C438874  -6.802  27.070 -11.418
    1XTA     C538875  -6.911  27.061 -11.511
    1XTA    CN238876  -7.214  27.011 -11.573
    1XTA     C638877  -7.321  26.934 -11.514
    1XTA     C738878  -7.446  27.002 -11.493
    1XTA     C838879  -7.460  27.139 -11.517
    1XTA     C938880  -7.355  27.217 -11.563
    1XTA    C1038881  -7.234  27.153 -11.603
    1XTA    CN338882  -7.091  26.893 -11.731
    1XTA    C1138883  -7.156  26.773 -11.761
    1XTA    C1238884  -7.155  26.720 -11.891
    1XTA    C1338885  -7.081  26.781 -11.991
    1XTA    C1438886  -7.000  26.893 -11.961
    1XTA    C1538887  -7.003  26.951 -11.832
    1XTA     H138888  -7.019  26.750 -11.445
    1XTA     H238889  -6.845  26.748 -11.297
    1XTA     H338890  -6.748  27.159 -11.414
    1XTA     H438891  -6.946  27.152 -11.562
    1XTA     H538892  -7.317  26.830 -11.498
    1XTA     H638893  -7.534  26.963 -11.445
    1XTA     H738894  -7.376  27.321 -11.588
    1XTA     H838895  -7.160  27.201 -11.664
    1XTA     H938896  -7.228  26.730 -11.695
    1XTA    H1038897  -7.226  26.636 -11.906
    1XTA    H1138898  -6.949  26.941 -12.039
    1XTA    H1238899  -6.946  27.042 -11.790
    1XTA    OA138900  -6.678  26.956 -11.252
    1XTA    CO138901  -6.650  26.843 -11.170
    1XTA    OA238902  -7.587  27.192 -11.488
    1XTA    CO238903  -7.600  27.264 -11.369
    1XTA    CL138904  -7.750  27.289 -11.338
    1XTA    CL238905  -7.786  27.352 -11.204
    1XTA    CL338906  -7.723  27.284 -11.083
    1XTA    CL438907  -7.618  27.371 -11.009
    1XTA    CO338908  -7.514  27.295 -10.934
    1XTA    OA338909  -7.446  27.207 -11.026
    1XTA    CO438910  -7.327  27.164 -10.957
    1XTA    CT138911  -7.240  27.076 -11.054
    1XTA    CL538912  -7.089  27.058 -11.005
    1XTA    CL638913  -6.997  26.982 -11.100
    1XTA    OA438914  -7.072  26.738 -12.122
    1XTA    CO538915  -7.152  26.625 -12.163
    1XTA    HL138916  -7.267  26.638 -12.154
    1XTA    HL238917  -6.610  26.758 -11.224
    1XTA    HL338918  -6.573  26.869 -11.108
    1XTA    HL438919  -6.745  26.817 -11.119
    1XTA    HL538920  -7.557  27.197 -11.295
    1XTA    HL638921  -7.542  27.352 -11.366
    1XTA    HL738922  -7.778  27.183 -11.344
    1XTA    HL838923  -7.784  27.349 -11.423
    1XTA    HL938924  -7.895  27.353 -11.200
    1XTA   HL1038925  -7.768  27.456 -11.207
    1XTA   HL1138926  -7.801  27.267 -11.011
    1XTA   HL1238927  -7.679  27.182 -11.108
    1XTA   HL1338928  -7.660  27.451 -10.956
    1XTA   HL1438929  -7.566  27.422 -11.084
    1XTA   HL1538930  -7.439  27.357 -10.882
    1XTA   HL1638931  -7.570  27.241 -10.857
    1XTA   HL1738932  -7.275  27.245 -10.913
    1XTA   HL1838933  -7.361  27.111 -10.873
    1XTA   HL1938934  -7.098  26.997 -10.914
    1XTA   HL2038935  -7.051  27.152 -10.988
    1XTA   HL2138936  -6.994  27.021 -11.203
    1XTA   HL2238937  -7.044  26.881 -11.109
    1XTA   HL2338938  -6.894  26.973 -11.074
    1XTA   HL2438939  -7.139  26.537 -12.113
    1XTA   HL2538940  -7.119  26.607 -12.262
    1XTA    CO838941  -7.234  27.149 -11.196
    1XTA    CO938942  -7.313  26.941 -11.077
    1XTA    OA638943  -7.324  26.873 -10.955
    1XTA   HL4238944  -7.164  27.109 -11.268
    1XTA   HL4338945  -7.321  27.122 -11.250
    1XTA   HL4838946  -7.268  26.879 -11.158
    1XTA   HL4938947  -7.411  26.963 -11.117
    1XTA     NT38948  -8.897  26.807  -6.567
    1XTA    CN138949  -8.784  26.729  -6.588
    1XTA     C138950  -8.695  26.767  -6.686
    1XTA     C238951  -8.589  26.678  -6.710
    1XTA     C338952  -8.579  26.555  -6.643
    1XTA     C438953  -8.664  26.525  -6.533
    1XTA     C538954  -8.773  26.614  -6.505
    1XTA    CN238955  -9.000  26.787  -6.643
    1XTA     C638956  -9.113  26.720  -6.595
    1XTA     C738957  -9.238  26.720  -6.662
    1XTA     C838958  -9.232  26.763  -6.797
    1XTA     C938959  -9.112  26.802  -6.861
    1XTA    C1038960  -9.001  26.830  -6.778
    1XTA    CN338961  -8.882  26.926  -6.503
    1XTA    C1138962  -8.859  27.047  -6.573
    1XTA    C1238963  -8.851  27.167  -6.511
    1XTA    C1338964  -8.903  27.180  -6.380
    1XTA    C1438965  -8.928  27.064  -6.305
    1XTA    C1538966  -8.912  26.932  -6.362
    1XTA     H138967  -8.686  26.856  -6.748
    1XTA     H238968  -8.523  26.700  -6.786
    1XTA     H338969  -8.635  26.446  -6.471
    1XTA     H438970  -8.834  26.598  -6.419
    1XTA     H538971  -9.109  26.685  -6.493
    1XTA     H638972  -9.322  26.700  -6.602
    1XTA     H738973  -9.109  26.831  -6.967
    1XTA     H838974  -8.914  26.877  -6.827
    1XTA     H938975  -8.838  27.036  -6.678
    1XTA    H1038976  -8.817  27.257  -6.567
    1XTA    H1138977  -8.972  27.078  -6.211
    1XTA    H1238978  -8.939  26.838  -6.305
    1XTA    OA138979  -8.470  26.482  -6.678
    1XTA    CO138980  -8.443  26.364  -6.610
    1XTA    OA238981  -9.348  26.765  -6.870
    1XTA    CO238982  -9.351  26.703  -6.997
    1XTA    CL138983  -9.313  26.786  -7.123
    1XTA    CL238984  -9.379  26.918  -7.151
    1XTA    CL338985  -9.317  27.031  -7.063
    1XTA    CL438986  -9.400  27.152  -7.077
    1XTA    CO338987  -9.429  27.211  -6.940
    1XTA    OA338988  -9.514  27.129  -6.867
    1XTA    CO438989  -9.602  27.198  -6.780
    1XTA    CT138990  -9.686  27.092  -6.707
    1XTA    CL538991  -9.757  27.159  -6.590
    1XTA    CL638992  -9.823  27.064  -6.488
    1XTA    OA438993  -8.930  27.299  -6.322
    1XTA    CO538994  -8.948  27.411  -6.408
    1XTA    HL138995  -9.041  27.394  -6.462
    1XTA    HL238996  -8.528  26.306  -6.605
    1XTA    HL338997  -8.352  26.308  -6.641
    1XTA    HL438998  -8.423  26.397  -6.510
    1XTA    HL538999  -9.297  26.615  -6.994
    1XTA    HL639000  -9.454  26.674  -7.019
    1XTA    HL739001  -9.329  26.715  -7.206
    1XTA    HL839002  -9.207  26.807  -7.125
    1XTA    HL939003  -9.493  26.914  -7.142
    1XTA   HL1039004  -9.343  26.946  -7.247
    1XTA   HL1139005  -9.312  27.002  -6.955
    1XTA   HL1239006  -9.219  27.049  -7.104
    1XTA   HL1339007  -9.499  27.137  -7.129
    1XTA   HL1439008  -9.351  27.226  -7.145
    1XTA   HL1539009  -9.337  27.235  -6.893
    1XTA   HL1639010  -9.490  27.296  -6.956
    1XTA   HL1739011  -9.543  27.258  -6.715
    1XTA   HL1839012  -9.670  27.265  -6.827
    1XTA   HL1939013  -9.841  27.215  -6.629
    1XTA   HL2039014  -9.703  27.233  -6.538
    1XTA   HL2139015  -9.874  27.115  -6.413
    1XTA   HL2239016  -9.747  27.010  -6.440
    1XTA   HL2339017  -9.894  26.998  -6.530
    1XTA   HL2439018  -8.859  27.434  -6.469
    1XTA   HL2539019  -8.961  27.502  -6.353
    1XTA    CO839020  -9.594  26.978  -6.658
    1XTA    CO939021  -9.787  27.022  -6.798
    1XTA    OA639022  -9.875  27.113  -6.863
    1XTA   HL4239023  -9.541  26.943  -6.749
    1XTA   HL4339024  -9.526  27.011  -6.587
    1XTA   HL4839025  -9.842  26.940  -6.750
    1XTA   HL4939026  -9.731  26.976  -6.881
    1XTA     NT39027  -7.322  24.860  -9.328
    1XTA    CN139028  -7.319  24.748  -9.255
    1XTA     C139029  -7.363  24.750  -9.119
    1XTA     C239030  -7.356  24.633  -9.042
    1XTA     C339031  -7.306  24.516  -9.098
    1XTA     C439032  -7.268  24.513  -9.233
    1XTA     C539033  -7.277  24.628  -9.315
    1XTA    CN239034  -7.439  24.914  -9.375
    1XTA     C639035  -7.476  25.047  -9.344
    1XTA     C739036  -7.607  25.088  -9.377
    1XTA     C839037  -7.695  25.001  -9.445
    1XTA     C939038  -7.656  24.872  -9.482
    1XTA    C1039039  -7.528  24.828  -9.444
    1XTA    CN339040  -7.197  24.914  -9.370
    1XTA    C1139041  -7.125  25.000  -9.289
    1XTA    C1239042  -6.992  25.039  -9.326
    1XTA    C1339043  -6.935  24.994  -9.447
    1XTA    C1439044  -7.017  24.921  -9.535
    1XTA    C1539045  -7.143  24.876  -9.493
    1XTA     H139046  -7.399  24.848  -9.085
    1XTA     H239047  -7.380  24.638  -8.939
    1XTA     H339048  -7.243  24.416  -9.277
    1XTA     H439049  -7.256  24.625  -9.417
    1XTA     H539050  -7.404  25.099  -9.289
    1XTA     H639051  -7.637  25.188  -9.354
    1XTA     H739052  -7.721  24.805  -9.533
    1XTA     H839053  -7.494  24.729  -9.473
    1XTA     H939054  -7.150  25.051  -9.200
    1XTA    H1039055  -6.938  25.104  -9.263
    1XTA    H1139056  -6.969  24.892  -9.630
    1XTA    H1239057  -7.196  24.805  -9.559
    1XTA    OA139058  -7.267  24.416  -9.014
    1XTA    CO139059  -7.230  24.293  -9.066
    1XTA    OA239060  -7.828  25.036  -9.484
    1XTA    CO239061  -7.888  25.145  -9.421
    1XTA    CL139062  -8.025  25.166  -9.485
    1XTA    CL239063  -8.011  25.195  -9.633
    1XTA    CL339064  -7.944  25.325  -9.663
    1XTA    CL439065  -7.941  25.359  -9.817
    1XTA    CO339066  -7.877  25.490  -9.854
    1XTA    OA339067  -7.961  25.602  -9.822
    1XTA    CO439068  -7.884  25.719  -9.810
    1XTA    CT139069  -7.955  25.823  -9.897
    1XTA    CL539070  -7.924  25.803 -10.042
    1XTA    CL639071  -7.996  25.892 -10.143
    1XTA    OA439072  -6.805  25.017  -9.486
    1XTA    CO539073  -6.720  25.095  -9.397
    1XTA    HL139074  -6.693  25.032  -9.314
    1XTA    HL239075  -7.320  24.260  -9.120
    1XTA    HL339076  -7.157  24.306  -9.148
    1XTA    HL439077  -7.196  24.214  -8.994
    1XTA    HL539078  -7.899  25.124  -9.315
    1XTA    HL639079  -7.828  25.246  -9.424
    1XTA    HL739080  -8.079  25.244  -9.426
    1XTA    HL839081  -8.078  25.075  -9.469
    1XTA    HL939082  -8.107  25.192  -9.687
    1XTA   HL1039083  -7.948  25.111  -9.672
    1XTA   HL1139084  -7.995  25.404  -9.607
    1XTA   HL1239085  -7.846  25.312  -9.619
    1XTA   HL1339086  -8.037  25.361  -9.850
    1XTA   HL1439087  -7.891  25.275  -9.870
    1XTA   HL1539088  -7.779  25.507  -9.802
    1XTA   HL1639089  -7.861  25.488  -9.961
    1XTA   HL1739090  -7.894  25.751  -9.704
    1XTA   HL1839091  -7.774  25.715  -9.835
    1XTA   HL1939092  -7.941  25.697 -10.056
    1XTA   HL2039093  -7.816  25.808 -10.050
    1XTA   HL2139094  -7.952  25.880 -10.246
    1XTA   HL2239095  -7.990  25.995 -10.101
    1XTA   HL2339096  -8.102  25.866 -10.155
    1XTA   HL2439097  -6.767  25.191  -9.362
    1XTA   HL2539098  -6.635  25.122  -9.455
    1XTA    CO839099  -7.906  25.960  -9.852
    1XTA    CO939100  -8.106  25.818  -9.868
    1XTA    OA639101  -8.189  25.908  -9.933
    1XTA   HL4239102  -7.802  25.979  -9.879
    1XTA   HL4339103  -7.957  26.026  -9.918
    1XTA   HL4839104  -8.115  25.820  -9.762
    1XTA   HL4939105  -8.147  25.723  -9.888
    1XTA     NT39106  -3.828  25.558  -8.484
    1XTA    CN139107  -3.858  25.447  -8.561
    1XTA     C139108  -3.821  25.448  -8.697
    1XTA     C239109  -3.830  25.330  -8.780
    1XTA     C339110  -3.873  25.212  -8.724
    1XTA     C439111  -3.914  25.211  -8.590
    1XTA     C539112  -3.912  25.327  -8.509
    1XTA    CN239113  -3.717  25.549  -8.410
    1XTA     C639114  -3.722  25.512  -8.271
    1XTA     C739115  -3.609  25.489  -8.194
    1XTA     C839116  -3.478  25.512  -8.247
    1XTA     C939117  -3.467  25.551  -8.379
    1XTA    C1039118  -3.583  25.575  -8.458
    1XTA    CN339119  -3.916  25.655  -8.463
    1XTA    C1139120  -3.899  25.784  -8.516
    1XTA    C1239121  -3.989  25.886  -8.484
    1XTA    C1339122  -4.102  25.856  -8.406
    1XTA    C1439123  -4.119  25.729  -8.361
    1XTA    C1539124  -4.031  25.627  -8.388
    1XTA     H139125  -3.775  25.537  -8.735
    1XTA     H239126  -3.786  25.338  -8.877
    1XTA     H339127  -3.941  25.112  -8.551
    1XTA     H439128  -3.941  25.328  -8.404
    1XTA     H539129  -3.819  25.488  -8.219
    1XTA     H639130  -3.625  25.452  -8.093
    1XTA     H739131  -3.374  25.571  -8.430
    1XTA     H839132  -3.578  25.599  -8.560
    1XTA     H939133  -3.817  25.801  -8.583
    1XTA    H1039134  -3.977  25.983  -8.530
    1XTA    H1139135  -4.189  25.706  -8.286
    1XTA    H1239136  -4.030  25.521  -8.348
    1XTA    OA139137  -3.886  25.098  -8.793
    1XTA    CO139138  -3.908  25.113  -8.937
    1XTA    OA239139  -3.365  25.493  -8.166
    1XTA    CO239140  -3.242  25.537  -8.208
    1XTA    CL139141  -3.145  25.475  -8.101
    1XTA    CL239142  -3.100  25.326  -8.133
    1XTA    CL339143  -3.003  25.327  -8.249
    1XTA    CL439144  -2.968  25.183  -8.299
    1XTA    CO339145  -2.858  25.182  -8.408
    1XTA    OA339146  -2.910  25.216  -8.539
    1XTA    CO439147  -2.889  25.357  -8.558
    1XTA    CT139148  -2.958  25.418  -8.678
    1XTA    CL539149  -2.907  25.356  -8.813
    1XTA    CL639150  -2.764  25.351  -8.851
    1XTA    OA439151  -4.193  25.951  -8.367
    1XTA    CO539152  -4.145  26.083  -8.351
    1XTA    HL139153  -4.138  26.141  -8.443
    1XTA    HL239154  -3.980  25.190  -8.963
    1XTA    HL339155  -3.817  25.161  -8.988
    1XTA    HL439156  -3.929  25.012  -8.983
    1XTA    HL539157  -3.208  25.499  -8.302
    1XTA    HL639158  -3.239  25.650  -8.212
    1XTA    HL739159  -3.181  25.485  -8.000
    1XTA    HL839160  -3.055  25.537  -8.103
    1XTA    HL939161  -3.193  25.270  -8.151
    1XTA   HL1039162  -3.047  25.287  -8.039
    1XTA   HL1139163  -3.038  25.381  -8.339
    1XTA   HL1239164  -2.911  25.385  -8.225
    1XTA   HL1339165  -3.059  25.145  -8.350
    1XTA   HL1439166  -2.942  25.108  -8.230
    1XTA   HL1539167  -2.759  25.229  -8.389
    1XTA   HL1639168  -2.841  25.078  -8.416
    1XTA   HL1739169  -2.906  25.425  -8.477
    1XTA   HL1839170  -2.785  25.369  -8.581
    1XTA   HL1939171  -2.965  25.391  -8.900
    1XTA   HL2039172  -2.934  25.251  -8.811
    1XTA   HL2139173  -2.689  25.307  -8.785
    1XTA   HL2239174  -2.743  25.458  -8.886
    1XTA   HL2339175  -2.742  25.292  -8.943
    1XTA   HL2439176  -4.045  26.074  -8.306
    1XTA   HL2539177  -4.199  26.139  -8.271
    1XTA    CO839178  -2.924  25.573  -8.683
    1XTA    CO939179  -3.109  25.401  -8.677
    1XTA    OA639180  -2.939  25.627  -8.588
    1XTA   HL4239181  -2.981  25.608  -8.771
    1XTA   HL4339182  -2.814  25.578  -8.694
    1XTA   HL4839183  -3.138  25.276  -8.616
    1XTA   HL4939184  -3.142  25.478  -8.597
    1XTA     NT39185  -1.164  24.897  -6.209
    1XTA    CN139186  -1.136  24.808  -6.113
    1XTA     C139187  -1.239  24.756  -6.031
    1XTA     C239188  -1.213  24.679  -5.920
    1XTA     C339189  -1.088  24.634  -5.898
    1XTA     C439190  -0.985  24.659  -5.994
    1XTA     C539191  -1.008  24.752  -6.097
    1XTA    CN239192  -1.087  24.895  -6.322
    1XTA     C639193  -1.003  25.004  -6.351
    1XTA     C739194  -0.917  24.998  -6.460
    1XTA     C839195  -0.917  24.884  -6.539
    1XTA     C939196  -0.992  24.771  -6.516
    1XTA    C1039197  -1.081  24.781  -6.409
    1XTA    CN339198  -1.257  24.989  -6.184
    1XTA    C1139199  -1.236  25.095  -6.094
    1XTA    C1239200  -1.340  25.187  -6.073
    1XTA    C1339201  -1.465  25.177  -6.146
    1XTA    C1439202  -1.478  25.076  -6.243
    1XTA    C1539203  -1.374  24.983  -6.260
    1XTA     H139204  -1.340  24.791  -6.046
    1XTA     H239205  -1.288  24.661  -5.851
    1XTA     H339206  -0.891  24.613  -5.991
    1XTA     H439207  -0.930  24.780  -6.167
    1XTA     H539208  -1.012  25.089  -6.285
    1XTA     H639209  -0.853  25.075  -6.466
    1XTA     H739210  -0.993  24.680  -6.586
    1XTA     H839211  -1.148  24.701  -6.386
    1XTA     H939212  -1.143  25.109  -6.044
    1XTA    H1039213  -1.330  25.262  -5.994
    1XTA    H1139214  -1.568  25.055  -6.306
    1XTA    H1239215  -1.387  24.906  -6.334
    1XTA    OA139216  -1.074  24.548  -5.794
    1XTA    CO139217  -0.951  24.479  -5.776
    1XTA    OA239218  -0.821  24.897  -6.636
    1XTA    CO239219  -0.793  24.783  -6.713
    1XTA    CL139220  -0.671  24.817  -6.805
    1XTA    CL239221  -0.663  24.737  -6.934
    1XTA    CL339222  -0.799  24.719  -7.004
    1XTA    CL439223  -0.790  24.654  -7.148
    1XTA    CO339224  -0.710  24.746  -7.243
    1XTA    OA339225  -0.790  24.860  -7.259
    1XTA    CO439226  -0.728  24.958  -7.344
    1XTA    CT139227  -0.815  25.088  -7.348
    1XTA    CL539228  -0.788  25.155  -7.484
    1XTA    CL639229  -0.644  25.175  -7.535
    1XTA    OA439230  -1.569  25.270  -6.127
    1XTA    CO539231  -1.699  25.242  -6.172
    1XTA    HL139232  -1.731  25.242  -6.282
    1XTA    HL239233  -0.958  24.439  -5.672
    1XTA    HL339234  -0.943  24.394  -5.847
    1XTA    HL439235  -0.865  24.543  -5.779
    1XTA    HL539236  -0.767  24.695  -6.644
    1XTA    HL639237  -0.881  24.765  -6.765
    1XTA    HL739238  -0.569  24.816  -6.765
    1XTA    HL839239  -0.694  24.920  -6.829
    1XTA    HL939240  -0.624  24.634  -6.913
    1XTA   HL1039241  -0.582  24.778  -7.006
    1XTA   HL1139242  -0.875  24.660  -6.952
    1XTA   HL1239243  -0.840  24.820  -7.015
    1XTA   HL1339244  -0.885  24.635  -7.197
    1XTA   HL1439245  -0.750  24.550  -7.149
    1XTA   HL1539246  -0.614  24.778  -7.213
    1XTA   HL1639247  -0.693  24.688  -7.333
    1XTA   HL1739248  -0.630  24.992  -7.310
    1XTA   HL1839249  -0.708  24.921  -7.447
    1XTA   HL1939250  -0.851  25.244  -7.486
    1XTA   HL2039251  -0.837  25.095  -7.561
    1XTA   HL2139252  -0.590  25.079  -7.544
    1XTA   HL2239253  -0.589  25.255  -7.479
    1XTA   HL2339254  -0.652  25.208  -7.641
    1XTA   HL2439255  -1.773  25.294  -6.117
    1XTA   HL2539256  -1.722  25.141  -6.135
    1XTA    CO839257  -0.778  25.187  -7.237
    1XTA    CO939258  -0.966  25.051  -7.343
    1XTA    OA639259  -1.011  24.976  -7.459
    1XTA   HL4239260  -0.837  25.275  -7.240
    1XTA   HL4339261  -0.809  25.144  -7.144
    1XTA   HL4839262  -1.026  25.136  -7.329
    1XTA   HL4939263  -0.983  24.986  -7.259
    1XTA     NT39264  -8.818  30.825 -12.168
    1XTA    CN139265  -8.743  30.892 -12.250
    1XTA     C139266  -8.680  31.004 -12.200
    1XTA     C239267  -8.585  31.079 -12.277
    1XTA     C339268  -8.573  31.039 -12.412
    1XTA     C439269  -8.635  30.929 -12.466
    1XTA     C539270  -8.719  30.853 -12.384
    1XTA    CN239271  -8.771  30.740 -12.073
    1XTA     C639272  -8.698  30.776 -11.961
    1XTA     C739273  -8.675  30.684 -11.859
    1XTA     C839274  -8.685  30.546 -11.887
    1XTA     C939275  -8.752  30.508 -12.002
    1XTA    C1039276  -8.797  30.604 -12.086
    1XTA    CN339277  -8.946  30.861 -12.156
    1XTA    C1139278  -8.979  30.974 -12.080
    1XTA    C1239279  -9.119  30.999 -12.062
    1XTA    C1339280  -9.222  30.918 -12.118
    1XTA    C1439281  -9.185  30.813 -12.204
    1XTA    C1539282  -9.046  30.788 -12.222
    1XTA     H139283  -8.711  31.032 -12.097
    1XTA     H239284  -8.537  31.166 -12.233
    1XTA     H339285  -8.626  30.896 -12.568
    1XTA     H439286  -8.772  30.766 -12.411
    1XTA     H539287  -8.675  30.877 -11.936
    1XTA     H639288  -8.641  30.732 -11.766
    1XTA     H739289  -8.774  30.405 -12.026
    1XTA     H839290  -8.856  30.573 -12.169
    1XTA     H939291  -8.910  31.034 -12.030
    1XTA    H1039292  -9.132  31.091 -11.998
    1XTA    H1139293  -9.248  30.753 -12.270
    1XTA    H1239294  -8.997  30.707 -12.279
    1XTA    OA139295  -8.487  31.116 -12.496
    1XTA    CO139296  -8.495  31.093 -12.636
    1XTA    OA239297  -8.641  30.456 -11.795
    1XTA    CO239298  -8.506  30.470 -11.759
    1XTA    CL139299  -8.456  30.340 -11.689
    1XTA    CL239300  -8.473  30.208 -11.766
    1XTA    CL339301  -8.362  30.102 -11.731
    1XTA    CL439302  -8.345  29.990 -11.837
    1XTA    CO339303  -8.217  29.910 -11.824
    1XTA    OA339304  -8.115  29.987 -11.884
    1XTA    CO439305  -7.986  29.978 -11.820
    1XTA    CT139306  -7.900  30.081 -11.883
    1XTA    CL539307  -7.756  30.072 -11.822
    1XTA    CL639308  -7.735  30.143 -11.688
    1XTA    OA439309  -9.348  30.943 -12.085
    1XTA    CO539310  -9.450  30.849 -12.120
    1XTA    HL139311  -9.552  30.894 -12.097
    1XTA    HL239312  -8.461  30.989 -12.652
    1XTA    HL339313  -8.591  31.099 -12.666
    1XTA    HL439314  -8.430  31.164 -12.681
    1XTA    HL539315  -8.442  30.484 -11.846
    1XTA    HL639316  -8.488  30.557 -11.696
    1XTA    HL739317  -8.498  30.342 -11.587
    1XTA    HL839318  -8.354  30.360 -11.665
    1XTA    HL939319  -8.463  30.222 -11.875
    1XTA   HL1039320  -8.582  30.179 -11.749
    1XTA   HL1139321  -8.266  30.166 -11.722
    1XTA   HL1239322  -8.389  30.059 -11.637
    1XTA   HL1339323  -8.344  30.032 -11.944
    1XTA   HL1439324  -8.431  29.924 -11.831
    1XTA   HL1539325  -8.195  29.888 -11.718
    1XTA   HL1639326  -8.213  29.814 -11.866
    1XTA   HL1739327  -8.001  29.992 -11.710
    1XTA   HL1839328  -7.960  29.878 -11.845
    1XTA   HL1939329  -7.683  30.124 -11.885
    1XTA   HL2039330  -7.728  29.965 -11.816
    1XTA   HL2139331  -7.793  30.098 -11.606
    1XTA   HL2239332  -7.761  30.247 -11.696
    1XTA   HL2339333  -7.630  30.156 -11.667
    1XTA   HL2439334  -9.440  30.750 -12.075
    1XTA   HL2539335  -9.449  30.833 -12.227
    1XTA    CO839336  -7.960  30.211 -11.905
    1XTA    CO939337  -7.888  30.075 -12.038
    1XTA    OA639338  -7.932  30.226 -12.018
    1XTA   HL4239339  -7.930  30.297 -11.852
    1XTA   HL4339340  -8.067  30.193 -11.875
    1XTA   HL4839341  -7.967  29.981 -12.106
    1XTA   HL4939342  -7.784  30.078 -12.073
    1XTA     NT39343  -5.717  26.787  -6.777
    1XTA    CN139344  -5.695  26.855  -6.663
    1XTA     C139345  -5.814  26.895  -6.598
    1XTA     C239346  -5.802  26.959  -6.477
    1XTA     C339347  -5.675  26.985  -6.426
    1XTA     C439348  -5.559  26.938  -6.489
    1XTA     C539349  -5.566  26.869  -6.609
    1XTA    CN239350  -5.718  26.648  -6.778
    1XTA     C639351  -5.838  26.582  -6.747
    1XTA     C739352  -5.845  26.445  -6.747
    1XTA     C839353  -5.726  26.366  -6.771
    1XTA     C939354  -5.607  26.429  -6.795
    1XTA    C1039355  -5.598  26.575  -6.796
    1XTA    CN339356  -5.717  26.852  -6.892
    1XTA    C1139357  -5.836  26.865  -6.971
    1XTA    C1239358  -5.849  26.957  -7.079
    1XTA    C1339359  -5.735  27.025  -7.115
    1XTA    C1439360  -5.617  27.008  -7.041
    1XTA    C1539361  -5.603  26.923  -6.938
    1XTA     H139362  -5.906  26.867  -6.638
    1XTA     H239363  -5.890  26.994  -6.427
    1XTA     H339364  -5.457  26.972  -6.449
    1XTA     H439365  -5.483  26.860  -6.668
    1XTA     H539366  -5.927  26.638  -6.743
    1XTA     H639367  -5.942  26.395  -6.728
    1XTA     H739368  -5.520  26.368  -6.815
    1XTA     H839369  -5.504  26.625  -6.821
    1XTA     H939370  -5.927  26.815  -6.933
    1XTA    H1039371  -5.941  26.977  -7.128
    1XTA    H1139372  -5.530  27.059  -7.074
    1XTA    H1239373  -5.521  26.916  -6.873
    1XTA    OA139374  -5.669  27.055  -6.309
    1XTA    CO139375  -5.544  27.091  -6.249
    1XTA    OA239376  -5.741  26.231  -6.759
    1XTA    CO239377  -5.624  26.151  -6.760
    1XTA    CL139378  -5.656  26.007  -6.713
    1XTA    CL239379  -5.540  25.931  -6.668
    1XTA    CL339380  -5.591  25.800  -6.610
    1XTA    CL439381  -5.652  25.814  -6.466
    1XTA    CO339382  -5.638  25.684  -6.382
    1XTA    OA339383  -5.656  25.715  -6.247
    1XTA    CO439384  -5.647  25.607  -6.156
    1XTA    CT139385  -5.678  25.643  -6.008
    1XTA    CL539386  -5.646  25.533  -5.909
    1XTA    CL639387  -5.691  25.542  -5.763
    1XTA    OA439388  -5.726  27.120  -7.215
    1XTA    CO539389  -5.843  27.150  -7.292
    1XTA    HL139390  -5.816  27.221  -7.366
    1XTA    HL239391  -5.562  27.134  -6.155
    1XTA    HL339392  -5.486  27.001  -6.238
    1XTA    HL439393  -5.493  27.164  -6.314
    1XTA    HL539394  -5.578  26.157  -6.855
    1XTA    HL639395  -5.560  26.198  -6.693
    1XTA    HL739396  -5.720  25.955  -6.781
    1XTA    HL839397  -5.716  26.013  -6.621
    1XTA    HL939398  -5.493  25.986  -6.591
    1XTA   HL1039399  -5.468  25.904  -6.751
    1XTA   HL1139400  -5.665  25.749  -6.680
    1XTA   HL1239401  -5.516  25.724  -6.605
    1XTA   HL1339402  -5.755  25.840  -6.477
    1XTA   HL1439403  -5.600  25.892  -6.419
    1XTA   HL1539404  -5.708  25.603  -6.409
    1XTA   HL1639405  -5.534  25.646  -6.396
    1XTA   HL1739406  -5.715  25.534  -6.200
    1XTA   HL1839407  -5.539  25.568  -6.157
    1XTA   HL1939408  -5.541  25.504  -5.898
    1XTA   HL2039409  -5.695  25.447  -5.949
    1XTA   HL2139410  -5.647  25.626  -5.711
    1XTA   HL2239411  -5.663  25.458  -5.702
    1XTA   HL2339412  -5.796  25.544  -5.766
    1XTA   HL2439413  -5.918  27.205  -7.231
    1XTA   HL2539414  -5.888  27.067  -7.336
    1XTA    CO839415  -5.825  25.685  -6.001
    1XTA    CO939416  -5.601  25.768  -5.974
    1XTA    OA639417  -5.854  25.762  -5.886
    1XTA   HL4239418  -5.902  25.604  -5.981
    1XTA   HL4339419  -5.853  25.736  -6.094
    1XTA   HL4839420  -5.545  25.795  -6.064
    1XTA   HL4939421  -5.666  25.859  -5.986
    1XTA     NT39422  -4.933  24.184  -8.339
    1XTA    CN139423  -5.065  24.214  -8.330
    1XTA     C139424  -5.161  24.118  -8.370
    1XTA     C239425  -5.297  24.143  -8.364
    1XTA     C339426  -5.345  24.269  -8.321
    1XTA     C439427  -5.255  24.369  -8.288
    1XTA     C539428  -5.113  24.341  -8.297
    1XTA    CN239429  -4.863  24.139  -8.228
    1XTA     C639430  -4.908  24.037  -8.143
    1XTA     C739431  -4.850  24.014  -8.017
    1XTA     C839432  -4.742  24.089  -7.973
    1XTA     C939433  -4.693  24.187  -8.058
    1XTA    C1039434  -4.750  24.217  -8.181
    1XTA    CN339435  -4.867  24.168  -8.455
    1XTA    C1139436  -4.774  24.270  -8.497
    1XTA    C1239437  -4.699  24.266  -8.611
    1XTA    C1339438  -4.696  24.145  -8.678
    1XTA    C1439439  -4.775  24.034  -8.630
    1XTA    C1539440  -4.867  24.047  -8.526
    1XTA     H139441  -5.133  24.028  -8.420
    1XTA     H239442  -5.361  24.060  -8.393
    1XTA     H339443  -5.283  24.473  -8.261
    1XTA     H439444  -5.044  24.412  -8.264
    1XTA     H539445  -5.001  23.996  -8.177
    1XTA     H639446  -4.890  23.934  -7.958
    1XTA     H739447  -4.614  24.248  -8.030
    1XTA     H839448  -4.715  24.295  -8.240
    1XTA     H939449  -4.777  24.358  -8.433
    1XTA    H1039450  -4.640  24.353  -8.640
    1XTA    H1139451  -4.775  23.942  -8.688
    1XTA    H1239452  -4.916  23.961  -8.496
    1XTA    OA139453  -5.478  24.298  -8.314
    1XTA    CO139454  -5.559  24.206  -8.379
    1XTA    OA239455  -4.687  24.063  -7.852
    1XTA    CO239456  -4.777  24.011  -7.757
    1XTA    CL139457  -4.712  24.017  -7.625
    1XTA    CL239458  -4.804  23.985  -7.499
    1XTA    CL339459  -4.921  24.080  -7.491
    1XTA    CL439460  -4.956  24.120  -7.351
    1XTA    CO339461  -5.047  24.243  -7.353
    1XTA    OA339462  -5.162  24.240  -7.433
    1XTA    CO439463  -5.259  24.160  -7.380
    1XTA    CT139464  -5.396  24.209  -7.425
    1XTA    CL539465  -5.426  24.191  -7.575
    1XTA    CL639466  -5.343  24.276  -7.666
    1XTA    OA439467  -4.607  24.121  -8.780
    1XTA    CO539468  -4.550  23.997  -8.774
    1XTA    HL139469  -4.534  23.978  -8.669
    1XTA    HL239470  -5.571  24.123  -8.311
    1XTA    HL339471  -5.649  24.266  -8.391
    1XTA    HL439472  -5.544  24.185  -8.483
    1XTA    HL539473  -4.868  24.066  -7.757
    1XTA    HL639474  -4.803  23.907  -7.781
    1XTA    HL739475  -4.672  24.115  -7.617
    1XTA    HL839476  -4.618  23.960  -7.624
    1XTA    HL939477  -4.742  23.995  -7.413
    1XTA   HL1039478  -4.839  23.885  -7.497
    1XTA   HL1139479  -4.893  24.173  -7.533
    1XTA   HL1239480  -4.998  24.044  -7.559
    1XTA   HL1339481  -4.865  24.148  -7.311
    1XTA   HL1439482  -4.987  24.044  -7.287
    1XTA   HL1539483  -5.070  24.273  -7.255
    1XTA   HL1639484  -4.986  24.321  -7.394
    1XTA   HL1739485  -5.244  24.059  -7.419
    1XTA   HL1839486  -5.255  24.153  -7.271
    1XTA   HL1939487  -5.533  24.212  -7.576
    1XTA   HL2039488  -5.406  24.083  -7.595
    1XTA   HL2139489  -5.373  24.377  -7.657
    1XTA   HL2239490  -5.355  24.243  -7.764
    1XTA   HL2339491  -5.236  24.257  -7.649
    1XTA   HL2439492  -4.453  23.997  -8.819
    1XTA   HL2539493  -4.608  23.912  -8.806
    1XTA    CO839494  -5.402  24.362  -7.388
    1XTA    CO939495  -5.513  24.128  -7.366
    1XTA    OA639496  -5.506  24.425  -7.452
    1XTA   HL4239497  -5.308  24.412  -7.415
    1XTA   HL4339498  -5.420  24.377  -7.277
    1XTA   HL4839499  -5.528  24.033  -7.417
    1XTA   HL4939500  -5.604  24.183  -7.384
    1XTA     NT39501  -2.298  29.093 -12.786
    1XTA    CN139502  -2.322  28.997 -12.878
    1XTA     C139503  -2.352  29.030 -13.014
    1XTA     C239504  -2.390  28.927 -13.110
    1XTA     C339505  -2.366  28.790 -13.075
    1XTA     C439506  -2.319  28.765 -12.944
    1XTA     C539507  -2.303  28.864 -12.851
    1XTA    CN239508  -2.388  29.125 -12.698
    1XTA     C639509  -2.517  29.157 -12.745
    1XTA     C739510  -2.622  29.191 -12.654
    1XTA     C839511  -2.590  29.192 -12.518
    1XTA     C939512  -2.465  29.159 -12.470
    1XTA    C1039513  -2.366  29.123 -12.556
    1XTA    CN339514  -2.173  29.142 -12.780
    1XTA    C1139515  -2.137  29.266 -12.835
    1XTA    C1239516  -2.009  29.322 -12.819
    1XTA    C1339517  -1.909  29.250 -12.752
    1XTA    C1439518  -1.943  29.123 -12.698
    1XTA    C1539519  -2.074  29.073 -12.708
    1XTA     H139520  -2.352  29.129 -13.058
    1XTA     H239521  -2.419  28.954 -13.210
    1XTA     H339522  -2.300  28.664 -12.919
    1XTA     H439523  -2.269  28.840 -12.750
    1XTA     H539524  -2.537  29.160 -12.851
    1XTA     H639525  -2.718  29.200 -12.700
    1XTA     H739526  -2.456  29.167 -12.362
    1XTA     H839527  -2.271  29.090 -12.514
    1XTA     H939528  -2.211  29.321 -12.887
    1XTA    H1039529  -1.990  29.413 -12.868
    1XTA    H1139530  -1.863  29.063 -12.653
    1XTA    H1239531  -2.084  28.969 -12.670
    1XTA    OA139532  -2.383  28.687 -13.163
    1XTA    CO139533  -2.496  28.706 -13.244
    1XTA    OA239534  -2.690  29.215 -12.427
    1XTA    CO239535  -2.810  29.149 -12.441
    1XTA    CL139536  -2.881  29.146 -12.302
    1XTA    CL239537  -2.808  29.077 -12.186
    1XTA    CL339538  -2.671  29.119 -12.143
    1XTA    CL439539  -2.659  29.259 -12.081
    1XTA    CO339540  -2.547  29.348 -12.140
    1XTA    OA339541  -2.417  29.290 -12.124
    1XTA    CO439542  -2.313  29.356 -12.204
    1XTA    CT139543  -2.170  29.349 -12.145
    1XTA    CL539544  -2.157  29.466 -12.047
    1XTA    CL639545  -2.233  29.481 -11.917
    1XTA    OA439546  -1.782  29.303 -12.728
    1XTA    CO539547  -1.681  29.244 -12.815
    1XTA    HL139548  -1.717  29.274 -12.912
    1XTA    HL239549  -2.582  28.724 -13.178
    1XTA    HL339550  -2.481  28.788 -13.315
    1XTA    HL439551  -2.505  28.617 -13.309
    1XTA    HL539552  -2.876  29.194 -12.515
    1XTA    HL639553  -2.796  29.047 -12.479
    1XTA    HL739554  -2.982  29.111 -12.306
    1XTA    HL839555  -2.888  29.251 -12.265
    1XTA    HL939556  -2.802  28.973 -12.202
    1XTA   HL1039557  -2.864  29.085 -12.096
    1XTA   HL1139558  -2.627  29.049 -12.074
    1XTA   HL1239559  -2.613  29.116 -12.233
    1XTA   HL1339560  -2.672  29.268 -11.976
    1XTA   HL1439561  -2.750  29.305 -12.111
    1XTA   HL1539562  -2.587  29.361 -12.247
    1XTA   HL1639563  -2.552  29.446 -12.107
    1XTA   HL1739564  -2.319  29.297 -12.299
    1XTA   HL1839565  -2.325  29.459 -12.225
    1XTA   HL1939566  -2.161  29.557 -12.102
    1XTA   HL2039567  -2.052  29.459 -12.011
    1XTA   HL2139568  -2.335  29.438 -11.911
    1XTA   HL2239569  -2.242  29.575 -11.876
    1XTA   HL2339570  -2.171  29.429 -11.845
    1XTA   HL2439571  -1.684  29.137 -12.810
    1XTA   HL2539572  -1.599  29.298 -12.779
    1XTA    CO839573  -2.061  29.334 -12.258
    1XTA    CO939574  -2.169  29.216 -12.064
    1XTA    OA639575  -2.028  29.432 -12.295
    1XTA   HL4239576  -2.100  29.261 -12.332
    1XTA   HL4339577  -1.967  29.287 -12.220
    1XTA   HL4839578  -2.269  29.231 -11.967
    1XTA   HL4939579  -2.078  29.223 -12.002
    1XTA     NT39580  -0.809  24.651 -12.503
    1XTA    CN139581  -0.847  24.535 -12.555
    1XTA     C139582  -0.750  24.465 -12.631
    1XTA     C239583  -0.783  24.347 -12.694
    1XTA     C339584  -0.911  24.291 -12.672
    1XTA     C439585  -1.005  24.359 -12.589
    1XTA     C539586  -0.975  24.482 -12.532
    1XTA    CN239587  -0.730  24.655 -12.392
    1XTA     C639588  -0.631  24.752 -12.377
    1XTA     C739589  -0.553  24.740 -12.263
    1XTA     C839590  -0.577  24.645 -12.164
    1XTA     C939591  -0.680  24.551 -12.172
    1XTA    C1039592  -0.753  24.559 -12.290
    1XTA    CN339593  -0.881  24.759 -12.533
    1XTA    C1139594  -0.991  24.805 -12.448
    1XTA    C1239595  -1.067  24.913 -12.499
    1XTA    C1339596  -1.033  24.986 -12.614
    1XTA    C1439597  -0.914  24.948 -12.680
    1XTA    C1539598  -0.849  24.829 -12.651
    1XTA     H139599  -0.655  24.513 -12.644
    1XTA     H239600  -0.710  24.284 -12.751
    1XTA     H339601  -1.103  24.320 -12.561
    1XTA     H439602  -1.045  24.536 -12.467
    1XTA     H539603  -0.605  24.830 -12.448
    1XTA     H639604  -0.478  24.816 -12.256
    1XTA     H739605  -0.694  24.479 -12.099
    1XTA     H839606  -0.827  24.484 -12.305
    1XTA     H939607  -1.022  24.744 -12.362
    1XTA    H1039608  -1.143  24.943 -12.430
    1XTA    H1139609  -0.868  25.004 -12.759
    1XTA    H1239610  -0.759  24.795 -12.704
    1XTA    OA139611  -0.953  24.168 -12.714
    1XTA    CO139612  -0.852  24.075 -12.737
    1XTA    OA239613  -0.500  24.642 -12.051
    1XTA    CO239614  -0.367  24.665 -12.066
    1XTA    CL139615  -0.290  24.639 -11.939
    1XTA    CL239616  -0.302  24.495 -11.878
    1XTA    CL339617  -0.277  24.390 -11.982
    1XTA    CL439618  -0.412  24.332 -12.028
    1XTA    CO339619  -0.408  24.208 -12.109
    1XTA    OA339620  -0.535  24.166 -12.133
    1XTA    CO439621  -0.535  24.073 -12.240
    1XTA    CT139622  -0.677  24.002 -12.263
    1XTA    CL539623  -0.701  23.912 -12.138
    1XTA    CL639624  -0.586  23.807 -12.118
    1XTA    OA439625  -1.102  25.094 -12.658
    1XTA    CO539626  -1.242  25.080 -12.654
    1XTA    HL139627  -1.286  25.036 -12.563
    1XTA    HL239628  -0.805  24.086 -12.833
    1XTA    HL339629  -0.777  24.070 -12.657
    1XTA    HL439630  -0.902  23.978 -12.746
    1XTA    HL539631  -0.317  24.592 -12.139
    1XTA    HL639632  -0.338  24.761 -12.106
    1XTA    HL739633  -0.283  24.723 -11.863
    1XTA    HL839634  -0.181  24.650 -11.965
    1XTA    HL939635  -0.397  24.481 -11.828
    1XTA   HL1039636  -0.235  24.481 -11.796
    1XTA   HL1139637  -0.220  24.432 -12.061
    1XTA   HL1239638  -0.217  24.310 -11.946
    1XTA   HL1339639  -0.475  24.408 -12.074
    1XTA   HL1439640  -0.463  24.294 -11.936
    1XTA   HL1539641  -0.374  24.232 -12.205
    1XTA   HL1639642  -0.351  24.134 -12.070
    1XTA   HL1739643  -0.499  24.127 -12.324
    1XTA   HL1839644  -0.463  23.996 -12.224
    1XTA   HL1939645  -0.791  23.853 -12.139
    1XTA   HL2039646  -0.708  23.968 -12.046
    1XTA   HL2139647  -0.588  23.722 -12.181
    1XTA   HL2239648  -0.592  23.750 -12.028
    1XTA   HL2339649  -0.481  23.833 -12.131
    1XTA   HL2439650  -1.293  25.037 -12.732
    1XTA   HL2539651  -1.295  25.178 -12.646
    1XTA    CO839652  -0.701  23.925 -12.389
    1XTA    CO939653  -0.789  24.110 -12.265
    1XTA    OA639654  -0.911  24.048 -12.247
    1XTA   HL4239655  -0.794  23.873 -12.393
    1XTA   HL4339656  -0.706  23.998 -12.467
    1XTA   HL4839657  -0.795  24.167 -12.360
    1XTA   HL4939658  -0.771  24.180 -12.185
    1XTA     NT39659  -6.300  30.794  -9.903
    1XTA    CN139660  -6.284  30.907  -9.831
    1XTA     C139661  -6.158  30.948  -9.791
    1XTA     C239662  -6.135  31.065  -9.713
    1XTA     C339663  -6.246  31.141  -9.664
    1XTA     C439664  -6.374  31.102  -9.710
    1XTA     C539665  -6.393  30.988  -9.789
    1XTA    CN239666  -6.320  30.796 -10.030
    1XTA     C639667  -6.442  30.744 -10.079
    1XTA     C739668  -6.470  30.764 -10.218
    1XTA     C839669  -6.380  30.826 -10.300
    1XTA     C939670  -6.259  30.868 -10.251
    1XTA    C1039671  -6.219  30.845 -10.116
    1XTA    CN339672  -6.306  30.678  -9.836
    1XTA    C1139673  -6.415  30.650  -9.755
    1XTA    C1239674  -6.442  30.518  -9.716
    1XTA    C1339675  -6.363  30.411  -9.759
    1XTA    C1439676  -6.247  30.440  -9.840
    1XTA    C1539677  -6.218  30.579  -9.870
    1XTA     H139678  -6.064  30.886  -9.802
    1XTA     H239679  -6.035  31.094  -9.685
    1XTA     H339680  -6.462  31.151  -9.673
    1XTA     H439681  -6.496  30.956  -9.821
    1XTA     H539682  -6.512  30.694 -10.015
    1XTA     H639683  -6.571  30.740 -10.254
    1XTA     H739684  -6.190  30.928 -10.310
    1XTA     H839685  -6.124  30.873 -10.072
    1XTA     H939686  -6.486  30.725  -9.739
    1XTA    H1039687  -6.528  30.499  -9.654
    1XTA    H1139688  -6.177  30.360  -9.872
    1XTA    H1239689  -6.134  30.600  -9.943
    1XTA    OA139690  -6.219  31.264  -9.598
    1XTA    CO139691  -6.309  31.368  -9.618
    1XTA    OA239692  -6.424  30.845 -10.426
    1XTA    CO239693  -6.331  30.915 -10.508
    1XTA    CL139694  -6.384  30.934 -10.647
    1XTA    CL239695  -6.436  30.808 -10.708
    1XTA    CL339696  -6.474  30.824 -10.852
    1XTA    CL439697  -6.595  30.917 -10.882
    1XTA    CO339698  -6.728  30.848 -10.839
    1XTA    OA339699  -6.830  30.939 -10.867
    1XTA    CO439700  -6.956  30.894 -10.826
    1XTA    CT139701  -7.071  30.964 -10.898
    1XTA    CL539702  -7.091  30.911 -11.044
    1XTA    CL639703  -6.996  30.966 -11.150
    1XTA    OA439704  -6.384  30.279  -9.720
    1XTA    CO539705  -6.491  30.260  -9.627
    1XTA    HL139706  -6.499  30.154  -9.612
    1XTA    HL239707  -6.308  31.406  -9.722
    1XTA    HL339708  -6.410  31.342  -9.590
    1XTA    HL439709  -6.296  31.450  -9.548
    1XTA    HL539710  -6.317  31.010 -10.459
    1XTA    HL639711  -6.243  30.856 -10.517
    1XTA    HL739712  -6.308  30.970 -10.717
    1XTA    HL839713  -6.456  31.015 -10.646
    1XTA    HL939714  -6.509  30.758 -10.643
    1XTA   HL1039715  -6.344  30.745 -10.707
    1XTA   HL1139716  -6.385  30.859 -10.910
    1XTA   HL1239717  -6.499  30.729 -10.894
    1XTA   HL1339718  -6.600  30.935 -10.986
    1XTA   HL1439719  -6.575  31.019 -10.841
    1XTA   HL1539720  -6.734  30.761 -10.898
    1XTA   HL1639721  -6.731  30.815 -10.739
    1XTA   HL1739722  -6.961  30.785 -10.834
    1XTA   HL1839723  -6.950  30.900 -10.716
    1XTA   HL1939724  -7.197  30.932 -11.062
    1XTA   HL2039725  -7.100  30.805 -11.039
    1XTA   HL2139726  -7.042  30.964 -11.243
    1XTA   HL2239727  -6.911  30.907 -11.152
    1XTA   HL2339728  -6.966  31.067 -11.132
    1XTA   HL2439729  -6.589  30.302  -9.649
    1XTA   HL2539730  -6.459  30.313  -9.536
    1XTA    CO839731  -7.062  31.117 -10.890
    1XTA    CO939732  -7.199  30.927 -10.826
    1XTA    OA639733  -7.199  30.940 -10.717
    1XTA   HL4239734  -7.074  31.140 -10.787
    1XTA   HL4339735  -6.934  31.153 -10.925
    1XTA   HL4839736  -7.222  30.821 -10.860
    1XTA   HL4939737  -7.282  30.987 -10.869
    1XTA     NT39738  -1.260  30.485  -5.090
    1XTA    CN139739  -1.389  30.506  -5.063
    1XTA     C139740  -1.454  30.425  -4.969
    1XTA     C239741  -1.593  30.438  -4.942
    1XTA     C339742  -1.670  30.530  -5.017
    1XTA     C439743  -1.604  30.614  -5.111
    1XTA     C539744  -1.465  30.600  -5.133
    1XTA    CN239745  -1.234  30.372  -5.157
    1XTA     C639746  -1.156  30.267  -5.100
    1XTA     C739747  -1.120  30.156  -5.179
    1XTA     C839748  -1.173  30.148  -5.311
    1XTA     C939749  -1.255  30.251  -5.368
    1XTA    C1039750  -1.277  30.362  -5.293
    1XTA    CN339751  -1.155  30.544  -5.029
    1XTA    C1139752  -1.128  30.527  -4.891
    1XTA    C1239753  -1.017  30.585  -4.833
    1XTA    C1339754  -0.929  30.654  -4.914
    1XTA    C1439755  -0.942  30.664  -5.053
    1XTA    C1539756  -1.064  30.612  -5.105
    1XTA     H139757  -1.402  30.353  -4.912
    1XTA     H239758  -1.642  30.384  -4.859
    1XTA     H339759  -1.674  30.683  -5.160
    1XTA     H439760  -1.428  30.655  -5.217
    1XTA     H539761  -1.104  30.268  -5.002
    1XTA     H639762  -1.058  30.081  -5.146
    1XTA     H739763  -1.302  30.233  -5.463
    1XTA     H839764  -1.338  30.438  -5.330
    1XTA     H939765  -1.195  30.476  -4.829
    1XTA    H1039766  -0.985  30.564  -4.730
    1XTA    H1139767  -0.867  30.726  -5.113
    1XTA    H1239768  -1.099  30.617  -5.208
    1XTA    OA139769  -1.806  30.537  -5.001
    1XTA    CO139770  -1.872  30.413  -5.034
    1XTA    OA239771  -1.160  30.041  -5.396
    1XTA    CO239772  -1.098  29.920  -5.348
    1XTA    CL139773  -1.060  29.820  -5.456
    1XTA    CL239774  -0.975  29.878  -5.575
    1XTA    CL339775  -0.842  29.924  -5.524
    1XTA    CL439776  -0.735  29.982  -5.615
    1XTA    CO339777  -0.784  30.107  -5.693
    1XTA    OA339778  -0.717  30.117  -5.814
    1XTA    CO439779  -0.581  30.086  -5.820
    1XTA    CT139780  -0.518  30.124  -5.952
    1XTA    CL539781  -0.550  30.269  -5.993
    1XTA    CL639782  -0.515  30.305  -6.135
    1XTA    OA439783  -0.829  30.720  -4.853
    1XTA    CO539784  -0.859  30.856  -4.803
    1XTA    HL139785  -0.777  30.889  -4.741
    1XTA    HL239786  -1.851  30.337  -4.961
    1XTA    HL339787  -1.977  30.434  -5.033
    1XTA    HL439788  -1.834  30.391  -5.136
    1XTA    HL539789  -1.007  29.962  -5.288
    1XTA    HL639790  -1.162  29.878  -5.267
    1XTA    HL739791  -1.149  29.787  -5.509
    1XTA    HL839792  -1.026  29.736  -5.404
    1XTA    HL939793  -1.022  29.962  -5.631
    1XTA   HL1039794  -0.956  29.802  -5.658
    1XTA   HL1139795  -0.874  30.008  -5.457
    1XTA   HL1239796  -0.796  29.851  -5.466
    1XTA   HL1339797  -0.707  29.915  -5.696
    1XTA   HL1439798  -0.650  29.995  -5.555
    1XTA   HL1539799  -0.894  30.097  -5.708
    1XTA   HL1639800  -0.766  30.193  -5.630
    1XTA   HL1739801  -0.528  30.143  -5.737
    1XTA   HL1839802  -0.564  29.979  -5.798
    1XTA   HL1939803  -0.501  30.338  -5.921
    1XTA   HL2039804  -0.653  30.292  -5.978
    1XTA   HL2139805  -0.411  30.315  -6.138
    1XTA   HL2239806  -0.544  30.407  -6.147
    1XTA   HL2339807  -0.564  30.243  -6.213
    1XTA   HL2439808  -0.951  30.863  -4.748
    1XTA   HL2539809  -0.868  30.917  -4.900
    1XTA    CO839810  -0.561  30.034  -6.071
    1XTA    CO939811  -0.363  30.101  -5.934
    1XTA    OA639812  -0.565  29.924  -6.029
    1XTA   HL4239813  -0.472  30.029  -6.146
    1XTA   HL4339814  -0.668  30.062  -6.110
    1XTA   HL4839815  -0.293  30.111  -6.052
    1XTA   HL4939816  -0.323  30.183  -5.865
    1XTA     NT39817  -5.928  29.447  -6.175
    1XTA    CN139818  -6.004  29.383  -6.085
    1XTA     C139819  -6.017  29.437  -5.954
    1XTA     C239820  -6.099  29.375  -5.861
    1XTA     C339821  -6.175  29.265  -5.897
    1XTA     C439822  -6.169  29.219  -6.026
    1XTA     C539823  -6.080  29.272  -6.118
    1XTA    CN239824  -5.827  29.386  -6.235
    1XTA     C639825  -5.723  29.334  -6.154
    1XTA     C739826  -5.609  29.271  -6.217
    1XTA     C839827  -5.607  29.266  -6.356
    1XTA     C939828  -5.713  29.310  -6.440
    1XTA    C1039829  -5.818  29.379  -6.376
    1XTA    CN339830  -5.962  29.574  -6.203
    1XTA    C1139831  -6.082  29.610  -6.272
    1XTA    C1239832  -6.110  29.747  -6.299
    1XTA    C1339833  -6.028  29.855  -6.255
    1XTA    C1439834  -5.915  29.815  -6.184
    1XTA    C1539835  -5.880  29.681  -6.158
    1XTA     H139836  -5.967  29.530  -5.925
    1XTA     H239837  -6.110  29.409  -5.758
    1XTA     H339838  -6.241  29.142  -6.064
    1XTA     H439839  -6.085  29.238  -6.218
    1XTA     H539840  -5.727  29.330  -6.050
    1XTA     H639841  -5.528  29.228  -6.162
    1XTA     H739842  -5.716  29.297  -6.546
    1XTA     H839843  -5.892  29.429  -6.439
    1XTA     H939844  -6.153  29.545  -6.316
    1XTA    H1039845  -6.196  29.772  -6.358
    1XTA    H1139846  -5.847  29.887  -6.150
    1XTA    H1239847  -5.784  29.653  -6.111
    1XTA    OA139848  -6.268  29.224  -5.805
    1XTA    CO139849  -6.289  29.090  -5.791
    1XTA    OA239850  -5.497  29.206  -6.409
    1XTA    CO239851  -5.462  29.235  -6.546
    1XTA    CL139852  -5.308  29.200  -6.563
    1XTA    CL239853  -5.222  29.283  -6.467
    1XTA    CL339854  -5.173  29.420  -6.524
    1XTA    CL439855  -5.099  29.505  -6.422
    1XTA    CO339856  -5.005  29.618  -6.475
    1XTA    OA339857  -5.075  29.725  -6.536
    1XTA    CO439858  -5.114  29.827  -6.446
    1XTA    CT139859  -5.131  29.962  -6.513
    1XTA    CL539860  -5.164  30.070  -6.406
    1XTA    CL639861  -5.287  30.055  -6.310
    1XTA    OA439862  -6.058  29.988  -6.280
    1XTA    CO539863  -6.190  30.009  -6.313
    1XTA    HL139864  -6.209  30.110  -6.328
    1XTA    HL239865  -6.338  29.055  -5.886
    1XTA    HL339866  -6.197  29.041  -5.766
    1XTA    HL439867  -6.348  29.061  -5.705
    1XTA    HL539868  -5.522  29.164  -6.608
    1XTA    HL639869  -5.484  29.336  -6.569
    1XTA    HL739870  -5.259  29.209  -6.656
    1XTA    HL839871  -5.297  29.089  -6.551
    1XTA    HL939872  -5.132  29.233  -6.436
    1XTA   HL1039873  -5.293  29.309  -6.387
    1XTA   HL1139874  -5.096  29.405  -6.605
    1XTA   HL1239875  -5.263  29.466  -6.568
    1XTA   HL1339876  -5.040  29.438  -6.358
    1XTA   HL1439877  -5.171  29.546  -6.357
    1XTA   HL1539878  -4.941  29.655  -6.390
    1XTA   HL1639879  -4.931  29.593  -6.546
    1XTA   HL1739880  -5.210  29.797  -6.404
    1XTA   HL1839881  -5.051  29.832  -6.354
    1XTA   HL1939882  -5.170  30.176  -6.449
    1XTA   HL2039883  -5.076  30.082  -6.338
    1XTA   HL2139884  -5.331  29.954  -6.294
    1XTA   HL2239885  -5.366  30.107  -6.355
    1XTA   HL2339886  -5.277  30.107  -6.213
    1XTA   HL2439887  -6.260  29.964  -6.237
    1XTA   HL2539888  -6.223  29.959  -6.406
    1XTA    CO839889  -5.244  29.958  -6.616
    1XTA    CO939890  -4.995  30.009  -6.577
    1XTA    OA639891  -5.012  30.114  -6.609
    1XTA   HL4239892  -5.240  30.059  -6.648
    1XTA   HL4339893  -5.368  29.950  -6.559
    1XTA   HL4839894  -4.958  29.937  -6.659
    1XTA   HL4939895  -4.922  30.005  -6.490
    1XTA     NT39896  -4.458  32.052 -12.174
    1XTA    CN139897  -4.371  32.100 -12.263
    1XTA     C139898  -4.299  32.214 -12.228
    1XTA     C239899  -4.204  32.271 -12.311
    1XTA     C339900  -4.197  32.215 -12.446
    1XTA     C439901  -4.286  32.116 -12.487
    1XTA     C539902  -4.376  32.056 -12.397
    1XTA    CN239903  -4.581  32.104 -12.176
    1XTA     C639904  -4.696  32.028 -12.226
    1XTA     C739905  -4.828  32.076 -12.229
    1XTA     C839906  -4.850  32.207 -12.173
    1XTA     C939907  -4.744  32.269 -12.105
    1XTA    C1039908  -4.608  32.225 -12.105
    1XTA    CN339909  -4.415  31.955 -12.092
    1XTA    C1139910  -4.476  31.829 -12.110
    1XTA    C1239911  -4.441  31.733 -12.020
    1XTA    C1339912  -4.349  31.754 -11.915
    1XTA    C1439913  -4.280  31.875 -11.905
    1XTA    C1539914  -4.309  31.982 -11.995
    1XTA     H139915  -4.321  32.247 -12.126
    1XTA     H239916  -4.139  32.352 -12.283
    1XTA     H339917  -4.300  32.082 -12.594
    1XTA     H439918  -4.436  31.974 -12.415
    1XTA     H539919  -4.699  31.927 -12.265
    1XTA     H639920  -4.905  32.011 -12.276
    1XTA     H739921  -4.776  32.357 -12.054
    1XTA     H839922  -4.531  32.289 -12.048
    1XTA     H939923  -4.550  31.811 -12.185
    1XTA    H1039924  -4.488  31.639 -12.019
    1XTA    H1139925  -4.195  31.883 -11.837
    1XTA    H1239926  -4.262  32.081 -11.987
    1XTA    OA139927  -4.120  32.266 -12.548
    1XTA    CO139928  -3.973  32.280 -12.520
    1XTA    OA239929  -4.979  32.265 -12.162
    1XTA    CO239930  -5.085  32.187 -12.202
    1XTA    CL139931  -5.208  32.242 -12.136
    1XTA    CL239932  -5.205  32.210 -11.982
    1XTA    CL339933  -5.112  32.302 -11.899
    1XTA    CL439934  -5.135  32.276 -11.747
    1XTA    CO339935  -5.272  32.325 -11.688
    1XTA    OA339936  -5.286  32.315 -11.542
    1XTA    CO439937  -5.384  32.400 -11.484
    1XTA    CT139938  -5.397  32.367 -11.331
    1XTA    CL539939  -5.441  32.218 -11.318
    1XTA    CL639940  -5.436  32.146 -11.181
    1XTA    OA439941  -4.300  31.659 -11.829
    1XTA    CO539942  -4.331  31.520 -11.850
    1XTA    HL139943  -4.316  31.500 -11.959
    1XTA    HL239944  -3.928  32.292 -12.615
    1XTA    HL339945  -3.968  32.370 -12.464
    1XTA    HL439946  -3.945  32.191 -12.462
    1XTA    HL539947  -5.098  32.188 -12.310
    1XTA    HL639948  -5.070  32.082 -12.173
    1XTA    HL739949  -5.300  32.200 -12.172
    1XTA    HL839950  -5.230  32.349 -12.154
    1XTA    HL939951  -5.165  32.109 -11.963
    1XTA   HL1039952  -5.306  32.223 -11.942
    1XTA   HL1139953  -5.009  32.287 -11.926
    1XTA   HL1239954  -5.136  32.407 -11.919
    1XTA   HL1339955  -5.046  32.314 -11.685
    1XTA   HL1439956  -5.129  32.169 -11.727
    1XTA   HL1539957  -5.286  32.432 -11.714
    1XTA   HL1639958  -5.359  32.280 -11.725
    1XTA   HL1739959  -5.335  32.500 -11.489
    1XTA   HL1839960  -5.478  32.403 -11.529
    1XTA   HL1939961  -5.389  32.160 -11.390
    1XTA   HL2039962  -5.549  32.210 -11.351
    1XTA   HL2139963  -5.329  32.119 -11.156
    1XTA   HL2239964  -5.482  32.049 -11.190
    1XTA   HL2339965  -5.478  32.200 -11.095
    1XTA   HL2439966  -4.431  31.507 -11.827
    1XTA   HL2539967  -4.259  31.458 -11.802
    1XTA    CO839968  -5.506  32.457 -11.262
    1XTA    CO939969  -5.260  32.394 -11.267
    1XTA    OA639970  -5.611  32.436 -11.309
    1XTA   HL4239971  -5.472  32.561 -11.255
    1XTA   HL4339972  -5.520  32.419 -11.158
    1XTA   HL4839973  -5.209  32.510 -11.319
    1XTA   HL4939974  -5.193  32.311 -11.294
    1XTA     NT39975  -3.178  30.198  -8.352
    1XTA    CN139976  -3.216  30.117  -8.451
    1XTA     C139977  -3.352  30.068  -8.453
    1XTA     C239978  -3.399  29.996  -8.559
    1XTA     C339979  -3.311  29.977  -8.669
    1XTA     C439980  -3.179  30.029  -8.677
    1XTA     C539981  -3.135  30.095  -8.565
    1XTA    CN239982  -3.215  30.325  -8.359
    1XTA     C639983  -3.140  30.422  -8.436
    1XTA     C739984  -3.184  30.556  -8.437
    1XTA     C839985  -3.292  30.604  -8.367
    1XTA     C939986  -3.369  30.507  -8.288
    1XTA    C1039987  -3.324  30.370  -8.282
    1XTA    CN339988  -3.095  30.155  -8.254
    1XTA    C1139989  -3.140  30.094  -8.142
    1XTA    C1239990  -3.052  30.049  -8.039
    1XTA    C1339991  -2.908  30.060  -8.058
    1XTA    C1439992  -2.864  30.117  -8.173
    1XTA    C1539993  -2.956  30.166  -8.269
    1XTA     H139994  -3.418  30.088  -8.370
    1XTA     H239995  -3.498  29.957  -8.562
    1XTA     H339996  -3.104  30.010  -8.760
    1XTA     H439997  -3.033  30.129  -8.580
    1XTA     H539998  -3.070  30.392  -8.509
    1XTA     H639999  -3.133  30.627  -8.500
    1XTA     H740000  -3.455  30.545  -8.243
    1XTA     H840001  -3.383  30.292  -8.229
    1XTA     H940002  -3.241  30.078  -8.137
    1XTA    H1040003  -3.105  30.011  -7.951
    1XTA    H1140004  -2.759  30.123  -8.193
    1XTA    H1240005  -2.922  30.213  -8.361
    1XTA    OA140006  -3.356  29.884  -8.763
    1XTA    CO140007  -3.288  29.853  -8.881
    1XTA    OA240008  -3.328  30.736  -8.362
    1XTA    CO240009  -3.332  30.796  -8.234
    1XTA    CL140010  -3.308  30.948  -8.248
    1XTA    CL240011  -3.154  30.982  -8.266
    1XTA    CL340012  -3.109  31.127  -8.270
    1XTA    CL440013  -2.971  31.144  -8.341
    1XTA    CO340014  -2.995  31.162  -8.495
    1XTA    OA340015  -2.890  31.125  -8.577
    1XTA    CO440016  -2.775  31.201  -8.556
    1XTA    CT140017  -2.665  31.168  -8.655
    1XTA    CL540018  -2.713  31.185  -8.795
    1XTA    CL640019  -2.773  31.320  -8.839
    1XTA    OA440020  -2.815  30.024  -7.966
    1XTA    CO540021  -2.863  29.951  -7.852
    1XTA    HL140022  -2.915  30.018  -7.788
    1XTA    HL240023  -3.313  29.928  -8.963
    1XTA    HL340024  -3.183  29.823  -8.871
    1XTA    HL440025  -3.343  29.760  -8.917
    1XTA    HL540026  -3.431  30.785  -8.192
    1XTA    HL640027  -3.264  30.751  -8.162
    1XTA    HL740028  -3.350  30.993  -8.162
    1XTA    HL840029  -3.360  30.982  -8.336
    1XTA    HL940030  -3.114  30.925  -8.353
    1XTA   HL1040031  -3.105  30.928  -8.186
    1XTA   HL1140032  -3.195  31.183  -8.304
    1XTA   HL1240033  -3.094  31.161  -8.171
    1XTA   HL1340034  -2.918  31.058  -8.330
    1XTA   HL1440035  -2.920  31.228  -8.298
    1XTA   HL1540036  -3.073  31.102  -8.527
    1XTA   HL1640037  -3.028  31.268  -8.522
    1XTA   HL1740038  -2.789  31.312  -8.545
    1XTA   HL1840039  -2.732  31.160  -8.465
    1XTA   HL1940040  -2.784  31.110  -8.821
    1XTA   HL2040041  -2.632  31.168  -8.866
    1XTA   HL2140042  -2.814  31.303  -8.937
    1XTA   HL2240043  -2.695  31.395  -8.836
    1XTA   HL2340044  -2.861  31.338  -8.781
    1XTA   HL2440045  -2.774  29.911  -7.796
    1XTA   HL2540046  -2.935  29.875  -7.879
    1XTA    CO840047  -2.624  31.021  -8.641
    1XTA    CO940048  -2.541  31.250  -8.629
    1XTA    OA640049  -2.491  31.227  -8.537
    1XTA   HL4240050  -2.536  31.005  -8.699
    1XTA   HL4340051  -2.598  30.994  -8.504
    1XTA   HL4840052  -2.568  31.349  -8.630
    1XTA   HL4940053  -2.472  31.226  -8.710
    1XTA     NT40054  -2.504  31.488  -7.011
    1XTA    CN140055  -2.634  31.455  -7.013
    1XTA     C140056  -2.715  31.431  -6.894
    1XTA     C240057  -2.850  31.386  -6.895
    1XTA     C340058  -2.904  31.356  -7.022
    1XTA     C440059  -2.824  31.361  -7.137
    1XTA     C540060  -2.693  31.416  -7.134
    1XTA    CN240061  -2.409  31.426  -7.084
    1XTA     C640062  -2.385  31.286  -7.072
    1XTA     C740063  -2.303  31.221  -7.166
    1XTA     C840064  -2.241  31.294  -7.268
    1XTA     C940065  -2.252  31.439  -7.274
    1XTA    C1040066  -2.333  31.504  -7.175
    1XTA    CN340067  -2.447  31.593  -6.942
    1XTA    C1140068  -2.353  31.568  -6.838
    1XTA    C1240069  -2.278  31.671  -6.777
    1XTA    C1340070  -2.315  31.801  -6.811
    1XTA    C1440071  -2.421  31.827  -6.900
    1XTA    C1540072  -2.484  31.725  -6.974
    1XTA     H140073  -2.671  31.444  -6.799
    1XTA     H240074  -2.892  31.383  -6.793
    1XTA     H340075  -2.858  31.335  -7.232
    1XTA     H440076  -2.629  31.414  -7.224
    1XTA     H540077  -2.441  31.226  -7.001
    1XTA     H640078  -2.302  31.110  -7.153
    1XTA     H740079  -2.197  31.500  -7.348
    1XTA     H840080  -2.332  31.613  -7.171
    1XTA     H940081  -2.322  31.475  -6.816
    1XTA    H1040082  -2.191  31.644  -6.727
    1XTA    H1140083  -2.454  31.932  -6.914
    1XTA    H1240084  -2.556  31.734  -7.058
    1XTA    OA140085  -3.032  31.315  -7.034
    1XTA    CO140086  -3.113  31.341  -6.923
    1XTA    OA240087  -2.168  31.226  -7.368
    1XTA    CO240088  -2.032  31.255  -7.371
    1XTA    CL140089  -1.988  31.272  -7.514
    1XTA    CL240090  -2.036  31.399  -7.597
    1XTA    CL340091  -2.160  31.371  -7.672
    1XTA    CL440092  -2.206  31.492  -7.757
    1XTA    CO340093  -2.357  31.483  -7.790
    1XTA    OA340094  -2.379  31.390  -7.895
    1XTA    CO440095  -2.505  31.417  -7.959
    1XTA    CT140096  -2.558  31.293  -8.042
    1XTA    CL540097  -2.670  31.340  -8.131
    1XTA    CL640098  -2.631  31.422  -8.255
    1XTA    OA440099  -2.245  31.911  -6.760
    1XTA    CO540100  -2.104  31.922  -6.784
    1XTA    HL140101  -2.086  31.939  -6.890
    1XTA    HL240102  -3.103  31.269  -6.847
    1XTA    HL340103  -3.086  31.436  -6.875
    1XTA    HL440104  -3.214  31.336  -6.956
    1XTA    HL540105  -2.010  31.342  -7.315
    1XTA    HL640106  -1.969  31.181  -7.326
    1XTA    HL740107  -2.021  31.178  -7.567
    1XTA    HL840108  -1.880  31.277  -7.511
    1XTA    HL940109  -1.955  31.408  -7.666
    1XTA   HL1040110  -2.030  31.490  -7.531
    1XTA   HL1140111  -2.144  31.289  -7.743
    1XTA   HL1240112  -2.243  31.342  -7.605
    1XTA   HL1340113  -2.145  31.512  -7.848
    1XTA   HL1440114  -2.208  31.578  -7.685
    1XTA   HL1540115  -2.425  31.460  -7.709
    1XTA   HL1640116  -2.384  31.577  -7.834
    1XTA   HL1740117  -2.586  31.426  -7.884
    1XTA   HL1840118  -2.492  31.515  -8.013
    1XTA   HL1940119  -2.746  31.391  -8.068
    1XTA   HL2040120  -2.729  31.260  -8.183
    1XTA   HL2140121  -2.574  31.376  -8.336
    1XTA   HL2240122  -2.568  31.504  -8.214
    1XTA   HL2340123  -2.713  31.477  -8.297
    1XTA   HL2440124  -2.044  31.836  -6.751
    1XTA   HL2540125  -2.071  32.015  -6.729
    1XTA    CO840126  -2.614  31.185  -7.948
    1XTA    CO940127  -2.441  31.218  -8.113
    1XTA    OA640128  -2.706  31.241  -7.853
    1XTA   HL4240129  -2.528  31.137  -7.900
    1XTA   HL4340130  -2.661  31.114  -8.015
    1XTA   HL4840131  -2.366  31.191  -8.034
    1XTA   HL4940132  -2.485  31.125  -8.145
    1XTA     NT40133  -1.103  27.272 -10.558
    1XTA    CN140134  -1.191  27.307 -10.458
    1XTA     C140135  -1.327  27.310 -10.490
    1XTA     C240136  -1.417  27.359 -10.403
    1XTA     C340137  -1.383  27.385 -10.267
    1XTA     C440138  -1.248  27.374 -10.232
    1XTA     C540139  -1.147  27.344 -10.327
    1XTA    CN240140  -1.040  27.156 -10.550
    1XTA     C640141  -1.120  27.040 -10.562
    1XTA     C740142  -1.066  26.912 -10.571
    1XTA     C840143  -0.922  26.901 -10.572
    1XTA     C940144  -0.847  27.020 -10.563
    1XTA    C1040145  -0.899  27.147 -10.543
    1XTA    CN340146  -1.046  27.372 -10.632
    1XTA    C1140147  -1.089  27.388 -10.765
    1XTA    C1240148  -1.030  27.488 -10.842
    1XTA    C1340149  -0.921  27.566 -10.791
    1XTA    C1440150  -0.878  27.554 -10.661
    1XTA    C1540151  -0.939  27.449 -10.582
    1XTA     H140152  -1.360  27.282 -10.588
    1XTA     H240153  -1.520  27.356 -10.430
    1XTA     H340154  -1.217  27.382 -10.130
    1XTA     H440155  -1.037  27.346 -10.310
    1XTA     H540156  -1.229  27.050 -10.555
    1XTA     H640157  -1.134  26.829 -10.578
    1XTA     H740158  -0.734  27.007 -10.560
    1XTA     H840159  -0.845  27.243 -10.541
    1XTA     H940160  -1.164  27.319 -10.802
    1XTA    H1040161  -1.057  27.499 -10.943
    1XTA    H1140162  -0.793  27.606 -10.616
    1XTA    H1240163  -0.926  27.441 -10.470
    1XTA    OA140164  -1.481  27.414 -10.177
    1XTA    CO140165  -1.476  27.369 -10.040
    1XTA    OA240166  -0.850  26.785 -10.568
    1XTA    CO240167  -0.890  26.693 -10.466
    1XTA    CL140168  -0.770  26.603 -10.422
    1XTA    CL240169  -0.808  26.508 -10.313
    1XTA    CL340170  -0.677  26.446 -10.253
    1XTA    CL440171  -0.694  26.379 -10.111
    1XTA    CO340172  -0.560  26.385 -10.032
    1XTA    OA340173  -0.564  26.301  -9.912
    1XTA    CO440174  -0.434  26.282  -9.864
    1XTA    CT140175  -0.438  26.242  -9.718
    1XTA    CL540176  -0.297  26.220  -9.673
    1XTA    CL640177  -0.288  26.178  -9.531
    1XTA    OA440178  -0.875  27.660 -10.878
    1XTA    CO540179  -0.768  27.735 -10.830
    1XTA    HL140180  -0.723  27.803 -10.906
    1XTA    HL240181  -1.477  27.262 -10.041
    1XTA    HL340182  -1.379  27.400  -9.994
    1XTA    HL440183  -1.562  27.420  -9.984
    1XTA    HL540184  -0.912  26.754 -10.374
    1XTA    HL640185  -0.984  26.647 -10.503
    1XTA    HL740186  -0.687  26.663 -10.401
    1XTA    HL840187  -0.735  26.545 -10.503
    1XTA    HL940188  -0.879  26.422 -10.335
    1XTA   HL1040189  -0.864  26.562 -10.236
    1XTA   HL1140190  -0.644  26.370 -10.328
    1XTA   HL1240191  -0.599  26.520 -10.266
    1XTA   HL1340192  -0.713  26.273 -10.128
    1XTA   HL1440193  -0.772  26.430 -10.062
    1XTA   HL1540194  -0.474  26.366 -10.092
    1XTA   HL1640195  -0.534  26.488  -9.999
    1XTA   HL1740196  -0.382  26.211  -9.933
    1XTA   HL1840197  -0.374  26.375  -9.864
    1XTA   HL1940198  -0.242  26.315  -9.679
    1XTA   HL2040199  -0.253  26.149  -9.742
    1XTA   HL2140200  -0.195  26.129  -9.509
    1XTA   HL2240201  -0.362  26.099  -9.514
    1XTA   HL2340202  -0.299  26.254  -9.453
    1XTA   HL2440203  -0.677  27.680 -10.798
    1XTA   HL2540204  -0.800  27.793 -10.745
    1XTA    CO840205  -0.523  26.107  -9.703
    1XTA    CO940206  -0.511  26.344  -9.637
    1XTA    OA640207  -0.469  26.011  -9.717
    1XTA   HL4240208  -0.619  26.120  -9.756
    1XTA   HL4340209  -0.559  26.097  -9.601
    1XTA   HL4840210  -0.644  26.350  -9.681
    1XTA   HL4940211  -0.517  26.304  -9.537
    1XTA     NT40212  -3.741  31.948  -6.286
    1XTA    CN140213  -3.737  32.018  -6.405
    1XTA     C140214  -3.726  32.162  -6.410
    1XTA     C240215  -3.712  32.225  -6.532
    1XTA     C340216  -3.704  32.146  -6.649
    1XTA     C440217  -3.713  32.008  -6.643
    1XTA     C540218  -3.727  31.942  -6.521
    1XTA    CN240219  -3.653  31.853  -6.270
    1XTA     C640220  -3.516  31.877  -6.245
    1XTA     C740221  -3.425  31.775  -6.211
    1XTA     C840222  -3.475  31.642  -6.201
    1XTA     C940223  -3.611  31.613  -6.217
    1XTA    C1040224  -3.696  31.721  -6.256
    1XTA    CN340225  -3.821  31.986  -6.190
    1XTA    C1140226  -3.958  32.010  -6.209
    1XTA    C1240227  -4.047  32.059  -6.110
    1XTA    C1340228  -3.997  32.091  -5.987
    1XTA    C1440229  -3.859  32.068  -5.963
    1XTA    C1540230  -3.769  32.005  -6.059
    1XTA     H140231  -3.727  32.231  -6.330
    1XTA     H240232  -3.719  32.331  -6.540
    1XTA     H340233  -3.701  31.947  -6.728
    1XTA     H440234  -3.721  31.833  -6.525
    1XTA     H540235  -3.492  31.985  -6.245
    1XTA     H640236  -3.318  31.785  -6.208
    1XTA     H740237  -3.655  31.520  -6.191
    1XTA     H840238  -3.803  31.696  -6.267
    1XTA     H940239  -3.996  32.006  -6.305
    1XTA    H1040240  -4.144  32.088  -6.140
    1XTA    H1140241  -3.827  32.084  -5.862
    1XTA    H1240242  -3.666  31.982  -6.031
    1XTA    OA140243  -3.681  32.214  -6.768
    1XTA    CO140244  -3.704  32.145  -6.892
    1XTA    OA240245  -3.386  31.553  -6.146
    1XTA    CO240246  -3.368  31.454  -6.245
    1XTA    CL140247  -3.322  31.327  -6.172
    1XTA    CL240248  -3.310  31.214  -6.275
    1XTA    CL340249  -3.331  31.082  -6.204
    1XTA    CL440250  -3.229  31.052  -6.092
    1XTA    CO340251  -3.279  30.923  -6.021
    1XTA    OA340252  -3.178  30.893  -5.926
    1XTA    CO440253  -3.216  30.765  -5.870
    1XTA    CT140254  -3.135  30.744  -5.742
    1XTA    CL540255  -2.987  30.778  -5.776
    1XTA    CL640256  -2.885  30.762  -5.670
    1XTA    OA440257  -4.081  32.126  -5.886
    1XTA    CO540258  -4.222  32.113  -5.897
    1XTA    HL140259  -4.274  32.195  -5.939
    1XTA    HL240260  -3.677  32.210  -6.978
    1XTA    HL340261  -3.656  32.049  -6.899
    1XTA    HL440262  -3.815  32.120  -6.908
    1XTA    HL540263  -3.457  31.432  -6.306
    1XTA    HL640264  -3.289  31.475  -6.314
    1XTA    HL740265  -3.399  31.293  -6.107
    1XTA    HL840266  -3.229  31.344  -6.112
    1XTA    HL940267  -3.209  31.217  -6.322
    1XTA   HL1040268  -3.382  31.244  -6.353
    1XTA   HL1140269  -3.437  31.083  -6.186
    1XTA   HL1240270  -3.320  31.005  -6.281
    1XTA   HL1340271  -3.220  31.122  -6.009
    1XTA   HL1440272  -3.125  31.037  -6.124
    1XTA   HL1540273  -3.373  30.928  -5.968
    1XTA   HL1640274  -3.290  30.849  -6.102
    1XTA   HL1740275  -3.322  30.775  -5.849
    1XTA   HL1840276  -3.198  30.688  -5.946
    1XTA   HL1940277  -2.989  30.887  -5.802
    1XTA   HL2040278  -2.961  30.716  -5.854
    1XTA   HL2140279  -2.912  30.819  -5.577
    1XTA   HL2240280  -2.790  30.778  -5.694
    1XTA   HL2340281  -2.871  30.665  -5.633
    1XTA   HL2440282  -4.260  32.106  -5.795
    1XTA   HL2540283  -4.256  32.027  -5.949
    1XTA    CO840284  -3.157  30.597  -5.705
    1XTA    CO940285  -3.191  30.820  -5.619
    1XTA    OA640286  -3.298  30.798  -5.608
    1XTA   HL4240287  -3.099  30.571  -5.614
    1XTA   HL4340288  -3.287  30.570  -5.651
    1XTA   HL4840289  -3.164  30.921  -5.616
    1XTA   HL4940290  -3.141  30.771  -5.532
    1XTA     NT40291  -4.343  26.694  -4.343
    1XTA    CN140292  -4.446  26.688  -4.254
    1XTA     C140293  -4.561  26.779  -4.253
    1XTA     C240294  -4.664  26.766  -4.159
    1XTA     C340295  -4.648  26.671  -4.054
    1XTA     C440296  -4.542  26.581  -4.053
    1XTA     C540297  -4.440  26.590  -4.150
    1XTA    CN240298  -4.360  26.652  -4.469
    1XTA     C640299  -4.429  26.733  -4.559
    1XTA     C740300  -4.470  26.672  -4.678
    1XTA     C840301  -4.440  26.541  -4.704
    1XTA     C940302  -4.354  26.461  -4.616
    1XTA    C1040303  -4.315  26.526  -4.495
    1XTA    CN340304  -4.237  26.762  -4.317
    1XTA    C1140305  -4.246  26.903  -4.315
    1XTA    C1240306  -4.125  26.979  -4.300
    1XTA    C1340307  -4.004  26.917  -4.294
    1XTA    C1440308  -3.988  26.778  -4.290
    1XTA    C1540309  -4.114  26.699  -4.295
    1XTA     H140310  -4.551  26.858  -4.321
    1XTA     H240311  -4.756  26.826  -4.158
    1XTA     H340312  -4.539  26.507  -3.981
    1XTA     H440313  -4.358  26.527  -4.150
    1XTA     H540314  -4.464  26.831  -4.535
    1XTA     H640315  -4.519  26.729  -4.752
    1XTA     H740316  -4.329  26.359  -4.628
    1XTA     H840317  -4.267  26.472  -4.414
    1XTA     H940318  -4.339  26.954  -4.333
    1XTA    H1040319  -4.124  27.089  -4.285
    1XTA    H1140320  -3.887  26.735  -4.280
    1XTA    H1240321  -4.115  26.591  -4.280
    1XTA    OA140322  -4.757  26.643  -3.976
    1XTA    CO140323  -4.736  26.543  -3.871
    1XTA    OA240324  -4.472  26.487  -4.828
    1XTA    CO240325  -4.357  26.487  -4.913
    1XTA    CL140326  -4.332  26.614  -4.989
    1XTA    CL240327  -4.448  26.671  -5.071
    1XTA    CL340328  -4.422  26.811  -5.123
    1XTA    CL440329  -4.351  26.909  -5.030
    1XTA    CO340330  -4.383  27.049  -5.077
    1XTA    OA340331  -4.344  27.078  -5.213
    1XTA    CO440332  -4.416  27.191  -5.260
    1XTA    CT140333  -4.376  27.232  -5.408
    1XTA    CL540334  -4.364  27.110  -5.506
    1XTA    CL640335  -4.483  27.009  -5.506
    1XTA    OA440336  -3.891  26.993  -4.306
    1XTA    CO540337  -3.891  27.082  -4.411
    1XTA    HL140338  -3.910  27.024  -4.500
    1XTA    HL240339  -4.657  26.578  -3.805
    1XTA    HL340340  -4.829  26.560  -3.814
    1XTA    HL440341  -4.728  26.448  -3.905
    1XTA    HL540342  -4.262  26.461  -4.859
    1XTA    HL640343  -4.367  26.409  -4.994
    1XTA    HL740344  -4.248  26.588  -5.047
    1XTA    HL840345  -4.291  26.692  -4.927
    1XTA    HL940346  -4.536  26.667  -5.005
    1XTA   HL1040347  -4.480  26.608  -5.153
    1XTA   HL1140348  -4.361  26.810  -5.217
    1XTA   HL1240349  -4.520  26.851  -5.133
    1XTA   HL1340350  -4.247  26.879  -5.019
    1XTA   HL1440351  -4.390  26.907  -4.927
    1XTA   HL1540352  -4.495  27.055  -5.066
    1XTA   HL1640353  -4.348  27.126  -5.010
    1XTA   HL1740354  -4.524  27.166  -5.260
    1XTA   HL1840355  -4.402  27.276  -5.191
    1XTA   HL1940356  -4.275  27.047  -5.475
    1XTA   HL2040357  -4.342  27.139  -5.606
    1XTA   HL2140358  -4.502  26.976  -5.406
    1XTA   HL2240359  -4.458  26.923  -5.568
    1XTA   HL2340360  -4.574  27.044  -5.544
    1XTA   HL2440361  -3.787  27.131  -4.418
    1XTA   HL2540362  -3.965  27.161  -4.394
    1XTA    CO840363  -4.238  27.301  -5.404
    1XTA    CO940364  -4.471  27.347  -5.451
    1XTA    OA640365  -4.488  27.417  -5.367
    1XTA   HL4240366  -4.254  27.385  -5.342
    1XTA   HL4340367  -4.141  27.227  -5.322
    1XTA   HL4840368  -4.561  27.296  -5.488
    1XTA   HL4940369  -4.443  27.397  -5.542
    1XTA     NT40370  -7.749  30.110  -7.722
    1XTA    CN140371  -7.850  30.033  -7.773
    1XTA     C140372  -7.987  30.054  -7.736
    1XTA     C240373  -8.089  29.975  -7.791
    1XTA     C340374  -8.064  29.895  -7.902
    1XTA     C440375  -7.938  29.883  -7.944
    1XTA     C540376  -7.827  29.951  -7.884
    1XTA    CN240377  -7.729  30.243  -7.755
    1XTA     C640378  -7.735  30.287  -7.884
    1XTA     C740379  -7.698  30.420  -7.915
    1XTA     C840380  -7.657  30.510  -7.817
    1XTA     C940381  -7.647  30.461  -7.683
    1XTA    C1040382  -7.687  30.331  -7.655
    1XTA    CN340383  -7.650  30.039  -7.668
    1XTA    C1140384  -7.536  30.008  -7.748
    1XTA    C1240385  -7.445  29.915  -7.708
    1XTA    C1340386  -7.454  29.859  -7.574
    1XTA    C1440387  -7.562  29.896  -7.495
    1XTA    C1540388  -7.659  29.984  -7.543
    1XTA     H140389  -8.010  30.124  -7.663
    1XTA     H240390  -8.190  29.988  -7.753
    1XTA     H340391  -7.909  29.810  -8.019
    1XTA     H440392  -7.729  29.926  -7.914
    1XTA     H540393  -7.754  30.213  -7.963
    1XTA     H640394  -7.698  30.469  -8.010
    1XTA     H740395  -7.611  30.524  -7.600
    1XTA     H840396  -7.686  30.294  -7.556
    1XTA     H940397  -7.537  30.049  -7.846
    1XTA    H1040398  -7.357  29.895  -7.766
    1XTA    H1140399  -7.588  29.843  -7.404
    1XTA    H1240400  -7.747  30.006  -7.483
    1XTA    OA140401  -8.154  29.814  -7.961
    1XTA    CO140402  -8.278  29.871  -7.981
    1XTA    OA240403  -7.605  30.638  -7.832
    1XTA    CO240404  -7.570  30.669  -7.970
    1XTA    CL140405  -7.499  30.800  -8.001
    1XTA    CL240406  -7.462  30.801  -8.147
    1XTA    CL340407  -7.387  30.932  -8.175
    1XTA    CL440408  -7.366  30.943  -8.327
    1XTA    CO340409  -7.341  31.092  -8.350
    1XTA    OA340410  -7.204  31.137  -8.326
    1XTA    CO440411  -7.200  31.280  -8.336
    1XTA    CT140412  -7.165  31.341  -8.201
    1XTA    CL540413  -7.024  31.287  -8.142
    1XTA    CL640414  -7.026  31.140  -8.103
    1XTA    OA440415  -7.355  29.769  -7.526
    1XTA    CO540416  -7.343  29.654  -7.599
    1XTA    HL140417  -7.323  29.670  -7.708
    1XTA    HL240418  -8.331  29.800  -8.042
    1XTA    HL340419  -8.329  29.882  -7.882
    1XTA    HL440420  -8.292  29.952  -8.051
    1XTA    HL540421  -7.509  30.588  -8.000
    1XTA    HL640422  -7.655  30.667  -8.041
    1XTA    HL740423  -7.411  30.814  -7.932
    1XTA    HL840424  -7.563  30.886  -7.972
    1XTA    HL940425  -7.556  30.794  -8.215
    1XTA   HL1040426  -7.385  30.725  -8.171
    1XTA   HL1140427  -7.459  31.018  -8.158
    1XTA   HL1240428  -7.298  30.944  -8.114
    1XTA   HL1340429  -7.444  30.903  -8.392
    1XTA   HL1440430  -7.272  30.889  -8.343
    1XTA   HL1540431  -7.362  31.117  -8.452
    1XTA   HL1640432  -7.409  31.159  -8.290
    1XTA   HL1740433  -7.131  31.313  -8.407
    1XTA   HL1840434  -7.299  31.315  -8.367
    1XTA   HL1940435  -7.008  31.348  -8.052
    1XTA   HL2040436  -6.944  31.290  -8.213
    1XTA   HL2140437  -6.936  31.103  -8.041
    1XTA   HL2240438  -7.023  31.073  -8.195
    1XTA   HL2340439  -7.108  31.112  -8.039
    1XTA   HL2440440  -7.435  29.600  -7.585
    1XTA   HL2540441  -7.268  29.589  -7.549
    1XTA    CO840442  -7.279  31.321  -8.101
    1XTA    CO940443  -7.144  31.488  -8.222
    1XTA    OA640444  -7.102  31.564  -8.151
    1XTA   HL4240445  -7.289  31.209  -8.083
    1XTA   HL4340446  -7.241  31.385  -7.983
    1XTA   HL4840447  -7.241  31.533  -8.253
    1XTA   HL4940448  -7.077  31.492  -8.303
    1XTA   HL5040449  -5.044  29.504 -12.003
    1XTA   HL5040450  -5.918  26.279  -5.389
    1XTA   HL5040451  -7.574  28.974  -7.479
    1XTA   HL5040452  -5.582  26.106  -8.817
    1XTA   HL5040453  -5.633  24.623  -7.131
    1XTA   HL5040454  -5.888  25.993  -5.470
    1XTA   HL5040455  -2.020  30.831 -11.075
    1XTA   HL5040456  -5.882  27.765  -5.593
    1XTA   HL5040457  -5.990  28.505  -5.638
    1XTA   HL5040458  -7.604  28.394  -8.132
    1XTA   HL5040459  -5.388  30.068  -8.239
    1XTA   HL5040460  -6.357  27.932  -5.221
    1XTA   HL5040461  -6.011  24.637  -6.839
    1XTA   HL5040462  -1.976  27.461 -10.830
    1XTA   HL5040463  -5.447  25.661  -8.193
    1XTA   HL5040464  -2.067  30.933 -11.390
    1XTA   HL5040465  -3.059  23.899 -11.524
    1XTA   HL5040466  -1.947  30.333 -11.599
    1XTA   HL5040467  -2.353  28.716  -8.166
    1XTA   HL5040468  -5.555  25.957  -8.593
    1XTA   HL5040469  -2.481  28.803  -7.814
    1XTA   HL5040470  -5.340  29.667  -7.934
    1XTA   HL5040471  -2.126  31.065 -11.006
    1XTA   HL5040472  -3.578  25.129  -6.902
    1XTA   HL5040473  -5.393  29.692  -4.718
    2PF6     PT40474  -2.849  29.832  -6.168
    2PF6     F140475  -2.977  29.759  -6.105
    2PF6     F240476  -2.760  29.695  -6.146
    2PF6     F340477  -2.937  29.959  -6.216
    2PF6     F440478  -2.710  29.902  -6.215
    2PF6     F540479  -2.807  29.883  -6.019
    2PF6     F640480  -2.898  29.773  -6.303
   7.44785   7.44785   7.44785   0.00000   0.00000   0.00000   0.00000   0.00000   0.00000
